<?xml version="1.0" encoding="ISO-8859-1"?>
<modeling>
 <generator>
  <i name="program" type="string">vasp </i>
  <i name="version" type="string">5.4.4.18Apr17-6-g9f103f2a35  </i>
  <i name="subversion" type="string">(build May 18 2018 14:42:58) complex            parallel </i>
  <i name="platform" type="string">LinuxIFC </i>
  <i name="date" type="string">2020 06 30 </i>
  <i name="time" type="string">13:40:59 </i>
 </generator>
 <incar>
  <i type="string" name="SYSTEM"> fcc Au</i>
  <i type="string" name="PREC">normal</i>
  <v name="RWIGS">      1.50300000</v>
  <v type="int" name="KPOINT_BSE">    -1     0     0     0</v>
 </incar>
 <structure name="primitive_cell" >
  <crystal>
   <varray name="basis" >
    <v>       0.00000000       2.05000000       2.05000000 </v>
    <v>       2.05000000       0.00000000       2.05000000 </v>
    <v>       2.05000000       2.05000000       0.00000000 </v>
   </varray>
   <i name="volume">     17.23025000 </i>
   <varray name="rec_basis" >
    <v>      -0.24390244       0.24390244       0.24390244 </v>
    <v>       0.24390244      -0.24390244       0.24390244 </v>
    <v>       0.24390244       0.24390244      -0.24390244 </v>
   </varray>
  </crystal>
  <varray name="positions" >
   <v>       0.00000000       0.00000000       0.00000000 </v>
  </varray>
 </structure>
 <varray name="primitive_index" >
  <v type="int" >        1 </v>
 </varray>
 <kpoints>
  <generation param="Monkhorst-Pack">
   <v type="int" name="divisions">      10       10       10 </v>
   <v name="usershift">      0.00000000       0.00000000       0.00000000 </v>
   <v name="genvec1">      0.10000000       0.00000000       0.00000000 </v>
   <v name="genvec2">      0.00000000       0.10000000       0.00000000 </v>
   <v name="genvec3">      0.00000000       0.00000000       0.10000000 </v>
   <v name="shift">      0.50000000       0.50000000       0.50000000 </v>
  </generation>
  <varray name="kpointlist" >
   <v>       0.05000000       0.05000000       0.05000000 </v>
   <v>       0.15000000       0.05000000       0.05000000 </v>
   <v>       0.25000000       0.05000000       0.05000000 </v>
   <v>       0.35000000       0.05000000       0.05000000 </v>
   <v>       0.45000000       0.05000000       0.05000000 </v>
   <v>      -0.45000000       0.05000000       0.05000000 </v>
   <v>      -0.35000000       0.05000000       0.05000000 </v>
   <v>      -0.25000000       0.05000000       0.05000000 </v>
   <v>      -0.15000000       0.05000000       0.05000000 </v>
   <v>      -0.05000000       0.05000000       0.05000000 </v>
   <v>       0.15000000       0.15000000       0.05000000 </v>
   <v>       0.25000000       0.15000000       0.05000000 </v>
   <v>       0.35000000       0.15000000       0.05000000 </v>
   <v>       0.45000000       0.15000000       0.05000000 </v>
   <v>      -0.45000000       0.15000000       0.05000000 </v>
   <v>      -0.35000000       0.15000000       0.05000000 </v>
   <v>      -0.25000000       0.15000000       0.05000000 </v>
   <v>      -0.15000000       0.15000000       0.05000000 </v>
   <v>      -0.05000000       0.15000000       0.05000000 </v>
   <v>       0.25000000       0.25000000       0.05000000 </v>
   <v>       0.35000000       0.25000000       0.05000000 </v>
   <v>       0.45000000       0.25000000       0.05000000 </v>
   <v>      -0.45000000       0.25000000       0.05000000 </v>
   <v>      -0.35000000       0.25000000       0.05000000 </v>
   <v>      -0.25000000       0.25000000       0.05000000 </v>
   <v>      -0.15000000       0.25000000       0.05000000 </v>
   <v>      -0.05000000       0.25000000       0.05000000 </v>
   <v>       0.35000000       0.35000000       0.05000000 </v>
   <v>       0.45000000       0.35000000       0.05000000 </v>
   <v>      -0.45000000       0.35000000       0.05000000 </v>
   <v>      -0.35000000       0.35000000       0.05000000 </v>
   <v>      -0.25000000       0.35000000       0.05000000 </v>
   <v>      -0.15000000       0.35000000       0.05000000 </v>
   <v>      -0.05000000       0.35000000       0.05000000 </v>
   <v>       0.45000000       0.45000000       0.05000000 </v>
   <v>      -0.45000000       0.45000000       0.05000000 </v>
   <v>      -0.35000000       0.45000000       0.05000000 </v>
   <v>      -0.25000000       0.45000000       0.05000000 </v>
   <v>      -0.15000000       0.45000000       0.05000000 </v>
   <v>      -0.05000000       0.45000000       0.05000000 </v>
   <v>      -0.45000000      -0.45000000       0.05000000 </v>
   <v>      -0.35000000      -0.45000000       0.05000000 </v>
   <v>      -0.25000000      -0.45000000       0.05000000 </v>
   <v>      -0.15000000      -0.45000000       0.05000000 </v>
   <v>      -0.35000000      -0.35000000       0.05000000 </v>
   <v>      -0.25000000      -0.35000000       0.05000000 </v>
   <v>      -0.15000000      -0.35000000       0.05000000 </v>
   <v>      -0.25000000      -0.25000000       0.05000000 </v>
   <v>      -0.15000000      -0.25000000       0.05000000 </v>
   <v>      -0.15000000      -0.15000000       0.05000000 </v>
   <v>       0.15000000       0.15000000       0.15000000 </v>
   <v>       0.25000000       0.15000000       0.15000000 </v>
   <v>       0.35000000       0.15000000       0.15000000 </v>
   <v>       0.45000000       0.15000000       0.15000000 </v>
   <v>      -0.45000000       0.15000000       0.15000000 </v>
   <v>      -0.35000000       0.15000000       0.15000000 </v>
   <v>      -0.25000000       0.15000000       0.15000000 </v>
   <v>      -0.15000000       0.15000000       0.15000000 </v>
   <v>       0.25000000       0.25000000       0.15000000 </v>
   <v>       0.35000000       0.25000000       0.15000000 </v>
   <v>       0.45000000       0.25000000       0.15000000 </v>
   <v>      -0.45000000       0.25000000       0.15000000 </v>
   <v>      -0.35000000       0.25000000       0.15000000 </v>
   <v>      -0.25000000       0.25000000       0.15000000 </v>
   <v>      -0.15000000       0.25000000       0.15000000 </v>
   <v>       0.35000000       0.35000000       0.15000000 </v>
   <v>       0.45000000       0.35000000       0.15000000 </v>
   <v>      -0.45000000       0.35000000       0.15000000 </v>
   <v>      -0.35000000       0.35000000       0.15000000 </v>
   <v>      -0.25000000       0.35000000       0.15000000 </v>
   <v>      -0.15000000       0.35000000       0.15000000 </v>
   <v>       0.45000000       0.45000000       0.15000000 </v>
   <v>      -0.45000000       0.45000000       0.15000000 </v>
   <v>      -0.35000000       0.45000000       0.15000000 </v>
   <v>      -0.25000000       0.45000000       0.15000000 </v>
   <v>      -0.15000000       0.45000000       0.15000000 </v>
   <v>      -0.45000000      -0.45000000       0.15000000 </v>
   <v>      -0.35000000      -0.45000000       0.15000000 </v>
   <v>      -0.25000000      -0.45000000       0.15000000 </v>
   <v>      -0.35000000      -0.35000000       0.15000000 </v>
   <v>      -0.25000000      -0.35000000       0.15000000 </v>
   <v>      -0.25000000      -0.25000000       0.15000000 </v>
   <v>       0.25000000       0.25000000       0.25000000 </v>
   <v>       0.35000000       0.25000000       0.25000000 </v>
   <v>       0.45000000       0.25000000       0.25000000 </v>
   <v>      -0.45000000       0.25000000       0.25000000 </v>
   <v>      -0.35000000       0.25000000       0.25000000 </v>
   <v>      -0.25000000       0.25000000       0.25000000 </v>
   <v>       0.35000000       0.35000000       0.25000000 </v>
   <v>       0.45000000       0.35000000       0.25000000 </v>
   <v>      -0.45000000       0.35000000       0.25000000 </v>
   <v>      -0.35000000       0.35000000       0.25000000 </v>
   <v>      -0.25000000       0.35000000       0.25000000 </v>
   <v>       0.45000000       0.45000000       0.25000000 </v>
   <v>      -0.45000000       0.45000000       0.25000000 </v>
   <v>      -0.35000000       0.45000000       0.25000000 </v>
   <v>      -0.25000000       0.45000000       0.25000000 </v>
   <v>      -0.45000000      -0.45000000       0.25000000 </v>
   <v>      -0.35000000      -0.45000000       0.25000000 </v>
   <v>      -0.35000000      -0.35000000       0.25000000 </v>
   <v>       0.35000000       0.35000000       0.35000000 </v>
   <v>       0.45000000       0.35000000       0.35000000 </v>
   <v>      -0.45000000       0.35000000       0.35000000 </v>
   <v>      -0.35000000       0.35000000       0.35000000 </v>
   <v>       0.45000000       0.45000000       0.35000000 </v>
   <v>      -0.45000000       0.45000000       0.35000000 </v>
   <v>      -0.35000000       0.45000000       0.35000000 </v>
   <v>      -0.45000000      -0.45000000       0.35000000 </v>
   <v>       0.45000000       0.45000000       0.45000000 </v>
   <v>      -0.45000000       0.45000000       0.45000000 </v>
  </varray>
  <varray name="weights" >
   <v>       0.00200000 </v>
   <v>       0.00600000 </v>
   <v>       0.00600000 </v>
   <v>       0.00600000 </v>
   <v>       0.00600000 </v>
   <v>       0.00600000 </v>
   <v>       0.00600000 </v>
   <v>       0.00600000 </v>
   <v>       0.00600000 </v>
   <v>       0.00600000 </v>
   <v>       0.00600000 </v>
   <v>       0.01200000 </v>
   <v>       0.01200000 </v>
   <v>       0.01200000 </v>
   <v>       0.01200000 </v>
   <v>       0.01200000 </v>
   <v>       0.01200000 </v>
   <v>       0.01200000 </v>
   <v>       0.01200000 </v>
   <v>       0.00600000 </v>
   <v>       0.01200000 </v>
   <v>       0.01200000 </v>
   <v>       0.01200000 </v>
   <v>       0.01200000 </v>
   <v>       0.01200000 </v>
   <v>       0.01200000 </v>
   <v>       0.01200000 </v>
   <v>       0.00600000 </v>
   <v>       0.01200000 </v>
   <v>       0.01200000 </v>
   <v>       0.01200000 </v>
   <v>       0.01200000 </v>
   <v>       0.01200000 </v>
   <v>       0.01200000 </v>
   <v>       0.00600000 </v>
   <v>       0.01200000 </v>
   <v>       0.01200000 </v>
   <v>       0.01200000 </v>
   <v>       0.01200000 </v>
   <v>       0.01200000 </v>
   <v>       0.00600000 </v>
   <v>       0.01200000 </v>
   <v>       0.01200000 </v>
   <v>       0.01200000 </v>
   <v>       0.00600000 </v>
   <v>       0.01200000 </v>
   <v>       0.01200000 </v>
   <v>       0.00600000 </v>
   <v>       0.01200000 </v>
   <v>       0.00600000 </v>
   <v>       0.00200000 </v>
   <v>       0.00600000 </v>
   <v>       0.00600000 </v>
   <v>       0.00600000 </v>
   <v>       0.00600000 </v>
   <v>       0.00600000 </v>
   <v>       0.00600000 </v>
   <v>       0.00600000 </v>
   <v>       0.00600000 </v>
   <v>       0.01200000 </v>
   <v>       0.01200000 </v>
   <v>       0.01200000 </v>
   <v>       0.01200000 </v>
   <v>       0.01200000 </v>
   <v>       0.01200000 </v>
   <v>       0.00600000 </v>
   <v>       0.01200000 </v>
   <v>       0.01200000 </v>
   <v>       0.01200000 </v>
   <v>       0.01200000 </v>
   <v>       0.01200000 </v>
   <v>       0.00600000 </v>
   <v>       0.01200000 </v>
   <v>       0.01200000 </v>
   <v>       0.01200000 </v>
   <v>       0.01200000 </v>
   <v>       0.00600000 </v>
   <v>       0.01200000 </v>
   <v>       0.01200000 </v>
   <v>       0.00600000 </v>
   <v>       0.01200000 </v>
   <v>       0.00600000 </v>
   <v>       0.00200000 </v>
   <v>       0.00600000 </v>
   <v>       0.00600000 </v>
   <v>       0.00600000 </v>
   <v>       0.00600000 </v>
   <v>       0.00600000 </v>
   <v>       0.00600000 </v>
   <v>       0.01200000 </v>
   <v>       0.01200000 </v>
   <v>       0.01200000 </v>
   <v>       0.01200000 </v>
   <v>       0.00600000 </v>
   <v>       0.01200000 </v>
   <v>       0.01200000 </v>
   <v>       0.01200000 </v>
   <v>       0.00600000 </v>
   <v>       0.01200000 </v>
   <v>       0.00600000 </v>
   <v>       0.00200000 </v>
   <v>       0.00600000 </v>
   <v>       0.00600000 </v>
   <v>       0.00600000 </v>
   <v>       0.00600000 </v>
   <v>       0.01200000 </v>
   <v>       0.01200000 </v>
   <v>       0.00600000 </v>
   <v>       0.00200000 </v>
   <v>       0.00600000 </v>
  </varray>
 </kpoints>
 <parameters>
  <separator name="general" >
   <i type="string" name="SYSTEM">fcc Au</i>
   <i type="logical" name="LCOMPAT"> F  </i>
  </separator>
  <separator name="electronic" >
   <i type="string" name="PREC">normal</i>
   <i name="ENMAX">    229.86900000</i>
   <i name="ENAUG">    356.67000000</i>
   <i name="EDIFF">      0.00010000</i>
   <i type="int" name="IALGO">    38</i>
   <i type="int" name="IWAVPR">    10</i>
   <i type="int" name="NBANDS">    12</i>
   <i name="NELECT">     11.00000000</i>
   <i type="int" name="TURBO">     0</i>
   <i type="int" name="IRESTART">     0</i>
   <i type="int" name="NREBOOT">     0</i>
   <i type="int" name="NMIN">     0</i>
   <i name="EREF">      0.00000000</i>
   <separator name="electronic smearing" >
    <i type="int" name="ISMEAR">     1</i>
    <i name="SIGMA">      0.20000000</i>
    <i name="KSPACING">      0.50000000</i>
    <i type="logical" name="KGAMMA"> T  </i>
   </separator>
   <separator name="electronic projectors" >
    <i type="logical" name="LREAL"> F  </i>
    <v name="ROPT">      0.00000000</v>
    <i type="int" name="LMAXPAW">  -100</i>
    <i type="int" name="LMAXMIX">     2</i>
    <i type="logical" name="NLSPLINE"> F  </i>
   </separator>
   <separator name="electronic startup" >
    <i type="int" name="ISTART">     0</i>
    <i type="int" name="ICHARG">     2</i>
    <i type="int" name="INIWAV">     1</i>
   </separator>
   <separator name="electronic spin" >
    <i type="int" name="ISPIN">     1</i>
    <i type="logical" name="LNONCOLLINEAR"> F  </i>
    <v name="MAGMOM">      1.00000000</v>
    <i name="NUPDOWN">     -1.00000000</i>
    <i type="logical" name="LSORBIT"> F  </i>
    <v name="SAXIS">      0.00000000      0.00000000      1.00000000</v>
    <i type="logical" name="LSPIRAL"> F  </i>
    <v name="QSPIRAL">      0.00000000      0.00000000      0.00000000</v>
    <i type="logical" name="LZEROZ"> F  </i>
   </separator>
   <separator name="electronic exchange-correlation" >
    <i type="logical" name="LASPH"> F  </i>
    <i type="logical" name="LMETAGGA"> F  </i>
   </separator>
   <separator name="electronic convergence" >
    <i type="int" name="NELM">    60</i>
    <i type="int" name="NELMDL">    -5</i>
    <i type="int" name="NELMIN">     2</i>
    <i name="ENINI">    229.86900000</i>
    <separator name="electronic convergence detail" >
     <i type="logical" name="LDIAG"> T  </i>
     <i type="logical" name="LSUBROT"> F  </i>
     <i name="WEIMIN">      0.00000000</i>
     <i name="EBREAK">      0.00000208</i>
     <i name="DEPER">      0.30000000</i>
     <i type="int" name="NRMM">     4</i>
     <i name="TIME">      0.40000000</i>
    </separator>
   </separator>
   <separator name="electronic mixer" >
    <i name="AMIX">      0.40000000</i>
    <i name="BMIX">      1.00000000</i>
    <i name="AMIN">      0.10000000</i>
    <i name="AMIX_MAG">      1.60000000</i>
    <i name="BMIX_MAG">      1.00000000</i>
    <separator name="electronic mixer details" >
     <i type="int" name="IMIX">     4</i>
     <i type="logical" name="MIXFIRST"> F  </i>
     <i type="int" name="MAXMIX">   -45</i>
     <i name="WC">    100.00000000</i>
     <i type="int" name="INIMIX">     1</i>
     <i type="int" name="MIXPRE">     1</i>
     <i type="int" name="MREMOVE">     5</i>
    </separator>
   </separator>
   <separator name="electronic dipolcorrection" >
    <i type="logical" name="LDIPOL"> F  </i>
    <i type="logical" name="LMONO"> F  </i>
    <i type="int" name="IDIPOL">     0</i>
    <i name="EPSILON">      1.00000000</i>
    <v name="DIPOL">   -100.00000000   -100.00000000   -100.00000000</v>
    <i name="EFIELD">      0.00000000</i>
   </separator>
  </separator>
  <separator name="grids" >
   <i type="int" name="NGX">    12</i>
   <i type="int" name="NGY">    12</i>
   <i type="int" name="NGZ">    12</i>
   <i type="int" name="NGXF">    24</i>
   <i type="int" name="NGYF">    24</i>
   <i type="int" name="NGZF">    24</i>
   <i type="logical" name="ADDGRID"> F  </i>
  </separator>
  <separator name="ionic" >
   <i type="int" name="NSW">     0</i>
   <i type="int" name="IBRION">    -1</i>
   <i type="int" name="MDALGO">     0</i>
   <i type="int" name="ISIF">     2</i>
   <i name="PSTRESS">      0.00000000</i>
   <i name="EDIFFG">      0.00100000</i>
   <i type="int" name="NFREE">     0</i>
   <i name="POTIM">      0.50000000</i>
   <i name="SMASS">     -3.00000000</i>
   <i name="SCALEE">      1.00000000</i>
  </separator>
  <separator name="ionic md" >
   <i name="TEBEG">      0.00010000</i>
   <i name="TEEND">      0.00010000</i>
   <i type="int" name="NBLOCK">     1</i>
   <i type="int" name="KBLOCK">     1</i>
   <i type="int" name="NPACO">   256</i>
   <i name="APACO">     16.00000000</i>
  </separator>
  <separator name="symmetry" >
   <i type="int" name="ISYM">     2</i>
   <i name="SYMPREC">      0.00001000</i>
  </separator>
  <separator name="dos" >
   <i type="int" name="LORBIT">     0</i>
   <v name="RWIGS">      1.50300000</v>
   <i type="int" name="NEDOS">   301</i>
   <i name="EMIN">     10.00000000</i>
   <i name="EMAX">    -10.00000000</i>
   <i name="EFERMI">      0.00000000</i>
  </separator>
  <separator name="writing" >
   <i type="int" name="NWRITE">     2</i>
   <i type="logical" name="LWAVE"> T  </i>
   <i type="logical" name="LDOWNSAMPLE"> F  </i>
   <i type="logical" name="LCHARG"> T  </i>
   <i type="logical" name="LPARD"> F  </i>
   <i type="logical" name="LVTOT"> F  </i>
   <i type="logical" name="LVHAR"> F  </i>
   <i type="logical" name="LELF"> F  </i>
   <i type="logical" name="LOPTICS"> F  </i>
   <v name="STM">      0.00000000      0.00000000      0.00000000      0.00000000      0.00000000      0.00000000      0.00000000</v>
  </separator>
  <separator name="performance" >
   <i type="int" name="NPAR">     4</i>
   <i type="int" name="NSIM">     4</i>
   <i type="int" name="NBLK">    -1</i>
   <i type="logical" name="LPLANE"> T  </i>
   <i type="logical" name="LSCALAPACK"> T  </i>
   <i type="logical" name="LSCAAWARE"> F  </i>
   <i type="logical" name="LSCALU"> F  </i>
   <i type="logical" name="LASYNC"> F  </i>
   <i type="logical" name="LORBITALREAL"> F  </i>
  </separator>
  <separator name="miscellaneous" >
   <i type="int" name="IDIOT">     3</i>
   <i type="int" name="ISPECIAL">     0</i>
   <i type="logical" name="LMUSIC"> F  </i>
   <v name="POMASS">    196.96600000</v>
   <v name="DARWINR">      0.00000000</v>
   <v name="DARWINV">      1.00000000</v>
   <i type="logical" name="LCORR"> T  </i>
  </separator>
  <i type="logical" name="GGA_COMPAT"> T  </i>
  <i type="logical" name="LBERRY"> F  </i>
  <i type="int" name="ICORELEVEL">     0</i>
  <i type="logical" name="LDAU"> F  </i>
  <i type="int" name="I_CONSTRAINED_M">     0</i>
  <separator name="electronic exchange-correlation" >
   <i type="string" name="GGA">--</i>
   <i type="int" name="VOSKOWN">     0</i>
   <i type="logical" name="LHFCALC"> F  </i>
   <i type="string" name="PRECFOCK"></i>
   <i type="logical" name="LSYMGRAD"> F  </i>
   <i type="logical" name="LHFONE"> F  </i>
   <i type="logical" name="LRHFCALC"> F  </i>
   <i type="logical" name="LTHOMAS"> F  </i>
   <i type="logical" name="LMODELHF"> F  </i>
   <i name="ENCUT4O">     -1.00000000</i>
   <i type="int" name="EXXOEP">     0</i>
   <i type="int" name="FOURORBIT">     0</i>
   <i name="AEXX">      0.00000000</i>
   <i name="HFALPHA">      0.00000000</i>
   <i name="MCALPHA">      0.00000000</i>
   <i name="ALDAX">      1.00000000</i>
   <i name="AGGAX">      1.00000000</i>
   <i name="ALDAC">      1.00000000</i>
   <i name="AGGAC">      1.00000000</i>
   <i type="int" name="NKREDX">     1</i>
   <i type="int" name="NKREDY">     1</i>
   <i type="int" name="NKREDZ">     1</i>
   <i type="logical" name="SHIFTRED"> F  </i>
   <i type="logical" name="ODDONLY"> F  </i>
   <i type="logical" name="EVENONLY"> F  </i>
   <i type="int" name="LMAXFOCK">     0</i>
   <i type="int" name="NMAXFOCKAE">     0</i>
   <i type="logical" name="LFOCKAEDFT"> F  </i>
   <i name="HFSCREEN">      0.00000000</i>
   <i name="HFSCREENC">      0.00000000</i>
   <i type="int" name="NBANDSGWLOW">     0</i>
  </separator>
  <separator name="vdW DFT" >
   <i type="logical" name="LUSE_VDW"> F  </i>
   <i name="Zab_VDW">     -0.84910000</i>
   <i name="PARAM1">      0.12340000</i>
   <i name="PARAM2">      1.00000000</i>
   <i name="PARAM3">      0.00000000</i>
  </separator>
  <separator name="model GW" >
   <i type="int" name="MODEL_GW">     0</i>
   <i name="MODEL_EPS0">     10.33815000</i>
   <i name="MODEL_ALPHA">      1.00000000</i>
  </separator>
  <separator name="linear response parameters" >
   <i type="logical" name="LEPSILON"> F  </i>
   <i type="logical" name="LRPA"> F  </i>
   <i type="logical" name="LNABLA"> F  </i>
   <i type="logical" name="LVEL"> F  </i>
   <i type="int" name="KINTER">     0</i>
   <i name="CSHIFT">      0.10000000</i>
   <i name="OMEGAMAX">     -1.00000000</i>
   <i name="DEG_THRESHOLD">      0.00200000</i>
   <i name="RTIME">     -0.10000000</i>
   <i name="WPLASMAI">      0.00000000</i>
   <v name="DFIELD">      0.00000000      0.00000000      0.00000000</v>
   <v name="WPLASMA">      0.00000000      0.00000000      0.00000000      0.00000000      0.00000000      0.00000000      0.00000000      0.00000000      0.00000000</v>
  </separator>
  <separator name="orbital magnetization" >
   <i type="logical" name="NUCIND"> F  </i>
   <v name="MAGPOS">      0.00000000      0.00000000      0.00000000</v>
   <i type="logical" name="LNICSALL"> T  </i>
   <i type="logical" name="ORBITALMAG"> F  </i>
   <i type="logical" name="LMAGBLOCH"> F  </i>
   <i type="logical" name="LCHIMAG"> F  </i>
   <i type="logical" name="LGAUGE"> T  </i>
   <i type="int" name="MAGATOM">     0</i>
   <v name="MAGDIPOL">      0.00000000      0.00000000      0.00000000</v>
   <v name="AVECCONST">      0.00000000      0.00000000      0.00000000</v>
  </separator>
  <separator name="response functions" >
   <i type="logical" name="LADDER"> F  </i>
   <i type="logical" name="LRPAFORCE"> F  </i>
   <i type="logical" name="LFXC"> F  </i>
   <i type="logical" name="LHARTREE"> T  </i>
   <i type="int" name="IBSE">     0</i>
   <v type="int" name="KPOINT">    -1     0     0     0</v>
   <i type="logical" name="LTCTE"> F  </i>
   <i type="logical" name="LTETE"> F  </i>
   <i type="logical" name="LTRIPLET"> F  </i>
   <i type="logical" name="LFXCEPS"> F  </i>
   <i type="logical" name="LFXHEG"> F  </i>
   <i type="int" name="NATURALO">     2</i>
   <i type="logical" name="L2ORDER"> F  </i>
   <i type="logical" name="LMP2LT"> F  </i>
   <i type="logical" name="LUSEW"> F  </i>
   <i name="ENCUTGW">     -2.00000000</i>
   <i name="ENCUTGWSOFT">     -2.00000000</i>
   <i name="ENCUTLF">     -1.00000000</i>
   <i type="int" name="LMAXMP2">    -1</i>
   <i name="SCISSOR">      0.00000000</i>
   <i type="int" name="NOMEGA">     0</i>
   <i type="int" name="NOMEGAR">     0</i>
   <i type="int" name="NBANDSGW">    -1</i>
   <i type="int" name="NBANDSO">    -1</i>
   <i type="int" name="NBANDSV">    -1</i>
   <i type="int" name="NELM">     1</i>
   <i type="int" name="NELMHF">     1</i>
   <i type="int" name="DIM">     3</i>
   <i type="int" name="ANTIRES">     0</i>
   <i name="OMEGAMAX">    -30.00000000</i>
   <i name="OMEGAMIN">    -30.00000000</i>
   <i name="OMEGATL">   -200.00000000</i>
   <i type="int" name="OMEGAGRID">   140</i>
   <i name="CSHIFT">     -0.10000000</i>
   <i type="logical" name="SELFENERGY"> F  </i>
   <i type="logical" name="LSPECTRAL"> F  </i>
   <i type="logical" name="LSPECTRALGW"> F  </i>
   <i type="logical" name="LSINGLES"> F  </i>
   <i type="logical" name="LFERMIGW"> F  </i>
   <i type="logical" name="ODDONLYGW"> F  </i>
   <i type="logical" name="EVENONLYGW"> F  </i>
   <i type="int" name="NKREDLFX">     1</i>
   <i type="int" name="NKREDLFY">     1</i>
   <i type="int" name="NKREDLFZ">     1</i>
   <i type="int" name="MAXMEM">  2800</i>
   <i type="int" name="TELESCOPE">     0</i>
   <i type="int" name="TAUPAR">     1</i>
   <i type="int" name="OMEGAPAR">    -1</i>
   <i name="LAMBDA">      1.00000000</i>
  </separator>
  <separator name="External order field" >
   <i name="OFIELD_KAPPA">      0.00000000</i>
   <v name="OFIELD_K">      0.00000000      0.00000000      0.00000000</v>
   <i name="OFIELD_Q6_NEAR">      0.00000000</i>
   <i name="OFIELD_Q6_FAR">      0.00000000</i>
   <i name="OFIELD_A">      0.00000000</i>
  </separator>
 </parameters>
 <atominfo>
  <atoms>       1 </atoms>
  <types>       1 </types>
  <array name="atoms" >
   <dimension dim="1">ion</dimension>
   <field type="string">element</field>
   <field type="int">atomtype</field>
   <set>
    <rc><c>Au</c><c>   1</c></rc>
   </set>
  </array>
  <array name="atomtypes" >
   <dimension dim="1">type</dimension>
   <field type="int">atomspertype</field>
   <field type="string">element</field>
   <field>mass</field>
   <field>valence</field>
   <field type="string">pseudopotential</field>
   <set>
    <rc><c>   1</c><c>Au</c><c>    196.96600000</c><c>     11.00000000</c><c> PAW Au 04Feb1998                       </c></rc>
   </set>
  </array>
 </atominfo>
 <structure name="initialpos" >
  <crystal>
   <varray name="basis" >
    <v>       0.00000000       2.05000000       2.05000000 </v>
    <v>       2.05000000       0.00000000       2.05000000 </v>
    <v>       2.05000000       2.05000000       0.00000000 </v>
   </varray>
   <i name="volume">     17.23025000 </i>
   <varray name="rec_basis" >
    <v>      -0.24390244       0.24390244       0.24390244 </v>
    <v>       0.24390244      -0.24390244       0.24390244 </v>
    <v>       0.24390244       0.24390244      -0.24390244 </v>
   </varray>
  </crystal>
  <varray name="positions" >
   <v>       0.00000000       0.00000000       0.00000000 </v>
  </varray>
 </structure>
 <calculation>
  <scstep>
   <time name="dav">    0.27    0.27</time>
   <time name="total">    0.27    0.28</time>
   <energy>
    <i name="alphaZ">    106.66585453 </i>
    <i name="ewald">   -974.21287850 </i>
    <i name="hartreedc">   -124.29355371 </i>
    <i name="XCdc">     16.27378209 </i>
    <i name="pawpsdc">    746.10209728 </i>
    <i name="pawaedc">   -725.46159323 </i>
    <i name="eentropy">     -0.00119725 </i>
    <i name="bandstr">     55.13076932 </i>
    <i name="atom">    929.39614979 </i>
    <i name="e_fr_energy">     29.59943032 </i>
    <i name="e_wo_entrp">     29.60062758 </i>
    <i name="e_0_energy">     29.59982941 </i>
   </energy>
  </scstep>
  <scstep>
   <time name="dav">    0.24    0.24</time>
   <time name="total">    0.24    0.24</time>
   <energy>
    <i name="e_fr_energy">     -4.38984336 </i>
    <i name="e_wo_entrp">     -4.38935453 </i>
    <i name="e_0_energy">     -4.38968042 </i>
   </energy>
  </scstep>
  <scstep>
   <time name="dav">    0.21    0.22</time>
   <time name="total">    0.22    0.22</time>
   <energy>
    <i name="e_fr_energy">     -4.70855057 </i>
    <i name="e_wo_entrp">     -4.70813070 </i>
    <i name="e_0_energy">     -4.70841061 </i>
   </energy>
  </scstep>
  <scstep>
   <time name="dav">    0.22    0.22</time>
   <time name="total">    0.22    0.22</time>
   <energy>
    <i name="e_fr_energy">     -4.70937237 </i>
    <i name="e_wo_entrp">     -4.70895289 </i>
    <i name="e_0_energy">     -4.70923255 </i>
   </energy>
  </scstep>
  <scstep>
   <time name="dav">    0.21    0.21</time>
   <time name="total">    0.21    0.22</time>
   <energy>
    <i name="e_fr_energy">     -4.70937801 </i>
    <i name="e_wo_entrp">     -4.70895853 </i>
    <i name="e_0_energy">     -4.70923819 </i>
   </energy>
  </scstep>
  <scstep>
   <time name="dav">    0.23    0.24</time>
   <time name="total">    0.24    0.25</time>
   <energy>
    <i name="e_fr_energy">     -4.41251930 </i>
    <i name="e_wo_entrp">     -4.41341116 </i>
    <i name="e_0_energy">     -4.41281659 </i>
   </energy>
  </scstep>
  <scstep>
   <time name="dav">    0.21    0.22</time>
   <time name="total">    0.22    0.23</time>
   <energy>
    <i name="e_fr_energy">     -4.38999129 </i>
    <i name="e_wo_entrp">     -4.39087325 </i>
    <i name="e_0_energy">     -4.39028528 </i>
   </energy>
  </scstep>
  <scstep>
   <time name="dav">    0.22    0.23</time>
   <time name="total">    0.23    0.24</time>
   <energy>
    <i name="e_fr_energy">     -4.38531371 </i>
    <i name="e_wo_entrp">     -4.38618768 </i>
    <i name="e_0_energy">     -4.38560503 </i>
   </energy>
  </scstep>
  <scstep>
   <time name="dav">    0.16    0.16</time>
   <time name="total">    0.16    0.16</time>
   <energy>
    <i name="alphaZ">    106.66585453 </i>
    <i name="ewald">   -974.21287850 </i>
    <i name="hartreedc">   -113.05242377 </i>
    <i name="XCdc">     15.69374647 </i>
    <i name="pawpsdc">    750.02216710 </i>
    <i name="pawaedc">   -732.07455427 </i>
    <i name="eentropy">      0.00087298 </i>
    <i name="bandstr">     13.17575266 </i>
    <i name="atom">    929.39614979 </i>
    <i name="e_fr_energy">     -4.38531301 </i>
    <i name="e_wo_entrp">     -4.38618600 </i>
    <i name="e_0_energy">     -4.38560401 </i>
   </energy>
  </scstep>
  <structure>
   <crystal>
    <varray name="basis" >
     <v>       0.00000000       2.05000000       2.05000000 </v>
     <v>       2.05000000       0.00000000       2.05000000 </v>
     <v>       2.05000000       2.05000000       0.00000000 </v>
    </varray>
    <i name="volume">     17.23025000 </i>
    <varray name="rec_basis" >
     <v>      -0.24390244       0.24390244       0.24390244 </v>
     <v>       0.24390244      -0.24390244       0.24390244 </v>
     <v>       0.24390244       0.24390244      -0.24390244 </v>
    </varray>
   </crystal>
   <varray name="positions" >
    <v>       0.00000000       0.00000000       0.00000000 </v>
   </varray>
  </structure>
  <varray name="forces" >
   <v>       0.00000000      -0.00000000       0.00000000 </v>
  </varray>
  <varray name="stress" >
   <v>     -87.42670621       0.00000000      -0.00000000 </v>
   <v>       0.00000000     -87.42670621       0.00000000 </v>
   <v>       0.00000000       0.00000000     -87.42670621 </v>
  </varray>
  <energy>
   <i name="e_fr_energy">     -4.38531301 </i>
   <i name="e_wo_entrp">     -4.38560401 </i>
   <i name="e_0_energy">      0.00087298 </i>
  </energy>
  <time name="totalsc">    2.17    2.23</time>
  <eigenvalues>
   <array>
    <dimension dim="1">band</dimension>
    <dimension dim="2">kpoint</dimension>
    <dimension dim="3">spin</dimension>
    <field>eigene</field>
    <field>occ</field>
    <set>
     <set comment="spin 1">
      <set comment="kpoint 1">
       <r>   -4.3236    1.0000 </r>
       <r>    0.7232    1.0000 </r>
       <r>    0.7816    1.0000 </r>
       <r>    0.7816    1.0000 </r>
       <r>    2.2525    1.0000 </r>
       <r>    2.2525    1.0000 </r>
       <r>   20.8245    0.0000 </r>
       <r>   23.8230    0.0000 </r>
       <r>   24.5874    0.0000 </r>
       <r>   24.5874    0.0000 </r>
       <r>   29.3846    0.0000 </r>
       <r>   32.2662    0.0000 </r>
      </set>
      <set comment="kpoint 2">
       <r>   -3.8742    1.0000 </r>
       <r>    0.5743    1.0000 </r>
       <r>    0.9174    1.0000 </r>
       <r>    0.9487    1.0000 </r>
       <r>    2.1067    1.0000 </r>
       <r>    2.3012    1.0000 </r>
       <r>   21.0928    0.0000 </r>
       <r>   21.8877    0.0000 </r>
       <r>   24.1854    0.0000 </r>
       <r>   25.4946    0.0000 </r>
       <r>   28.7376    0.0000 </r>
       <r>   31.3576    0.0000 </r>
      </set>
      <set comment="kpoint 3">
       <r>   -2.8996    1.0000 </r>
       <r>    0.4621    1.0000 </r>
       <r>    1.0668    1.0000 </r>
       <r>    1.0879    1.0000 </r>
       <r>    2.1156    1.0000 </r>
       <r>    2.5085    1.0000 </r>
       <r>   17.9444    0.0000 </r>
       <r>   21.6984    0.0000 </r>
       <r>   24.3098    0.0000 </r>
       <r>   26.6746    0.0000 </r>
       <r>   26.8215    0.0000 </r>
       <r>   29.1726    0.0000 </r>
      </set>
      <set comment="kpoint 4">
       <r>   -2.0224    1.0000 </r>
       <r>    0.8920    1.0000 </r>
       <r>    0.9759    1.0000 </r>
       <r>    1.1260    1.0000 </r>
       <r>    2.5939    1.0000 </r>
       <r>    3.0673    1.0000 </r>
       <r>   13.9197    0.0000 </r>
       <r>   21.0353    0.0000 </r>
       <r>   23.3350    0.0000 </r>
       <r>   25.4959    0.0000 </r>
       <r>   27.9864    0.0000 </r>
       <r>   29.0338    0.0000 </r>
      </set>
      <set comment="kpoint 5">
       <r>   -1.8002    1.0000 </r>
       <r>    0.7438    1.0000 </r>
       <r>    0.8114    1.0000 </r>
       <r>    2.6101    1.0000 </r>
       <r>    3.1752    1.0000 </r>
       <r>    3.9510    1.0000 </r>
       <r>   10.1498   -0.0000 </r>
       <r>   20.2961    0.0000 </r>
       <r>   22.4255    0.0000 </r>
       <r>   23.5275    0.0000 </r>
       <r>   29.6962    0.0000 </r>
       <r>   29.9360    0.0000 </r>
      </set>
      <set comment="kpoint 6">
       <r>   -1.7941    1.0000 </r>
       <r>    0.6786    1.0000 </r>
       <r>    0.7729    1.0000 </r>
       <r>    2.9999    1.0000 </r>
       <r>    3.4517    1.0000 </r>
       <r>    4.8575    1.0013 </r>
       <r>    8.4803   -0.0000 </r>
       <r>   20.0937    0.0000 </r>
       <r>   22.4835    0.0000 </r>
       <r>   22.6070    0.0000 </r>
       <r>   30.1606    0.0000 </r>
       <r>   30.2312    0.0000 </r>
      </set>
      <set comment="kpoint 7">
       <r>   -1.8274    1.0000 </r>
       <r>    0.7734    1.0000 </r>
       <r>    0.8802    1.0000 </r>
       <r>    2.0546    1.0000 </r>
       <r>    3.2532    1.0000 </r>
       <r>    3.3954    1.0000 </r>
       <r>   11.3218    0.0000 </r>
       <r>   20.5306    0.0000 </r>
       <r>   22.8819    0.0000 </r>
       <r>   23.7014    0.0000 </r>
       <r>   29.6368    0.0000 </r>
       <r>   29.8118    0.0000 </r>
      </set>
      <set comment="kpoint 8">
       <r>   -2.2448    1.0000 </r>
       <r>    0.7108    1.0000 </r>
       <r>    0.9919    1.0000 </r>
       <r>    1.0495    1.0000 </r>
       <r>    2.5078    1.0000 </r>
       <r>    2.7635    1.0000 </r>
       <r>   15.2659    0.0000 </r>
       <r>   21.4150    0.0000 </r>
       <r>   23.8112    0.0000 </r>
       <r>   25.6312    0.0000 </r>
       <r>   27.6483    0.0000 </r>
       <r>   29.4740    0.0000 </r>
      </set>
      <set comment="kpoint 9">
       <r>   -3.2582    1.0000 </r>
       <r>    0.4504    1.0000 </r>
       <r>    1.0584    1.0000 </r>
       <r>    1.0712    1.0000 </r>
       <r>    2.0727    1.0000 </r>
       <r>    2.3890    1.0000 </r>
       <r>   19.2350    0.0000 </r>
       <r>   21.8191    0.0000 </r>
       <r>   24.3209    0.0000 </r>
       <r>   25.9197    0.0000 </r>
       <r>   27.4626    0.0000 </r>
       <r>   30.0945    0.0000 </r>
      </set>
      <set comment="kpoint 10">
       <r>   -4.0951    1.0000 </r>
       <r>    0.6179    1.0000 </r>
       <r>    0.8746    1.0000 </r>
       <r>    0.8801    1.0000 </r>
       <r>    2.1289    1.0000 </r>
       <r>    2.3087    1.0000 </r>
       <r>   21.0486    0.0000 </r>
       <r>   22.9079    0.0000 </r>
       <r>   24.3053    0.0000 </r>
       <r>   24.6974    0.0000 </r>
       <r>   29.9011    0.0000 </r>
       <r>   31.5264    0.0000 </r>
      </set>
      <set comment="kpoint 11">
       <r>   -3.6511    1.0000 </r>
       <r>    0.4082    1.0000 </r>
       <r>    1.0703    1.0000 </r>
       <r>    1.0739    1.0000 </r>
       <r>    1.9170    1.0000 </r>
       <r>    2.4168    1.0000 </r>
       <r>   21.3837    0.0000 </r>
       <r>   22.0530    0.0000 </r>
       <r>   23.6081    0.0000 </r>
       <r>   24.2727    0.0000 </r>
       <r>   29.0373    0.0000 </r>
       <r>   30.8444    0.0000 </r>
      </set>
      <set comment="kpoint 12">
       <r>   -2.8416    1.0000 </r>
       <r>    0.1688    1.0000 </r>
       <r>    1.1681    1.0000 </r>
       <r>    1.3458    1.0000 </r>
       <r>    1.8674    1.0000 </r>
       <r>    2.6305    1.0000 </r>
       <r>   19.4857    0.0000 </r>
       <r>   21.3040    0.0000 </r>
       <r>   23.2841    0.0000 </r>
       <r>   24.5235    0.0000 </r>
       <r>   27.0038    0.0000 </r>
       <r>   30.0343    0.0000 </r>
      </set>
      <set comment="kpoint 13">
       <r>   -1.8437    1.0000 </r>
       <r>    0.2543    1.0000 </r>
       <r>    0.8752    1.0000 </r>
       <r>    1.3560    1.0000 </r>
       <r>    2.5126    1.0000 </r>
       <r>    3.1986    1.0000 </r>
       <r>   15.4950    0.0000 </r>
       <r>   20.7466    0.0000 </r>
       <r>   22.2302    0.0000 </r>
       <r>   24.2961    0.0000 </r>
       <r>   27.9065    0.0000 </r>
       <r>   29.7594    0.0000 </r>
      </set>
      <set comment="kpoint 14">
       <r>   -1.4581    1.0000 </r>
       <r>    0.5817    1.0000 </r>
       <r>    1.1082    1.0000 </r>
       <r>    1.2629    1.0000 </r>
       <r>    3.2395    1.0000 </r>
       <r>    4.3702    1.0000 </r>
       <r>   11.5245    0.0000 </r>
       <r>   20.2990    0.0000 </r>
       <r>   20.9334    0.0000 </r>
       <r>   23.0156    0.0000 </r>
       <r>   29.7552    0.0000 </r>
       <r>   30.8209    0.0000 </r>
      </set>
      <set comment="kpoint 15">
       <r>   -1.4342    1.0000 </r>
       <r>    0.4565    1.0000 </r>
       <r>    1.0650    1.0000 </r>
       <r>    1.9900    1.0000 </r>
       <r>    3.4072    1.0000 </r>
       <r>    6.2594   -0.0000 </r>
       <r>    8.4744   -0.0000 </r>
       <r>   19.8483    0.0000 </r>
       <r>   20.5717    0.0000 </r>
       <r>   22.3006    0.0000 </r>
       <r>   30.1695    0.0000 </r>
       <r>   31.2417    0.0000 </r>
      </set>
      <set comment="kpoint 16">
       <r>   -1.4196    1.0000 </r>
       <r>    0.5346    1.0000 </r>
       <r>    1.0896    1.0000 </r>
       <r>    1.6703    1.0000 </r>
       <r>    3.0992    1.0000 </r>
       <r>    5.0698    1.0316 </r>
       <r>   10.3874   -0.0000 </r>
       <r>   19.4822    0.0000 </r>
       <r>   21.0860    0.0000 </r>
       <r>   23.1954    0.0000 </r>
       <r>   29.3859    0.0000 </r>
       <r>   30.8752    0.0000 </r>
      </set>
      <set comment="kpoint 17">
       <r>   -1.6039    1.0000 </r>
       <r>    0.5291    1.0000 </r>
       <r>    0.8309    1.0000 </r>
       <r>    1.2738    1.0000 </r>
       <r>    2.4256    1.0000 </r>
       <r>    3.7302    1.0000 </r>
       <r>   14.1648    0.0000 </r>
       <r>   19.7172    0.0000 </r>
       <r>   22.1942    0.0000 </r>
       <r>   25.1449    0.0000 </r>
       <r>   27.5986    0.0000 </r>
       <r>   29.9858    0.0000 </r>
      </set>
      <set comment="kpoint 18">
       <r>   -2.4904    1.0000 </r>
       <r>    0.2113    1.0000 </r>
       <r>    1.0660    1.0000 </r>
       <r>    1.3688    1.0000 </r>
       <r>    1.8605    1.0000 </r>
       <r>    2.8864    1.0000 </r>
       <r>   18.0841    0.0000 </r>
       <r>   20.3478    0.0000 </r>
       <r>   23.8705    0.0000 </r>
       <r>   24.8692    0.0000 </r>
       <r>   28.1649    0.0000 </r>
       <r>   28.8262    0.0000 </r>
      </set>
      <set comment="kpoint 19">
       <r>   -3.4454    1.0000 </r>
       <r>    0.4135    1.0000 </r>
       <r>    1.0736    1.0000 </r>
       <r>    1.0831    1.0000 </r>
       <r>    1.9554    1.0000 </r>
       <r>    2.4259    1.0000 </r>
       <r>   20.4946    0.0000 </r>
       <r>   21.5349    0.0000 </r>
       <r>   23.7477    0.0000 </r>
       <r>   25.5689    0.0000 </r>
       <r>   27.8252    0.0000 </r>
       <r>   30.7768    0.0000 </r>
      </set>
      <set comment="kpoint 20">
       <r>   -2.3001    1.0000 </r>
       <r>   -0.1783    1.0000 </r>
       <r>    1.3189    1.0000 </r>
       <r>    1.7191    1.0000 </r>
       <r>    1.9067    1.0000 </r>
       <r>    2.7530    1.0000 </r>
       <r>   19.9269    0.0000 </r>
       <r>   21.0375    0.0000 </r>
       <r>   22.2248    0.0000 </r>
       <r>   23.0797    0.0000 </r>
       <r>   24.0513    0.0000 </r>
       <r>   31.5727    0.0000 </r>
      </set>
      <set comment="kpoint 21">
       <r>   -1.5102    1.0000 </r>
       <r>   -0.3979    1.0000 </r>
       <r>    1.0674    1.0000 </r>
       <r>    2.0579    1.0000 </r>
       <r>    2.5508    1.0000 </r>
       <r>    3.2198    1.0000 </r>
       <r>   17.2037    0.0000 </r>
       <r>   19.1495    0.0000 </r>
       <r>   20.7880    0.0000 </r>
       <r>   23.4447    0.0000 </r>
       <r>   24.8278    0.0000 </r>
       <r>   31.6105    0.0000 </r>
      </set>
      <set comment="kpoint 22">
       <r>   -1.0473    1.0000 </r>
       <r>   -0.1420    1.0000 </r>
       <r>    0.8279    1.0000 </r>
       <r>    1.9304    1.0000 </r>
       <r>    3.3238    1.0000 </r>
       <r>    4.6372    1.0000 </r>
       <r>   13.1645    0.0000 </r>
       <r>   18.4596    0.0000 </r>
       <r>   19.0656    0.0000 </r>
       <r>   23.0986    0.0000 </r>
       <r>   28.0032    0.0000 </r>
       <r>   31.5238    0.0000 </r>
      </set>
      <set comment="kpoint 23">
       <r>   -0.9304    1.0000 </r>
       <r>    0.1167    1.0000 </r>
       <r>    1.0300    1.0000 </r>
       <r>    1.7372    1.0000 </r>
       <r>    3.4429    1.0000 </r>
       <r>    7.0638   -0.0000 </r>
       <r>    9.6137   -0.0000 </r>
       <r>   17.1773    0.0000 </r>
       <r>   19.1333    0.0000 </r>
       <r>   22.7256    0.0000 </r>
       <r>   30.6129    0.0000 </r>
       <r>   32.0946    0.0000 </r>
      </set>
      <set comment="kpoint 24">
       <r>   -0.7642    1.0000 </r>
       <r>    0.1798    1.0000 </r>
       <r>    1.0540    1.0000 </r>
       <r>    1.6351    1.0000 </r>
       <r>    3.0553    1.0000 </r>
       <r>    6.9042   -0.0000 </r>
       <r>   10.1290   -0.0000 </r>
       <r>   16.1063    0.0000 </r>
       <r>   20.3262    0.0000 </r>
       <r>   22.9056    0.0000 </r>
       <r>   29.8012    0.0000 </r>
       <r>   32.1390    0.0000 </r>
      </set>
      <set comment="kpoint 25">
       <r>   -0.6884    1.0000 </r>
       <r>    0.2491    1.0000 </r>
       <r>    0.5063    1.0000 </r>
       <r>    1.7139    1.0000 </r>
       <r>    2.3836    1.0000 </r>
       <r>    5.1171    1.0349 </r>
       <r>   13.4913    0.0000 </r>
       <r>   16.0156    0.0000 </r>
       <r>   21.6112    0.0000 </r>
       <r>   24.2787    0.0000 </r>
       <r>   27.6780    0.0000 </r>
       <r>   31.9276    0.0000 </r>
      </set>
      <set comment="kpoint 26">
       <r>   -1.4553    1.0000 </r>
       <r>    0.1355    1.0000 </r>
       <r>    0.8029    1.0000 </r>
       <r>    1.5921    1.0000 </r>
       <r>    1.9962    1.0000 </r>
       <r>    3.8167    1.0000 </r>
       <r>   15.6132    0.0000 </r>
       <r>   18.2415    0.0000 </r>
       <r>   22.6577    0.0000 </r>
       <r>   25.6697    0.0000 </r>
       <r>   26.6315    0.0000 </r>
       <r>   30.4947    0.0000 </r>
      </set>
      <set comment="kpoint 27">
       <r>   -2.4055    1.0000 </r>
       <r>    0.3882    1.0000 </r>
       <r>    1.0384    1.0000 </r>
       <r>    1.1832    1.0000 </r>
       <r>    2.1780    1.0000 </r>
       <r>    2.8157    1.0000 </r>
       <r>   16.7017    0.0000 </r>
       <r>   21.3719    0.0000 </r>
       <r>   23.3693    0.0000 </r>
       <r>   25.8034    0.0000 </r>
       <r>   27.4548    0.0000 </r>
       <r>   28.9887    0.0000 </r>
      </set>
      <set comment="kpoint 28">
       <r>   -1.3634    1.0000 </r>
       <r>   -0.7674    1.0000 </r>
       <r>    1.9353    1.0000 </r>
       <r>    2.5751    1.0000 </r>
       <r>    3.0036    1.0000 </r>
       <r>    3.1539    1.0000 </r>
       <r>   17.1284    0.0000 </r>
       <r>   18.1712    0.0000 </r>
       <r>   18.3769    0.0000 </r>
       <r>   22.3243    0.0000 </r>
       <r>   24.2323    0.0000 </r>
       <r>   34.0634    0.0000 </r>
      </set>
      <set comment="kpoint 29">
       <r>   -1.2152    1.0000 </r>
       <r>   -0.8736    1.0000 </r>
       <r>    1.9806    1.0000 </r>
       <r>    2.8683    1.0000 </r>
       <r>    3.3383    1.0000 </r>
       <r>    4.6968    1.0000 </r>
       <r>   14.3305    0.0000 </r>
       <r>   16.4735    0.0000 </r>
       <r>   17.1041    0.0000 </r>
       <r>   23.3222    0.0000 </r>
       <r>   25.2098    0.0000 </r>
       <r>   33.5793    0.0000 </r>
      </set>
      <set comment="kpoint 30">
       <r>   -1.0503    1.0000 </r>
       <r>   -0.5653    1.0000 </r>
       <r>    1.6321    1.0000 </r>
       <r>    2.5723    1.0000 </r>
       <r>    3.5370    1.0000 </r>
       <r>    7.2884   -0.0000 </r>
       <r>   11.1671    0.0000 </r>
       <r>   14.7202    0.0000 </r>
       <r>   17.2234    0.0000 </r>
       <r>   23.5442    0.0000 </r>
       <r>   27.9233    0.0000 </r>
       <r>   32.5736    0.0000 </r>
      </set>
      <set comment="kpoint 31">
       <r>   -0.7656    1.0000 </r>
       <r>   -0.0664    1.0000 </r>
       <r>    1.0986    1.0000 </r>
       <r>    2.2507    1.0000 </r>
       <r>    3.2231    1.0000 </r>
       <r>    8.4818   -0.0000 </r>
       <r>   10.6054   -0.0000 </r>
       <r>   13.0593    0.0000 </r>
       <r>   18.5317    0.0000 </r>
       <r>   23.3376    0.0000 </r>
       <r>   31.1380    0.0000 </r>
       <r>   31.4959    0.0000 </r>
      </set>
      <set comment="kpoint 32">
       <r>   -0.4922    1.0000 </r>
       <r>    0.2239    1.0000 </r>
       <r>    0.6157    1.0000 </r>
       <r>    1.9019    1.0000 </r>
       <r>    2.8201    1.0000 </r>
       <r>    6.7273   -0.0000 </r>
       <r>   11.9721    0.0000 </r>
       <r>   14.0608    0.0000 </r>
       <r>   20.3134    0.0000 </r>
       <r>   23.2628    0.0000 </r>
       <r>   29.5163    0.0000 </r>
       <r>   32.4014    0.0000 </r>
      </set>
      <set comment="kpoint 33">
       <r>   -1.0683    1.0000 </r>
       <r>    0.4380    1.0000 </r>
       <r>    0.9291    1.0000 </r>
       <r>    1.4159    1.0000 </r>
       <r>    2.7382    1.0000 </r>
       <r>    5.1077    1.0354 </r>
       <r>   11.9068    0.0000 </r>
       <r>   17.7553    0.0000 </r>
       <r>   21.3731    0.0000 </r>
       <r>   23.7627    0.0000 </r>
       <r>   28.4551    0.0000 </r>
       <r>   31.3619    0.0000 </r>
      </set>
      <set comment="kpoint 34">
       <r>   -1.7538    1.0000 </r>
       <r>    0.7765    1.0000 </r>
       <r>    1.0177    1.0000 </r>
       <r>    1.2763    1.0000 </r>
       <r>    2.8674    1.0000 </r>
       <r>    3.5607    1.0000 </r>
       <r>   12.6725    0.0000 </r>
       <r>   20.6974    0.0000 </r>
       <r>   22.1775    0.0000 </r>
       <r>   24.3793    0.0000 </r>
       <r>   28.8164    0.0000 </r>
       <r>   29.7339    0.0000 </r>
      </set>
      <set comment="kpoint 35">
       <r>   -1.4696    1.0000 </r>
       <r>   -1.1567    1.0000 </r>
       <r>    3.2390    1.0000 </r>
       <r>    3.2493    1.0000 </r>
       <r>    3.5647    1.0000 </r>
       <r>    5.2126    0.9565 </r>
       <r>   12.9129    0.0000 </r>
       <r>   15.7930    0.0000 </r>
       <r>   16.1311    0.0000 </r>
       <r>   22.6275    0.0000 </r>
       <r>   24.9534    0.0000 </r>
       <r>   34.9071    0.0000 </r>
      </set>
      <set comment="kpoint 36">
       <r>   -1.3968    1.0000 </r>
       <r>   -1.1073    1.0000 </r>
       <r>    2.8790    1.0000 </r>
       <r>    3.1953    1.0000 </r>
       <r>    3.7117    1.0000 </r>
       <r>    7.2162   -0.0000 </r>
       <r>   11.0535    0.0000 </r>
       <r>   14.7586    0.0000 </r>
       <r>   15.7262    0.0000 </r>
       <r>   23.5487    0.0000 </r>
       <r>   25.5220    0.0000 </r>
       <r>   34.0422    0.0000 </r>
      </set>
      <set comment="kpoint 37">
       <r>   -1.1024    1.0000 </r>
       <r>   -0.6546    1.0000 </r>
       <r>    1.9159    1.0000 </r>
       <r>    2.7369    1.0000 </r>
       <r>    3.5356    1.0000 </r>
       <r>    8.7225   -0.0000 </r>
       <r>   10.2640   -0.0000 </r>
       <r>   13.4273    0.0000 </r>
       <r>   16.8804    0.0000 </r>
       <r>   23.7179    0.0000 </r>
       <r>   27.9219    0.0000 </r>
       <r>   32.7534    0.0000 </r>
      </set>
      <set comment="kpoint 38">
       <r>   -0.8002    1.0000 </r>
       <r>   -0.0195    1.0000 </r>
       <r>    1.0565    1.0000 </r>
       <r>    2.0338    1.0000 </r>
       <r>    3.3452    1.0000 </r>
       <r>    8.5412   -0.0000 </r>
       <r>    9.1576   -0.0000 </r>
       <r>   15.0498    0.0000 </r>
       <r>   18.7317    0.0000 </r>
       <r>   23.0836    0.0000 </r>
       <r>   30.8479    0.0000 </r>
       <r>   31.8313    0.0000 </r>
      </set>
      <set comment="kpoint 39">
       <r>   -1.1190    1.0000 </r>
       <r>    0.2894    1.0000 </r>
       <r>    1.3242    1.0000 </r>
       <r>    1.5311    1.0000 </r>
       <r>    3.2847    1.0000 </r>
       <r>    7.0631   -0.0000 </r>
       <r>    8.6378   -0.0000 </r>
       <r>   18.1399    0.0000 </r>
       <r>   20.3666    0.0000 </r>
       <r>   22.4649    0.0000 </r>
       <r>   30.0905    0.0000 </r>
       <r>   31.7359    0.0000 </r>
      </set>
      <set comment="kpoint 40">
       <r>   -1.6672    1.0000 </r>
       <r>    0.6223    1.0000 </r>
       <r>    0.8871    1.0000 </r>
       <r>    2.4030    1.0000 </r>
       <r>    3.3628    1.0000 </r>
       <r>    4.9816    1.0128 </r>
       <r>    9.1774   -0.0000 </r>
       <r>   20.2019    0.0000 </r>
       <r>   21.6188    0.0000 </r>
       <r>   22.7668    0.0000 </r>
       <r>   30.0160    0.0000 </r>
       <r>   30.5361    0.0000 </r>
      </set>
      <set comment="kpoint 41">
       <r>   -1.5423    1.0000 </r>
       <r>   -1.2395    1.0000 </r>
       <r>    3.3525    1.0000 </r>
       <r>    3.5300    1.0000 </r>
       <r>    3.7265    1.0000 </r>
       <r>    6.4410   -0.0000 </r>
       <r>   11.2670    0.0000 </r>
       <r>   15.3002    0.0000 </r>
       <r>   15.6689    0.0000 </r>
       <r>   22.7472    0.0000 </r>
       <r>   25.1065    0.0000 </r>
       <r>   34.7147    0.0000 </r>
      </set>
      <set comment="kpoint 42">
       <r>   -1.3210    1.0000 </r>
       <r>   -1.0277    1.0000 </r>
       <r>    2.5257    1.0000 </r>
       <r>    3.1321    1.0000 </r>
       <r>    3.5582    1.0000 </r>
       <r>    5.9733   -0.0000 </r>
       <r>   12.5830    0.0000 </r>
       <r>   15.3366    0.0000 </r>
       <r>   16.1809    0.0000 </r>
       <r>   23.4514    0.0000 </r>
       <r>   25.4138    0.0000 </r>
       <r>   33.9720    0.0000 </r>
      </set>
      <set comment="kpoint 43">
       <r>   -0.9967    1.0000 </r>
       <r>   -0.3860    1.0000 </r>
       <r>    1.2068    1.0000 </r>
       <r>    2.2740    1.0000 </r>
       <r>    3.4856    1.0000 </r>
       <r>    5.8587   -0.0010 </r>
       <r>   12.1058    0.0000 </r>
       <r>   16.6061    0.0000 </r>
       <r>   17.9049    0.0000 </r>
       <r>   23.2817    0.0000 </r>
       <r>   27.9438    0.0000 </r>
       <r>   32.1656    0.0000 </r>
      </set>
      <set comment="kpoint 44">
       <r>   -1.1667    1.0000 </r>
       <r>    0.3389    1.0000 </r>
       <r>    1.0614    1.0000 </r>
       <r>    1.4508    1.0000 </r>
       <r>    3.4244    1.0000 </r>
       <r>    5.5836   -0.0349 </r>
       <r>   10.4894   -0.0000 </r>
       <r>   19.2334    0.0000 </r>
       <r>   19.7091    0.0000 </r>
       <r>   22.5371    0.0000 </r>
       <r>   30.2990    0.0000 </r>
       <r>   31.9209    0.0000 </r>
      </set>
      <set comment="kpoint 45">
       <r>   -1.3687    1.0000 </r>
       <r>   -0.9959    1.0000 </r>
       <r>    2.6972    1.0000 </r>
       <r>    2.9727    1.0000 </r>
       <r>    3.3551    1.0000 </r>
       <r>    3.9152    1.0000 </r>
       <r>   15.0839    0.0000 </r>
       <r>   16.7600    0.0000 </r>
       <r>   16.9959    0.0000 </r>
       <r>   22.4501    0.0000 </r>
       <r>   24.6574    0.0000 </r>
       <r>   34.9949    0.0000 </r>
      </set>
      <set comment="kpoint 46">
       <r>   -1.2057    1.0000 </r>
       <r>   -0.6578    1.0000 </r>
       <r>    1.3949    1.0000 </r>
       <r>    2.4752    1.0000 </r>
       <r>    3.0242    1.0000 </r>
       <r>    3.7559    1.0000 </r>
       <r>   15.8646    0.0000 </r>
       <r>   17.8284    0.0000 </r>
       <r>   18.7112    0.0000 </r>
       <r>   23.2900    0.0000 </r>
       <r>   24.9516    0.0000 </r>
       <r>   32.7066    0.0000 </r>
      </set>
      <set comment="kpoint 47">
       <r>   -1.3368    1.0000 </r>
       <r>    0.0874    1.0000 </r>
       <r>    0.7162    1.0000 </r>
       <r>    1.6104    1.0000 </r>
       <r>    2.9874    1.0000 </r>
       <r>    3.7431    1.0000 </r>
       <r>   14.3095    0.0000 </r>
       <r>   19.7216    0.0000 </r>
       <r>   20.8454    0.0000 </r>
       <r>   23.2728    0.0000 </r>
       <r>   28.0435    0.0000 </r>
       <r>   30.6938    0.0000 </r>
      </set>
      <set comment="kpoint 48">
       <r>   -1.6640    1.0000 </r>
       <r>   -0.4875    1.0000 </r>
       <r>    1.4033    1.0000 </r>
       <r>    2.1363    1.0000 </r>
       <r>    2.3799    1.0000 </r>
       <r>    2.9503    1.0000 </r>
       <r>   18.6578    0.0000 </r>
       <r>   19.5561    0.0000 </r>
       <r>   20.7064    0.0000 </r>
       <r>   22.4277    0.0000 </r>
       <r>   23.7288    0.0000 </r>
       <r>   32.7061    0.0000 </r>
      </set>
      <set comment="kpoint 49">
       <r>   -2.1387    1.0000 </r>
       <r>   -0.1132    1.0000 </r>
       <r>    1.0887    1.0000 </r>
       <r>    1.6753    1.0000 </r>
       <r>    2.0948    1.0000 </r>
       <r>    2.8918    1.0000 </r>
       <r>   18.4048    0.0000 </r>
       <r>   20.4100    0.0000 </r>
       <r>   22.5934    0.0000 </r>
       <r>   23.6661    0.0000 </r>
       <r>   25.4957    0.0000 </r>
       <r>   30.5913    0.0000 </r>
      </set>
      <set comment="kpoint 50">
       <r>   -3.0254    1.0000 </r>
       <r>    0.1314    1.0000 </r>
       <r>    1.3069    1.0000 </r>
       <r>    1.3575    1.0000 </r>
       <r>    1.7213    1.0000 </r>
       <r>    2.5701    1.0000 </r>
       <r>   20.9312    0.0000 </r>
       <r>   22.1183    0.0000 </r>
       <r>   22.4579    0.0000 </r>
       <r>   23.5098    0.0000 </r>
       <r>   26.6486    0.0000 </r>
       <r>   30.9011    0.0000 </r>
      </set>
      <set comment="kpoint 51">
       <r>   -3.6643    1.0000 </r>
       <r>    0.5602    1.0000 </r>
       <r>    0.9659    1.0000 </r>
       <r>    0.9659    1.0000 </r>
       <r>    2.2036    1.0000 </r>
       <r>    2.2036    1.0000 </r>
       <r>   20.3480    0.0000 </r>
       <r>   21.7106    0.0000 </r>
       <r>   25.1574    0.0000 </r>
       <r>   25.1574    0.0000 </r>
       <r>   28.3502    0.0000 </r>
       <r>   30.6913    0.0000 </r>
      </set>
      <set comment="kpoint 52">
       <r>   -3.0477    1.0000 </r>
       <r>    0.3598    1.0000 </r>
       <r>    1.0916    1.0000 </r>
       <r>    1.1679    1.0000 </r>
       <r>    1.9006    1.0000 </r>
       <r>    2.5810    1.0000 </r>
       <r>   19.2657    0.0000 </r>
       <r>   21.0798    0.0000 </r>
       <r>   23.9133    0.0000 </r>
       <r>   26.0662    0.0000 </r>
       <r>   27.1880    0.0000 </r>
       <r>   30.0668    0.0000 </r>
      </set>
      <set comment="kpoint 53">
       <r>   -2.0081    1.0000 </r>
       <r>    0.2075    1.0000 </r>
       <r>    0.9895    1.0000 </r>
       <r>    1.4448    1.0000 </r>
       <r>    1.8152    1.0000 </r>
       <r>    3.3043    1.0000 </r>
       <r>   16.7951    0.0000 </r>
       <r>   19.3292    0.0000 </r>
       <r>   23.5849    0.0000 </r>
       <r>   25.3496    0.0000 </r>
       <r>   27.5116    0.0000 </r>
       <r>   29.5207    0.0000 </r>
      </set>
      <set comment="kpoint 54">
       <r>   -1.3414    1.0000 </r>
       <r>    0.5804    1.0000 </r>
       <r>    0.9522    1.0000 </r>
       <r>    1.2470    1.0000 </r>
       <r>    2.4716    1.0000 </r>
       <r>    4.3494    1.0000 </r>
       <r>   12.9692    0.0000 </r>
       <r>   18.7065    0.0000 </r>
       <r>   22.0369    0.0000 </r>
       <r>   24.6445    0.0000 </r>
       <r>   27.7117    0.0000 </r>
       <r>   30.6481    0.0000 </r>
      </set>
      <set comment="kpoint 55">
       <r>   -1.3070    1.0000 </r>
       <r>    0.4431    1.0000 </r>
       <r>    1.1408    1.0000 </r>
       <r>    1.7726    1.0000 </r>
       <r>    3.1446    1.0000 </r>
       <r>    5.9490   -0.0001 </r>
       <r>    9.4236   -0.0000 </r>
       <r>   18.7408    0.0000 </r>
       <r>   21.3816    0.0000 </r>
       <r>   22.3632    0.0000 </r>
       <r>   29.9193    0.0000 </r>
       <r>   30.9142    0.0000 </r>
      </set>
      <set comment="kpoint 56">
       <r>   -1.3446    1.0000 </r>
       <r>    0.4174    1.0000 </r>
       <r>    1.1882    1.0000 </r>
       <r>    1.6021    1.0000 </r>
       <r>    3.4831    1.0000 </r>
       <r>    5.9255   -0.0002 </r>
       <r>    9.2594   -0.0000 </r>
       <r>   19.5055    0.0000 </r>
       <r>   21.0989    0.0000 </r>
       <r>   21.5660    0.0000 </r>
       <r>   30.9195    0.0000 </r>
       <r>   31.0940    0.0000 </r>
      </set>
      <set comment="kpoint 57">
       <r>   -1.4263    1.0000 </r>
       <r>    0.5183    1.0000 </r>
       <r>    0.7369    1.0000 </r>
       <r>    1.3446    1.0000 </r>
       <r>    3.3360    1.0000 </r>
       <r>    3.8386    1.0000 </r>
       <r>   12.8407    0.0000 </r>
       <r>   20.7170    0.0000 </r>
       <r>   20.9316    0.0000 </r>
       <r>   22.4625    0.0000 </r>
       <r>   29.8297    0.0000 </r>
       <r>   30.8562    0.0000 </r>
      </set>
      <set comment="kpoint 58">
       <r>   -2.0331    1.0000 </r>
       <r>    0.0131    1.0000 </r>
       <r>    0.9947    1.0000 </r>
       <r>    1.4752    1.0000 </r>
       <r>    2.4411    1.0000 </r>
       <r>    2.8937    1.0000 </r>
       <r>   16.9464    0.0000 </r>
       <r>   21.5308    0.0000 </r>
       <r>   21.9107    0.0000 </r>
       <r>   23.6427    0.0000 </r>
       <r>   26.6866    0.0000 </r>
       <r>   30.8631    0.0000 </r>
      </set>
      <set comment="kpoint 59">
       <r>   -2.6899    1.0000 </r>
       <r>    0.2517    1.0000 </r>
       <r>    1.1116    1.0000 </r>
       <r>    1.2394    1.0000 </r>
       <r>    2.0849    1.0000 </r>
       <r>    2.6277    1.0000 </r>
       <r>   18.1009    0.0000 </r>
       <r>   21.9463    0.0000 </r>
       <r>   23.0193    0.0000 </r>
       <r>   25.2947    0.0000 </r>
       <r>   26.9639    0.0000 </r>
       <r>   30.2285    0.0000 </r>
      </set>
      <set comment="kpoint 60">
       <r>   -1.8401    1.0000 </r>
       <r>    0.0031    1.0000 </r>
       <r>    0.8986    1.0000 </r>
       <r>    1.6472    1.0000 </r>
       <r>    2.0679    1.0000 </r>
       <r>    3.2837    1.0000 </r>
       <r>   16.9309    0.0000 </r>
       <r>   19.3554    0.0000 </r>
       <r>   22.6730    0.0000 </r>
       <r>   24.6617    0.0000 </r>
       <r>   27.0637    0.0000 </r>
       <r>   29.5778    0.0000 </r>
      </set>
      <set comment="kpoint 61">
       <r>   -0.9251    1.0000 </r>
       <r>    0.0262    1.0000 </r>
       <r>    0.5173    1.0000 </r>
       <r>    1.8695    1.0000 </r>
       <r>    2.3685    1.0000 </r>
       <r>    4.4392    1.0000 </r>
       <r>   14.5217    0.0000 </r>
       <r>   17.1257    0.0000 </r>
       <r>   21.1660    0.0000 </r>
       <r>   25.3272    0.0000 </r>
       <r>   26.8378    0.0000 </r>
       <r>   31.0534    0.0000 </r>
      </set>
      <set comment="kpoint 62">
       <r>   -0.7903    1.0000 </r>
       <r>    0.2000    1.0000 </r>
       <r>    0.8231    1.0000 </r>
       <r>    1.6781    1.0000 </r>
       <r>    3.0464    1.0000 </r>
       <r>    6.1048   -0.0000 </r>
       <r>   10.9794    0.0000 </r>
       <r>   16.8873    0.0000 </r>
       <r>   19.7599    0.0000 </r>
       <r>   23.8976    0.0000 </r>
       <r>   28.8808    0.0000 </r>
       <r>   32.4770    0.0000 </r>
      </set>
      <set comment="kpoint 63">
       <r>   -0.8574    1.0000 </r>
       <r>    0.1117    1.0000 </r>
       <r>    1.1511    1.0000 </r>
       <r>    1.6122    1.0000 </r>
       <r>    3.3305    1.0000 </r>
       <r>    7.7727   -0.0000 </r>
       <r>    8.6744   -0.0000 </r>
       <r>   17.4876    0.0000 </r>
       <r>   18.7354    0.0000 </r>
       <r>   23.4063    0.0000 </r>
       <r>   29.7363    0.0000 </r>
       <r>   32.9775    0.0000 </r>
      </set>
      <set comment="kpoint 64">
       <r>   -0.9056    1.0000 </r>
       <r>    0.2024    1.0000 </r>
       <r>    0.5865    1.0000 </r>
       <r>    1.8014    1.0000 </r>
       <r>    3.1670    1.0000 </r>
       <r>    5.3608    0.4571 </r>
       <r>   11.9805    0.0000 </r>
       <r>   17.7474    0.0000 </r>
       <r>   19.3212    0.0000 </r>
       <r>   23.8457    0.0000 </r>
       <r>   28.8278    0.0000 </r>
       <r>   31.4714    0.0000 </r>
      </set>
      <set comment="kpoint 65">
       <r>   -1.2366    1.0000 </r>
       <r>   -0.2210    1.0000 </r>
       <r>    0.7309    1.0000 </r>
       <r>    1.9918    1.0000 </r>
       <r>    2.4702    1.0000 </r>
       <r>    3.7933    1.0000 </r>
       <r>   15.7707    0.0000 </r>
       <r>   18.2119    0.0000 </r>
       <r>   20.9151    0.0000 </r>
       <r>   24.6029    0.0000 </r>
       <r>   26.3067    0.0000 </r>
       <r>   30.5440    0.0000 </r>
      </set>
      <set comment="kpoint 66">
       <r>   -1.4464    1.0000 </r>
       <r>   -0.2316    1.0000 </r>
       <r>    0.9243    1.0000 </r>
       <r>    1.7736    1.0000 </r>
       <r>    3.0929    1.0000 </r>
       <r>    3.1551    1.0000 </r>
       <r>   15.7467    0.0000 </r>
       <r>   20.0723    0.0000 </r>
       <r>   20.7958    0.0000 </r>
       <r>   22.7024    0.0000 </r>
       <r>   26.4520    0.0000 </r>
       <r>   31.7532    0.0000 </r>
      </set>
      <set comment="kpoint 67">
       <r>   -0.9212    1.0000 </r>
       <r>   -0.4354    1.0000 </r>
       <r>    0.8363    1.0000 </r>
       <r>    2.3795    1.0000 </r>
       <r>    2.8946    1.0000 </r>
       <r>    4.5117    1.0000 </r>
       <r>   14.5991    0.0000 </r>
       <r>   17.0373    0.0000 </r>
       <r>   18.9683    0.0000 </r>
       <r>   24.5056    0.0000 </r>
       <r>   26.1807    0.0000 </r>
       <r>   31.3806    0.0000 </r>
      </set>
      <set comment="kpoint 68">
       <r>   -0.5706    1.0000 </r>
       <r>   -0.2830    1.0000 </r>
       <r>    0.6243    1.0000 </r>
       <r>    2.4609    1.0000 </r>
       <r>    3.1759    1.0000 </r>
       <r>    6.3676   -0.0000 </r>
       <r>   12.6107    0.0000 </r>
       <r>   15.0348    0.0000 </r>
       <r>   17.4306    0.0000 </r>
       <r>   25.6198    0.0000 </r>
       <r>   27.3886    0.0000 </r>
       <r>   31.3140    0.0000 </r>
      </set>
      <set comment="kpoint 69">
       <r>   -0.4062    1.0000 </r>
       <r>   -0.1200    1.0000 </r>
       <r>    0.6526    1.0000 </r>
       <r>    2.1039    1.0000 </r>
       <r>    3.3997    1.0000 </r>
       <r>    8.6503   -0.0000 </r>
       <r>    9.8874   -0.0000 </r>
       <r>   14.6752    0.0000 </r>
       <r>   16.8141    0.0000 </r>
       <r>   25.3423    0.0000 </r>
       <r>   29.2092    0.0000 </r>
       <r>   32.3481    0.0000 </r>
      </set>
      <set comment="kpoint 70">
       <r>   -0.1884    1.0000 </r>
       <r>   -0.0839    1.0000 </r>
       <r>    0.2914    1.0000 </r>
       <r>    2.1827    1.0000 </r>
       <r>    3.1507    1.0000 </r>
       <r>    7.1006   -0.0000 </r>
       <r>   11.9808    0.0000 </r>
       <r>   14.1184    0.0000 </r>
       <r>   17.8042    0.0000 </r>
       <r>   25.6186    0.0000 </r>
       <r>   28.2100    0.0000 </r>
       <r>   32.4747    0.0000 </r>
      </set>
      <set comment="kpoint 71">
       <r>   -0.5846    1.0000 </r>
       <r>   -0.1011    1.0000 </r>
       <r>    0.3749    1.0000 </r>
       <r>    2.2058    1.0000 </r>
       <r>    2.7892    1.0000 </r>
       <r>    5.2627    0.8352 </r>
       <r>   13.5209    0.0000 </r>
       <r>   16.0434    0.0000 </r>
       <r>   19.2987    0.0000 </r>
       <r>   25.3142    0.0000 </r>
       <r>   27.1396    0.0000 </r>
       <r>   31.2768    0.0000 </r>
      </set>
      <set comment="kpoint 72">
       <r>   -1.1488    1.0000 </r>
       <r>   -0.6927    1.0000 </r>
       <r>    1.7065    1.0000 </r>
       <r>    2.4694    1.0000 </r>
       <r>    3.5332    1.0000 </r>
       <r>    5.1524    1.0242 </r>
       <r>   13.2678    0.0000 </r>
       <r>   16.5839    0.0000 </r>
       <r>   17.6921    0.0000 </r>
       <r>   22.9750    0.0000 </r>
       <r>   26.4094    0.0000 </r>
       <r>   33.4026    0.0000 </r>
      </set>
      <set comment="kpoint 73">
       <r>   -1.0475    1.0000 </r>
       <r>   -0.7726    1.0000 </r>
       <r>    1.7339    1.0000 </r>
       <r>    2.8815    1.0000 </r>
       <r>    3.5243    1.0000 </r>
       <r>    6.8825   -0.0000 </r>
       <r>   12.1169    0.0000 </r>
       <r>   14.7953    0.0000 </r>
       <r>   16.0401    0.0000 </r>
       <r>   24.7329    0.0000 </r>
       <r>   26.3681    0.0000 </r>
       <r>   32.4540    0.0000 </r>
      </set>
      <set comment="kpoint 74">
       <r>   -0.7896    1.0000 </r>
       <r>   -0.4728    1.0000 </r>
       <r>    1.2881    1.0000 </r>
       <r>    2.4799    1.0000 </r>
       <r>    3.7072    1.0000 </r>
       <r>    9.2224   -0.0000 </r>
       <r>   10.6669   -0.0000 </r>
       <r>   13.3377    0.0000 </r>
       <r>   15.2771    0.0000 </r>
       <r>   26.2184    0.0000 </r>
       <r>   27.9357    0.0000 </r>
       <r>   31.0270    0.0000 </r>
      </set>
      <set comment="kpoint 75">
       <r>   -0.4572    1.0000 </r>
       <r>   -0.0252    1.0000 </r>
       <r>    0.6111    1.0000 </r>
       <r>    2.1653    1.0000 </r>
       <r>    3.4976    1.0000 </r>
       <r>    8.9409   -0.0000 </r>
       <r>   10.9566    0.0000 </r>
       <r>   12.9211    0.0000 </r>
       <r>   16.3986    0.0000 </r>
       <r>   25.9147    0.0000 </r>
       <r>   29.4175    0.0000 </r>
       <r>   31.6708    0.0000 </r>
      </set>
      <set comment="kpoint 76">
       <r>   -0.5295    1.0000 </r>
       <r>   -0.0392    1.0000 </r>
       <r>    0.7262    1.0000 </r>
       <r>    1.9342    1.0000 </r>
       <r>    3.2594    1.0000 </r>
       <r>    7.3627   -0.0000 </r>
       <r>   10.2277   -0.0000 </r>
       <r>   16.0019    0.0000 </r>
       <r>   17.9798    0.0000 </r>
       <r>   24.5542    0.0000 </r>
       <r>   29.0590    0.0000 </r>
       <r>   32.9786    0.0000 </r>
      </set>
      <set comment="kpoint 77">
       <r>   -1.3023    1.0000 </r>
       <r>   -0.9435    1.0000 </r>
       <r>    2.5409    1.0000 </r>
       <r>    3.0061    1.0000 </r>
       <r>    3.6077    1.0000 </r>
       <r>    7.8317   -0.0000 </r>
       <r>   10.7300   -0.0000 </r>
       <r>   13.9837    0.0000 </r>
       <r>   16.5332    0.0000 </r>
       <r>   23.3684    0.0000 </r>
       <r>   26.4995    0.0000 </r>
       <r>   33.8268    0.0000 </r>
      </set>
      <set comment="kpoint 78">
       <r>   -1.1285    1.0000 </r>
       <r>   -0.8463    1.0000 </r>
       <r>    2.0717    1.0000 </r>
       <r>    2.8726    1.0000 </r>
       <r>    3.7083    1.0000 </r>
       <r>    8.2552   -0.0000 </r>
       <r>   10.7668   -0.0000 </r>
       <r>   14.1208    0.0000 </r>
       <r>   15.5237    0.0000 </r>
       <r>   24.8576    0.0000 </r>
       <r>   26.4297    0.0000 </r>
       <r>   32.6364    0.0000 </r>
      </set>
      <set comment="kpoint 79">
       <r>   -0.6959    1.0000 </r>
       <r>   -0.4136    1.0000 </r>
       <r>    1.0064    1.0000 </r>
       <r>    2.5305    1.0000 </r>
       <r>    3.5040    1.0000 </r>
       <r>    7.7269   -0.0000 </r>
       <r>   11.7317    0.0000 </r>
       <r>   14.0738    0.0000 </r>
       <r>   15.9808    0.0000 </r>
       <r>   25.9935    0.0000 </r>
       <r>   27.6686    0.0000 </r>
       <r>   31.1938    0.0000 </r>
      </set>
      <set comment="kpoint 80">
       <r>   -1.2359    1.0000 </r>
       <r>   -0.8582    1.0000 </r>
       <r>    2.2291    1.0000 </r>
       <r>    2.7910    1.0000 </r>
       <r>    3.6038    1.0000 </r>
       <r>    6.5168   -0.0000 </r>
       <r>   11.9847    0.0000 </r>
       <r>   14.8990    0.0000 </r>
       <r>   16.9302    0.0000 </r>
       <r>   23.2201    0.0000 </r>
       <r>   26.4619    0.0000 </r>
       <r>   33.7365    0.0000 </r>
      </set>
      <set comment="kpoint 81">
       <r>   -0.9337    1.0000 </r>
       <r>   -0.6288    1.0000 </r>
       <r>    1.2558    1.0000 </r>
       <r>    2.7199    1.0000 </r>
       <r>    3.2419    1.0000 </r>
       <r>    5.5545   -0.0270 </r>
       <r>   13.4081    0.0000 </r>
       <r>   15.8872    0.0000 </r>
       <r>   17.2001    0.0000 </r>
       <r>   24.5707    0.0000 </r>
       <r>   26.2642    0.0000 </r>
       <r>   32.0368    0.0000 </r>
      </set>
      <set comment="kpoint 82">
       <r>   -1.1545    1.0000 </r>
       <r>   -0.4718    1.0000 </r>
       <r>    1.1758    1.0000 </r>
       <r>    2.1140    1.0000 </r>
       <r>    3.3798    1.0000 </r>
       <r>    3.9970    1.0000 </r>
       <r>   14.5121    0.0000 </r>
       <r>   18.6739    0.0000 </r>
       <r>   18.7624    0.0000 </r>
       <r>   22.7467    0.0000 </r>
       <r>   26.3787    0.0000 </r>
       <r>   32.6904    0.0000 </r>
      </set>
      <set comment="kpoint 83">
       <r>   -2.6207    1.0000 </r>
       <r>    0.6200    1.0000 </r>
       <r>    1.0315    1.0000 </r>
       <r>    1.0315    1.0000 </r>
       <r>    2.4265    1.0000 </r>
       <r>    2.4265    1.0000 </r>
       <r>   16.5716    0.0000 </r>
       <r>   21.6463    0.0000 </r>
       <r>   25.3846    0.0000 </r>
       <r>   25.3846    0.0000 </r>
       <r>   27.6353    0.0000 </r>
       <r>   29.0626    0.0000 </r>
      </set>
      <set comment="kpoint 84">
       <r>   -2.0257    1.0000 </r>
       <r>    0.5011    1.0000 </r>
       <r>    0.9915    1.0000 </r>
       <r>    1.1705    1.0000 </r>
       <r>    2.1972    1.0000 </r>
       <r>    3.2186    1.0000 </r>
       <r>   15.3888    0.0000 </r>
       <r>   20.5974    0.0000 </r>
       <r>   22.9622    0.0000 </r>
       <r>   26.5802    0.0000 </r>
       <r>   26.8013    0.0000 </r>
       <r>   29.0004    0.0000 </r>
      </set>
      <set comment="kpoint 85">
       <r>   -1.0538    1.0000 </r>
       <r>    0.2294    1.0000 </r>
       <r>    0.7246    1.0000 </r>
       <r>    1.5503    1.0000 </r>
       <r>    2.1005    1.0000 </r>
       <r>    4.4210    1.0000 </r>
       <r>   14.4695    0.0000 </r>
       <r>   17.1144    0.0000 </r>
       <r>   22.5461    0.0000 </r>
       <r>   24.9425    0.0000 </r>
       <r>   26.9059    0.0000 </r>
       <r>   31.4893    0.0000 </r>
      </set>
      <set comment="kpoint 86">
       <r>   -0.5649    1.0000 </r>
       <r>    0.3192    1.0000 </r>
       <r>    0.5960    1.0000 </r>
       <r>    1.7083    1.0000 </r>
       <r>    2.5403    1.0000 </r>
       <r>    5.8549   -0.0011 </r>
       <r>   12.6596    0.0000 </r>
       <r>   14.9625    0.0000 </r>
       <r>   22.2528    0.0000 </r>
       <r>   22.4327    0.0000 </r>
       <r>   28.8440    0.0000 </r>
       <r>   31.7608    0.0000 </r>
      </set>
      <set comment="kpoint 87">
       <r>   -0.7909    1.0000 </r>
       <r>    0.1453    1.0000 </r>
       <r>    1.0735    1.0000 </r>
       <r>    1.7770    1.0000 </r>
       <r>    3.1901    1.0000 </r>
       <r>    7.8377   -0.0000 </r>
       <r>    9.3892   -0.0000 </r>
       <r>   15.4941    0.0000 </r>
       <r>   20.2523    0.0000 </r>
       <r>   22.2270    0.0000 </r>
       <r>   31.1280    0.0000 </r>
       <r>   31.8819    0.0000 </r>
      </set>
      <set comment="kpoint 88">
       <r>   -0.9942    1.0000 </r>
       <r>   -0.0839    1.0000 </r>
       <r>    1.0943    1.0000 </r>
       <r>    1.9303    1.0000 </r>
       <r>    3.5339    1.0000 </r>
       <r>    6.4014   -0.0000 </r>
       <r>   10.7700   -0.0000 </r>
       <r>   16.8935    0.0000 </r>
       <r>   18.9488    0.0000 </r>
       <r>   22.4847    0.0000 </r>
       <r>   29.7580    0.0000 </r>
       <r>   32.2175    0.0000 </r>
      </set>
      <set comment="kpoint 89">
       <r>   -1.8236    1.0000 </r>
       <r>    0.7002    1.0000 </r>
       <r>    0.8380    1.0000 </r>
       <r>    1.1536    1.0000 </r>
       <r>    2.9742    1.0000 </r>
       <r>    3.0795    1.0000 </r>
       <r>   14.0244    0.0000 </r>
       <r>   21.2185    0.0000 </r>
       <r>   22.2862    0.0000 </r>
       <r>   23.9913    0.0000 </r>
       <r>   28.8378    0.0000 </r>
       <r>   30.1114    0.0000 </r>
      </set>
      <set comment="kpoint 90">
       <r>   -1.2054    1.0000 </r>
       <r>    0.5120    1.0000 </r>
       <r>    0.5450    1.0000 </r>
       <r>    1.5003    1.0000 </r>
       <r>    2.8230    1.0000 </r>
       <r>    4.4018    1.0000 </r>
       <r>   13.0226    0.0000 </r>
       <r>   18.7538    0.0000 </r>
       <r>   21.0149    0.0000 </r>
       <r>   24.0731    0.0000 </r>
       <r>   28.3596    0.0000 </r>
       <r>   30.9502    0.0000 </r>
      </set>
      <set comment="kpoint 91">
       <r>   -0.3701    1.0000 </r>
       <r>    0.1316    1.0000 </r>
       <r>    0.2934    1.0000 </r>
       <r>    1.9895    1.0000 </r>
       <r>    2.7627    1.0000 </r>
       <r>    5.9917   -0.0000 </r>
       <r>   12.6660    0.0000 </r>
       <r>   15.0038    0.0000 </r>
       <r>   19.7713    0.0000 </r>
       <r>   24.7163    0.0000 </r>
       <r>   28.0741    0.0000 </r>
       <r>   32.8345    0.0000 </r>
      </set>
      <set comment="kpoint 92">
       <r>   -0.4412    1.0000 </r>
       <r>    0.0486    1.0000 </r>
       <r>    0.6242    1.0000 </r>
       <r>    2.0857    1.0000 </r>
       <r>    3.1646    1.0000 </r>
       <r>    7.7877   -0.0000 </r>
       <r>   11.3743    0.0000 </r>
       <r>   13.3907    0.0000 </r>
       <r>   18.2586    0.0000 </r>
       <r>   24.4767    0.0000 </r>
       <r>   29.5677    0.0000 </r>
       <r>   33.2855    0.0000 </r>
      </set>
      <set comment="kpoint 93">
       <r>   -0.7640    1.0000 </r>
       <r>   -0.2390    1.0000 </r>
       <r>    1.0312    1.0000 </r>
       <r>    2.3279    1.0000 </r>
       <r>    3.4500    1.0000 </r>
       <r>    8.0609   -0.0000 </r>
       <r>   10.4241   -0.0000 </r>
       <r>   14.6694    0.0000 </r>
       <r>   17.0554    0.0000 </r>
       <r>   24.4356    0.0000 </r>
       <r>   29.3776    0.0000 </r>
       <r>   31.3429    0.0000 </r>
      </set>
      <set comment="kpoint 94">
       <r>   -1.1345    1.0000 </r>
       <r>    0.1956    1.0000 </r>
       <r>    0.8506    1.0000 </r>
       <r>    1.6129    1.0000 </r>
       <r>    3.4925    1.0000 </r>
       <r>    5.0030    1.0169 </r>
       <r>   11.7359    0.0000 </r>
       <r>   19.0209    0.0000 </r>
       <r>   19.8100    0.0000 </r>
       <r>   22.2063    0.0000 </r>
       <r>   29.9497    0.0000 </r>
       <r>   31.5981    0.0000 </r>
      </set>
      <set comment="kpoint 95">
       <r>   -0.7661    1.0000 </r>
       <r>   -0.0696    1.0000 </r>
       <r>    0.7701    1.0000 </r>
       <r>    2.1089    1.0000 </r>
       <r>    3.3581    1.0000 </r>
       <r>    6.6206   -0.0000 </r>
       <r>   11.0849    0.0000 </r>
       <r>   16.4589    0.0000 </r>
       <r>   17.8135    0.0000 </r>
       <r>   24.0801    0.0000 </r>
       <r>   29.1149    0.0000 </r>
       <r>   31.4968    0.0000 </r>
      </set>
      <set comment="kpoint 96">
       <r>   -0.3894    1.0000 </r>
       <r>   -0.0116    1.0000 </r>
       <r>    0.4349    1.0000 </r>
       <r>    2.2206    1.0000 </r>
       <r>    3.4970    1.0000 </r>
       <r>    8.4160   -0.0000 </r>
       <r>   11.4515    0.0000 </r>
       <r>   13.3097    0.0000 </r>
       <r>   16.1109    0.0000 </r>
       <r>   26.7122    0.0000 </r>
       <r>   28.3518    0.0000 </r>
       <r>   31.5939    0.0000 </r>
      </set>
      <set comment="kpoint 97">
       <r>   -0.5094    1.0000 </r>
       <r>   -0.0048    1.0000 </r>
       <r>    0.5905    1.0000 </r>
       <r>    2.1775    1.0000 </r>
       <r>    3.7063    1.0000 </r>
       <r>    9.6518   -0.0000 </r>
       <r>   11.1382    0.0000 </r>
       <r>   12.4650    0.0000 </r>
       <r>   15.1375    0.0000 </r>
       <r>   27.4655    0.0000 </r>
       <r>   28.9639    0.0000 </r>
       <r>   30.3145    0.0000 </r>
      </set>
      <set comment="kpoint 98">
       <r>   -0.9708    1.0000 </r>
       <r>   -0.2723    1.0000 </r>
       <r>    1.3808    1.0000 </r>
       <r>    2.2586    1.0000 </r>
       <r>    3.4669    1.0000 </r>
       <r>    7.9247   -0.0000 </r>
       <r>   10.0504   -0.0000 </r>
       <r>   14.8073    0.0000 </r>
       <r>   18.3720    0.0000 </r>
       <r>   22.8240    0.0000 </r>
       <r>   29.6228    0.0000 </r>
       <r>   32.6407    0.0000 </r>
      </set>
      <set comment="kpoint 99">
       <r>   -0.8012    1.0000 </r>
       <r>   -0.3111    1.0000 </r>
       <r>    1.2319    1.0000 </r>
       <r>    2.4069    1.0000 </r>
       <r>    3.5048    1.0000 </r>
       <r>    9.2659   -0.0000 </r>
       <r>   10.2195   -0.0000 </r>
       <r>   13.0491    0.0000 </r>
       <r>   16.7387    0.0000 </r>
       <r>   24.6782    0.0000 </r>
       <r>   29.6137    0.0000 </r>
       <r>   31.1416    0.0000 </r>
      </set>
      <set comment="kpoint 100">
       <r>   -0.9868    1.0000 </r>
       <r>   -0.3625    1.0000 </r>
       <r>    1.5737    1.0000 </r>
       <r>    2.5097    1.0000 </r>
       <r>    3.3456    1.0000 </r>
       <r>    9.1008   -0.0000 </r>
       <r>    9.8877   -0.0000 </r>
       <r>   13.0945    0.0000 </r>
       <r>   18.0845    0.0000 </r>
       <r>   23.0428    0.0000 </r>
       <r>   29.5646    0.0000 </r>
       <r>   32.8369    0.0000 </r>
      </set>
      <set comment="kpoint 101">
       <r>   -1.9622    1.0000 </r>
       <r>    0.8761    1.0000 </r>
       <r>    0.8761    1.0000 </r>
       <r>    1.7559    1.0000 </r>
       <r>    2.9589    1.0000 </r>
       <r>    2.9589    1.0000 </r>
       <r>   12.5557    0.0000 </r>
       <r>   20.7522    0.0000 </r>
       <r>   24.1176    0.0000 </r>
       <r>   24.1176    0.0000 </r>
       <r>   29.3215    0.0000 </r>
       <r>   29.3515    0.0000 </r>
      </set>
      <set comment="kpoint 102">
       <r>   -1.6201    1.0000 </r>
       <r>    0.6995    1.0000 </r>
       <r>    0.9863    1.0000 </r>
       <r>    1.6764    1.0000 </r>
       <r>    2.8555    1.0000 </r>
       <r>    4.1958    1.0000 </r>
       <r>   11.4617    0.0000 </r>
       <r>   20.1087    0.0000 </r>
       <r>   21.6961    0.0000 </r>
       <r>   24.1277    0.0000 </r>
       <r>   28.7953    0.0000 </r>
       <r>   30.1403    0.0000 </r>
      </set>
      <set comment="kpoint 103">
       <r>   -0.9262    1.0000 </r>
       <r>    0.3378    1.0000 </r>
       <r>    1.1354    1.0000 </r>
       <r>    1.4327    1.0000 </r>
       <r>    2.8346    1.0000 </r>
       <r>    5.9125   -0.0003 </r>
       <r>   10.9484    0.0000 </r>
       <r>   16.8565    0.0000 </r>
       <r>   21.8655    0.0000 </r>
       <r>   22.3936    0.0000 </r>
       <r>   29.3097    0.0000 </r>
       <r>   31.3914    0.0000 </r>
      </set>
      <set comment="kpoint 104">
       <r>   -0.6613    1.0000 </r>
[...]
      <set comment="kpoint 93">
       <set comment="band 1">
        <r>  0.0448  0.0188  0.8030 </r>
       </set>
       <set comment="band 2">
        <r>  0.0000  0.0641  0.7993 </r>
       </set>
       <set comment="band 3">
        <r>  0.0317  0.0874  0.7633 </r>
       </set>
       <set comment="band 4">
        <r>  0.0013  0.0201  0.9189 </r>
       </set>
       <set comment="band 5">
        <r>  0.0031  0.0015  0.9678 </r>
       </set>
       <set comment="band 6">
        <r>  0.2995  0.2022  0.3112 </r>
       </set>
       <set comment="band 7">
        <r>  0.2465  0.3349  0.1277 </r>
       </set>
       <set comment="band 8">
        <r>  0.1085  0.3881  0.2212 </r>
       </set>
       <set comment="band 9">
        <r>  0.0027  0.4058  0.1995 </r>
       </set>
       <set comment="band 10">
        <r>  0.0254  0.1440  0.2069 </r>
       </set>
       <set comment="band 11">
        <r>  0.0318  0.1192  0.1891 </r>
       </set>
       <set comment="band 12">
        <r>  0.0480  0.0150  0.2198 </r>
       </set>
      </set>
      <set comment="kpoint 94">
       <set comment="band 1">
        <r>  0.1591  0.0364  0.6410 </r>
       </set>
       <set comment="band 2">
        <r>  0.0078  0.0597  0.7965 </r>
       </set>
       <set comment="band 3">
        <r>  0.0749  0.0712  0.7308 </r>
       </set>
       <set comment="band 4">
        <r>  0.0000  0.0088  0.9316 </r>
       </set>
       <set comment="band 5">
        <r>  0.0000  0.0005  0.9776 </r>
       </set>
       <set comment="band 6">
        <r>  0.1524  0.1654  0.5357 </r>
       </set>
       <set comment="band 7">
        <r>  0.2616  0.2998  0.1586 </r>
       </set>
       <set comment="band 8">
        <r>  0.0567  0.2958  0.2081 </r>
       </set>
       <set comment="band 9">
        <r>  0.0000  0.5119  0.0925 </r>
       </set>
       <set comment="band 10">
        <r>  0.0454  0.1345  0.1861 </r>
       </set>
       <set comment="band 11">
        <r>  0.0410  0.1965  0.1372 </r>
       </set>
       <set comment="band 12">
        <r>  0.0000  0.0113  0.1874 </r>
       </set>
      </set>
      <set comment="kpoint 95">
       <set comment="band 1">
        <r>  0.0797  0.0329  0.7467 </r>
       </set>
       <set comment="band 2">
        <r>  0.0008  0.0575  0.8047 </r>
       </set>
       <set comment="band 3">
        <r>  0.0582  0.0746  0.7451 </r>
       </set>
       <set comment="band 4">
        <r>  0.0013  0.0242  0.9113 </r>
       </set>
       <set comment="band 5">
        <r>  0.0009  0.0050  0.9642 </r>
       </set>
       <set comment="band 6">
        <r>  0.2309  0.1857  0.4169 </r>
       </set>
       <set comment="band 7">
        <r>  0.2664  0.3098  0.1394 </r>
       </set>
       <set comment="band 8">
        <r>  0.0972  0.4366  0.1666 </r>
       </set>
       <set comment="band 9">
        <r>  0.0023  0.3343  0.2364 </r>
       </set>
       <set comment="band 10">
        <r>  0.0207  0.1835  0.1399 </r>
       </set>
       <set comment="band 11">
        <r>  0.0114  0.1220  0.1879 </r>
       </set>
       <set comment="band 12">
        <r>  0.0765  0.0245  0.2677 </r>
       </set>
      </set>
      <set comment="kpoint 96">
       <set comment="band 1">
        <r>  0.0060  0.0443  0.7990 </r>
       </set>
       <set comment="band 2">
        <r>  0.0098  0.0595  0.8173 </r>
       </set>
       <set comment="band 3">
        <r>  0.0319  0.0762  0.7710 </r>
       </set>
       <set comment="band 4">
        <r>  0.0145  0.0139  0.9051 </r>
       </set>
       <set comment="band 5">
        <r>  0.0010  0.0039  0.9679 </r>
       </set>
       <set comment="band 6">
        <r>  0.3964  0.1600  0.2415 </r>
       </set>
       <set comment="band 7">
        <r>  0.1844  0.3665  0.1723 </r>
       </set>
       <set comment="band 8">
        <r>  0.0947  0.4504  0.1743 </r>
       </set>
       <set comment="band 9">
        <r>  0.0075  0.3253  0.3001 </r>
       </set>
       <set comment="band 10">
        <r>  0.0028  0.1972  0.1078 </r>
       </set>
       <set comment="band 11">
        <r>  0.0000  0.0476  0.2397 </r>
       </set>
       <set comment="band 12">
        <r>  0.0541  0.1335  0.2313 </r>
       </set>
      </set>
      <set comment="kpoint 97">
       <set comment="band 1">
        <r>  0.0041  0.0427  0.8003 </r>
       </set>
       <set comment="band 2">
        <r>  0.0028  0.0617  0.8233 </r>
       </set>
       <set comment="band 3">
        <r>  0.0048  0.0804  0.8022 </r>
       </set>
       <set comment="band 4">
        <r>  0.0337  0.0036  0.8925 </r>
       </set>
       <set comment="band 5">
        <r>  0.0002  0.0011  0.9778 </r>
       </set>
       <set comment="band 6">
        <r>  0.5705  0.0834  0.1399 </r>
       </set>
       <set comment="band 7">
        <r>  0.0697  0.4592  0.1937 </r>
       </set>
       <set comment="band 8">
        <r>  0.0608  0.4697  0.1862 </r>
       </set>
       <set comment="band 9">
        <r>  0.0000  0.3208  0.3239 </r>
       </set>
       <set comment="band 10">
        <r>  0.0039  0.1127  0.2101 </r>
       </set>
       <set comment="band 11">
        <r>  0.0025  0.0951  0.1836 </r>
       </set>
       <set comment="band 12">
        <r>  0.0223  0.1897  0.1599 </r>
       </set>
      </set>
      <set comment="kpoint 98">
       <set comment="band 1">
        <r>  0.0566  0.0072  0.8060 </r>
       </set>
       <set comment="band 2">
        <r>  0.0007  0.0662  0.7917 </r>
       </set>
       <set comment="band 3">
        <r>  0.0307  0.1042  0.7450 </r>
       </set>
       <set comment="band 4">
        <r>  0.0000  0.0104  0.9353 </r>
       </set>
       <set comment="band 5">
        <r>  0.0000  0.0001  0.9751 </r>
       </set>
       <set comment="band 6">
        <r>  0.2537  0.2255  0.3377 </r>
       </set>
       <set comment="band 7">
        <r>  0.2806  0.3165  0.1050 </r>
       </set>
       <set comment="band 8">
        <r>  0.1014  0.3469  0.2634 </r>
       </set>
       <set comment="band 9">
        <r>  0.0000  0.5239  0.0834 </r>
       </set>
       <set comment="band 10">
        <r>  0.0463  0.0647  0.2905 </r>
       </set>
       <set comment="band 11">
        <r>  0.0676  0.1030  0.2113 </r>
       </set>
       <set comment="band 12">
        <r>  0.0000  0.0033  0.1431 </r>
       </set>
      </set>
      <set comment="kpoint 99">
       <set comment="band 1">
        <r>  0.0321  0.0127  0.8213 </r>
       </set>
       <set comment="band 2">
        <r>  0.0002  0.0668  0.7991 </r>
       </set>
       <set comment="band 3">
        <r>  0.0046  0.0992  0.7838 </r>
       </set>
       <set comment="band 4">
        <r>  0.0105  0.0104  0.9206 </r>
       </set>
       <set comment="band 5">
        <r>  0.0008  0.0023  0.9706 </r>
       </set>
       <set comment="band 6">
        <r>  0.5179  0.1125  0.1583 </r>
       </set>
       <set comment="band 7">
        <r>  0.0626  0.4593  0.1992 </r>
       </set>
       <set comment="band 8">
        <r>  0.1024  0.3608  0.2620 </r>
       </set>
       <set comment="band 9">
        <r>  0.0069  0.4276  0.1856 </r>
       </set>
       <set comment="band 10">
        <r>  0.0282  0.1241  0.2551 </r>
       </set>
       <set comment="band 11">
        <r>  0.0603  0.1190  0.2020 </r>
       </set>
       <set comment="band 12">
        <r>  0.0083  0.0179  0.1518 </r>
       </set>
      </set>
      <set comment="kpoint 100">
       <set comment="band 1">
        <r>  0.0434  0.0008  0.8276 </r>
       </set>
       <set comment="band 2">
        <r>  0.0002  0.0687  0.7906 </r>
       </set>
       <set comment="band 3">
        <r>  0.0040  0.1130  0.7693 </r>
       </set>
       <set comment="band 4">
        <r>  0.0000  0.0108  0.9382 </r>
       </set>
       <set comment="band 5">
        <r>  0.0000  0.0001  0.9717 </r>
       </set>
       <set comment="band 6">
        <r>  0.5142  0.1146  0.1543 </r>
       </set>
       <set comment="band 7">
        <r>  0.0503  0.4647  0.2062 </r>
       </set>
       <set comment="band 8">
        <r>  0.1120  0.3260  0.2923 </r>
       </set>
       <set comment="band 9">
        <r>  0.0000  0.5265  0.0832 </r>
       </set>
       <set comment="band 10">
        <r>  0.0487  0.0557  0.3266 </r>
       </set>
       <set comment="band 11">
        <r>  0.0759  0.0872  0.2231 </r>
       </set>
       <set comment="band 12">
        <r>  0.0000  0.0004  0.1202 </r>
       </set>
      </set>
      <set comment="kpoint 101">
       <set comment="band 1">
        <r>  0.3162  0.0289  0.4487 </r>
       </set>
       <set comment="band 2">
        <r>  0.0000  0.0006  0.9375 </r>
       </set>
       <set comment="band 3">
        <r>  0.0000  0.0006  0.9375 </r>
       </set>
       <set comment="band 4">
        <r>  0.1452  0.2380  0.3769 </r>
       </set>
       <set comment="band 5">
        <r>  0.0000  0.0020  0.9633 </r>
       </set>
       <set comment="band 6">
        <r>  0.0000  0.0020  0.9633 </r>
       </set>
       <set comment="band 7">
        <r>  0.2392  0.2709  0.2210 </r>
       </set>
       <set comment="band 8">
        <r>  0.0000  0.0233  0.0261 </r>
       </set>
       <set comment="band 9">
        <r>  0.0000  0.5242  0.0672 </r>
       </set>
       <set comment="band 10">
        <r>  0.0000  0.5242  0.0672 </r>
       </set>
       <set comment="band 11">
        <r>  0.0706  0.0777  0.1424 </r>
       </set>
       <set comment="band 12">
        <r>  0.0000  0.0002  0.3630 </r>
       </set>
      </set>
      <set comment="kpoint 102">
       <set comment="band 1">
        <r>  0.2465  0.0291  0.5420 </r>
       </set>
       <set comment="band 2">
        <r>  0.0005  0.0040  0.9236 </r>
       </set>
       <set comment="band 3">
        <r>  0.0000  0.0008  0.9354 </r>
       </set>
       <set comment="band 4">
        <r>  0.0784  0.1922  0.5324 </r>
       </set>
       <set comment="band 5">
        <r>  0.0000  0.0020  0.9599 </r>
       </set>
       <set comment="band 6">
        <r>  0.0911  0.0997  0.7080 </r>
       </set>
       <set comment="band 7">
        <r>  0.2739  0.2517  0.2278 </r>
       </set>
       <set comment="band 8">
        <r>  0.0099  0.2009  0.1369 </r>
       </set>
       <set comment="band 9">
        <r>  0.0193  0.3118  0.0167 </r>
       </set>
       <set comment="band 10">
        <r>  0.0000  0.5082  0.0767 </r>
       </set>
       <set comment="band 11">
        <r>  0.0211  0.0351  0.2279 </r>
       </set>
       <set comment="band 12">
        <r>  0.0000  0.0225  0.4602 </r>
       </set>
      </set>
      <set comment="kpoint 103">
       <set comment="band 1">
        <r>  0.1593  0.0437  0.6414 </r>
       </set>
       <set comment="band 2">
        <r>  0.0006  0.0220  0.8752 </r>
       </set>
       <set comment="band 3">
        <r>  0.0253  0.1490  0.6644 </r>
       </set>
       <set comment="band 4">
        <r>  0.0000  0.0054  0.9303 </r>
       </set>
       <set comment="band 5">
        <r>  0.0000  0.0015  0.9596 </r>
       </set>
       <set comment="band 6">
        <r>  0.2204  0.1415  0.4844 </r>
       </set>
       <set comment="band 7">
        <r>  0.2565  0.2712  0.2271 </r>
       </set>
       <set comment="band 8">
        <r>  0.0579  0.4007  0.1992 </r>
       </set>
       <set comment="band 9">
        <r>  0.0179  0.0897  0.0981 </r>
       </set>
       <set comment="band 10">
        <r>  0.0000  0.4999  0.1339 </r>
       </set>
       <set comment="band 11">
        <r>  0.0082  0.0401  0.1363 </r>
       </set>
       <set comment="band 12">
        <r>  0.0000  0.0105  0.3376 </r>
       </set>
      </set>
      <set comment="kpoint 104">
       <set comment="band 1">
        <r>  0.0636  0.0084  0.8092 </r>
       </set>
       <set comment="band 2">
        <r>  0.0111  0.1024  0.7255 </r>
       </set>
       <set comment="band 3">
        <r>  0.0001  0.0988  0.7849 </r>
       </set>
       <set comment="band 4">
        <r>  0.0000  0.0107  0.9289 </r>
       </set>
       <set comment="band 5">
        <r>  0.0000  0.0003  0.9642 </r>
       </set>
       <set comment="band 6">
        <r>  0.4071  0.1299  0.2507 </r>
       </set>
       <set comment="band 7">
        <r>  0.1135  0.3750  0.2643 </r>
       </set>
       <set comment="band 8">
        <r>  0.1288  0.3611  0.2344 </r>
       </set>
       <set comment="band 9">
        <r>  0.0000  0.5119  0.1257 </r>
       </set>
       <set comment="band 10">
        <r>  0.0288  0.0628  0.2347 </r>
       </set>
       <set comment="band 11">
        <r>  0.0004  0.0450  0.0514 </r>
       </set>
       <set comment="band 12">
        <r>  0.0000  0.0006  0.1938 </r>
       </set>
      </set>
      <set comment="kpoint 105">
       <set comment="band 1">
        <r>  0.2117  0.0187  0.6022 </r>
       </set>
       <set comment="band 2">
        <r>  0.0003  0.0038  0.9186 </r>
       </set>
       <set comment="band 3">
        <r>  0.0000  0.0033  0.9330 </r>
       </set>
       <set comment="band 4">
        <r>  0.0453  0.1591  0.6313 </r>
       </set>
       <set comment="band 5">
        <r>  0.0000  0.0004  0.9760 </r>
       </set>
       <set comment="band 6">
        <r>  0.1020  0.2091  0.5149 </r>
       </set>
       <set comment="band 7">
        <r>  0.3295  0.2008  0.2530 </r>
       </set>
       <set comment="band 8">
        <r>  0.0012  0.0455  0.0670 </r>
       </set>
       <set comment="band 9">
        <r>  0.0000  0.5138  0.0637 </r>
       </set>
       <set comment="band 10">
        <r>  0.0362  0.4393  0.0994 </r>
       </set>
       <set comment="band 11">
        <r>  0.0000  0.0055  0.3493 </r>
       </set>
       <set comment="band 12">
        <r>  0.0067  0.0067  0.4518 </r>
       </set>
      </set>
      <set comment="kpoint 106">
       <set comment="band 1">
        <r>  0.1554  0.0322  0.6596 </r>
       </set>
       <set comment="band 2">
        <r>  0.0001  0.0125  0.8891 </r>
       </set>
       <set comment="band 3">
        <r>  0.0025  0.0345  0.8806 </r>
       </set>
       <set comment="band 4">
        <r>  0.0137  0.1158  0.7395 </r>
       </set>
       <set comment="band 5">
        <r>  0.0006  0.0036  0.9653 </r>
       </set>
       <set comment="band 6">
        <r>  0.1507  0.2461  0.4067 </r>
       </set>
       <set comment="band 7">
        <r>  0.3445  0.1894  0.2545 </r>
       </set>
       <set comment="band 8">
        <r>  0.0480  0.4232  0.1490 </r>
       </set>
       <set comment="band 9">
        <r>  0.0181  0.2448  0.1690 </r>
       </set>
       <set comment="band 10">
        <r>  0.0017  0.3284  0.0233 </r>
       </set>
       <set comment="band 11">
        <r>  0.0124  0.0158  0.3608 </r>
       </set>
       <set comment="band 12">
        <r>  0.0012  0.0154  0.2774 </r>
       </set>
      </set>
      <set comment="kpoint 107">
       <set comment="band 1">
        <r>  0.0792  0.0344  0.7570 </r>
       </set>
       <set comment="band 2">
        <r>  0.0067  0.0503  0.8059 </r>
       </set>
       <set comment="band 3">
        <r>  0.0002  0.1080  0.7660 </r>
       </set>
       <set comment="band 4">
        <r>  0.0015  0.0138  0.9207 </r>
       </set>
       <set comment="band 5">
        <r>  0.0045  0.0010  0.9624 </r>
       </set>
       <set comment="band 6">
        <r>  0.3873  0.1500  0.2556 </r>
       </set>
       <set comment="band 7">
        <r>  0.1489  0.3371  0.2735 </r>
       </set>
       <set comment="band 8">
        <r>  0.0998  0.4061  0.1945 </r>
       </set>
       <set comment="band 9">
        <r>  0.0126  0.3617  0.2114 </r>
       </set>
       <set comment="band 10">
        <r>  0.0052  0.2054  0.0997 </r>
       </set>
       <set comment="band 11">
        <r>  0.0041  0.0215  0.2584 </r>
       </set>
       <set comment="band 12">
        <r>  0.0912  0.0706  0.1080 </r>
       </set>
      </set>
      <set comment="kpoint 108">
       <set comment="band 1">
        <r>  0.1257  0.0276  0.7045 </r>
       </set>
       <set comment="band 2">
        <r>  0.0019  0.0330  0.8483 </r>
       </set>
       <set comment="band 3">
        <r>  0.0091  0.1265  0.7291 </r>
       </set>
       <set comment="band 4">
        <r>  0.0000  0.0071  0.9297 </r>
       </set>
       <set comment="band 5">
        <r>  0.0000  0.0003  0.9735 </r>
       </set>
       <set comment="band 6">
        <r>  0.0449  0.3850  0.3211 </r>
       </set>
       <set comment="band 7">
        <r>  0.4740  0.0756  0.2722 </r>
       </set>
       <set comment="band 8">
        <r>  0.0627  0.3644  0.1964 </r>
       </set>
       <set comment="band 9">
        <r>  0.0000  0.5129  0.0943 </r>
       </set>
       <set comment="band 10">
        <r>  0.0258  0.1032  0.1369 </r>
       </set>
       <set comment="band 11">
        <r>  0.0110  0.0225  0.2789 </r>
       </set>
       <set comment="band 12">
        <r>  0.0000  0.0069  0.2817 </r>
       </set>
      </set>
      <set comment="kpoint 109">
       <set comment="band 1">
        <r>  0.2138  0.0026  0.6211 </r>
       </set>
       <set comment="band 2">
        <r>  0.0000  0.0001  0.9351 </r>
       </set>
       <set comment="band 3">
        <r>  0.0000  0.0001  0.9351 </r>
       </set>
       <set comment="band 4">
        <r>  0.0000  0.0004  0.9743 </r>
       </set>
       <set comment="band 5">
        <r>  0.0000  0.0004  0.9743 </r>
       </set>
       <set comment="band 6">
        <r>  0.0734  0.4832  0.0834 </r>
       </set>
       <set comment="band 7">
        <r>  0.4137  0.0988  0.3278 </r>
       </set>
       <set comment="band 8">
        <r>  0.0000  0.0222  0.0026 </r>
       </set>
       <set comment="band 9">
        <r>  0.0000  0.5198  0.0080 </r>
       </set>
       <set comment="band 10">
        <r>  0.0000  0.5198  0.0080 </r>
       </set>
       <set comment="band 11">
        <r>  0.0000  0.0001  0.5219 </r>
       </set>
       <set comment="band 12">
        <r>  0.0000  0.0001  0.5219 </r>
       </set>
      </set>
      <set comment="kpoint 110">
       <set comment="band 1">
        <r>  0.1857  0.0119  0.6464 </r>
       </set>
       <set comment="band 2">
        <r>  0.0000  0.0044  0.9179 </r>
       </set>
       <set comment="band 3">
        <r>  0.0000  0.0018  0.9329 </r>
       </set>
       <set comment="band 4">
        <r>  0.0010  0.1591  0.6970 </r>
       </set>
       <set comment="band 5">
        <r>  0.0000  0.0004  0.9733 </r>
       </set>
       <set comment="band 6">
        <r>  0.0217  0.3991  0.3053 </r>
       </set>
       <set comment="band 7">
        <r>  0.4808  0.0293  0.3588 </r>
       </set>
       <set comment="band 8">
        <r>  0.0053  0.1159  0.0867 </r>
       </set>
       <set comment="band 9">
        <r>  0.0255  0.3921  0.0411 </r>
       </set>
       <set comment="band 10">
        <r>  0.0000  0.5127  0.0461 </r>
       </set>
       <set comment="band 11">
        <r>  0.0170  0.0038  0.4139 </r>
       </set>
       <set comment="band 12">
        <r>  0.0000  0.0062  0.4690 </r>
       </set>
      </set>
     </set>
    </set>
   </array>
  </projected>
 </calculation>
 <structure name="finalpos" >
  <crystal>
   <varray name="basis" >
    <v>       0.00000000       2.05000000       2.05000000 </v>
    <v>       2.05000000       0.00000000       2.05000000 </v>
    <v>       2.05000000       2.05000000       0.00000000 </v>
   </varray>
   <i name="volume">     17.23025000 </i>
   <varray name="rec_basis" >
    <v>      -0.24390244       0.24390244       0.24390244 </v>
    <v>       0.24390244      -0.24390244       0.24390244 </v>
    <v>       0.24390244       0.24390244      -0.24390244 </v>
   </varray>
  </crystal>
  <varray name="positions" >
   <v>       0.00000000       0.00000000       0.00000000 </v>
  </varray>
 </structure>
</modeling>
