bcc Fe                                  
   3.05000000000000     
    -0.500000    0.500000    0.500000
     0.500000   -0.500000    0.500000
     0.500000    0.500000   -0.500000
   Fe
     1
Direct
  0.000000  0.000000  0.000000
 
   24   24   24
  121.10      115.39      99.903      78.725      56.430      36.601      21.385      11.584      6.6805      4.9083    
  4.0968      3.6236      3.4714      3.6236      4.0968      4.9083      6.6805      11.584      21.385      36.601    
  56.430      78.725      99.903      115.39      115.39      113.52      101.41      82.387      60.896      40.805    
  24.648      13.613      7.5923      5.2055      4.2759      3.7072      3.4598      3.5087      3.8601      4.5407    
  5.7291      9.1080      16.715      29.526      47.209      68.134      89.288      106.47      99.903      101.41    
  93.378      78.088      59.358      40.935      25.506      14.498      8.1229      5.3832      4.3628      3.7397    
  3.4225      3.3795      3.6045      4.1261      4.9699      6.9139      11.951      21.463      35.640      53.421    
  72.474      89.288      78.725      82.387      78.088      67.095      52.319      37.011      23.723      13.936    
  8.0426      5.3642      4.3381      3.7064      3.3549      3.2460      3.3612      3.7215      4.3671      5.4179    
  8.1636      14.220      24.286      37.898      53.421      68.134      56.430      60.896      59.358      52.319    
  41.765      30.238      19.915      12.149      7.3748      5.1319      4.2038      3.6044      3.2545      3.1123    
  3.1482      3.3708      3.8232      4.5421      5.8110      8.9658      15.081      24.286      35.640      47.209    
  36.601      40.805      40.935      37.011      30.238      22.417      15.223      9.7497      6.3729      4.7557    
  3.9816      3.4459      3.1264      2.9803      2.9709      3.0943      3.3827      3.8887      4.6341      5.9705    
  8.9658      14.220      21.463      29.526      21.385      24.648      25.506      23.723      19.915      15.223    
  10.798      7.4259      5.3638      4.3363      3.7062      3.2541      2.9830      2.8534      2.8272      2.8916    
  3.0641      3.3884      3.9108      4.6341      5.8110      8.1636      11.951      16.715      11.584      13.613    
  14.498      13.936      12.149      9.7497      7.4259      5.6573      4.5712      3.9228      3.4160      3.0565    
  2.8413      2.7379      2.7131      2.7501      2.8545      3.0537      3.3884      3.8887      4.5421      5.4179    
  6.9139      9.1080      6.6805      7.5923      8.1229      8.0426      7.3748      6.3729      5.3638      4.5712    
  4.0043      3.5273      3.1448      2.8770      2.7168      2.6413      2.6258      2.6547      2.7264      2.8545    
  3.0641      3.3827      3.8232      4.3671      4.9699      5.7291      4.9083      5.2055      5.3832      5.3642    
  5.1319      4.7557      4.3363      3.9228      3.5273      3.1842      2.9165      2.7308      2.6199      2.5693    
  2.5643      2.5941      2.6547      2.7501      2.8916      3.0943      3.3708      3.7215      4.1261      4.5407    
  4.0968      4.2759      4.3628      4.3381      4.2038      3.9816      3.7062      3.4160      3.1448      2.9165    
  2.7426      2.6236      2.5536      2.5246      2.5297      2.5643      2.6258      2.7131      2.8272      2.9709    
  3.1482      3.3612      3.6045      3.8601      3.6236      3.7072      3.7397      3.7064      3.6044      3.4459    
  3.2541      3.0565      2.8770      2.7308      2.6236      2.5537      2.5162      2.5070      2.5246      2.5693    
  2.6413      2.7379      2.8534      2.9803      3.1123      3.2460      3.3795      3.5087      3.4714      3.4598    
  3.4225      3.3549      3.2545      3.1264      2.9830      2.8413      2.7168      2.6199      2.5536      2.5162    
  2.5042      2.5162      2.5536      2.6199      2.7168      2.8413      2.9830      3.1264      3.2545      3.3549    
  3.4225      3.4598      3.6236      3.5087      3.3795      3.2460      3.1123      2.9803      2.8534      2.7379    
  2.6413      2.5693      2.5246      2.5070      2.5162      2.5537      2.6236      2.7308      2.8770      3.0565    
  3.2541      3.4459      3.6044      3.7064      3.7397      3.7072      4.0968      3.8601      3.6045      3.3612    
  3.1482      2.9709      2.8272      2.7131      2.6258      2.5643      2.5297      2.5246      2.5536      2.6236    
  2.7426      2.9165      3.1448      3.4160      3.7062      3.9816      4.2038      4.3381      4.3628      4.2759    
  4.9083      4.5407      4.1261      3.7215      3.3708      3.0943      2.8916      2.7501      2.6547      2.5941    
  2.5643      2.5693      2.6199      2.7308      2.9165      3.1842      3.5273      3.9228      4.3363      4.7557    
  5.1319      5.3642      5.3832      5.2055      6.6805      5.7291      4.9699      4.3671      3.8232      3.3827    
  3.0641      2.8545      2.7264      2.6547      2.6258      2.6413      2.7168      2.8770      3.1448      3.5273    
  4.0043      4.5712      5.3638      6.3729      7.3748      8.0426      8.1229      7.5923      11.584      9.1080    
  6.9139      5.4179      4.5421      3.8887      3.3884      3.0537      2.8545      2.7501      2.7131      2.7379    
  2.8413      3.0565      3.4160      3.9228      4.5712      5.6573      7.4259      9.7497      12.149      13.936    
  14.498      13.613      21.385      16.715      11.951      8.1636      5.8110      4.6341      3.9108      3.3884    
  3.0641      2.8916      2.8272      2.8534      2.9830      3.2541      3.7062      4.3363      5.3638      7.4259    
  10.798      15.223      19.915      23.723      25.506      24.648      36.601      29.526      21.463      14.220    
  8.9658      5.9705      4.6341      3.8887      3.3827      3.0943      2.9709      2.9803      3.1264      3.4459    
  3.9816      4.7557      6.3729      9.7497      15.223      22.417      30.238      37.011      40.935      40.805    
  56.430      47.209      35.640      24.286      15.081      8.9658      5.8110      4.5421      3.8232      3.3708    
  3.1482      3.1123      3.2545      3.6044      4.2038      5.1319      7.3748      12.149      19.915      30.238    
  41.765      52.319      59.358      60.896      78.725      68.134      53.421      37.898      24.286      14.220    
  8.1636      5.4179      4.3671      3.7215      3.3612      3.2460      3.3549      3.7064      4.3381      5.3642    
  8.0426      13.936      23.723      37.011      52.319      67.095      78.088      82.387      99.903      89.288    
  72.474      53.421      35.640      21.463      11.951      6.9139      4.9699      4.1261      3.6045      3.3795    
  3.4225      3.7397      4.3628      5.3832      8.1229      14.498      25.506      40.935      59.358      78.088    
  93.378      101.41      115.39      106.47      89.288      68.134      47.209      29.526      16.715      9.1080    
  5.7291      4.5407      3.8601      3.5087      3.4598      3.7072      4.2759      5.2055      7.5923      13.613    
  24.648      40.805      60.896      82.387      101.41      113.52      115.39      113.52      101.41      82.387    
  60.896      40.805      24.648      13.613      7.5923      5.2055      4.2759      3.7072      3.4598      3.5087    
  3.8601      4.5407      5.7291      9.1080      16.715      29.526      47.209      68.134      89.288      106.47    
  113.52      115.39      106.47      89.287      68.133      47.209      29.527      16.716      9.1082      5.7292    
  4.5407      3.8601      3.5087      3.4598      3.7072      4.2759      5.2054      7.5922      13.612      24.649    
  40.805      60.896      82.388      101.41      101.41      106.47      101.41      87.696      68.938      49.221    
  31.778      18.547      10.203      6.1601      4.7072      3.9582      3.5277      3.3902      3.5277      3.9582    
  4.7072      6.1600      10.202      18.547      31.778      49.222      68.939      87.697      82.387      89.287    
  87.696      78.088      63.106      46.287      30.741      18.506      10.458      6.3208      4.7477      3.9780    
  3.5054      3.3042      3.3451      3.6352      4.2112      5.1209      7.3669      12.761      22.334      35.961    
  52.328      68.939      60.896      68.133      68.938      63.106      52.320      39.320      26.791      16.639    
  9.7764      6.1208      4.6531      3.9095      3.4345      3.2022      3.1737      3.3434      3.7441      4.4176    
  5.5359      8.3966      14.329      23.744      35.961      49.221      40.805      47.209      49.221      46.287    
  39.320      30.238      21.130      13.587      8.4202      5.6262      4.4390      3.7602      3.3173      3.0851    
  3.0190      3.1017      3.3543      3.8261      4.5481      5.8139      8.8001      14.329      22.333      31.777    
  24.648      29.527      31.778      30.741      26.791      21.130      15.223      10.256      6.8539      5.0120    
  4.1432      3.5534      3.1668      2.9581      2.8819      2.9135      3.0605      3.3619      3.8685      4.5934    
  5.8139      8.3966      12.761      18.547      13.613      16.716      18.547      18.506      16.639      13.587    
  10.256      7.4257      5.5032      4.4432      3.8056      3.3203      3.0033      2.8309      2.7629      2.7724    
  2.8568      3.0397      3.3640      3.8685      4.5480      5.5358      7.3668      10.202      7.5923      9.1082    
  10.203      10.458      9.7764      8.4202      6.8539      5.5032      4.5711      3.9627      3.4674      3.0923    
  2.8482      2.7155      2.6639      2.6693      2.7239      2.8384      3.0397      3.3619      3.8261      4.4175    
  5.1209      6.1600      5.2055      5.7292      6.1601      6.3208      6.1208      5.6262      5.0120      4.4432    
  3.9627      3.5273      3.1634      2.8930      2.7173      2.6222      2.5877      2.5971      2.6417      2.7239    
  2.8568      3.0605      3.3542      3.7441      4.2112      4.7072      4.2759      4.5407      4.7072      4.7477    
  4.6531      4.4390      4.1432      3.8056      3.4674      3.1634      2.9165      2.7358      2.6187      2.5561    
  2.5370      2.5526      2.5971      2.6693      2.7724      2.9135      3.1017      3.3434      3.6352      3.9582    
  3.7072      3.8601      3.9582      3.9780      3.9095      3.7602      3.5534      3.3203      3.0923      2.8930    
  2.7358      2.6236      2.5529      2.5177      2.5133      2.5370      2.5877      2.6639      2.7629      2.8819    
  3.0190      3.1737      3.3451      3.5277      3.4598      3.5087      3.5277      3.5054      3.4345      3.3173    
  3.1668      3.0033      2.8482      2.7173      2.6187      2.5529      2.5162      2.5049      2.5177      2.5561    
  2.6222      2.7155      2.8309      2.9581      3.0852      3.2022      3.3042      3.3902      3.5087      3.4598    
  3.3902      3.3042      3.2022      3.0851      2.9581      2.8309      2.7155      2.6222      2.5561      2.5177    
  2.5049      2.5162      2.5529      2.6187      2.7173      2.8482      3.0033      3.1668      3.3173      3.4345    
  3.5054      3.5277      3.8601      3.7072      3.5277      3.3451      3.1737      3.0190      2.8819      2.7629    
  2.6639      2.5877      2.5370      2.5133      2.5177      2.5529      2.6236      2.7358      2.8930      3.0923    
  3.3203      3.5534      3.7602      3.9095      3.9780      3.9582      4.5407      4.2759      3.9582      3.6352    
  3.3434      3.1017      2.9135      2.7724      2.6693      2.5971      2.5526      2.5370      2.5561      2.6187    
  2.7358      2.9165      3.1634      3.4674      3.8056      4.1432      4.4390      4.6531      4.7476      4.7072    
  5.7291      5.2054      4.7072      4.2112      3.7441      3.3543      3.0605      2.8568      2.7239      2.6417    
  2.5971      2.5877      2.6222      2.7173      2.8930      3.1634      3.5273      3.9628      4.4433      5.0121    
  5.6263      6.1208      6.3207      6.1600      9.1080      7.5922      6.1600      5.1209      4.4176      3.8261    
  3.3619      3.0397      2.8384      2.7239      2.6693      2.6639      2.7155      2.8482      3.0923      3.4674    
  3.9628      4.5713      5.5034      6.8541      8.4202      9.7763      10.458      10.202      16.715      13.612    
  10.202      7.3669      5.5359      4.5481      3.8685      3.3640      3.0397      2.8568      2.7724      2.7629    
  2.8309      3.0033      3.3203      3.8056      4.4433      5.5034      7.4259      10.256      13.587      16.638    
  18.506      18.547      29.526      24.649      18.547      12.761      8.3966      5.8139      4.5934      3.8685    
  3.3619      3.0605      2.9135      2.8819      2.9581      3.1668      3.5534      4.1432      5.0121      6.8541    
  10.256      15.223      21.130      26.790      30.740      31.777      47.209      40.805      31.778      22.334    
  14.329      8.8001      5.8139      4.5480      3.8261      3.3542      3.1017      3.0190      3.0852      3.3173    
  3.7602      4.4390      5.6263      8.4202      13.587      21.130      30.238      39.319      46.286      49.221    
  68.134      60.896      49.222      35.961      23.744      14.329      8.3966      5.5358      4.4175      3.7441    
  3.3434      3.1737      3.2022      3.4345      3.9095      4.6531      6.1208      9.7763      16.638      26.790    
  39.319      52.319      63.106      68.939      89.288      82.388      68.939      52.328      35.961      22.333    
  12.761      7.3668      5.1209      4.2112      3.6352      3.3451      3.3042      3.5054      3.9780      4.7476    
  6.3207      10.458      18.506      30.740      46.286      63.106      78.089      87.697      106.47      101.41    
  87.697      68.939      49.221      31.777      18.547      10.202      6.1600      4.7072      3.9582      3.5277    
  3.3902      3.5277      3.9582      4.7072      6.1600      10.202      18.547      31.777      49.221      68.939    
  87.697      101.41      99.903      101.41      93.378      78.088      59.358      40.935      25.506      14.498    
  8.1229      5.3832      4.3628      3.7397      3.4225      3.3795      3.6045      4.1261      4.9699      6.9139    
  11.951      21.463      35.640      53.421      72.474      89.288      101.41      106.47      101.41      87.696    
  68.938      49.221      31.778      18.547      10.203      6.1601      4.7072      3.9582      3.5277      3.3902    
  3.5277      3.9582      4.7072      6.1600      10.202      18.547      31.778      49.222      68.939      87.697    
  93.378      101.41      99.902      89.287      72.474      53.421      35.640      21.463      11.951      6.9141    
  4.9700      4.1261      3.6045      3.3795      3.4225      3.7397      4.3627      5.3831      8.1228      14.498    
  25.506      40.935      59.359      78.089      78.088      87.696      89.287      82.387      68.939      52.328    
  35.961      22.334      12.761      7.3670      5.1209      4.2112      3.6352      3.3451      3.3042      3.5054    
  3.9780      4.7476      6.3207      10.458      18.506      30.740      46.287      63.106      59.358      68.938    
  72.474      68.939      59.359      46.287      32.674      20.897      12.340      7.3189      5.1065      4.1946    
  3.6061      3.2828      3.1817      3.2828      3.6061      4.1947      5.1066      7.3189      12.340      20.896    
  32.673      46.286      40.935      49.221      53.421      52.328      46.287      37.011      26.791      17.649    
  10.854      6.7784      4.9141      4.0764      3.5145      3.1906      3.0584      3.0876      3.2853      3.6934    
  4.3527      5.4115      7.9654      13.056      20.896      30.740      25.506      31.778      35.640      35.961    
  32.674      26.791      19.915      13.586      8.8241      5.9523      4.5959      3.8755      3.3708      3.0730    
  2.9365      2.9246      3.0327      3.2907      3.7494      4.4341      5.5350      7.9653      12.340      18.506    
  14.498      18.547      21.463      22.334      20.897      17.649      13.586      9.7493      6.8536      5.1140    
  4.2265      3.6233      3.1961      2.9417      2.8193      2.7922      2.8474      3.0007      3.2926      3.7682    
  4.4341      5.4115      7.3189      10.458      8.1229      10.203      11.951      12.761      12.340      10.854    
  8.8241      6.8536      5.3635      4.4431      3.8397      3.3558      3.0157      2.8121      2.7132      2.6872    
  2.7180      2.8104      2.9895      3.2926      3.7493      4.3527      5.1066      6.3207      5.3832      6.1601    
  6.9141      7.3670      7.3189      6.7784      5.9523      5.1140      4.4431      3.9228      3.4675      3.1049    
  2.8514      2.6988      2.6251      2.6074      2.6311      2.6948      2.8104      3.0007      3.2907      3.6934    
  4.1947      4.7476      4.3628      4.7072      4.9700      5.1209      5.1065      4.9141      4.5959      4.2265    
  3.8397      3.4675      3.1449      2.8931      2.7174      2.6110      2.5604      2.5523      2.5771      2.6311    
  2.7180      2.8474      3.0327      3.2853      3.6061      3.9780      3.7397      3.9582      4.1261      4.2112    
  4.1946      4.0764      3.8755      3.6233      3.3558      3.1049      2.8931      2.7308      2.6187      2.5512    
  2.5213      2.5229      2.5523      2.6074      2.6872      2.7922      2.9246      3.0876      3.2828      3.5054    
  3.4225      3.5277      3.6045      3.6352      3.6061      3.5145      3.3708      3.1961      3.0157      2.8514    
  2.7174      2.6187      2.5536      2.5177      2.5073      2.5213      2.5604      2.6251      2.7132      2.8194    
  2.9365      3.0585      3.1817      3.3042      3.3795      3.3902      3.3795      3.3451      3.2828      3.1906    
  3.0730      2.9417      2.8121      2.6988      2.6110      2.5512      2.5177      2.5070      2.5177      2.5512    
  2.6110      2.6988      2.8121      2.9417      3.0730      3.1906      3.2828      3.3451      3.6045      3.5277    
  3.4225      3.3042      3.1817      3.0584      2.9365      2.8193      2.7132      2.6251      2.5604      2.5213    
  2.5073      2.5177      2.5536      2.6187      2.7174      2.8514      3.0156      3.1961      3.3707      3.5145    
  3.6061      3.6352      4.1261      3.9582      3.7397      3.5054      3.2828      3.0876      2.9246      2.7922    
  2.6872      2.6074      2.5523      2.5229      2.5213      2.5512      2.6187      2.7308      2.8930      3.1049    
  3.3558      3.6233      3.8755      4.0765      4.1947      4.2112      4.9699      4.7072      4.3627      3.9780    
  3.6061      3.2853      3.0327      2.8474      2.7180      2.6311      2.5771      2.5523      2.5604      2.6110    
  2.7174      2.8930      3.1448      3.4675      3.8398      4.2266      4.5961      4.9142      5.1066      5.1209    
  6.9139      6.1600      5.3831      4.7476      4.1947      3.6934      3.2907      3.0007      2.8104      2.6948    
  2.6311      2.6074      2.6251      2.6988      2.8514      3.1049      3.4675      3.9229      4.4433      5.1142    
  5.9526      6.7786      7.3189      7.3668      11.951      10.202      8.1228      6.3207      5.1066      4.3527    
  3.7494      3.2926      2.9895      2.8104      2.7180      2.6872      2.7132      2.8121      3.0156      3.3558    
  3.8398      4.4433      5.3638      6.8540      8.8244      10.854      12.340      12.761      21.463      18.547    
  14.498      10.458      7.3189      5.4115      4.4341      3.7682      3.2926      3.0007      2.8474      2.7922    
  2.8194      2.9417      3.1961      3.6233      4.2266      5.1142      6.8540      9.7496      13.586      17.649    
  20.896      22.333      35.640      31.778      25.506      18.506      12.340      7.9654      5.5350      4.4341    
  3.7493      3.2907      3.0327      2.9246      2.9365      3.0730      3.3707      3.8755      4.5961      5.9526    
  8.8244      13.586      19.915      26.790      32.673      35.961      53.421      49.222      40.935      30.740    
  20.896      13.056      7.9653      5.4115      4.3527      3.6934      3.2853      3.0876      3.0585      3.1906    
  3.5145      4.0765      4.9142      6.7786      10.854      17.649      26.790      37.010      46.287      52.328    
  72.474      68.939      59.359      46.287      32.673      20.896      12.340      7.3189      5.1066      4.1947    
  3.6061      3.2828      3.1817      3.2828      3.6061      4.1947      5.1066      7.3189      12.340      20.896    
  32.673      46.287      59.359      68.939      89.288      87.697      78.089      63.106      46.286      30.740    
  18.506      10.458      6.3207      4.7476      3.9780      3.5054      3.3042      3.3451      3.6352      4.2112    
  5.1209      7.3668      12.761      22.333      35.961      52.328      68.939      82.388      78.725      82.387    
  78.088      67.095      52.319      37.011      23.723      13.936      8.0426      5.3642      4.3381      3.7064    
  3.3549      3.2460      3.3612      3.7215      4.3671      5.4179      8.1636      14.220      24.286      37.898    
  53.421      68.134      82.387      89.287      87.696      78.088      63.106      46.287      30.741      18.506    
  10.458      6.3208      4.7477      3.9780      3.5054      3.3042      3.3451      3.6352      4.2112      5.1209    
  7.3669      12.761      22.334      35.961      52.328      68.939      78.088      87.696      89.287      82.387    
  68.939      52.328      35.961      22.334      12.761      7.3670      5.1209      4.2112      3.6352      3.3451    
  3.3042      3.5054      3.9780      4.7476      6.3207      10.458      18.506      30.740      46.287      63.106    
  67.095      78.088      82.387      78.725      68.134      53.421      37.898      24.286      14.221      8.1636    
  5.4178      4.3671      3.7214      3.3612      3.2460      3.3549      3.7064      4.3380      5.3641      8.0424    
  13.936      23.722      37.010      52.319      52.319      63.106      68.939      68.134      60.897      49.222    
  35.961      23.744      14.329      8.3964      5.5357      4.4174      3.7441      3.3433      3.1737      3.2022    
  3.4345      3.9095      4.6531      6.1208      9.7763      16.638      26.790      39.319      37.011      46.287    
  52.328      53.421      49.222      40.935      30.740      20.896      13.056      7.9650      5.4112      4.3526    
  3.6934      3.2853      3.0876      3.0584      3.1906      3.5145      4.0765      4.9142      6.7786      10.854    
  17.649      26.790      23.723      30.741      35.961      37.898      35.961      30.740      23.722      16.638    
  10.854      7.0391      5.0812      4.1830      3.5741      3.1888      2.9886      2.9278      2.9886      3.1888    
  3.5741      4.1830      5.0814      7.0395      10.854      16.638      13.936      18.506      22.334      24.286    
  23.744      20.896      16.638      12.148      8.4196      5.9523      4.6551      3.9358      3.4046      3.0644    
  2.8815      2.8115      2.8307      2.9447      3.1870      3.6048      4.2192      5.0814      6.7786      9.7763    
  8.0426      10.458      12.761      14.221      14.329      13.056      10.854      8.4196      6.3724      5.0120    
  4.2266      3.6475      3.2109      2.9292      2.7748      2.7106      2.7120      2.7757      2.9214      3.1858    
  3.6048      4.1830      4.9142      6.1208      5.3642      6.3208      7.3670      8.1636      8.3964      7.9650    
  7.0391      5.9523      5.0120      4.3364      3.8058      3.3559      3.0198      2.8008      2.6791      2.6278    
  2.6259      2.6662      2.7574      2.9214      3.1870      3.5741      4.0765      4.6531      4.3381      4.7477    
  5.1209      5.4178      5.5357      5.4112      5.0812      4.6551      4.2266      3.8058      3.4162      3.0924    
  2.8515      2.6926      2.6029      2.5658      2.5673      2.6002      2.6662      2.7757      2.9447      3.1888    
  3.5145      3.9095      3.7064      3.9780      4.2112      4.3671      4.4174      4.3526      4.1830      3.9358    
  3.6475      3.3559      3.0924      2.8770      2.7173      2.6110      2.5503      2.5270      2.5340      2.5673    
  2.6259      2.7120      2.8307      2.9886      3.1906      3.4345      3.3549      3.5054      3.6352      3.7214    
  3.7441      3.6934      3.5741      3.4046      3.2109      3.0198      2.8515      2.7173      2.6199      2.5561    
  2.5213      2.5120      2.5270      2.5658      2.6278      2.7107      2.8115      2.9278      3.0585      3.2022    
  3.2460      3.3042      3.3451      3.3612      3.3433      3.2853      3.1888      3.0644      2.9292      2.8008    
  2.6926      2.6110      2.5561      2.5246      2.5133      2.5213      2.5504      2.6029      2.6791      2.7748    
  2.8815      2.9886      3.0876      3.1737      3.3612      3.3451      3.3042      3.2460      3.1737      3.0876    
  2.9886      2.8815      2.7748      2.6791      2.6029      2.5503      2.5213      2.5133      2.5246      2.5561    
  2.6110      2.6925      2.8007      2.9292      3.0644      3.1888      3.2853      3.3434      3.7215      3.6352    
  3.5054      3.3549      3.2022      3.0584      2.9278      2.8115      2.7106      2.6278      2.5658      2.5270    
  2.5120      2.5213      2.5561      2.6199      2.7173      2.8514      3.0197      3.2109      3.4045      3.5741    
  3.6934      3.7441      4.3671      4.2112      3.9780      3.7064      3.4345      3.1906      2.9886      2.8307    
  2.7120      2.6259      2.5673      2.5340      2.5270      2.5504      2.6110      2.7173      2.8770      3.0923    
  3.3558      3.6474      3.9357      4.1830      4.3527      4.4175      5.4179      5.1209      4.7476      4.3380    
  3.9095      3.5145      3.1888      2.9447      2.7757      2.6662      2.6002      2.5673      2.5658      2.6029    
  2.6925      2.8514      3.0923      3.4160      3.8056      4.2266      4.6552      5.0814      5.4115      5.5358    
  8.1636      7.3669      6.3207      5.3641      4.6531      4.0765      3.5741      3.1870      2.9214      2.7574    
  2.6662      2.6259      2.6278      2.6791      2.8007      3.0197      3.3558      3.8056      4.3364      5.0121    
  5.9526      7.0395      7.9653      8.3966      14.220      12.761      10.458      8.0424      6.1208      4.9142    
  4.1830      3.6048      3.1858      2.9214      2.7757      2.7120      2.7107      2.7748      2.9292      3.2109    
  3.6474      4.2266      5.0121      6.3728      8.4201      10.854      13.056      14.329      24.286      22.334    
  18.506      13.936      9.7763      6.7786      5.0814      4.2192      3.6048      3.1870      2.9447      2.8307    
  2.8115      2.8815      3.0644      3.4045      3.9357      4.6552      5.9526      8.4201      12.149      16.638    
  20.896      23.744      37.898      35.961      30.740      23.722      16.638      10.854      7.0395      5.0814    
  4.1830      3.5741      3.1888      2.9886      2.9278      2.9886      3.1888      3.5741      4.1830      5.0814    
  7.0395      10.854      16.638      23.722      30.740      35.961      53.421      52.328      46.287      37.010    
  26.790      17.649      10.854      6.7786      4.9142      4.0765      3.5145      3.1906      3.0585      3.0876    
  3.2853      3.6934      4.3527      5.4115      7.9653      13.056      20.896      30.740      40.935      49.222    
  68.134      68.939      63.106      52.319      39.319      26.790      16.638      9.7763      6.1208      4.6531    
  3.9095      3.4345      3.2022      3.1737      3.3434      3.7441      4.4175      5.5358      8.3966      14.329    
  23.744      35.961      49.222      60.896      56.430      60.896      59.358      52.319      41.765      30.238    
  19.915      12.149      7.3748      5.1319      4.2038      3.6044      3.2545      3.1123      3.1482      3.3708    
  3.8232      4.5421      5.8110      8.9658      15.081      24.286      35.640      47.209      60.896      68.133    
  68.938      63.106      52.320      39.320      26.791      16.639      9.7764      6.1208      4.6531      3.9095    
  3.4345      3.2022      3.1737      3.3434      3.7441      4.4176      5.5359      8.3966      14.329      23.744    
  35.961      49.221      59.358      68.938      72.474      68.939      59.359      46.287      32.674      20.897    
  12.340      7.3189      5.1065      4.1946      3.6061      3.2828      3.1817      3.2828      3.6061      4.1947    
  5.1066      7.3189      12.340      20.896      32.673      46.286      52.319      63.106      68.939      68.134    
  60.897      49.222      35.961      23.744      14.329      8.3964      5.5357      4.4174      3.7441      3.3433    
  3.1737      3.2022      3.4345      3.9095      4.6531      6.1208      9.7763      16.638      26.790      39.319    
  41.765      52.320      59.359      60.897      56.431      47.210      35.640      24.285      15.080      8.9653    
  5.8107      4.5419      3.8232      3.3708      3.1482      3.1123      3.2545      3.6044      4.2037      5.1319    
  7.3747      12.149      19.915      30.238      30.238      39.320      46.287      49.222      47.210      40.806    
  31.778      22.333      14.328      8.7995      5.8136      4.5479      3.8261      3.3543      3.1018      3.0190    
  3.0851      3.3173      3.7602      4.4390      5.6262      8.4201      13.586      21.130      19.915      26.791    