    1    1    1    2
  0.1418631E+02  0.2641377E-09  0.2641377E-09  0.2641377E-09  0.5000000E-15
  1.000000000000000E-004
  CAR 
 bcc Fe                                  
      8     44     12
 
  0.5000000E-01  0.5000000E-01  0.5000000E-01  0.8000000E-02
    1       -2.869862     -2.756115   1.000000   1.000000
    2        1.620602      4.008377   1.000000   0.277596
    3        1.620602      4.008377   1.000000   0.277596
    4        1.982290      4.440971   1.000000  -0.001528
    5        2.582065      5.599048   1.000000  -0.000000
    6        2.582065      5.599048   1.000000  -0.000000
    7       23.855899     23.913657   0.000000   0.000000
    8       23.855899     23.913657   0.000000   0.000000
    9       26.162918     26.768340   0.000000   0.000000
   10       27.177299     27.101936   0.000000   0.000000
   11       30.137028     30.605060   0.000000   0.000000
   12       30.137028     30.605060   0.000000   0.000000
 
  0.1500000E+00  0.5000000E-01  0.5000000E-01  0.2400000E-01
    1       -1.907718     -1.765289   1.000000   1.000000
    2        1.414489      3.735629   1.000000   1.032116
    3        1.529477      3.838215   1.000000   0.909404
    4        2.462817      4.973586   1.000000  -0.000000
    5        2.505036      5.462057   1.000000  -0.000000
    6        2.626930      5.664046   1.000000  -0.000000
    7       19.628320     20.092479   0.000000   0.000000
    8       21.960889     22.171897   0.000000   0.000000
    9       23.346782     24.161288   0.000000   0.000000
   10       27.140183     26.948236   0.000000   0.000000
   11       29.645042     30.254131   0.000000   0.000000
   12       30.486947     30.758262   0.000000   0.000000
 
  0.2500000E+00  0.5000000E-01  0.5000000E-01  0.2400000E-01
    1       -0.676477     -0.311766   1.000000   1.000000
    2        1.185209      3.431611   1.000000   1.000699
    3        1.621543      3.622255   1.000000   1.020468
    4        2.541299      5.458725   1.000000  -0.000000
    5        2.678843      5.695504   1.000000  -0.000000
    6        3.157917      5.743869   1.000000  -0.000000
    7       15.262902     16.031869   0.000000   0.000000
    8       20.414965     20.645055   0.000000   0.000000
    9       21.364329     22.099908   0.000000   0.000000
   10       26.410830     26.499224   0.000000   0.000000
   11       28.870951     29.428332   0.000000   0.000000
   12       32.293653     32.508266   0.000000   0.000000
 
  0.3500000E+00  0.5000000E-01  0.5000000E-01  0.2400000E-01
    1       -0.103894      1.039291   1.000000   1.000000
    2        1.010843      3.202605   1.000000   1.000001
    3        2.457702      3.752024   1.000000   1.025928
    4        2.656656      5.533333   1.000000  -0.000000
    5        2.716569      5.809716   1.000000  -0.000000
    6        4.130678      6.412377  -0.008779  -0.000000
    7       11.423025     12.553181   0.000000   0.000000
    8       19.398248     19.601172   0.000000   0.000000
    9       20.022323     20.688691   0.000000   0.000000
   10       25.878817     26.115256   0.000000   0.000000
   11       28.525516     29.099089   0.000000   0.000000
   12       34.682710     34.706841   0.000000   0.000000
 
  0.4500000E+00  0.5000000E-01  0.5000000E-01  0.1200000E-01
    1       -0.057174      1.486100   1.000000   1.000000
    2        0.946857      3.118758   1.000000   1.000000
    3        2.646412      4.164183   1.000000  -0.029781
    4        2.732600      5.565014   1.000000  -0.000000
    5        3.029051      5.837802   1.000000  -0.000000
    6        5.189628      6.822371  -0.000000  -0.000000
    7        9.343666     10.894187  -0.000000   0.000000
    8       19.044972     19.230961   0.000000   0.000000
    9       19.534846     20.165457   0.000000   0.000000
   10       25.704072     25.986762   0.000000   0.000000
   11       28.447669     29.038601   0.000000   0.000000
   12       34.780936     34.699992   0.000000   0.000000
 
 -0.5000000E-01  0.5000000E-01  0.5000000E-01  0.6000000E-02
    1       -3.212152     -3.101279   1.000000   1.000000
    2        1.705705      4.120747   1.000000   0.001373
    3        1.705757      4.120768   1.000000   0.001349
    4        1.745148      4.175549   1.000000  -0.033086
    5        2.554354      5.565820   1.000000  -0.000000
    6        2.642329      5.687783   1.000000  -0.000000
    7       25.450782     25.187249   0.000000   0.000000
    8       26.272083     26.055704   0.000000   0.000000
    9       26.272090     26.055721   0.000000   0.000000
   10       28.389914     28.835753   0.000000   0.000000
   11       29.447463     30.297788   0.000000   0.000000
   12       29.447488     30.297796   0.000000   0.000000
 
  0.1500000E+00  0.1500000E+00  0.5000000E-01  0.2400000E-01
    1       -0.801733     -0.555802   1.000000   1.000000
    2        1.272082      3.494247   1.000000   1.002734
    3        1.284167      3.500301   1.000000   1.003082
    4        2.515822      5.460349   1.000000  -0.000000
    5        2.682332      5.681051   1.000000  -0.000000
    6        3.203614      5.752042   1.000001  -0.000000
    7       17.598681     18.142128   0.000000   0.000000
    8       18.106367     18.708787   0.000000   0.000000
    9       20.866171     21.484720   0.000000   0.000000
   10       28.266719     28.082515   0.000000   0.000000
   11       30.888534     31.261545   0.000000   0.000000
   12       32.134290     32.526331   0.000000   0.000000
 
  0.2500000E+00  0.1500000E+00  0.5000000E-01  0.4800000E-01
    1        0.139990      0.899968   1.000000   1.000000
    2        1.066870      3.204458   1.000000   1.000001
    3        1.483755      3.340063   1.000000   1.000064
    4        2.579608      5.512306   1.000000  -0.000000
    5        2.750021      5.806938   1.000000  -0.000000
    6        4.320656      6.606750  -0.013113  -0.000000
    7       13.659355     14.505919   0.000000   0.000000
    8       16.538361     17.143747   0.000000   0.000000
    9       19.458809     20.006552   0.000000   0.000000
   10       28.203224     28.209773   0.000000   0.000000
   11       31.686165     32.005844   0.000000   0.000000
   12       32.694942     33.052333   0.000000   0.000000
 
  0.3500000E+00  0.1500000E+00  0.5000000E-01  0.4800000E-01
    1        0.273563      1.796249   1.000000   1.000000
    2        0.969225      3.077207   1.000000   1.000000
    3        2.059089      3.535947   1.000000   1.005948
    4        2.656933      5.593907   1.000000  -0.000000
    5        2.828946      5.851121   1.000000  -0.000000
    6        6.001511      7.630215  -0.000000  -0.000000
    7       10.264786     11.519702   0.000000   0.000000
    8       15.816935     16.414062   0.000000   0.000000
    9       18.732793     19.245651   0.000000   0.000000
   10       27.958381     28.065988   0.000000   0.000000
   11       32.025670     32.474573   0.000000   0.000000
   12       33.491431     33.528654   0.000000   0.000000
 
 -0.1500000E+00  0.1500000E+00  0.5000000E-01  0.2400000E-01
    1       -2.537160     -2.417744   1.000000   1.000000
    2        1.580419      3.953094   1.000000   0.502164
    3        1.690979      4.065118   1.000000   0.099940
    4        2.038415      4.510758   1.000000  -0.000294
    5        2.420570      5.364326   1.000000  -0.000000
    6        2.682824      5.738690   1.000000  -0.000000
    7       21.867179     22.148984   0.000000   0.000000
    8       24.479149     24.506300   0.000000   0.000000
    9       24.804155     25.107396   0.000000   0.000000
   10       27.672416     28.148947   0.000000   0.000000
   11       27.703620     28.241746   0.000000   0.000000
   12       28.710952     29.075822   0.000000   0.000000
 
  0.2500000E+00  0.2500000E+00  0.5000000E-01  0.2400000E-01
    1        0.595816      2.041337   1.000000   1.000000
    2        1.032747      2.981305   1.000000   1.000000
    3        1.473696      3.219946   1.000000   1.000001
    4        2.650859      5.595740   1.000000  -0.000000
    5        2.811631      5.832690   1.000000  -0.000000
    6        6.203764      7.953871  -0.000000  -0.000000
    7       12.382908     13.280191   0.000000   0.000000
    8       12.880929     13.709086   0.000000   0.000000
    9       18.551160     19.095020   0.000000   0.000000
   10       29.440555     29.413468   0.000000   0.000000
   11       31.673959     31.845069   0.000000   0.000000
   12       36.707096     36.955305   0.000000   0.000000
 
  0.3500000E+00  0.2500000E+00  0.5000000E-01  0.2400000E-01
    1        0.639946      2.435979   1.000000   1.000000
    2        1.060516      2.989618   1.000000   1.000000
    3        1.534015      3.184471   1.000000   1.000000
    4        2.716550      5.675688   1.000000  -0.000000
    5        2.817416      5.807857   1.000000  -0.000000
    6        8.209135      9.416742  -0.000000   0.000000
    7        9.875557     11.100267   0.000000   0.000000
    8       12.334978     13.183488   0.000000   0.000000
    9       18.255001     18.805175   0.000000   0.000000
   10       29.853149     29.868619   0.000000   0.000000
   11       31.944663     31.915373   0.000000   0.000000
   12       36.079560     36.667684   0.000000   0.000000
 
 -0.2500000E+00  0.2500000E+00  0.5000000E-01  0.2400000E-01
    1       -1.356231     -1.153226   1.000000   1.000000
    2        1.361396      3.665927   1.000000   1.030288
    3        1.650926      3.860163   1.000000   0.851562
    4        2.411433      5.125953   1.000000  -0.000000
    5        2.566568      5.281443   1.000000  -0.000000
    6        2.730222      5.787568   1.000000  -0.000000
    7       17.363050     18.003845   0.000000   0.000000
    8       22.526315     22.587730   0.000000   0.000000
    9       22.966663     23.604990   0.000000   0.000000
   10       26.154461     26.580339   0.000000   0.000000
   11       27.420669     27.918076   0.000000   0.000000
   12       29.647412     29.870480   0.000000   0.000000
 
 -0.1500000E+00  0.2500000E+00  0.5000000E-01  0.2400000E-01
    1       -1.609630     -1.448868   1.000000   1.000000
    2        1.537117      3.850431   1.000000   0.878691
    3        1.549318      3.882196   1.000000   0.781865
    4        2.286698      4.953199   1.000000  -0.000000
    5        2.439596      5.137064   1.000000  -0.000000
    6        2.780164      5.837833   1.000000  -0.000000
    7       19.627164     20.054961   0.000000   0.000000
    8       20.315588     20.872663   0.000000   0.000000
    9       25.085398     25.230906   0.000000   0.000000
   10       25.099235     25.647735   0.000000   0.000000
   11       27.771326     28.123381   0.000000   0.000000
   12       30.682526     30.975583   0.000000   0.000000
 
 -0.3500000E+00  0.3500000E+00  0.5000000E-01  0.2400000E-01
    1       -0.347799      0.361924   1.000000   1.000000
    2        1.149379      3.390838   1.000000   1.000255
    3        2.041576      3.723633   1.000000   1.034503
    4        2.583401      5.390207   1.000000  -0.000000
    5        2.955985      5.821838   1.000000  -0.000000
    6        3.151244      5.860382   1.000000  -0.000000
    7       13.187087     14.134884   0.000000   0.000000
    8       21.057303     21.095778   0.000000   0.000000
    9       21.305172     21.978851   0.000000   0.000000
   10       25.310276     25.765353   0.000000   0.000000
   11       27.269228     27.795939   0.000000   0.000000
   12       31.340486     31.553005   0.000000   0.000000
 
 -0.2500000E+00  0.3500000E+00  0.5000000E-01  0.4800000E-01
    1       -0.445048     -0.035329   1.000000   1.000000
    2        1.301268      3.544476   1.000000   1.006879
    3        1.539308      3.668871   1.000000   1.030875
    4        2.370688      5.154711   1.000000  -0.000000
    5        2.823614      5.624072   1.000000  -0.000000
    6        3.256821      5.971738   1.000005  -0.000000
    7       15.522651     16.273630   0.000000   0.000000
    8       18.388612     18.946228   0.000000   0.000000
    9       23.029124     23.416029   0.000000   0.000000
   10       25.372449     25.671547   0.000000   0.000000
   11       28.240741     28.622835   0.000000   0.000000
   12       31.106864     31.452325   0.000000   0.000000
 
 -0.4500000E+00  0.4500000E+00  0.5000000E-01  0.2400000E-01
    1       -0.122261      1.319462   1.000000   1.000000
    2        1.021639      3.226535   1.000000   1.000002
    3        2.453491      4.098085   1.000000   0.032550
    4        2.618496      5.477890   1.000000  -0.000000
    5        3.550253      6.038795   1.007570  -0.000000
    6        4.312325      6.308228  -0.014679  -0.000000
    7        9.937333     11.347427   0.000000   0.000000
    8       20.276406     20.286621   0.000000   0.000000
    9       20.318180     20.939987   0.000000   0.000000
   10       24.942809     25.446659   0.000000   0.000000
   11       27.278582     27.857233   0.000000   0.000000
   12       32.826691     32.853146   0.000000   0.000000
 
 -0.3500000E+00  0.4500000E+00  0.5000000E-01  0.4800000E-01
    1        0.086083      1.282451   1.000000   1.000000
    2        1.153548      3.336626   1.000000   1.000058
    3        1.835358      3.588168   1.000000   1.013408
    4        2.532408      5.327521   1.000000  -0.000000
    5        3.113494      5.923463   1.000000  -0.000000
    6        4.523986      6.630582  -0.000209  -0.000000
    7       11.642751     12.725257   0.000000   0.000000
    8       17.290499     17.848599   0.000000   0.000000
    9       21.698847     22.016391   0.000000   0.000000
   10       25.396023     25.807230   0.000000   0.000000
   11       29.391192     29.697059   0.000000   0.000000
   12       30.921462     31.260156   0.000000   0.000000
 
 -0.2500000E+00  0.4500000E+00  0.5000000E-01  0.2400000E-01
    1        0.341293      1.290438   1.000000   1.000000
    2        1.080242      3.195928   1.000000   1.000001
    3        1.538407      3.573861   1.000000   1.010936
    4        2.456432      5.226436   1.000000  -0.000000
    5        2.935712      5.828658   1.000000  -0.000000
    6        4.656413      6.819723  -0.000004  -0.000000
    7       14.006998     14.833259   0.000000   0.000000
    8       14.366344     15.124898   0.000000   0.000000
    9       22.537237     22.988024   0.000000   0.000000
   10       25.443018     25.589628   0.000000   0.000000
   11       28.197094     28.570413   0.000000   0.000000
   12       34.989620     35.285274   0.000000   0.000000
 
 -0.4500000E+00 -0.4500000E+00  0.5000000E-01  0.2400000E-01
    1        0.118410      1.727929   1.000000   1.000000
    2        1.106355      3.293880   1.000000   1.000016
    3        2.011097      3.721378   1.000000   1.034779
    4        2.550797      5.381367   1.000000  -0.000000
    5        3.337403      6.068533   1.000059  -0.000000
    6        5.868892      7.273825  -0.000000  -0.000000
    7        9.431674     10.924590   0.000000   0.000000
    8       16.898444     17.446219   0.000000   0.000000
    9       21.238821     21.525444   0.000000   0.000000
   10       25.380725     25.837505   0.000000   0.000000
   11       30.196490     30.687108   0.000000   0.000000
   12       30.851425     30.858194   0.000000   0.000000
 
 -0.3500000E+00 -0.4500000E+00  0.5000000E-01  0.4800000E-01
    1        0.544980      2.190236   1.000000   1.000000
    2        1.092228      3.104142   1.000000   1.000000
    3        1.503031      3.389847   1.000000   1.000248
    4        2.610939      5.402783   1.000000  -0.000000
    5        3.050170      5.860750   1.000000  -0.000000
    6        6.774460      8.272145  -0.000000  -0.000000
    7       10.619849     11.759804   0.000000   0.000000
    8       13.468334     14.243475   0.000000   0.000000
    9       21.972614     22.410106   0.000000   0.000000
   10       25.918055     26.133627   0.000000   0.000000
   11       28.726702     28.858553   0.000000   0.000000
   12       33.485926     34.258906   0.000000   0.000000
 
 -0.3500000E+00 -0.3500000E+00  0.5000000E-01  0.8000000E-02
    1        0.866994      2.845805   1.000000   1.000000
    2        1.130504      2.989930   1.000000   1.000000
    3        1.130510      2.989949   1.000000   1.000000
    4        2.851420      5.650943   1.000000  -0.000000
    5        2.851471      5.650971   1.000000  -0.000000
    6        9.408085     10.530642  -0.000000   0.000000
    7        9.408090     10.530655  -0.000000   0.000000
    8       11.156323     12.190445   0.000000   0.000000
    9       21.989737     22.495979   0.000000   0.000000
   10       27.344433     27.431840   0.000000   0.000000
   11       27.344447     27.431883   0.000000   0.000000
   12       32.627900     33.586614   0.000000   0.000000
 
  0.1500000E+00  0.1500000E+00  0.1500000E+00  0.8000000E-02
    1        0.272607      0.753453   1.000000   1.000000
    2        1.069534      3.183074   1.000000   1.000000
    3        1.069534      3.183074   1.000000   1.000000
    4        2.661784      5.693470   1.000000  -0.000000
    5        2.661784      5.693470   1.000000  -0.000000
    6        4.314736      6.636755  -0.014215  -0.000000
    7       16.102819     16.702470   0.000000   0.000000
    8       16.102819     16.702470   0.000000   0.000000
    9       16.735700     17.514367   0.000000   0.000000
   10       31.037106     30.636338   0.000000   0.000000
   11       33.775542     33.970720   0.000000   0.000000
   12       33.775542     33.970720   0.000000   0.000000
 
  0.2500000E+00  0.1500000E+00  0.1500000E+00  0.2400000E-01
    1        0.675027      1.969270   1.000000   1.000000
    2        0.950246      2.991226   1.000000   1.000000
    3        1.417818      3.073778   1.000000   1.000000
    4        2.694642      5.718035   1.000000  -0.000000
    5        2.727783      5.818054   1.000000  -0.000000
    6        6.013094      7.839344  -0.000000  -0.000000
    7       12.362687     13.262292   0.000000   0.000000
    8       15.165231     15.789060   0.000000   0.000000
    9       15.451914     16.154168   0.000000   0.000000
   10       31.698302     31.509808   0.000000   0.000000
   11       34.390216     34.683732   0.000000   0.000000
   12       35.929691     35.942652   0.000000   0.000000
 
  0.3500000E+00  0.1500000E+00  0.1500000E+00  0.1200000E-01
    1        0.617739      2.293596   1.000000   1.000000
    2        0.913454      2.928341   1.000000   1.000000
    3        1.760239      3.284820   1.000000   1.000012
    4        2.717112      5.739167   1.000000  -0.000000
    5        2.744543      5.855752   1.000000  -0.000000
    6        7.774797      9.009279  -0.000000  -0.000000
    7        9.829387     11.115685   0.000000   0.000000
    8       14.848035     15.477912   0.000000   0.000000
    9       15.068232     15.754022   0.000000   0.000000
   10       31.611220     31.507046   0.000000   0.000000
   11       34.619288     35.059985   0.000000   0.000000
   12       36.192099     36.131349   0.000000   0.000000
 
 -0.1500000E+00  0.1500000E+00  0.1500000E+00  0.6000000E-02
    1       -1.898775     -1.760199   1.000000   1.000000
    2        1.758938      4.127613   1.000000  -0.005859
    3        1.758988      4.127630   1.000000  -0.005877
    4        2.049987      4.533152   1.000000  -0.000164
    5        2.091926      4.913723   1.000000  -0.000000
    6        2.823933      5.892173   1.000000  -0.000000
    7       21.866640     21.931044   0.000000   0.000000
    8       22.442553     23.012077   0.000000   0.000000
    9       22.442571     23.012093   0.000000   0.000000
   10       23.901198     24.346865   0.000000   0.000000
   11       30.190767     30.427748   0.000000   0.000000
   12       30.190799     30.427754   0.000000   0.000000
 
  0.2500000E+00  0.2500000E+00  0.1500000E+00  0.2400000E-01
    1        0.829545      2.634635   1.000000   1.000000
    2        1.066303      2.895364   1.000000   1.000000
    3        1.345288      2.989464   1.000000   1.000000
    4        2.735984      5.804129   1.000000  -0.000000
    5        2.752724      5.848227   1.000000  -0.000000
    6        8.362314      9.650882  -0.000000   0.000000
    7       11.365999     12.302014   0.000000   0.000000
    8       12.003345     12.881111   0.000000   0.000000
    9       14.684115     15.362985   0.000000   0.000000
   10       33.945754     33.772102   0.000000   0.000000
   11       35.382368     35.328839   0.000000   0.000000
   12       38.190873     38.374802   0.000000   0.000000
 
 -0.2500000E+00  0.2500000E+00  0.1500000E+00  0.2400000E-01
    1       -0.816966     -0.556435   1.000000   1.000000
    2        1.582528      3.953238   1.000000   0.501555
    3        1.657828      3.988746   1.000000   0.353825
    4        2.097048      4.723099   1.000000  -0.000000
    5        2.507355      5.055990   1.000000  -0.000000
    6        3.036262      6.008968   1.000000  -0.000000
    7       17.885284     18.510318   0.000000   0.000000
    8       20.407617     21.068959   0.000000   0.000000
    9       21.185387     21.458149   0.000000   0.000000
   10       23.992039     24.423603   0.000000   0.000000
   11       29.569436     29.962126   0.000000   0.000000
   12       30.724820     31.000905   0.000000   0.000000
 
 -0.3500000E+00  0.3500000E+00  0.1500000E+00  0.2400000E-01
    1        0.053450      0.863448   1.000000   1.000000
    2        1.420102      3.530650   1.000000   1.005422
    3        1.485489      3.766402   1.000000   1.017150
    4        2.366933      4.991065   1.000000  -0.000000
    5        3.100689      5.759134   1.000000  -0.000000
    6        3.818097      6.267844   0.951788  -0.000000
    7       13.682110     14.569604   0.000000   0.000000
    8       18.817946     19.473990   0.000000   0.000000
    9       20.104972     20.395356   0.000000   0.000000
   10       25.529456     25.889226   0.000000   0.000000
   11       28.584287     29.035499   0.000000   0.000000
   12       30.482135     30.835507   0.000000   0.000000
 
 -0.2500000E+00  0.3500000E+00  0.1500000E+00  0.2400000E-01
    1        0.075567      0.700023   1.000000   1.000000
    2        1.221879      3.550244   1.000000   1.007569
    3        1.765488      4.036869   1.000000   0.179257
    4        2.197473      4.747116   1.000000  -0.000000
    5        2.870268      5.535365   1.000000  -0.000000
    6        3.772312      6.293420   1.012501  -0.000000
    7       16.139494     16.860462   0.000000   0.000000
    8       16.438727     17.128516   0.000000   0.000000
    9       21.953180     22.284559   0.000000   0.000000
   10       22.787778     23.250034   0.000000   0.000000
   11       29.108692     29.522355   0.000000   0.000000
   12       33.824442     34.097804   0.000000   0.000000
 
 -0.4500000E+00  0.4500000E+00  0.1500000E+00  0.2400000E-01
    1        0.205985      1.777862   1.000000   1.000000
    2        1.377161      3.415879   1.000000   1.000479
    3        1.571596      3.626918   1.000000   1.021527
    4        2.417744      5.118458   1.000000  -0.000000
    5        3.514063      6.264321   1.004010  -0.000000
    6        5.635982      7.120528  -0.000000  -0.000000
    7       10.246709     11.527130   0.000000   0.000000
    8       17.909168     18.522371   0.000000   0.000000
    9       19.523045     19.817538   0.000000   0.000000
   10       27.540764     27.788466   0.000000   0.000000
   11       28.081669     28.555576   0.000000   0.000000
   12       29.559602     29.959961   0.000000   0.000000
 
 -0.3500000E+00  0.4500000E+00  0.1500000E+00  0.4800000E-01
    1        0.480121      1.849870   1.000000   1.000000
    2        1.057807      3.141692   1.000000   1.000000
    3        1.628280      3.872741   1.000000   0.813128
    4        2.434534      5.035823   1.000000  -0.000000
    5        3.216474      5.926536   1.000001  -0.000000
    6        5.542978      7.304036  -0.000000  -0.000000
    7       12.321484     13.272218   0.000000   0.000000
    8       15.179975     15.879304   0.000000   0.000000
    9       21.339489     21.707655   0.000000   0.000000
   10       24.331615     24.686020   0.000000   0.000000
   11       28.232400     28.641194   0.000000   0.000000
   12       31.820995     32.493843   0.000000   0.000000
 
 -0.4500000E+00 -0.4500000E+00  0.1500000E+00  0.2400000E-01
    1        0.464012      2.287011   1.000000   1.000000
    2        1.183919      3.061750   1.000000   1.000000
    3        1.490600      3.726841   1.000000   1.034021
    4        2.497891      5.121842   1.000000  -0.000000
    5        3.402477      6.128673   1.000343  -0.000000
    6        7.415825      8.574120  -0.000000  -0.000000
    7        9.756236     11.063139   0.000000   0.000000
    8       14.768476     15.450165   0.000000   0.000000
    9       21.013160     21.381368   0.000000   0.000000
   10       26.270963     26.403046   0.000000   0.000000
   11       26.889841     27.436811   0.000000   0.000000
   12       30.458515     31.230921   0.000000   0.000000
 
 -0.3500000E+00 -0.4500000E+00  0.1500000E+00  0.2400000E-01
    1        0.799428      2.619263   1.000000   1.000000
    2        0.823564      2.850983   1.000000   1.000000
    3        1.434232      3.591517   1.000000   1.014033
    4        2.784445      5.416514   1.000000  -0.000000
    5        3.150960      5.843666   1.000000  -0.000000
    6        8.045839      9.295137  -0.000000  -0.000000
    7       11.163997     12.141561   0.000000   0.000000
    8       11.939404     12.823913   0.000000   0.000000
    9       23.317716     23.576724   0.000000   0.000000
   10       23.869411     24.249391   0.000000   0.000000
   11       26.316907     26.766960   0.000000   0.000000
   12       30.274848     31.059498   0.000000   0.000000
 
  0.2500000E+00  0.2500000E+00  0.2500000E+00  0.2000000E-02
    1        1.096068      2.878500   1.000000   1.000000
    2        1.096068      2.878507   1.000000   1.000000
    3        1.096114      2.878507   1.000000   1.000000
    4        2.754843      5.869583   1.000000  -0.000000
    5        2.754843      5.869583   1.000000  -0.000000
    6       11.021602     11.969674   0.000000   0.000000
    7       11.021602     11.969674   0.000000   0.000000
    8       11.021636     11.969695   0.000000   0.000000
    9       12.142901     12.973336   0.000000   0.000000
   10       38.743272     38.364845   0.000000   0.000000
   11       38.743277     38.364864   0.000000   0.000000
   12       38.743291     38.364930   0.000000   0.000000
 
 -0.2500000E+00  0.2500000E+00  0.2500000E+00  0.6000000E-02
    1       -0.042622      0.481399   1.000000   1.000000
    2        1.325880      3.851085   1.000000   0.876941
    3        2.043666      4.395249   1.000000  -0.003855
    4        2.043713      4.395264   1.000000  -0.003854
    5        2.549795      5.122554   1.000000  -0.000000
    6        3.589763      6.237919   1.013704  -0.000000
    7       18.216814     18.891573   0.000000   0.000000
    8       18.216817     18.891604   0.000000   0.000000
    9       19.420325     19.830310   0.000000   0.000000
   10       20.748911     21.236533   0.000000   0.000000
   11       33.408961     33.670005   0.000000   0.000000
   12       33.408984     33.670025   0.000000   0.000000
 
 -0.3500000E+00  0.3500000E+00  0.2500000E+00  0.2400000E-01
    1        0.425912      1.582053   1.000000   1.000000
    2        0.932064      3.244661   1.000000   1.000003
    3        2.071992      4.431130   1.000000  -0.001885
    4        2.314702      4.756420   1.000000  -0.000000
    5        3.026963      5.673421   1.000000  -0.000000
    6        4.927361      6.844360  -0.000000  -0.000000
    7       14.582474     15.347818   0.000000   0.000000
    8       16.533981     17.168630   0.000000   0.000000
    9       19.116397     19.634589   0.000000   0.000000
   10       21.365533     21.853871   0.000000   0.000000
   11       30.775595     31.403880   0.000000   0.000000
   12       32.428343     32.848245   0.000000   0.000000
 
 -0.4500000E+00  0.4500000E+00  0.2500000E+00  0.2400000E-01
    1        0.451639      2.282700   1.000000   1.000000
    2        0.821959      2.836966   1.000000   1.000000
    3        2.015168      4.363665   1.000000  -0.006773
    4        2.432477      4.908333   1.000000  -0.000000
    5        3.454683      6.192790   1.001186  -0.000000
    6        7.217525      8.430132  -0.000000  -0.000000
    7       10.976506     11.995414   0.000000   0.000000
    8       15.578875     16.151081   0.000000   0.000000
    9       18.757539     19.323903   0.000000   0.000000
   10       23.431779     23.769086   0.000000   0.000000
   11       27.431383     28.212674   0.000000   0.000000
   12       31.864019     32.286860   0.000000   0.000000
 
 -0.3500000E+00  0.4500000E+00  0.2500000E+00  0.2400000E-01
    1        0.521282      2.224346   1.000000   1.000000
    2        0.609798      2.807906   1.000000   1.000000
    3        2.127980      4.468421   1.000000  -0.000826
    4        2.694417      5.197090   1.000000  -0.000000
    5        3.255396      5.940579   1.000005  -0.000000
    6        6.992982      8.281083  -0.000000  -0.000000
    7       13.257476     14.027825   0.000000   0.000000
    8       13.526611     14.219686   0.000000   0.000000
    9       19.955480     20.439311   0.000000   0.000000
   10       20.986294     21.524603   0.000000   0.000000
   11       27.062461     27.795764   0.000000   0.000000
   12       32.498257     32.920496   0.000000   0.000000
 
 -0.4500000E+00 -0.4500000E+00  0.2500000E+00  0.2400000E-01
    1        0.457494      2.518355   1.000000   1.000000
    2        0.564326      2.563746   1.000000   1.000000