 vasp.5.4.4.18Apr17-6-g9f103f2a35 (build May 18 2018 14:42:58) complex          
  
 executed on             LinuxIFC date 2020.06.30  16:51:16
 running on    4 total cores
 distrk:  each k-point on    4 cores,    1 groups
 distr:  one band on NCORES_PER_BAND=   1 cores,    4 groups


--------------------------------------------------------------------------------------------------------


 INCAR:
 POTCAR:    PAW_PBE Fe 06Sep2000                  
 POTCAR:    PAW_PBE Fe 06Sep2000                  
   VRHFIN =Fe:  d7 s1                                                           
   LEXCH  = PE                                                                  
   EATOM  =   594.3153 eV,   43.6809 Ry                                         
                                                                                
   TITEL  = PAW_PBE Fe 06Sep2000                                                
   LULTRA =        F    use ultrasoft PP ?                                      
   IUNSCR =        1    unscreen: 0-lin 1-nonlin 2-no                           
   RPACOR =    2.000    partial core radius                                     
   POMASS =   55.847; ZVAL   =    8.000    mass and valenz                      
   RCORE  =    2.300    outmost cutoff radius                                   
   RWIGS  =    2.460; RWIGS  =    1.302    wigner-seitz radius (au A)           
   ENMAX  =  267.882; ENMIN  =  200.911 eV                                      
   RCLOC  =    1.701    cutoff for local pot                                    
   LCOR   =        T    correct aug charges                                     
   LPAW   =        T    paw PP                                                  
   EAUG   =  511.368                                                            
   DEXC   =    0.000                                                            
   RMAX   =    2.356    core radius for proj-oper                               
   RAUG   =    1.300    factor for augmentation sphere                          
   RDEP   =    2.442    radius for radial grids                                 
   RDEPT  =    1.890    core radius for aug-charge                              
                                                                                
   Atomic configuration                                                         
    9 entries                                                                   
     n  l   j            E        occ.                                          
     1  0  0.50     -6993.8440   2.0000                                         
     2  0  0.50      -814.6047   2.0000                                         
     2  1  1.50      -693.3689   6.0000                                         
     3  0  0.50       -89.4732   2.0000                                         
     3  1  1.50       -55.6373   6.0000                                         
     3  2  2.50        -3.8151   7.0000                                         
     4  0  0.50        -4.2551   1.0000                                         
     4  1  1.50        -3.4015   0.0000                                         
     4  3  2.50        -1.3606   0.0000                                         
   Description                                                                  
     l       E           TYP  RCUT    TYP  RCUT                                 
     2     -3.8151135     23  2.300                                             
     2     -5.1756961     23  2.300                                             
     0     -4.2550963     23  2.300                                             
     0      7.2035603     23  2.300                                             
     1     -2.7211652     23  2.300                                             
     1     18.4316424     23  2.300                                             
  local pseudopotential read in
  partial core-charges read in
  partial kinetic energy density read in
  atomic valenz-charges read in
  non local Contribution for L=           2  read in
    real space projection operators read in
  non local Contribution for L=           2  read in
    real space projection operators read in
  non local Contribution for L=           0  read in
    real space projection operators read in
  non local Contribution for L=           0  read in
    real space projection operators read in
  non local Contribution for L=           1  read in
    real space projection operators read in
  non local Contribution for L=           1  read in
    real space projection operators read in
    PAW grid and wavefunctions read in
 
   number of l-projection  operators is LMAX  =           6
   number of lm-projection operators is LMMAX =          18
 
  PAW_PBE Fe 06Sep2000                  :
 energy of atom  1       EATOM= -594.3153
 kinetic energy error for atom=    0.0345 (will be added to EATOM!!)
 
 
 POSCAR: BCC Fe Bulk                             
  positions in direct lattice
  No initial velocities read in
 exchange correlation table for  LEXCH =        8
   RHO(1)=    0.500       N(1)  =     2000
   RHO(2)=  100.500       N(2)  =     4000
 


--------------------------------------------------------------------------------------------------------


 ion  position               nearest neighbor table
   1  0.000  0.000  0.000-
 
  LATTYP: Found a body centered cubic cell.
 ALAT       =     3.0500000000
  
  Lattice vectors:
  
 A1 = (  -1.5250000000,   1.5250000000,   1.5250000000)
 A2 = (   1.5250000000,  -1.5250000000,   1.5250000000)
 A3 = (   1.5250000000,   1.5250000000,  -1.5250000000)


Analysis of symmetry for initial positions (statically):
=====================================================================
 Subroutine PRICEL returns:
 Original cell was already a primitive cell.
 

 Routine SETGRP: Setting up the symmetry group for a 
 body centered cubic supercell.


 Subroutine GETGRP returns: Found 48 space group operations
 (whereof 48 operations were pure point group operations)
 out of a pool of 48 trial point group operations.


The static configuration has the point symmetry O_h .


Analysis of symmetry for dynamics (positions and initial velocities):
=====================================================================
 Subroutine PRICEL returns:
 Original cell was already a primitive cell.
 

 Routine SETGRP: Setting up the symmetry group for a 
 body centered cubic supercell.


 Subroutine GETGRP returns: Found 48 space group operations
 (whereof 48 operations were pure point group operations)
 out of a pool of 48 trial point group operations.


The dynamic configuration has the point symmetry O_h .


Analysis of structural, dynamic, and magnetic symmetry:
=====================================================================
 Subroutine PRICEL returns:
 Original cell was already a primitive cell.
 

 Routine SETGRP: Setting up the symmetry group for a 
 body centered cubic supercell.


 Subroutine GETGRP returns: Found 48 space group operations
 (whereof 48 operations were pure point group operations)
 out of a pool of 48 trial point group operations.


The magnetic configuration has the point symmetry O_h .


 Subroutine INISYM returns: Found 48 space group operations
 (whereof 48 operations are pure point group operations),
 and found     1 'primitive' translations

 
 
 KPOINTS: 10x10x10                                

Automatic generation of k-mesh.
Space group operators:
 irot       det(A)        alpha          n_x          n_y          n_z        tau_x        tau_y        tau_z
    1     1.000000     0.000000     1.000000     0.000000     0.000000     0.000000     0.000000     0.000000
    2    -1.000000     0.000000     1.000000     0.000000     0.000000     0.000000     0.000000     0.000000
    3     1.000000   120.000000    -0.577350    -0.577350    -0.577350     0.000000     0.000000     0.000000
    4    -1.000000   120.000000    -0.577350    -0.577350    -0.577350     0.000000     0.000000     0.000000
    5     1.000000   120.000000     0.577350     0.577350     0.577350     0.000000     0.000000     0.000000
    6    -1.000000   120.000000     0.577350     0.577350     0.577350     0.000000     0.000000     0.000000
    7     1.000000    90.000000     0.000000     0.000000    -1.000000     0.000000     0.000000     0.000000
    8    -1.000000    90.000000     0.000000     0.000000    -1.000000     0.000000     0.000000     0.000000
    9     1.000000   180.000000     0.000000     0.707107     0.707107     0.000000     0.000000     0.000000
   10    -1.000000   180.000000     0.000000     0.707107     0.707107     0.000000     0.000000     0.000000
   11     1.000000    90.000000     0.000000     1.000000     0.000000     0.000000     0.000000     0.000000
   12    -1.000000    90.000000     0.000000     1.000000     0.000000     0.000000     0.000000     0.000000
   13     1.000000   180.000000     0.000000     0.000000     1.000000     0.000000     0.000000     0.000000
   14    -1.000000   180.000000     0.000000     0.000000     1.000000     0.000000     0.000000     0.000000
   15     1.000000   120.000000    -0.577350     0.577350     0.577350     0.000000     0.000000     0.000000
   16    -1.000000   120.000000    -0.577350     0.577350     0.577350     0.000000     0.000000     0.000000
   17     1.000000   120.000000    -0.577350     0.577350    -0.577350     0.000000     0.000000     0.000000
   18    -1.000000   120.000000    -0.577350     0.577350    -0.577350     0.000000     0.000000     0.000000
   19     1.000000    90.000000     0.000000     0.000000     1.000000     0.000000     0.000000     0.000000
   20    -1.000000    90.000000     0.000000     0.000000     1.000000     0.000000     0.000000     0.000000
   21     1.000000    90.000000    -1.000000     0.000000     0.000000     0.000000     0.000000     0.000000
   22    -1.000000    90.000000    -1.000000     0.000000     0.000000     0.000000     0.000000     0.000000
   23     1.000000   180.000000     0.707107     0.000000     0.707107     0.000000     0.000000     0.000000
   24    -1.000000   180.000000     0.707107     0.000000     0.707107     0.000000     0.000000     0.000000
   25     1.000000   120.000000     0.577350    -0.577350     0.577350     0.000000     0.000000     0.000000
   26    -1.000000   120.000000     0.577350    -0.577350     0.577350     0.000000     0.000000     0.000000
   27     1.000000   120.000000    -0.577350    -0.577350     0.577350     0.000000     0.000000     0.000000
   28    -1.000000   120.000000    -0.577350    -0.577350     0.577350     0.000000     0.000000     0.000000
   29     1.000000   180.000000     1.000000     0.000000     0.000000     0.000000     0.000000     0.000000
   30    -1.000000   180.000000     1.000000     0.000000     0.000000     0.000000     0.000000     0.000000
   31     1.000000    90.000000     0.000000    -1.000000     0.000000     0.000000     0.000000     0.000000
   32    -1.000000    90.000000     0.000000    -1.000000     0.000000     0.000000     0.000000     0.000000
   33     1.000000   180.000000     0.707107     0.707107     0.000000     0.000000     0.000000     0.000000
   34    -1.000000   180.000000     0.707107     0.707107     0.000000     0.000000     0.000000     0.000000
   35     1.000000    90.000000     1.000000     0.000000     0.000000     0.000000     0.000000     0.000000
   36    -1.000000    90.000000     1.000000     0.000000     0.000000     0.000000     0.000000     0.000000
   37     1.000000   120.000000     0.577350    -0.577350    -0.577350     0.000000     0.000000     0.000000
   38    -1.000000   120.000000     0.577350    -0.577350    -0.577350     0.000000     0.000000     0.000000
   39     1.000000   180.000000     0.000000     1.000000     0.000000     0.000000     0.000000     0.000000
   40    -1.000000   180.000000     0.000000     1.000000     0.000000     0.000000     0.000000     0.000000
   41     1.000000   120.000000     0.577350     0.577350    -0.577350     0.000000     0.000000     0.000000
   42    -1.000000   120.000000     0.577350     0.577350    -0.577350     0.000000     0.000000     0.000000
   43     1.000000   180.000000     0.000000    -0.707107     0.707107     0.000000     0.000000     0.000000
   44    -1.000000   180.000000     0.000000    -0.707107     0.707107     0.000000     0.000000     0.000000
   45     1.000000   180.000000     0.707107    -0.707107     0.000000     0.000000     0.000000     0.000000
   46    -1.000000   180.000000     0.707107    -0.707107     0.000000     0.000000     0.000000     0.000000
   47     1.000000   180.000000     0.707107     0.000000    -0.707107     0.000000     0.000000     0.000000
   48    -1.000000   180.000000     0.707107     0.000000    -0.707107     0.000000     0.000000     0.000000
 
 Subroutine IBZKPT returns following result:
 ===========================================
 
 Found     44 irreducible k-points:
 
 Following reciprocal coordinates:
            Coordinates               Weight
  0.050000  0.050000  0.050000      8.000000
  0.150000  0.050000  0.050000     24.000000
  0.250000  0.050000  0.050000     24.000000
  0.350000  0.050000  0.050000     24.000000
  0.450000  0.050000  0.050000     12.000000
 -0.050000  0.050000  0.050000      6.000000
  0.150000  0.150000  0.050000     24.000000
  0.250000  0.150000  0.050000     48.000000
  0.350000  0.150000  0.050000     48.000000
 -0.150000  0.150000  0.050000     24.000000
  0.250000  0.250000  0.050000     24.000000
  0.350000  0.250000  0.050000     24.000000
 -0.250000  0.250000  0.050000     24.000000
 -0.150000  0.250000  0.050000     24.000000
 -0.350000  0.350000  0.050000     24.000000
 -0.250000  0.350000  0.050000     48.000000
 -0.450000  0.450000  0.050000     24.000000
 -0.350000  0.450000  0.050000     48.000000
 -0.250000  0.450000  0.050000     24.000000
 -0.450000 -0.450000  0.050000     24.000000
 -0.350000 -0.450000  0.050000     48.000000
 -0.350000 -0.350000  0.050000      8.000000
  0.150000  0.150000  0.150000      8.000000
  0.250000  0.150000  0.150000     24.000000
  0.350000  0.150000  0.150000     12.000000
 -0.150000  0.150000  0.150000      6.000000
  0.250000  0.250000  0.150000     24.000000
 -0.250000  0.250000  0.150000     24.000000
 -0.350000  0.350000  0.150000     24.000000
 -0.250000  0.350000  0.150000     24.000000
 -0.450000  0.450000  0.150000     24.000000
 -0.350000  0.450000  0.150000     48.000000
 -0.450000 -0.450000  0.150000     24.000000
 -0.350000 -0.450000  0.150000     24.000000
  0.250000  0.250000  0.250000      2.000000
 -0.250000  0.250000  0.250000      6.000000
 -0.350000  0.350000  0.250000     24.000000
 -0.450000  0.450000  0.250000     24.000000
 -0.350000  0.450000  0.250000     24.000000
 -0.450000 -0.450000  0.250000     24.000000
 -0.350000  0.350000  0.350000      6.000000
 -0.450000  0.450000  0.350000     24.000000
 -0.450000 -0.450000  0.350000      8.000000
 -0.450000  0.450000  0.450000      6.000000
 
 Following cartesian coordinates:
            Coordinates               Weight
  0.100000  0.100000  0.100000      8.000000
  0.100000  0.200000  0.200000     24.000000
  0.100000  0.300000  0.300000     24.000000
  0.100000  0.400000  0.400000     24.000000
  0.100000  0.500000  0.500000     12.000000
  0.100000  0.000000  0.000000      6.000000
  0.200000  0.200000  0.300000     24.000000
  0.200000  0.300000  0.400000     48.000000
  0.200000  0.400000  0.500000     48.000000
  0.200000 -0.100000  0.000000     24.000000
  0.300000  0.300000  0.500000     24.000000
  0.300000  0.400000  0.600000     24.000000
  0.300000 -0.200000  0.000000     24.000000
  0.300000 -0.100000  0.100000     24.000000
  0.400000 -0.300000  0.000000     24.000000
  0.400000 -0.200000  0.100000     48.000000
  0.500000 -0.400000  0.000000     24.000000
  0.500000 -0.300000  0.100000     48.000000
  0.500000 -0.200000  0.200000     24.000000
 -0.400000 -0.400000 -0.900000     24.000000
 -0.400000 -0.300000 -0.800000     48.000000
 -0.300000 -0.300000 -0.700000      8.000000
  0.300000  0.300000  0.300000      8.000000
  0.300000  0.400000  0.400000     24.000000
  0.300000  0.500000  0.500000     12.000000
  0.300000  0.000000  0.000000      6.000000
  0.400000  0.400000  0.500000     24.000000
  0.400000 -0.100000  0.000000     24.000000
  0.500000 -0.200000  0.000000     24.000000
  0.500000 -0.100000  0.100000     24.000000
  0.600000 -0.300000  0.000000     24.000000
  0.600000 -0.200000  0.100000     48.000000
 -0.300000 -0.300000 -0.900000     24.000000
 -0.300000 -0.200000 -0.800000     24.000000
  0.500000  0.500000  0.500000      2.000000
  0.500000  0.000000  0.000000      6.000000
  0.600000 -0.100000  0.000000     24.000000
  0.700000 -0.200000  0.000000     24.000000
  0.700000 -0.100000  0.100000     24.000000
 -0.200000 -0.200000 -0.900000     24.000000
  0.700000  0.000000  0.000000      6.000000
  0.800000 -0.100000  0.000000     24.000000
 -0.100000 -0.100000 -0.900000      8.000000
  0.900000  0.000000  0.000000      6.000000
 


--------------------------------------------------------------------------------------------------------




 Dimension of arrays:
   k-points           NKPTS =     44   k-points in BZ     NKDIM =     44   number of bands    NBANDS=     12
   number of dos      NEDOS =    301   number of ions     NIONS =      1
   non local maximal  LDIM  =      6   non local SUM 2l+1 LMDIM =     18
   total plane-waves  NPLWV =   1728
   max r-space proj   IRMAX =      1   max aug-charges    IRDMAX=   4538
   dimension x,y,z NGX =    12 NGY =   12 NGZ =   12
   dimension x,y,z NGXF=    24 NGYF=   24 NGZF=   24
   support grid    NGXF=    24 NGYF=   24 NGZF=   24
   ions per type =               1
   NGX,Y,Z   is equivalent  to a cutoff of   7.55,  7.55,  7.55 a.u.
   NGXF,Y,Z  is equivalent  to a cutoff of  15.11, 15.11, 15.11 a.u.

 SYSTEM =  bcc Fe                                  
 POSCAR =  BCC Fe Bulk                             

 Startparameter for this run:
   NWRITE =      2    write-flag & timer
   PREC   = normal    normal or accurate (medium, high low for compatibility)
   ISTART =      0    job   : 0-new  1-cont  2-samecut
   ICHARG =      2    charge: 1-file 2-atom 10-const
   ISPIN  =      2    spin polarized calculation?
   LNONCOLLINEAR =      F non collinear calculations
   LSORBIT =      F    spin-orbit coupling
   INIWAV =      1    electr: 0-lowe 1-rand  2-diag
   LASPH  =      F    aspherical Exc in radial PAW
   METAGGA=      F    non-selfconsistent MetaGGA calc.

 Electronic Relaxation 1
   ENCUT  =  268.0 eV  19.70 Ry    4.44 a.u.   3.53  3.53  3.53*2*pi/ulx,y,z
   ENINI  =  268.0     initial cutoff
   ENAUG  =  511.4 eV  augmentation charge cutoff
   NELM   =     60;   NELMIN=  2; NELMDL= -5     # of ELM steps 
   EDIFF  = 0.1E-03   stopping-criterion for ELM
   LREAL  =      F    real-space projection
   NLSPLINE    = F    spline interpolate recip. space projectors
   LCOMPAT=      F    compatible to vasp.4.4
   GGA_COMPAT  = T    GGA compatible to vasp.4.4-vasp.4.6
   LMAXPAW     = -100 max onsite density
   LMAXMIX     =    2 max onsite mixed and CHGCAR
   VOSKOWN=      0    Vosko Wilk Nusair interpolation
   ROPT   =    0.00000
 Ionic relaxation
   EDIFFG = 0.1E-02   stopping-criterion for IOM
   NSW    =      0    number of steps for IOM
   NBLOCK =      1;   KBLOCK =      1    inner block; outer block 
   IBRION =     -1    ionic relax: 0-MD 1-quasi-New 2-CG
   NFREE  =      0    steps in history (QN), initial steepest desc. (CG)
   ISIF   =      2    stress and relaxation
   IWAVPR =     10    prediction:  0-non 1-charg 2-wave 3-comb
   ISYM   =      2    0-nonsym 1-usesym 2-fastsym
   LCORR  =      T    Harris-Foulkes like correction to forces

   POTIM  = 0.5000    time-step for ionic-motion
   TEIN   =    0.0    initial temperature
   TEBEG  =    0.0;   TEEND  =   0.0 temperature during run
   SMASS  =  -3.00    Nose mass-parameter (am)
   estimated Nose-frequenzy (Omega)   =  0.10E-29 period in steps =****** mass=  -0.159E-27a.u.
   SCALEE = 1.0000    scale energy and forces
   NPACO  =    256;   APACO  = 16.0  distance and # of slots for P.C.
   PSTRESS=    0.0 pullay stress

  Mass of Ions in am
   POMASS =  55.85
  Ionic Valenz
   ZVAL   =   8.00
  Atomic Wigner-Seitz radii
   RWIGS  =   1.30
  virtual crystal weights 
   VCA    =   1.00
   NELECT =       8.0000    total number of electrons
   NUPDOWN=      -1.0000    fix difference up-down

 DOS related values:
   EMIN   =  10.00;   EMAX   =-10.00  energy-range for DOS
   EFERMI =   0.00
   ISMEAR =     1;   SIGMA  =   0.20  broadening in eV -4-tet -1-fermi 0-gaus

 Electronic relaxation 2 (details)
   IALGO  =     38    algorithm
   LDIAG  =      T    sub-space diagonalisation (order eigenvalues)
   LSUBROT=      F    optimize rotation matrix (better conditioning)
   TURBO    =      0    0=normal 1=particle mesh
   IRESTART =      0    0=no restart 2=restart with 2 vectors
   NREBOOT  =      0    no. of reboots
   NMIN     =      0    reboot dimension
   EREF     =   0.00    reference energy to select bands
   IMIX   =      4    mixing-type and parameters
     AMIX     =   0.40;   BMIX     =  1.00
     AMIX_MAG =   1.60;   BMIX_MAG =  1.00
     AMIN     =   0.10
     WC   =   100.;   INIMIX=   1;  MIXPRE=   1;  MAXMIX= -45

 Intra band minimization:
   WEIMIN = 0.0000     energy-eigenvalue tresh-hold
   EBREAK =  0.21E-05  absolut break condition
   DEPER  =   0.30     relativ break condition  

   TIME   =   0.40     timestep for ELM

  volume/ion in A,a.u.               =      14.19        95.73
  Fermi-wavevector in a.u.,A,eV,Ry     =   1.352534  2.555919 24.889808  1.829349
  Thomas-Fermi vector in A             =   2.479865
 
 Write flags
   LWAVE        =      T    write WAVECAR
   LDOWNSAMPLE  =      F    k-point downsampling of WAVECAR
   LCHARG       =      T    write CHGCAR
   LVTOT        =      F    write LOCPOT, total local potential
   LVHAR        =      F    write LOCPOT, Hartree potential only
   LELF         =      F    write electronic localiz. function (ELF)
   LORBIT       =      0    0 simple, 1 ext, 2 COOP (PROOUT), +10 PAW based schemes


 Dipole corrections
   LMONO  =      F    monopole corrections only (constant potential shift)
   LDIPOL =      F    correct potential (dipole corrections)
   IDIPOL =      0    1-x, 2-y, 3-z, 4-all directions 
   EPSILON=  1.0000000 bulk dielectric constant

 Exchange correlation treatment:
   GGA     =    --    GGA type
   LEXCH   =     8    internal setting for exchange type
   VOSKOWN=      0    Vosko Wilk Nusair interpolation
   LHFCALC =     F    Hartree Fock is set to
   LHFONE  =     F    Hartree Fock one center treatment
   AEXX    =    0.0000 exact exchange contribution

 Linear response parameters
   LEPSILON=     F    determine dielectric tensor
   LRPA    =     F    only Hartree local field effects (RPA)
   LNABLA  =     F    use nabla operator in PAW spheres
   LVEL    =     F    velocity operator in full k-point grid
   LINTERFAST=   F  fast interpolation
   KINTER  =     0    interpolate to denser k-point grid
   CSHIFT  =0.1000    complex shift for real part using Kramers Kronig
   OMEGAMAX=  -1.0    maximum frequency
   DEG_THRESHOLD= 0.2000000E-02 threshold for treating states as degnerate
   RTIME   =   -0.100 relaxation time in fs
  (WPLASMAI=    0.000 imaginary part of plasma frequency in eV, 0.658/RTIME)
   DFIELD  = 0.0000000 0.0000000 0.0000000 field for delta impulse in time
 
 Orbital magnetization related:
   ORBITALMAG=     F  switch on orbital magnetization
   LCHIMAG   =     F  perturbation theory with respect to B field
   DQ        =  0.001000  dq finite difference perturbation B field
   LLRAUG    =     F  two centre corrections for induced B field



--------------------------------------------------------------------------------------------------------


 Static calculation
 charge density and potential will be updated during run
 spin polarized calculation
 Variant of blocked Davidson
 Davidson routine will perform the subspace rotation
 perform sub-space diagonalisation
    after iterative eigenvector-optimisation
 modified Broyden-mixing scheme, WC =      100.0
 initial mixing is a Kerker type mixing with AMIX =  0.4000 and BMIX =      1.0000
 Hartree-type preconditioning will be used
 using additional bands            8
 reciprocal scheme for non local part
 use partial core corrections
 calculate Harris-corrections to forces 
   (improved forces if not selfconsistent)
 use gradient corrections 
 use of overlap-Matrix (Vanderbilt PP)
 Methfessel and Paxton  Order N= 1 SIGMA  =   0.20


--------------------------------------------------------------------------------------------------------


  energy-cutoff  :      268.00
  volume of cell :       14.19
      direct lattice vectors                 reciprocal lattice vectors
    -1.525000000  1.525000000  1.525000000     0.000000000  0.327868852  0.327868852
     1.525000000 -1.525000000  1.525000000     0.327868852  0.000000000  0.327868852
     1.525000000  1.525000000 -1.525000000     0.327868852  0.327868852  0.000000000

  length of vectors
     2.641377482  2.641377482  2.641377482     0.463676578  0.463676578  0.463676578


 
 k-points in units of 2pi/SCALE and weight: 10x10x10                                
   0.10000000  0.10000000  0.10000000       0.008
   0.10000000  0.20000000  0.20000000       0.024
   0.10000000  0.30000000  0.30000000       0.024
   0.10000000  0.40000000  0.40000000       0.024
   0.10000000  0.50000000  0.50000000       0.012
   0.10000000  0.00000000  0.00000000       0.006
   0.20000000  0.20000000  0.30000000       0.024
   0.20000000  0.30000000  0.40000000       0.048
   0.20000000  0.40000000  0.50000000       0.048
   0.20000000 -0.10000000  0.00000000       0.024
   0.30000000  0.30000000  0.50000000       0.024
   0.30000000  0.40000000  0.60000000       0.024
   0.30000000 -0.20000000  0.00000000       0.024
   0.30000000 -0.10000000  0.10000000       0.024
   0.40000000 -0.30000000  0.00000000       0.024
   0.40000000 -0.20000000  0.10000000       0.048
   0.50000000 -0.40000000  0.00000000       0.024
   0.50000000 -0.30000000  0.10000000       0.048
   0.50000000 -0.20000000  0.20000000       0.024
  -0.40000000 -0.40000000 -0.90000000       0.024
  -0.40000000 -0.30000000 -0.80000000       0.048
  -0.30000000 -0.30000000 -0.70000000       0.008
   0.30000000  0.30000000  0.30000000       0.008
   0.30000000  0.40000000  0.40000000       0.024
   0.30000000  0.50000000  0.50000000       0.012
   0.30000000  0.00000000  0.00000000       0.006
   0.40000000  0.40000000  0.50000000       0.024
   0.40000000 -0.10000000  0.00000000       0.024
   0.50000000 -0.20000000  0.00000000       0.024
   0.50000000 -0.10000000  0.10000000       0.024
   0.60000000 -0.30000000  0.00000000       0.024
   0.60000000 -0.20000000  0.10000000       0.048
  -0.30000000 -0.30000000 -0.90000000       0.024
  -0.30000000 -0.20000000 -0.80000000       0.024
   0.50000000  0.50000000  0.50000000       0.002
   0.50000000  0.00000000  0.00000000       0.006
   0.60000000 -0.10000000  0.00000000       0.024
   0.70000000 -0.20000000  0.00000000       0.024
   0.70000000 -0.10000000  0.10000000       0.024
  -0.20000000 -0.20000000 -0.90000000       0.024
   0.70000000  0.00000000  0.00000000       0.006
   0.80000000 -0.10000000  0.00000000       0.024
  -0.10000000 -0.10000000 -0.90000000       0.008
   0.90000000  0.00000000  0.00000000       0.006
 
 k-points in reciprocal lattice and weights: 10x10x10                                
   0.05000000  0.05000000  0.05000000       0.008
   0.15000000  0.05000000  0.05000000       0.024
   0.25000000  0.05000000  0.05000000       0.024
   0.35000000  0.05000000  0.05000000       0.024
   0.45000000  0.05000000  0.05000000       0.012
  -0.05000000  0.05000000  0.05000000       0.006
   0.15000000  0.15000000  0.05000000       0.024
   0.25000000  0.15000000  0.05000000       0.048
   0.35000000  0.15000000  0.05000000       0.048
  -0.15000000  0.15000000  0.05000000       0.024
   0.25000000  0.25000000  0.05000000       0.024
   0.35000000  0.25000000  0.05000000       0.024
  -0.25000000  0.25000000  0.05000000       0.024
  -0.15000000  0.25000000  0.05000000       0.024
  -0.35000000  0.35000000  0.05000000       0.024
  -0.25000000  0.35000000  0.05000000       0.048
  -0.45000000  0.45000000  0.05000000       0.024
  -0.35000000  0.45000000  0.05000000       0.048
  -0.25000000  0.45000000  0.05000000       0.024
  -0.45000000 -0.45000000  0.05000000       0.024
  -0.35000000 -0.45000000  0.05000000       0.048
  -0.35000000 -0.35000000  0.05000000       0.008
   0.15000000  0.15000000  0.15000000       0.008
   0.25000000  0.15000000  0.15000000       0.024
   0.35000000  0.15000000  0.15000000       0.012
  -0.15000000  0.15000000  0.15000000       0.006
   0.25000000  0.25000000  0.15000000       0.024
  -0.25000000  0.25000000  0.15000000       0.024
  -0.35000000  0.35000000  0.15000000       0.024
  -0.25000000  0.35000000  0.15000000       0.024
  -0.45000000  0.45000000  0.15000000       0.024
  -0.35000000  0.45000000  0.15000000       0.048
  -0.45000000 -0.45000000  0.15000000       0.024
  -0.35000000 -0.45000000  0.15000000       0.024
   0.25000000  0.25000000  0.25000000       0.002
  -0.25000000  0.25000000  0.25000000       0.006
  -0.35000000  0.35000000  0.25000000       0.024
  -0.45000000  0.45000000  0.25000000       0.024
  -0.35000000  0.45000000  0.25000000       0.024
  -0.45000000 -0.45000000  0.25000000       0.024
  -0.35000000  0.35000000  0.35000000       0.006
  -0.45000000  0.45000000  0.35000000       0.024
  -0.45000000 -0.45000000  0.35000000       0.008
  -0.45000000  0.45000000  0.45000000       0.006
 
 position of ions in fractional coordinates (direct lattice) 
   0.00000000  0.00000000  0.00000000
 
 position of ions in cartesian coordinates  (Angst):
   0.00000000  0.00000000  0.00000000
 


--------------------------------------------------------------------------------------------------------


 k-point  1 :   0.0500 0.0500 0.0500  plane waves:     138
 k-point  2 :   0.1500 0.0500 0.0500  plane waves:     146
 k-point  3 :   0.2500 0.0500 0.0500  plane waves:     140
 k-point  4 :   0.3500 0.0500 0.0500  plane waves:     144
 k-point  5 :   0.4500 0.0500 0.0500  plane waves:     142
 k-point  6 :  -0.0500 0.0500 0.0500  plane waves:     140
 k-point  7 :   0.1500 0.1500 0.0500  plane waves:     143
 k-point  8 :   0.2500 0.1500 0.0500  plane waves:     144
 k-point  9 :   0.3500 0.1500 0.0500  plane waves:     140
 k-point 10 :  -0.1500 0.1500 0.0500  plane waves:     142
 k-point 11 :   0.2500 0.2500 0.0500  plane waves:     144
 k-point 12 :   0.3500 0.2500 0.0500  plane waves:     142
 k-point 13 :  -0.2500 0.2500 0.0500  plane waves:     146
 k-point 14 :  -0.1500 0.2500 0.0500  plane waves:     146
 k-point 15 :  -0.3500 0.3500 0.0500  plane waves:     144
 k-point 16 :  -0.2500 0.3500 0.0500  plane waves:     141
 k-point 17 :  -0.4500 0.4500 0.0500  plane waves:     142
 k-point 18 :  -0.3500 0.4500 0.0500  plane waves:     141
 k-point 19 :  -0.2500 0.4500 0.0500  plane waves:     141
 k-point 20 :  -0.4500-0.4500 0.0500  plane waves:     138
 k-point 21 :  -0.3500-0.4500 0.0500  plane waves:     142
 k-point 22 :  -0.3500-0.3500 0.0500  plane waves:     143
 k-point 23 :   0.1500 0.1500 0.1500  plane waves:     138
 k-point 24 :   0.2500 0.1500 0.1500  plane waves:     144
 k-point 25 :   0.3500 0.1500 0.1500  plane waves:     146
 k-point 26 :  -0.1500 0.1500 0.1500  plane waves:     148
 k-point 27 :   0.2500 0.2500 0.1500  plane waves:     145
 k-point 28 :  -0.2500 0.2500 0.1500  plane waves:     146
 k-point 29 :  -0.3500 0.3500 0.1500  plane waves:     142
 k-point 30 :  -0.2500 0.3500 0.1500  plane waves:     138
 k-point 31 :  -0.4500 0.4500 0.1500  plane waves:     136
 k-point 32 :  -0.3500 0.4500 0.1500  plane waves:     139
 k-point 33 :  -0.4500-0.4500 0.1500  plane waves:     138
 k-point 34 :  -0.3500-0.4500 0.1500  plane waves:     144
 k-point 35 :   0.2500 0.2500 0.2500  plane waves:     140
 k-point 36 :  -0.2500 0.2500 0.2500  plane waves:     144
 k-point 37 :  -0.3500 0.3500 0.2500  plane waves:     141
 k-point 38 :  -0.4500 0.4500 0.2500  plane waves:     136
 k-point 39 :  -0.3500 0.4500 0.2500  plane waves:     138
 k-point 40 :  -0.4500-0.4500 0.2500  plane waves:     137
 k-point 41 :  -0.3500 0.3500 0.3500  plane waves:     136
 k-point 42 :  -0.4500 0.4500 0.3500  plane waves:     131
 k-point 43 :  -0.4500-0.4500 0.3500  plane waves:     137
 k-point 44 :  -0.4500 0.4500 0.4500  plane waves:     124

 maximum and minimum number of plane-waves per node :       148      124

 maximum number of plane-waves:       148
 maximum index in each direction: 
   IXMAX=    3   IYMAX=    3   IZMAX=    3
   IXMIN=   -3   IYMIN=   -3   IZMIN=   -3


 serial   3D FFT for wavefunctions
 parallel 3D FFT for charge:
    minimum data exchange during FFTs selected (reduces bandwidth)


 total amount of memory used by VASP MPI-rank0    32470. kBytes
=======================================================================

   base      :      30000. kBytes
   nonl-proj :        940. kBytes
   fftplans  :        238. kBytes
   grid      :        552. kBytes
   one-center:         31. kBytes
   wavefun   :        709. kBytes
 
     INWAV:  cpu time    0.0000: real time    0.0000
 Broyden mixing: mesh for mixing (old mesh)
   NGX =  7   NGY =  7   NGZ =  7
  (NGX  = 24   NGY  = 24   NGZ  = 24)
  gives a total of    343 points

 initial charge density was supplied:
 charge density of overlapping atoms calculated
 number of electron       8.0000000 magnetization       3.0000000
 keeping initial charge density in first step


--------------------------------------------------------------------------------------------------------


 Maximum index for augmentation-charges         1053 (set IRDMAX)


--------------------------------------------------------------------------------------------------------


 First call to EWALD:  gamma=   0.732
 Maximum number of real-space cells 3x 3x 3
 Maximum number of reciprocal cells 3x 3x 3

    FEWALD:  cpu time    0.0015: real time    0.0014


--------------------------------------- Iteration      1(   1)  ---------------------------------------


    POTLOK:  cpu time    0.0059: real time    0.0069
    SETDIJ:  cpu time    0.0051: real time    0.0052
     EDDAV:  cpu time    0.1664: real time    0.1697
       DOS:  cpu time    0.0011: real time    0.0011
    --------------------------------------------
      LOOP:  cpu time    0.1787: real time    0.1830

 eigenvalue-minimisations  :  2344
 total energy-change (2. order) : 0.1228613E+02  (-0.2571689E+03)
 number of electron       8.0000000 magnetization       3.0000000
 augmentation part        8.0000000 magnetization       3.0000000

 Free energy of the ion-electron system (eV)
  ---------------------------------------------------
  alpha Z        PSCENC =        48.71863354
  Ewald energy   TEWEN  =      -549.81442221
  -Hartree energ DENC   =      -128.89835356
  -exchange      EXHF   =         0.00000000
  -V(xc)+E(xc)   XCENC  =         4.46538878
  PAW double counting   =       553.75926685     -561.48528711
  entropy T*S    EENTRO =        -0.00277348
  eigenvalues    EBANDS =        51.26283556
  atomic energy  EATOM  =       594.28084496
  Solvation  Ediel_sol  =         0.00000000
  ---------------------------------------------------
  free energy    TOTEN  =        12.28613334 eV

  energy without entropy =       12.28890682  energy(sigma->0) =       12.28705783


--------------------------------------------------------------------------------------------------------




--------------------------------------- Iteration      1(   2)  ---------------------------------------


     EDDAV:  cpu time    0.1536: real time    0.1567
       DOS:  cpu time    0.0012: real time    0.0012
    --------------------------------------------
      LOOP:  cpu time    0.1548: real time    0.1579

 eigenvalue-minimisations  :  2244
 total energy-change (2. order) :-0.2083627E+02  (-0.1900644E+02)
 number of electron       8.0000000 magnetization       3.0000000
 augmentation part        8.0000000 magnetization       3.0000000

 Free energy of the ion-electron system (eV)
  ---------------------------------------------------
  alpha Z        PSCENC =        48.71863354
  Ewald energy   TEWEN  =      -549.81442221
  -Hartree energ DENC   =      -128.89835356
  -exchange      EXHF   =         0.00000000
  -V(xc)+E(xc)   XCENC  =         4.46538878
  PAW double counting   =       553.75926685     -561.48528711
  entropy T*S    EENTRO =         0.00287852
  eigenvalues    EBANDS =        30.42091782
  atomic energy  EATOM  =       594.28084496
  Solvation  Ediel_sol  =         0.00000000
  ---------------------------------------------------
  free energy    TOTEN  =        -8.55013241 eV

  energy without entropy =       -8.55301092  energy(sigma->0) =       -8.55109191


--------------------------------------------------------------------------------------------------------




--------------------------------------- Iteration      1(   3)  ---------------------------------------


     EDDAV:  cpu time    0.1641: real time    0.1672
       DOS:  cpu time    0.0012: real time    0.0012
    --------------------------------------------
      LOOP:  cpu time    0.1655: real time    0.1684

 eigenvalue-minimisations  :  2448
 total energy-change (2. order) :-0.3575898E+00  (-0.3571580E+00)
 number of electron       8.0000000 magnetization       3.0000000
 augmentation part        8.0000000 magnetization       3.0000000

 Free energy of the ion-electron system (eV)
  ---------------------------------------------------
  alpha Z        PSCENC =        48.71863354
  Ewald energy   TEWEN  =      -549.81442221
  -Hartree energ DENC   =      -128.89835356
  -exchange      EXHF   =         0.00000000
  -V(xc)+E(xc)   XCENC  =         4.46538878
  PAW double counting   =       553.75926685     -561.48528711
  entropy T*S    EENTRO =         0.00174132
  eigenvalues    EBANDS =        30.06446525
  atomic energy  EATOM  =       594.28084496
  Solvation  Ediel_sol  =         0.00000000
  ---------------------------------------------------
  free energy    TOTEN  =        -8.90772218 eV

  energy without entropy =       -8.90946349  energy(sigma->0) =       -8.90830262


--------------------------------------------------------------------------------------------------------




--------------------------------------- Iteration      1(   4)  ---------------------------------------


     EDDAV:  cpu time    0.1581: real time    0.1619
       DOS:  cpu time    0.0013: real time    0.0012
    --------------------------------------------
      LOOP:  cpu time    0.1592: real time    0.1631

 eigenvalue-minimisations  :  2396
 total energy-change (2. order) :-0.1080696E-02  (-0.1080645E-02)
 number of electron       8.0000000 magnetization       3.0000000
 augmentation part        8.0000000 magnetization       3.0000000

 Free energy of the ion-electron system (eV)
  ---------------------------------------------------
  alpha Z        PSCENC =        48.71863354
  Ewald energy   TEWEN  =      -549.81442221
  -Hartree energ DENC   =      -128.89835356
  -exchange      EXHF   =         0.00000000
  -V(xc)+E(xc)   XCENC  =         4.46538878
  PAW double counting   =       553.75926685     -561.48528711
  entropy T*S    EENTRO =         0.00173718
  eigenvalues    EBANDS =        30.06338868
  atomic energy  EATOM  =       594.28084496
  Solvation  Ediel_sol  =         0.00000000
  ---------------------------------------------------
  free energy    TOTEN  =        -8.90880287 eV

  energy without entropy =       -8.91054006  energy(sigma->0) =       -8.90938193


--------------------------------------------------------------------------------------------------------




--------------------------------------- Iteration      1(   5)  ---------------------------------------


     EDDAV:  cpu time    0.1370: real time    0.1400
       DOS:  cpu time    0.0012: real time    0.0012
    CHARGE:  cpu time    0.0042: real time    0.0042
    MIXING:  cpu time    0.0003: real time    0.0003
    --------------------------------------------
      LOOP:  cpu time    0.1428: real time    0.1458

 eigenvalue-minimisations  :  1988
 total energy-change (2. order) :-0.6653823E-05  (-0.6654043E-05)
 number of electron       8.0000093 magnetization       2.2128391
 augmentation part        3.6006577 magnetization       1.4923685

 Broyden mixing:
  rms(total) = 0.93875E+00    rms(broyden)= 0.93801E+00
  rms(prec ) = 0.33081E+01
  weight for this iteration     100.00

 Free energy of the ion-electron system (eV)
  ---------------------------------------------------
  alpha Z        PSCENC =        48.71863354
  Ewald energy   TEWEN  =      -549.81442221
  -Hartree energ DENC   =      -128.89835356
  -exchange      EXHF   =         0.00000000
  -V(xc)+E(xc)   XCENC  =         4.46538878
  PAW double counting   =       553.75926685     -561.48528711
  entropy T*S    EENTRO =         0.00173716
  eigenvalues    EBANDS =        30.06338205
  atomic energy  EATOM  =       594.28084496
  Solvation  Ediel_sol  =         0.00000000
  ---------------------------------------------------
  free energy    TOTEN  =        -8.90880953 eV

  energy without entropy =       -8.91054669  energy(sigma->0) =       -8.90938858


--------------------------------------------------------------------------------------------------------




--------------------------------------- Iteration      1(   6)  ---------------------------------------


    POTLOK:  cpu time    0.0054: real time    0.0053
    SETDIJ:  cpu time    0.0045: real time    0.0046
     EDDAV:  cpu time    0.1511: real time    0.1540
       DOS:  cpu time    0.0013: real time    0.0012
    CHARGE:  cpu time    0.0036: real time    0.0037
    MIXING:  cpu time    0.0009: real time    0.0004
    --------------------------------------------
      LOOP:  cpu time    0.1668: real time    0.1692

 eigenvalue-minimisations  :  2360
 total energy-change (2. order) : 0.6860108E+00  (-0.1497923E+01)
 number of electron       8.0000119 magnetization       2.5378005
 augmentation part        4.4634343 magnetization       2.0635390

 Broyden mixing:
  rms(total) = 0.81486E+00    rms(broyden)= 0.81455E+00
  rms(prec ) = 0.14691E+01
  weight for this iteration     100.00

 eigenvalues of (default mixing * dielectric matrix)
  average eigenvalue GAMMA=   0.3624
  0.3624

 Free energy of the ion-electron system (eV)
  ---------------------------------------------------
  alpha Z        PSCENC =        48.71863354
  Ewald energy   TEWEN  =      -549.81442221
  -Hartree energ DENC   =      -110.14854744
  -exchange      EXHF   =         0.00000000
  -V(xc)+E(xc)   XCENC  =         3.54004583
  PAW double counting   =       564.78046812     -569.96014222
  entropy T*S    EENTRO =         0.00391674
  eigenvalues    EBANDS =        10.37640391
  atomic energy  EATOM  =       594.28084496
  Solvation  Ediel_sol  =         0.00000000
  ---------------------------------------------------
  free energy    TOTEN  =        -8.22279876 eV

  energy without entropy =       -8.22671550  energy(sigma->0) =       -8.22410434


--------------------------------------------------------------------------------------------------------




--------------------------------------- Iteration      1(   7)  ---------------------------------------


    POTLOK:  cpu time    0.0048: real time    0.0054
    SETDIJ:  cpu time    0.0046: real time    0.0045
     EDDAV:  cpu time    0.1527: real time    0.1558
       DOS:  cpu time    0.0013: real time    0.0013
    CHARGE:  cpu time    0.0047: real time    0.0048
    MIXING:  cpu time    0.0004: real time    0.0003
    --------------------------------------------
      LOOP:  cpu time    0.1684: real time    0.1720

 eigenvalue-minimisations  :  2380
 total energy-change (2. order) : 0.2193002E+00  (-0.1823292E+00)
 number of electron       8.0000110 magnetization       2.6471044
 augmentation part        4.1635671 magnetization       2.1519960

 Broyden mixing:
  rms(total) = 0.34616E+00    rms(broyden)= 0.34609E+00
  rms(prec ) = 0.42621E+00
  weight for this iteration     100.00

 eigenvalues of (default mixing * dielectric matrix)
  average eigenvalue GAMMA=   0.6786
  0.6786  0.6786

 Free energy of the ion-electron system (eV)
  ---------------------------------------------------
  alpha Z        PSCENC =        48.71863354
  Ewald energy   TEWEN  =      -549.81442221
  -Hartree energ DENC   =      -115.09833868
  -exchange      EXHF   =         0.00000000
  -V(xc)+E(xc)   XCENC  =         4.15916044
  PAW double counting   =       595.09829978     -602.22120874
  entropy T*S    EENTRO =         0.00097129
  eigenvalues    EBANDS =        16.87256102
  atomic energy  EATOM  =       594.28084496
  Solvation  Ediel_sol  =         0.00000000
  ---------------------------------------------------
  free energy    TOTEN  =        -8.00349860 eV

  energy without entropy =       -8.00446989  energy(sigma->0) =       -8.00382236


--------------------------------------------------------------------------------------------------------




--------------------------------------- Iteration      1(   8)  ---------------------------------------


    POTLOK:  cpu time    0.0054: real time    0.0055
    SETDIJ:  cpu time    0.0046: real time    0.0046
     EDDAV:  cpu time    0.1506: real time    0.1536
       DOS:  cpu time    0.0013: real time    0.0013
    CHARGE:  cpu time    0.0047: real time    0.0048
    MIXING:  cpu time    0.0009: real time    0.0004
    --------------------------------------------
      LOOP:  cpu time    0.1676: real time    0.1702

 eigenvalue-minimisations  :  2324
 total energy-change (2. order) :-0.3130024E-02  (-0.1986372E-02)
 number of electron       8.0000110 magnetization       2.6594343
 augmentation part        4.1653936 magnetization       2.1793187

 Broyden mixing:
  rms(total) = 0.13793E+00    rms(broyden)= 0.13792E+00
  rms(prec ) = 0.23434E+00
  weight for this iteration     100.00

 eigenvalues of (default mixing * dielectric matrix)
  average eigenvalue GAMMA=   0.9664
  1.6329  0.6332  0.6332

 Free energy of the ion-electron system (eV)
  ---------------------------------------------------
  alpha Z        PSCENC =        48.71863354
  Ewald energy   TEWEN  =      -549.81442221
  -Hartree energ DENC   =      -114.37560763
  -exchange      EXHF   =         0.00000000
  -V(xc)+E(xc)   XCENC  =         4.27423080
  PAW double counting   =       610.79357484     -618.44615462
  entropy T*S    EENTRO =         0.00042396
  eigenvalues    EBANDS =        16.56184774
  atomic energy  EATOM  =       594.28084496
  Solvation  Ediel_sol  =         0.00000000
  ---------------------------------------------------
  free energy    TOTEN  =        -8.00662862 eV

  energy without entropy =       -8.00705258  energy(sigma->0) =       -8.00676994


--------------------------------------------------------------------------------------------------------




--------------------------------------- Iteration      1(   9)  ---------------------------------------


    POTLOK:  cpu time    0.0048: real time    0.0054
    SETDIJ:  cpu time    0.0046: real time    0.0045
     EDDAV:  cpu time    0.1584: real time    0.1621
       DOS:  cpu time    0.0012: real time    0.0012
    CHARGE:  cpu time    0.0051: real time    0.0051
    MIXING:  cpu time    0.0004: real time    0.0004
    --------------------------------------------
      LOOP:  cpu time    0.1745: real time    0.1788

 eigenvalue-minimisations  :  2404
 total energy-change (2. order) : 0.6577072E-02  (-0.1574751E-02)
 number of electron       8.0000110 magnetization       2.5904844
 augmentation part        4.1817374 magnetization       2.1257898

 Broyden mixing:
  rms(total) = 0.44853E-01    rms(broyden)= 0.44853E-01
  rms(prec ) = 0.62295E-01
  weight for this iteration     100.00

 eigenvalues of (default mixing * dielectric matrix)
  average eigenvalue GAMMA=   1.2985
  2.5850  1.3099  0.6251  0.6741

 Free energy of the ion-electron system (eV)
  ---------------------------------------------------
  alpha Z        PSCENC =        48.71863354
  Ewald energy   TEWEN  =      -549.81442221
  -Hartree energ DENC   =      -113.13651339
  -exchange      EXHF   =         0.00000000
  -V(xc)+E(xc)   XCENC  =         4.30986690
  PAW double counting   =       634.50663607     -642.88596987
  entropy T*S    EENTRO =         0.00031297
  eigenvalues    EBANDS =        16.02055949
  atomic energy  EATOM  =       594.28084496
  Solvation  Ediel_sol  =         0.00000000
  ---------------------------------------------------
  free energy    TOTEN  =        -8.00005155 eV

  energy without entropy =       -8.00036451  energy(sigma->0) =       -8.00015587


--------------------------------------------------------------------------------------------------------




--------------------------------------- Iteration      1(  10)  ---------------------------------------


    POTLOK:  cpu time    0.0053: real time    0.0054
    SETDIJ:  cpu time    0.0046: real time    0.0045
     EDDAV:  cpu time    0.1530: real time    0.1572
       DOS:  cpu time    0.0012: real time    0.0012
    CHARGE:  cpu time    0.0043: real time    0.0044
    MIXING:  cpu time    0.0005: real time    0.0004
    --------------------------------------------
      LOOP:  cpu time    0.1689: real time    0.1730

 eigenvalue-minimisations  :  2244
 total energy-change (2. order) :-0.2973742E-03  (-0.7035110E-03)
 number of electron       8.0000110 magnetization       2.6212925
 augmentation part        4.1865270 magnetization       2.1469729

 Broyden mixing:
  rms(total) = 0.20661E-01    rms(broyden)= 0.20635E-01
  rms(prec ) = 0.23771E-01
  weight for this iteration     100.00

 eigenvalues of (default mixing * dielectric matrix)
  average eigenvalue GAMMA=   1.1503
  2.4793  1.2509  0.6942  0.6942  0.6328

 Free energy of the ion-electron system (eV)
  ---------------------------------------------------
  alpha Z        PSCENC =        48.71863354
  Ewald energy   TEWEN  =      -549.81442221
  -Hartree energ DENC   =      -112.70090024
  -exchange      EXHF   =         0.00000000
  -V(xc)+E(xc)   XCENC  =         4.20561260
  PAW double counting   =       645.39749212     -654.08230061
  entropy T*S    EENTRO =         0.00046555
  eigenvalues    EBANDS =        15.99422537
  atomic energy  EATOM  =       594.28084496
  Solvation  Ediel_sol  =         0.00000000
  ---------------------------------------------------
  free energy    TOTEN  =        -8.00034892 eV

  energy without entropy =       -8.00081447  energy(sigma->0) =       -8.00050410


--------------------------------------------------------------------------------------------------------




--------------------------------------- Iteration      1(  11)  ---------------------------------------


    POTLOK:  cpu time    0.0055: real time    0.0056
    SETDIJ:  cpu time    0.0046: real time    0.0046
     EDDAV:  cpu time    0.1592: real time    0.1625
       DOS:  cpu time    0.0013: real time    0.0013
    CHARGE:  cpu time    0.0046: real time    0.0046
    MIXING:  cpu time    0.0006: real time    0.0005
    --------------------------------------------
      LOOP:  cpu time    0.1758: real time    0.1792

 eigenvalue-minimisations  :  2244
 total energy-change (2. order) :-0.4156873E-03  (-0.3840504E-04)
 number of electron       8.0000110 magnetization       2.6229972
 augmentation part        4.1852973 magnetization       2.1488655

 Broyden mixing:
  rms(total) = 0.59817E-02    rms(broyden)= 0.59805E-02
  rms(prec ) = 0.64673E-02
  weight for this iteration     100.00

 eigenvalues of (default mixing * dielectric matrix)
  average eigenvalue GAMMA=   1.0928
  2.3454  1.0737  1.0737  0.6573  0.6573  0.7495

 Free energy of the ion-electron system (eV)
  ---------------------------------------------------
  alpha Z        PSCENC =        48.71863354
  Ewald energy   TEWEN  =      -549.81442221
  -Hartree energ DENC   =      -112.77400029
  -exchange      EXHF   =         0.00000000
  -V(xc)+E(xc)   XCENC  =         4.23286799
  PAW double counting   =       643.86842453     -652.50302212
  entropy T*S    EENTRO =         0.00060268
  eigenvalues    EBANDS =        15.98930630
  atomic energy  EATOM  =       594.28084496
  Solvation  Ediel_sol  =         0.00000000
  ---------------------------------------------------
  free energy    TOTEN  =        -8.00076461 eV

  energy without entropy =       -8.00136729  energy(sigma->0) =       -8.00096550


--------------------------------------------------------------------------------------------------------




--------------------------------------- Iteration      1(  12)  ---------------------------------------


    POTLOK:  cpu time    0.0055: real time    0.0056
    SETDIJ:  cpu time    0.0048: real time    0.0049
     EDDAV:  cpu time    0.1101: real time    0.1131
       DOS:  cpu time    0.0013: real time    0.0013
    --------------------------------------------
      LOOP:  cpu time    0.1218: real time    0.1249

 eigenvalue-minimisations  :  1140
 total energy-change (2. order) :-0.4098017E-05  (-0.1209333E-05)
 number of electron       8.0000110 magnetization       2.6229972
 augmentation part        4.1852973 magnetization       2.1488655

 Free energy of the ion-electron system (eV)
  ---------------------------------------------------
  alpha Z        PSCENC =        48.71863354
  Ewald energy   TEWEN  =      -549.81442221
  -Hartree energ DENC   =      -112.79552044
  -exchange      EXHF   =         0.00000000
  -V(xc)+E(xc)   XCENC  =         4.23747035
  PAW double counting   =       643.49321403     -652.10918001
  entropy T*S    EENTRO =         0.00059783
  eigenvalues    EBANDS =        15.98759323
  atomic energy  EATOM  =       594.28084496
  Solvation  Ediel_sol  =         0.00000000
  ---------------------------------------------------
  free energy    TOTEN  =        -8.00076871 eV

  energy without entropy =       -8.00136654  energy(sigma->0) =       -8.00096798


--------------------------------------------------------------------------------------------------------




 average (electrostatic) potential at core
  the test charge radii are     1.0103
  (the norm of the test charge is              1.0000)
       1 -45.1099
 
 
 
 E-fermi :   3.9536     XC(G=0): -11.8990     alpha+bet :-10.9264


 spin component 1

 k-point     1 :       0.0500    0.0500    0.0500
  band No.  band energies     occupation 
      1      -2.8699      1.00000
      2       1.6206      1.00000
      3       1.6206      1.00000
      4       1.9823      1.00000
      5       2.5821      1.00000
      6       2.5821      1.00000
      7      23.8559      0.00000
      8      23.8559      0.00000
      9      26.1629      0.00000
     10      27.1773      0.00000
     11      30.1370      0.00000
     12      30.1370      0.00000

 k-point     2 :       0.1500    0.0500    0.0500
  band No.  band energies     occupation 
      1      -1.9077      1.00000
      2       1.4145      1.00000
      3       1.5295      1.00000
      4       2.4628      1.00000
      5       2.5050      1.00000
      6       2.6269      1.00000
      7      19.6283      0.00000
      8      21.9609      0.00000
      9      23.3468      0.00000
     10      27.1402      0.00000
     11      29.6450      0.00000
     12      30.4869      0.00000

 k-point     3 :       0.2500    0.0500    0.0500
  band No.  band energies     occupation 
      1      -0.6765      1.00000
      2       1.1852      1.00000
      3       1.6215      1.00000
      4       2.5413      1.00000
      5       2.6788      1.00000
      6       3.1579      1.00000
      7      15.2629      0.00000
      8      20.4150      0.00000
      9      21.3643      0.00000
     10      26.4108      0.00000
     11      28.8710      0.00000
     12      32.2937      0.00000

 k-point     4 :       0.3500    0.0500    0.0500
  band No.  band energies     occupation 
      1      -0.1039      1.00000
      2       1.0108      1.00000
      3       2.4577      1.00000
      4       2.6567      1.00000
      5       2.7166      1.00000
      6       4.1307     -0.00878
      7      11.4230      0.00000
      8      19.3982      0.00000
      9      20.0223      0.00000
     10      25.8788      0.00000
     11      28.5255      0.00000
     12      34.6827      0.00000

 k-point     5 :       0.4500    0.0500    0.0500
  band No.  band energies     occupation 
      1      -0.0572      1.00000
      2       0.9469      1.00000
      3       2.6464      1.00000
      4       2.7326      1.00000
      5       3.0291      1.00000
      6       5.1896     -0.00000
      7       9.3437     -0.00000
      8      19.0450      0.00000
      9      19.5348      0.00000
     10      25.7041      0.00000
     11      28.4477      0.00000
     12      34.7809      0.00000

 k-point     6 :      -0.0500    0.0500    0.0500
  band No.  band energies     occupation 
      1      -3.2122      1.00000
      2       1.7057      1.00000
      3       1.7058      1.00000
      4       1.7451      1.00000
      5       2.5544      1.00000
      6       2.6423      1.00000
      7      25.4508      0.00000
      8      26.2721      0.00000
      9      26.2721      0.00000
     10      28.3899      0.00000
     11      29.4475      0.00000
     12      29.4475      0.00000

 k-point     7 :       0.1500    0.1500    0.0500
  band No.  band energies     occupation 
      1      -0.8017      1.00000
      2       1.2721      1.00000
      3       1.2842      1.00000
      4       2.5158      1.00000
      5       2.6823      1.00000
      6       3.2036      1.00000
      7      17.5987      0.00000
      8      18.1064      0.00000
      9      20.8662      0.00000
     10      28.2667      0.00000
     11      30.8885      0.00000
     12      32.1343      0.00000

 k-point     8 :       0.2500    0.1500    0.0500
  band No.  band energies     occupation 
      1       0.1400      1.00000
      2       1.0669      1.00000
      3       1.4838      1.00000
      4       2.5796      1.00000
      5       2.7500      1.00000
      6       4.3207     -0.01311
      7      13.6594      0.00000
      8      16.5384      0.00000
      9      19.4588      0.00000
     10      28.2032      0.00000
     11      31.6862      0.00000
     12      32.6949      0.00000

 k-point     9 :       0.3500    0.1500    0.0500
  band No.  band energies     occupation 
      1       0.2736      1.00000
      2       0.9692      1.00000
      3       2.0591      1.00000
      4       2.6569      1.00000
      5       2.8289      1.00000
      6       6.0015     -0.00000
      7      10.2648      0.00000
      8      15.8169      0.00000
      9      18.7328      0.00000
     10      27.9584      0.00000
     11      32.0257      0.00000
     12      33.4914      0.00000

 k-point    10 :      -0.1500    0.1500    0.0500
  band No.  band energies     occupation 
      1      -2.5372      1.00000
      2       1.5804      1.00000
      3       1.6910      1.00000
      4       2.0384      1.00000
      5       2.4206      1.00000
      6       2.6828      1.00000
      7      21.8672      0.00000
      8      24.4791      0.00000
      9      24.8042      0.00000
     10      27.6724      0.00000
     11      27.7036      0.00000
     12      28.7110      0.00000

 k-point    11 :       0.2500    0.2500    0.0500
  band No.  band energies     occupation 
      1       0.5958      1.00000
      2       1.0327      1.00000
      3       1.4737      1.00000
      4       2.6509      1.00000
      5       2.8116      1.00000
      6       6.2038     -0.00000
      7      12.3829      0.00000
      8      12.8809      0.00000
      9      18.5512      0.00000
     10      29.4406      0.00000
     11      31.6740      0.00000
     12      36.7071      0.00000

 k-point    12 :       0.3500    0.2500    0.0500
  band No.  band energies     occupation 
      1       0.6399      1.00000
      2       1.0605      1.00000
      3       1.5340      1.00000
      4       2.7165      1.00000
      5       2.8174      1.00000
      6       8.2091     -0.00000
      7       9.8756      0.00000
      8      12.3350      0.00000
      9      18.2550      0.00000
     10      29.8531      0.00000
     11      31.9447      0.00000
     12      36.0796      0.00000

 k-point    13 :      -0.2500    0.2500    0.0500
  band No.  band energies     occupation 
      1      -1.3562      1.00000
      2       1.3614      1.00000
      3       1.6509      1.00000
      4       2.4114      1.00000
      5       2.5666      1.00000
      6       2.7302      1.00000
      7      17.3630      0.00000
      8      22.5263      0.00000
      9      22.9667      0.00000
     10      26.1545      0.00000
     11      27.4207      0.00000
     12      29.6474      0.00000

 k-point    14 :      -0.1500    0.2500    0.0500
  band No.  band energies     occupation 
      1      -1.6096      1.00000
      2       1.5371      1.00000
      3       1.5493      1.00000
      4       2.2867      1.00000
      5       2.4396      1.00000
      6       2.7802      1.00000
      7      19.6272      0.00000
      8      20.3156      0.00000
      9      25.0854      0.00000
     10      25.0992      0.00000
     11      27.7713      0.00000
     12      30.6825      0.00000

 k-point    15 :      -0.3500    0.3500    0.0500
  band No.  band energies     occupation 
      1      -0.3478      1.00000
      2       1.1494      1.00000
      3       2.0416      1.00000
      4       2.5834      1.00000
      5       2.9560      1.00000
      6       3.1512      1.00000
      7      13.1871      0.00000
      8      21.0573      0.00000
      9      21.3052      0.00000
     10      25.3103      0.00000
     11      27.2692      0.00000
     12      31.3405      0.00000

 k-point    16 :      -0.2500    0.3500    0.0500
  band No.  band energies     occupation 
      1      -0.4450      1.00000
      2       1.3013      1.00000
      3       1.5393      1.00000
      4       2.3707      1.00000
      5       2.8236      1.00000
      6       3.2568      1.00000
      7      15.5227      0.00000
      8      18.3886      0.00000
      9      23.0291      0.00000
     10      25.3724      0.00000
     11      28.2407      0.00000
     12      31.1069      0.00000

 k-point    17 :      -0.4500    0.4500    0.0500
  band No.  band energies     occupation 
      1      -0.1223      1.00000
      2       1.0216      1.00000
      3       2.4535      1.00000
      4       2.6185      1.00000
      5       3.5503      1.00757
      6       4.3123     -0.01468
      7       9.9373      0.00000
      8      20.2764      0.00000
      9      20.3182      0.00000
     10      24.9428      0.00000
     11      27.2786      0.00000
     12      32.8267      0.00000

 k-point    18 :      -0.3500    0.4500    0.0500
  band No.  band energies     occupation 
      1       0.0861      1.00000
      2       1.1535      1.00000
      3       1.8354      1.00000
      4       2.5324      1.00000
      5       3.1135      1.00000
      6       4.5240     -0.00021
      7      11.6428      0.00000
      8      17.2905      0.00000
      9      21.6988      0.00000
     10      25.3960      0.00000
     11      29.3912      0.00000
     12      30.9215      0.00000

 k-point    19 :      -0.2500    0.4500    0.0500
  band No.  band energies     occupation 
      1       0.3413      1.00000
      2       1.0802      1.00000
      3       1.5384      1.00000
      4       2.4564      1.00000
      5       2.9357      1.00000
      6       4.6564     -0.00000
      7      14.0070      0.00000
      8      14.3663      0.00000
      9      22.5372      0.00000
     10      25.4430      0.00000
     11      28.1971      0.00000
     12      34.9896      0.00000

 k-point    20 :      -0.4500   -0.4500    0.0500
  band No.  band energies     occupation 
      1       0.1184      1.00000
      2       1.1064      1.00000
      3       2.0111      1.00000
      4       2.5508      1.00000
      5       3.3374      1.00006
      6       5.8689     -0.00000
      7       9.4317      0.00000
      8      16.8984      0.00000
      9      21.2388      0.00000
     10      25.3807      0.00000
     11      30.1965      0.00000
     12      30.8514      0.00000

 k-point    21 :      -0.3500   -0.4500    0.0500
  band No.  band energies     occupation 
      1       0.5450      1.00000
      2       1.0922      1.00000
      3       1.5030      1.00000
      4       2.6109      1.00000
      5       3.0502      1.00000
      6       6.7745     -0.00000
      7      10.6198      0.00000
      8      13.4683      0.00000
      9      21.9726      0.00000
     10      25.9181      0.00000
     11      28.7267      0.00000
     12      33.4859      0.00000

 k-point    22 :      -0.3500   -0.3500    0.0500
  band No.  band energies     occupation 
      1       0.8670      1.00000
      2       1.1305      1.00000
      3       1.1305      1.00000
      4       2.8514      1.00000
      5       2.8515      1.00000
      6       9.4081     -0.00000
      7       9.4081     -0.00000
      8      11.1563      0.00000
      9      21.9897      0.00000
     10      27.3444      0.00000
     11      27.3444      0.00000
     12      32.6279      0.00000

 k-point    23 :       0.1500    0.1500    0.1500
  band No.  band energies     occupation 
      1       0.2726      1.00000
      2       1.0695      1.00000
      3       1.0695      1.00000
      4       2.6618      1.00000
      5       2.6618      1.00000
      6       4.3147     -0.01422
      7      16.1028      0.00000
      8      16.1028      0.00000
      9      16.7357      0.00000
     10      31.0371      0.00000
     11      33.7755      0.00000
     12      33.7755      0.00000

 k-point    24 :       0.2500    0.1500    0.1500
  band No.  band energies     occupation 
      1       0.6750      1.00000
      2       0.9502      1.00000
      3       1.4178      1.00000
      4       2.6946      1.00000
      5       2.7278      1.00000
      6       6.0131     -0.00000
      7      12.3627      0.00000
      8      15.1652      0.00000
      9      15.4519      0.00000
     10      31.6983      0.00000
     11      34.3902      0.00000
     12      35.9297      0.00000

 k-point    25 :       0.3500    0.1500    0.1500
  band No.  band energies     occupation 
      1       0.6177      1.00000
      2       0.9135      1.00000
      3       1.7602      1.00000
      4       2.7171      1.00000
      5       2.7445      1.00000
      6       7.7748     -0.00000
      7       9.8294      0.00000
      8      14.8480      0.00000
      9      15.0682      0.00000
     10      31.6112      0.00000
     11      34.6193      0.00000
     12      36.1921      0.00000

 k-point    26 :      -0.1500    0.1500    0.1500
  band No.  band energies     occupation 
      1      -1.8988      1.00000
      2       1.7589      1.00000
      3       1.7590      1.00000
      4       2.0500      1.00000
      5       2.0919      1.00000
      6       2.8239      1.00000
      7      21.8666      0.00000
      8      22.4426      0.00000
      9      22.4426      0.00000
     10      23.9012      0.00000
     11      30.1908      0.00000
     12      30.1908      0.00000

 k-point    27 :       0.2500    0.2500    0.1500
  band No.  band energies     occupation 
      1       0.8295      1.00000
      2       1.0663      1.00000
      3       1.3453      1.00000
      4       2.7360      1.00000
      5       2.7527      1.00000
      6       8.3623     -0.00000
      7      11.3660      0.00000
      8      12.0033      0.00000
      9      14.6841      0.00000
     10      33.9458      0.00000
     11      35.3824      0.00000
     12      38.1909      0.00000

 k-point    28 :      -0.2500    0.2500    0.1500
  band No.  band energies     occupation 
      1      -0.8170      1.00000
      2       1.5825      1.00000
      3       1.6578      1.00000
      4       2.0970      1.00000
      5       2.5074      1.00000
      6       3.0363      1.00000
      7      17.8853      0.00000
      8      20.4076      0.00000
      9      21.1854      0.00000
     10      23.9920      0.00000
     11      29.5694      0.00000
     12      30.7248      0.00000

 k-point    29 :      -0.3500    0.3500    0.1500
  band No.  band energies     occupation 
      1       0.0534      1.00000
      2       1.4201      1.00000
      3       1.4855      1.00000
      4       2.3669      1.00000
      5       3.1007      1.00000
      6       3.8181      0.95179
      7      13.6821      0.00000
      8      18.8179      0.00000
      9      20.1050      0.00000
     10      25.5295      0.00000
     11      28.5843      0.00000
     12      30.4821      0.00000

 k-point    30 :      -0.2500    0.3500    0.1500
  band No.  band energies     occupation 
      1       0.0756      1.00000
      2       1.2219      1.00000
      3       1.7655      1.00000
      4       2.1975      1.00000
      5       2.8703      1.00000
      6       3.7723      1.01250
      7      16.1395      0.00000
      8      16.4387      0.00000
      9      21.9532      0.00000
     10      22.7878      0.00000
     11      29.1087      0.00000
     12      33.8244      0.00000

 k-point    31 :      -0.4500    0.4500    0.1500
  band No.  band energies     occupation 
      1       0.2060      1.00000
      2       1.3772      1.00000
      3       1.5716      1.00000
      4       2.4177      1.00000
      5       3.5141      1.00401
      6       5.6360     -0.00000
      7      10.2467      0.00000
      8      17.9092      0.00000
      9      19.5230      0.00000
     10      27.5408      0.00000
     11      28.0817      0.00000
     12      29.5596      0.00000

 k-point    32 :      -0.3500    0.4500    0.1500
  band No.  band energies     occupation 
      1       0.4801      1.00000
      2       1.0578      1.00000
      3       1.6283      1.00000
      4       2.4345      1.00000
      5       3.2165      1.00000
      6       5.5430     -0.00000
      7      12.3215      0.00000
      8      15.1800      0.00000
      9      21.3395      0.00000
     10      24.3316      0.00000
     11      28.2324      0.00000
     12      31.8210      0.00000

 k-point    33 :      -0.4500   -0.4500    0.1500
  band No.  band energies     occupation 
      1       0.4640      1.00000
      2       1.1839      1.00000
      3       1.4906      1.00000
      4       2.4979      1.00000
      5       3.4025      1.00034
      6       7.4158     -0.00000
      7       9.7562      0.00000
      8      14.7685      0.00000
      9      21.0132      0.00000
     10      26.2710      0.00000
     11      26.8898      0.00000
     12      30.4585      0.00000

 k-point    34 :      -0.3500   -0.4500    0.1500
  band No.  band energies     occupation 
      1       0.7994      1.00000
      2       0.8236      1.00000
      3       1.4342      1.00000
      4       2.7844      1.00000
      5       3.1510      1.00000
      6       8.0458     -0.00000
      7      11.1640      0.00000
      8      11.9394      0.00000
      9      23.3177      0.00000
     10      23.8694      0.00000
     11      26.3169      0.00000
     12      30.2748      0.00000

 k-point    35 :       0.2500    0.2500    0.2500
  band No.  band energies     occupation 
      1       1.0961      1.00000
      2       1.0961      1.00000
      3       1.0961      1.00000
      4       2.7548      1.00000
      5       2.7548      1.00000
      6      11.0216      0.00000
      7      11.0216      0.00000
      8      11.0216      0.00000
      9      12.1429      0.00000
     10      38.7433      0.00000
     11      38.7433      0.00000
     12      38.7433      0.00000

 k-point    36 :      -0.2500    0.2500    0.2500
  band No.  band energies     occupation 
      1      -0.0426      1.00000
      2       1.3259      1.00000
      3       2.0437      1.00000
      4       2.0437      1.00000
      5       2.5498      1.00000
      6       3.5898      1.01370
      7      18.2168      0.00000
      8      18.2168      0.00000
      9      19.4203      0.00000
     10      20.7489      0.00000
     11      33.4090      0.00000
     12      33.4090      0.00000

 k-point    37 :      -0.3500    0.3500    0.2500
  band No.  band energies     occupation 
      1       0.4259      1.00000
      2       0.9321      1.00000
      3       2.0720      1.00000
      4       2.3147      1.00000
      5       3.0270      1.00000
      6       4.9274     -0.00000
      7      14.5825      0.00000
      8      16.5340      0.00000
      9      19.1164      0.00000
     10      21.3655      0.00000
     11      30.7756      0.00000
     12      32.4283      0.00000

 k-point    38 :      -0.4500    0.4500    0.2500
  band No.  band energies     occupation 
      1       0.4516      1.00000
      2       0.8220      1.00000
      3       2.0152      1.00000
      4       2.4325      1.00000
      5       3.4547      1.00119
      6       7.2175     -0.00000
      7      10.9765      0.00000
      8      15.5789      0.00000
      9      18.7575      0.00000
     10      23.4318      0.00000
     11      27.4314      0.00000
     12      31.8640      0.00000

 k-point    39 :      -0.3500    0.4500    0.2500
  band No.  band energies     occupation 
      1       0.5213      1.00000
      2       0.6098      1.00000
      3       2.1280      1.00000
      4       2.6944      1.00000
      5       3.2554      1.00000
      6       6.9930     -0.00000
      7      13.2575      0.00000
      8      13.5266      0.00000
      9      19.9555      0.00000
     10      20.9863      0.00000
     11      27.0625      0.00000
     12      32.4983      0.00000

 k-point    40 :      -0.4500   -0.4500    0.2500
  band No.  band energies     occupation 
      1       0.4575      1.00000
      2       0.5643      1.00000
      3       2.0906      1.00000
      4       2.8853      1.00000
      5       3.3663      1.00013
      6       9.3461     -0.00000
      7      10.4789      0.00000
      8      12.9677      0.00000
      9      20.0758      0.00000
     10      22.2876      0.00000
     11      24.7321      0.00000
     12      32.3102      0.00000

 k-point    41 :      -0.3500    0.3500    0.3500
  band No.  band energies     occupation 
      1       0.3949      1.00000
      2       0.5511      1.00000
      3       2.6530      1.00000
      4       2.6531      1.00000
      5       3.0573      1.00000
      6       6.5974     -0.00000
      7      14.7432      0.00000
      8      14.7432      0.00000
      9      18.0656      0.00000
     10      19.2088      0.00000
     11      26.8474      0.00000
     12      35.7980      0.00000

 k-point    42 :      -0.4500    0.4500    0.3500
  band No.  band energies     occupation 
      1       0.2839      1.00000
      2       0.3210      1.00000
      3       2.7667      1.00000
      4       2.9077      1.00000
      5       3.3967      1.00030
      6       9.0002     -0.00000
      7      12.1049      0.00000
      8      13.7067      0.00000
      9      18.1489      0.00000
     10      19.9314      0.00000
     11      23.5597      0.00000
     12      35.8049      0.00000

 k-point    43 :      -0.4500   -0.4500    0.3500
  band No.  band energies     occupation 
      1       0.1929      1.00000
      2       0.1929      1.00000
      3       2.8403      1.00000
      4       3.3223      1.00004
      5       3.3224      1.00004
      6      11.3868      0.00000
      7      11.3868      0.00000
      8      11.9250      0.00000
      9      19.0627      0.00000
     10      19.0627      0.00000
     11      21.7097      0.00000
     12      36.2988      0.00000

 k-point    44 :      -0.4500    0.4500    0.4500
  band No.  band energies     occupation 
      1       0.0702      1.00000
      2       0.0759      1.00000
      3       3.3082      1.00002
      4       3.3083      1.00002
      5       3.3833      1.00021
      6      11.0374      0.00000
      7      12.6006      0.00000
      8      12.6006      0.00000
      9      17.5080      0.00000
     10      18.1916      0.00000
     11      20.7450      0.00000
     12      38.4109      0.00000

 spin component 2

 k-point     1 :       0.0500    0.0500    0.0500
  band No.  band energies     occupation 
      1      -2.7561      1.00000
      2       4.0084      0.27760
      3       4.0084      0.27760
      4       4.4410     -0.00153
      5       5.5990     -0.00000
      6       5.5990     -0.00000
      7      23.9137      0.00000
      8      23.9137      0.00000
      9      26.7683      0.00000
     10      27.1019      0.00000
     11      30.6051      0.00000
     12      30.6051      0.00000

 k-point     2 :       0.1500    0.0500    0.0500
  band No.  band energies     occupation 
      1      -1.7653      1.00000
      2       3.7356      1.03212
      3       3.8382      0.90940
      4       4.9736     -0.00000
      5       5.4621     -0.00000
      6       5.6640     -0.00000
      7      20.0925      0.00000
      8      22.1719      0.00000
      9      24.1613      0.00000
     10      26.9482      0.00000
     11      30.2541      0.00000
     12      30.7583      0.00000

 k-point     3 :       0.2500    0.0500    0.0500
  band No.  band energies     occupation 
      1      -0.3118      1.00000
      2       3.4316      1.00070
      3       3.6223      1.02047
      4       5.4587     -0.00000
      5       5.6955     -0.00000
      6       5.7439     -0.00000
      7      16.0319      0.00000
      8      20.6451      0.00000
      9      22.0999      0.00000
     10      26.4992      0.00000
     11      29.4283      0.00000
     12      32.5083      0.00000

 k-point     4 :       0.3500    0.0500    0.0500
  band No.  band energies     occupation 
      1       1.0393      1.00000
      2       3.2026      1.00000
      3       3.7520      1.02593
      4       5.5333     -0.00000
      5       5.8097     -0.00000
      6       6.4124     -0.00000
      7      12.5532      0.00000
      8      19.6012      0.00000
      9      20.6887      0.00000
     10      26.1153      0.00000
     11      29.0991      0.00000
     12      34.7068      0.00000

 k-point     5 :       0.4500    0.0500    0.0500
  band No.  band energies     occupation 
      1       1.4861      1.00000
      2       3.1188      1.00000
      3       4.1642     -0.02978
      4       5.5650     -0.00000
      5       5.8378     -0.00000
      6       6.8224     -0.00000
      7      10.8942      0.00000
      8      19.2310      0.00000
      9      20.1655      0.00000
     10      25.9868      0.00000
     11      29.0386      0.00000
     12      34.7000      0.00000

 k-point     6 :      -0.0500    0.0500    0.0500
  band No.  band energies     occupation 
      1      -3.1013      1.00000
      2       4.1207      0.00137
      3       4.1208      0.00135
      4       4.1755     -0.03309
      5       5.5658     -0.00000
      6       5.6878     -0.00000
      7      25.1872      0.00000
      8      26.0557      0.00000
      9      26.0557      0.00000
     10      28.8358      0.00000
     11      30.2978      0.00000
     12      30.2978      0.00000

[...]
      7      11.9954      0.00000
      8      16.1511      0.00000
      9      19.3239      0.00000
     10      23.7691      0.00000
     11      28.2127      0.00000
     12      32.2869      0.00000

 k-point    39 :      -0.3500    0.4500    0.2500
  band No.  band energies     occupation 
      1       2.2243      1.00000
      2       2.8079      1.00000
      3       4.4684     -0.00083
      4       5.1971     -0.00000
      5       5.9406     -0.00000
      6       8.2811     -0.00000
      7      14.0278      0.00000
      8      14.2197      0.00000
      9      20.4393      0.00000
     10      21.5246      0.00000
     11      27.7958      0.00000
     12      32.9205      0.00000

 k-point    40 :      -0.4500   -0.4500    0.2500
  band No.  band energies     occupation 
      1       2.5184      1.00000
      2       2.5637      1.00000
      3       4.3859     -0.00458
      4       5.4403     -0.00000
      5       6.0707     -0.00000
      6      10.2480      0.00000
      7      11.4543      0.00000
      8      13.6539      0.00000
      9      20.5778      0.00000
     10      22.6116      0.00000
     11      25.6813      0.00000
     12      32.7343      0.00000

 k-point    41 :      -0.3500    0.3500    0.3500
  band No.  band energies     occupation 
      1       2.0600      1.00000
      2       2.8076      1.00000
      3       5.1037     -0.00000
      4       5.1037     -0.00000
      5       5.7249     -0.00000
      6       7.8715     -0.00000
      7      15.3029      0.00000
      8      15.3030      0.00000
      9      18.7667      0.00000
     10      19.8862      0.00000
     11      27.5734      0.00000
     12      36.1724      0.00000

 k-point    42 :      -0.4500    0.4500    0.3500
  band No.  band energies     occupation 
      1       2.2650      1.00000
      2       2.4505      1.00000
      3       5.2767     -0.00000
      4       5.4169     -0.00000
      5       6.1233     -0.00000
      6       9.8421      0.00000
      7      12.7568      0.00000
      8      14.1681      0.00000
      9      18.8846      0.00000
     10      20.5150      0.00000
     11      24.4617      0.00000
     12      36.1516      0.00000

 k-point    43 :      -0.4500   -0.4500    0.3500
  band No.  band energies     occupation 
      1       2.2732      1.00000
      2       2.2732      1.00000
      3       5.3459     -0.00000
      4       6.0082     -0.00000
      5       6.0082     -0.00000
      6      11.9684      0.00000
      7      11.9685      0.00000
      8      12.4777      0.00000
      9      19.6703      0.00000
     10      19.6703      0.00000
     11      22.8098      0.00000
     12      36.6296      0.00000

 k-point    44 :      -0.4500    0.4500    0.4500
  band No.  band energies     occupation 
      1       2.1332      1.00000
      2       2.1824      1.00000
      3       5.9859     -0.00000
      4       5.9859     -0.00000
      5       6.1106     -0.00000
      6      11.5091      0.00000
      7      12.9144      0.00000
      8      12.9144      0.00000
      9      18.3653      0.00000
     10      18.9583      0.00000
     11      21.8545      0.00000
     12      38.6393      0.00000


--------------------------------------------------------------------------------------------------------


 soft charge-density along one line, spin component           1
         0         1         2         3         4         5         6         7         8         9
 total charge-density along one line
 
 soft charge-density along one line, spin component           2
         0         1         2         3         4         5         6         7         8         9
 total charge-density along one line
 
 pseudopotential strength for first ion, spin component:           1
 -6.923   0.000   0.000   0.000  -0.000   0.000   0.000   0.000   0.000   0.000  -7.417   0.000   0.000   0.000  -0.000   0.000
  0.000   0.000  -6.923   0.000   0.000   0.000   0.000   0.000  -0.000   0.000   0.000   0.000  -7.417   0.000   0.000   0.000
 -0.000   0.000   0.000   0.000  -7.046   0.000   0.000   0.000  -0.000   0.000  -0.000   0.000   0.000   0.000  -7.537   0.000
  0.000   0.000   0.000   0.000   0.000   0.000  -6.923   0.000   0.000   0.000   0.000   0.000   0.000   0.000   0.000   0.000
  0.000   0.000  -0.000   0.000  -0.000   0.000   0.000   0.000  -7.046   0.000   0.000   0.000  -0.000   0.000  -0.000   0.000
 -7.417   0.000   0.000   0.000  -0.000   0.000   0.000   0.000   0.000   0.000  -7.870   0.000   0.000   0.000  -0.000   0.000
  0.000   0.000  -7.417   0.000   0.000   0.000   0.000   0.000  -0.000   0.000   0.000   0.000  -7.870   0.000   0.000   0.000
 -0.000   0.000   0.000   0.000  -7.537   0.000   0.000   0.000  -0.000   0.000  -0.000   0.000   0.000   0.000  -7.987   0.000
  0.000   0.000   0.000   0.000   0.000   0.000  -7.417   0.000   0.000   0.000   0.000   0.000   0.000   0.000   0.000   0.000
  0.000   0.000  -0.000   0.000  -0.000   0.000   0.000   0.000  -7.537   0.000   0.000   0.000  -0.000   0.000  -0.000   0.000
 -0.000   0.000  -0.000   0.000   0.000   0.000  -0.000   0.000  -0.000   0.000  -0.000   0.000  -0.000   0.000   0.000   0.000
 -0.000   0.000  -0.000   0.000   0.000   0.000  -0.000   0.000  -0.000   0.000  -0.000   0.000  -0.000   0.000   0.000   0.000
  0.000   0.000  -0.000   0.000   0.000   0.000   0.000   0.000   0.000   0.000   0.000   0.000  -0.000   0.000   0.000   0.000
  0.000   0.000  -0.000   0.000  -0.000   0.000   0.000   0.000  -0.000   0.000   0.000   0.000  -0.000   0.000  -0.000   0.000
 -0.000   0.000   0.000   0.000  -0.000   0.000  -0.000   0.000   0.000   0.000  -0.000   0.000   0.000   0.000  -0.000   0.000
  0.000   0.000  -0.000   0.000   0.000   0.000   0.000   0.000   0.000   0.000   0.000   0.000  -0.000   0.000   0.000   0.000
  0.000   0.000  -0.000   0.000  -0.000   0.000   0.000   0.000  -0.000   0.000   0.000   0.000  -0.000   0.000  -0.000   0.000
 -0.000   0.000   0.000   0.000  -0.000   0.000  -0.000   0.000   0.000   0.000  -0.000   0.000   0.000   0.000  -0.000   0.000
 pseudopotential strength for first ion, spin component:           2
 -5.099   0.000   0.000   0.000  -0.000   0.000   0.000   0.000   0.000   0.000  -5.651   0.000   0.000   0.000  -0.000   0.000
  0.000   0.000  -5.099   0.000   0.000   0.000   0.000   0.000  -0.000   0.000   0.000   0.000  -5.651   0.000   0.000   0.000
 -0.000   0.000   0.000   0.000  -4.942   0.000   0.000   0.000   0.000   0.000  -0.000   0.000   0.000   0.000  -5.497   0.000
  0.000   0.000   0.000   0.000   0.000   0.000  -5.099   0.000   0.000   0.000   0.000   0.000   0.000   0.000   0.000   0.000
  0.000   0.000  -0.000   0.000   0.000   0.000   0.000   0.000  -4.942   0.000   0.000   0.000  -0.000   0.000   0.000   0.000
 -5.651   0.000   0.000   0.000  -0.000   0.000   0.000   0.000   0.000   0.000  -6.160   0.000   0.000   0.000  -0.000   0.000
  0.000   0.000  -5.651   0.000   0.000   0.000   0.000   0.000  -0.000   0.000   0.000   0.000  -6.160   0.000   0.000   0.000
 -0.000   0.000   0.000   0.000  -5.497   0.000   0.000   0.000   0.000   0.000  -0.000   0.000   0.000   0.000  -6.010   0.000
  0.000   0.000   0.000   0.000   0.000   0.000  -5.651   0.000   0.000   0.000   0.000   0.000   0.000   0.000   0.000   0.000
  0.000   0.000  -0.000   0.000   0.000   0.000   0.000   0.000  -5.497   0.000   0.000   0.000  -0.000   0.000   0.000   0.000
 -0.000   0.000  -0.000   0.000   0.000   0.000  -0.000   0.000   0.000   0.000  -0.000   0.000  -0.000   0.000   0.000   0.000
 -0.000   0.000  -0.000   0.000   0.000   0.000  -0.000   0.000   0.000   0.000  -0.000   0.000  -0.000   0.000   0.000   0.000
  0.000   0.000   0.000   0.000   0.000   0.000   0.000   0.000   0.000   0.000   0.000   0.000   0.000   0.000   0.000   0.000
  0.000   0.000  -0.000   0.000   0.000   0.000   0.000   0.000  -0.000   0.000   0.000   0.000  -0.000   0.000   0.000   0.000
 -0.000   0.000   0.000   0.000  -0.000   0.000  -0.000   0.000   0.000   0.000  -0.000   0.000   0.000   0.000  -0.000   0.000
  0.000   0.000   0.000   0.000   0.000   0.000   0.000   0.000   0.000   0.000   0.000   0.000   0.000   0.000   0.000   0.000
  0.000   0.000  -0.000   0.000   0.000   0.000   0.000   0.000  -0.000   0.000   0.000   0.000  -0.000   0.000   0.000   0.000
 -0.000   0.000   0.000   0.000  -0.000   0.000  -0.000   0.000   0.000   0.000  -0.000   0.000   0.000   0.000  -0.000   0.000
 total augmentation occupancy for first ion, spin component:           1
  2.491   0.000  -0.000   0.000  -0.000  -1.114   0.000   0.000   0.000  -0.000   0.000   0.000   0.000   0.000   0.000   0.000
  0.000   2.491   0.000   0.000  -0.000  -0.000  -1.114  -0.000  -0.000   0.000   0.000   0.000   0.000   0.000   0.000   0.000
 -0.000   0.000   3.172  -0.000   0.000  -0.000   0.000  -1.694   0.000   0.000   0.000   0.000   0.000   0.000   0.000   0.000
  0.000   0.000  -0.000   2.491  -0.000  -0.000  -0.000  -0.000  -1.114   0.000  -0.000   0.000   0.000   0.000   0.000   0.000
 -0.000   0.000   0.000  -0.000   3.172   0.000  -0.000   0.000  -0.000  -1.694   0.000   0.000   0.000   0.000   0.000   0.000
 -1.114   0.000  -0.000  -0.000   0.000   1.123   0.000  -0.000  -0.000   0.000   0.000   0.000   0.000   0.000   0.000   0.000
  0.000  -1.114   0.000  -0.000  -0.000   0.000   1.123   0.000   0.000  -0.000   0.000   0.000   0.000   0.000   0.000   0.000
  0.000  -0.000  -1.694  -0.000   0.000   0.000   0.000   1.472   0.000   0.000   0.000  -0.000   0.000   0.000   0.000   0.000
  0.000   0.000   0.000  -1.114  -0.000  -0.000   0.000  -0.000   1.123   0.000   0.000   0.000   0.000   0.000   0.000   0.000
 -0.000  -0.000   0.000   0.000  -1.694  -0.000  -0.000   0.000   0.000   1.472   0.000   0.000   0.000   0.000   0.000   0.000
  0.000   0.000  -0.000  -0.000  -0.000   0.000   0.000   0.000   0.000   0.000   1.920  -0.198   0.000   0.000   0.000   0.000
 -0.000   0.000   0.000   0.000   0.000  -0.000   0.000  -0.000  -0.000   0.000  -0.198   0.026   0.000   0.000   0.000   0.000
  0.000   0.000   0.000   0.000   0.000   0.000   0.000   0.000   0.000   0.000   0.000   0.000   0.202   0.000  -0.000  -0.017
  0.000   0.000   0.000   0.000   0.000   0.000   0.000   0.000   0.000   0.000   0.000   0.000  -0.000   0.202  -0.000   0.000
  0.000   0.000   0.000   0.000   0.000   0.000   0.000   0.000   0.000   0.000   0.000   0.000  -0.000  -0.000   0.202   0.000
  0.000   0.000   0.000   0.000   0.000   0.000   0.000   0.000   0.000   0.000   0.000   0.000  -0.017   0.000   0.000   0.002
  0.000   0.000   0.000   0.000   0.000   0.000   0.000   0.000   0.000   0.000   0.000   0.000   0.000  -0.017   0.000   0.000
  0.000   0.000   0.000   0.000   0.000   0.000   0.000   0.000   0.000   0.000   0.000   0.000   0.000   0.000  -0.017   0.000
 total augmentation occupancy for first ion, spin component:           2
  2.284   0.000   0.000   0.000  -0.000  -0.958  -0.000   0.000   0.000   0.000   0.000  -0.000   0.000   0.000   0.000   0.000
  0.000   2.284   0.000   0.000  -0.000   0.000  -0.958   0.000   0.000   0.000   0.000  -0.000   0.000   0.000   0.000   0.000
 -0.000   0.000   2.950   0.000   0.000   0.000  -0.000  -1.257   0.000   0.000   0.000  -0.000   0.000   0.000   0.000   0.000
  0.000   0.000   0.000   2.284   0.000   0.000   0.000  -0.000  -0.958   0.000  -0.000   0.000   0.000   0.000   0.000   0.000
 -0.000   0.000   0.000   0.000   2.950   0.000  -0.000  -0.000   0.000  -1.257   0.000   0.000   0.000   0.000   0.000   0.000
 -0.958   0.000   0.000   0.000   0.000   0.180   0.000   0.000   0.000  -0.000  -0.000   0.000   0.000   0.000   0.000   0.000
  0.000  -0.958   0.000   0.000   0.000   0.000   0.180   0.000   0.000   0.000  -0.000   0.000   0.000   0.000   0.000   0.000
  0.000  -0.000  -1.257  -0.000  -0.000   0.000   0.000   0.323  -0.000   0.000  -0.000   0.000   0.000   0.000   0.000   0.000
  0.000   0.000   0.000  -0.958   0.000   0.000   0.000   0.000   0.180   0.000  -0.000   0.000   0.000   0.000   0.000   0.000
 -0.000   0.000   0.000   0.000  -1.257  -0.000   0.000   0.000  -0.000   0.323  -0.000   0.000   0.000   0.000   0.000   0.000
  0.000   0.000   0.000  -0.000   0.000  -0.000  -0.000  -0.000  -0.000  -0.000  -0.325   0.096   0.000   0.000   0.000   0.000
  0.000   0.000  -0.000  -0.000   0.000  -0.000   0.000   0.000   0.000  -0.000   0.096  -0.015   0.000   0.000   0.000   0.000
  0.000   0.000   0.000   0.000   0.000   0.000   0.000   0.000   0.000   0.000   0.000   0.000  -0.037   0.000   0.000   0.005
  0.000   0.000   0.000   0.000   0.000   0.000   0.000   0.000   0.000   0.000   0.000   0.000   0.000  -0.037  -0.000   0.000
  0.000   0.000   0.000   0.000   0.000   0.000   0.000   0.000   0.000   0.000   0.000   0.000   0.000   0.000  -0.037  -0.000
  0.000   0.000   0.000   0.000   0.000   0.000   0.000   0.000   0.000   0.000   0.000   0.000   0.005   0.000  -0.000  -0.001
  0.000   0.000   0.000   0.000   0.000   0.000   0.000   0.000   0.000   0.000   0.000   0.000  -0.000   0.005  -0.000   0.000
  0.000   0.000   0.000   0.000   0.000   0.000   0.000   0.000   0.000   0.000   0.000   0.000   0.000   0.000   0.005  -0.000


------------------------ aborting loop because EDIFF is reached ----------------------------------------


    CHARGE:  cpu time    0.0045: real time    0.0045
    FORLOC:  cpu time    0.0000: real time    0.0001
    FORNL :  cpu time    0.0077: real time    0.0084
    STRESS:  cpu time    0.0301: real time    0.0303
    FORCOR:  cpu time    0.0048: real time    0.0047
    FORHAR:  cpu time    0.0007: real time    0.0007
    MIXING:  cpu time    0.0005: real time    0.0004
    OFIELD:  cpu time    0.0000: real time    0.0000

  FORCE on cell =-STRESS in cart. coord.  units (eV):
  Direction    XX          YY          ZZ          XY          YZ          ZX
  --------------------------------------------------------------------------------------
  Alpha Z    48.71863    48.71863    48.71863
  Ewald    -183.27147  -183.27147  -183.27147    -0.00000    -0.00000    -0.00000
  Hartree    37.59736    37.59736    37.59736    -0.00000    -0.00000    -0.00000
  E(xc)     -39.32995   -39.32995   -39.32995    -0.00000    -0.00000    -0.00000
  Local      52.03980    52.03980    52.03980    -0.00014    -0.00014    -0.00014
  n-local   -28.27342   -27.78170   -27.17908     1.26501    -0.75766    -1.22792
  augment    39.11561    39.11561    39.11561     0.00024     0.00024     0.00024
  Kinetic    71.35379    70.32047    70.13610    -2.73439     1.81098     1.35532
  Fock        0.00000     0.00000     0.00000     0.00000     0.00000     0.00000
  -------------------------------------------------------------------------------------
  Total      -2.27129    -2.27129    -2.27129    -0.00000    -0.00000    -0.00000
  in kB    -256.51597  -256.51597  -256.51597    -0.00000    -0.00000    -0.00000
  external pressure =     -256.52 kB  Pullay stress =        0.00 kB


 VOLUME and BASIS-vectors are now :
 -----------------------------------------------------------------------------
  energy-cutoff  :      268.00
  volume of cell :       14.19
      direct lattice vectors                 reciprocal lattice vectors
    -1.525000000  1.525000000  1.525000000     0.000000000  0.327868852  0.327868852
     1.525000000 -1.525000000  1.525000000     0.327868852  0.000000000  0.327868852
     1.525000000  1.525000000 -1.525000000     0.327868852  0.327868852  0.000000000

  length of vectors
     2.641377482  2.641377482  2.641377482     0.463676578  0.463676578  0.463676578


 FORCES acting on ions
    electron-ion (+dipol)            ewald-force                    non-local-force                 convergence-correction
 -----------------------------------------------------------------------------------------------
   0.577E-15 -.149E-15 -.341E-14   -.376E-16 0.117E-14 -.197E-14   0.132E-22 -.199E-22 0.662E-23   -.193E-14 0.758E-14 0.388E-14
 -----------------------------------------------------------------------------------------------
   0.577E-15 -.149E-15 -.341E-14   -.376E-16 0.117E-14 -.197E-14   0.132E-22 -.199E-22 0.662E-23   -.193E-14 0.758E-14 0.388E-14
 
 
 POSITION                                       TOTAL-FORCE (eV/Angst)
 -----------------------------------------------------------------------------------
      0.00000      0.00000      0.00000        -0.000000     -0.000000      0.000000
 -----------------------------------------------------------------------------------
    total drift:                               -0.000000      0.000000     -0.000000


--------------------------------------------------------------------------------------------------------



  FREE ENERGIE OF THE ION-ELECTRON SYSTEM (eV)
  ---------------------------------------------------
  free  energy   TOTEN  =        -8.00076871 eV

  energy  without entropy=       -8.00136654  energy(sigma->0) =       -8.00096798
 


--------------------------------------------------------------------------------------------------------


    POTLOK:  cpu time    0.0102: real time    0.0103


--------------------------------------------------------------------------------------------------------


 writing wavefunctions
     LOOP+:  cpu time    2.1112: real time    2.1554
    4ORBIT:  cpu time    0.0000: real time    0.0000

volume of typ            1:    65.2 %
 
total charge     
 
# of ion       s       p       d       tot
------------------------------------------
    1        0.346   0.307   6.059   6.713
 
magnetization (x)
 
# of ion       s       p       d       tot
------------------------------------------
    1       -0.008  -0.048   2.762   2.707
 
orbital moment (x)
 
# of ion     s             p             d             tot
-----------------------------------------------------------------
    1     0.000000E+00 -0.212779E-08  0.506210E-09 -0.162158E-08
 
orbital moment (y)
 
# of ion     s             p             d             tot
-----------------------------------------------------------------
    1     0.000000E+00 -0.680528E-09  0.312114E-10 -0.649317E-09
 
orbital moment (z)
 
# of ion     s             p             d             tot
-----------------------------------------------------------------
    1     0.000000E+00  0.235125E-08  0.354879E-09  0.270613E-08
 
orbital moment (x)
 
# of ion     s             p             d             tot
-----------------------------------------------------------------
    1     0.000000E+00  0.303469E-08  0.116828E-08  0.420297E-08
 
orbital moment (y)
 
# of ion     s             p             d             tot
-----------------------------------------------------------------
    1     0.000000E+00  0.473223E-08  0.119282E-08  0.592505E-08
 
orbital moment (z)
 
# of ion     s             p             d             tot
-----------------------------------------------------------------
    1     0.000000E+00  0.578567E-08 -0.810719E-08 -0.232151E-08
 

 total amount of memory used by VASP MPI-rank0    32470. kBytes
=======================================================================

   base      :      30000. kBytes
   nonl-proj :        940. kBytes
   fftplans  :        238. kBytes
   grid      :        552. kBytes
   one-center:         31. kBytes
   wavefun   :        709. kBytes
 
  
  
 General timing and accounting informations for this job:
 ========================================================
  
                  Total CPU time used (sec):        2.625
                            User time (sec):        2.105
                          System time (sec):        0.520
                         Elapsed time (sec):        2.700
  
                   Maximum memory used (kb):       61788.
                   Average memory used (kb):           0.
  
                          Minor page faults:        21750
                          Major page faults:            0
                 Voluntary context switches:         2519
