PROCAR new format
# of k-points:   44         # of bands:   12         # of ions:    1

 k-point     1 :    0.05000000 0.05000000 0.05000000     weight = 0.00800000

band     1 # energy   -2.86986209 # occ.  1.00000000
 
ion      s      p      d    tot
    1  0.461  0.024  0.002  0.487
 
band     2 # energy    1.62060192 # occ.  1.00000000
 
ion      s      p      d    tot
    1  0.000  0.001  0.946  0.947
 
band     3 # energy    1.62060192 # occ.  1.00000000
 
ion      s      p      d    tot
    1  0.000  0.001  0.946  0.947
 
band     4 # energy    1.98228970 # occ.  1.00000000
 
ion      s      p      d    tot
    1  0.001  0.003  0.951  0.955
 
band     5 # energy    2.58206521 # occ.  1.00000000
 
ion      s      p      d    tot
    1  0.000  0.000  0.965  0.965
 
band     6 # energy    2.58206521 # occ.  1.00000000
 
ion      s      p      d    tot
    1  0.000  0.000  0.965  0.965
 
band     7 # energy   23.85589916 # occ.  0.00000000
 
ion      s      p      d    tot
    1  0.000  0.095  0.182  0.277
 
band     8 # energy   23.85589916 # occ.  0.00000000
 
ion      s      p      d    tot
    1  0.000  0.095  0.182  0.277
 
band     9 # energy   26.16291836 # occ.  0.00000000
 
ion      s      p      d    tot
    1  0.058  0.478  0.167  0.703
 
band    10 # energy   27.17729878 # occ.  0.00000000
 
ion      s      p      d    tot
    1  0.000  0.000  0.000  0.000
 
band    11 # energy   30.13702809 # occ.  0.00000000
 
ion      s      p      d    tot
    1  0.000  0.460  0.001  0.461
 
band    12 # energy   30.13702830 # occ.  0.00000000
 
ion      s      p      d    tot
    1  0.000  0.460  0.001  0.461
 

 k-point     2 :    0.15000000 0.05000000 0.05000000     weight = 0.02400000

band     1 # energy   -1.90771766 # occ.  1.00000000
 
ion      s      p      d    tot
    1  0.409  0.063  0.026  0.497
 
band     2 # energy    1.41448902 # occ.  1.00000000
 
ion      s      p      d    tot
    1  0.000  0.001  0.935  0.936
 
band     3 # energy    1.52947655 # occ.  1.00000000
 
ion      s      p      d    tot
    1  0.002  0.009  0.915  0.925
 
band     4 # energy    2.46281707 # occ.  1.00000000
 
ion      s      p      d    tot
    1  0.004  0.009  0.941  0.955
 
band     5 # energy    2.50503604 # occ.  1.00000000
 
ion      s      p      d    tot
    1  0.000  0.000  0.963  0.964
 
band     6 # energy    2.62692957 # occ.  1.00000000
 
ion      s      p      d    tot
    1  0.000  0.000  0.969  0.969
 
band     7 # energy   19.62831983 # occ.  0.00000000
 
ion      s      p      d    tot
    1  0.039  0.205  0.217  0.461
 
band     8 # energy   21.96088876 # occ.  0.00000000
 
ion      s      p      d    tot
    1  0.000  0.163  0.188  0.351
 
band     9 # energy   23.34678193 # occ.  0.00000000
 
ion      s      p      d    tot
    1  0.087  0.432  0.128  0.647
 
band    10 # energy   27.14018286 # occ.  0.00000000
 
ion      s      p      d    tot
    1  0.000  0.010  0.129  0.139
 
band    11 # energy   29.64504193 # occ.  0.00000000
 
ion      s      p      d    tot
    1  0.031  0.314  0.174  0.518
 
band    12 # energy   30.48694710 # occ.  0.00000000
 
ion      s      p      d    tot
    1  0.000  0.288  0.067  0.355
 

 k-point     3 :    0.25000000 0.05000000 0.05000000     weight = 0.02400000

band     1 # energy   -0.67647718 # occ.  1.00000000
 
ion      s      p      d    tot
    1  0.287  0.081  0.208  0.576
 
band     2 # energy    1.18520862 # occ.  1.00000000
 
ion      s      p      d    tot
    1  0.000  0.002  0.924  0.926
 
band     3 # energy    1.62154311 # occ.  1.00000000
 
ion      s      p      d    tot
    1  0.034  0.059  0.747  0.840
 
band     4 # energy    2.54129887 # occ.  1.00000000
 
ion      s      p      d    tot
    1  0.001  0.001  0.966  0.968
 
band     5 # energy    2.67884324 # occ.  1.00000000
 
ion      s      p      d    tot
    1  0.000  0.000  0.973  0.973
 
band     6 # energy    3.15791682 # occ.  1.00000014
 
ion      s      p      d    tot
    1  0.016  0.026  0.897  0.939
 
band     7 # energy   15.26290221 # occ.  0.00000000
 
ion      s      p      d    tot
    1  0.122  0.222  0.217  0.561
 
band     8 # energy   20.41496506 # occ.  0.00000000
 
ion      s      p      d    tot
    1  0.000  0.204  0.160  0.364
 
band     9 # energy   21.36432851 # occ.  0.00000000
 
ion      s      p      d    tot
    1  0.085  0.446  0.093  0.624
 
band    10 # energy   26.41083038 # occ.  0.00000000
 
ion      s      p      d    tot
    1  0.000  0.022  0.270  0.291
 
band    11 # energy   28.87095139 # occ.  0.00000000
 
ion      s      p      d    tot
    1  0.085  0.204  0.212  0.502
 
band    12 # energy   32.29365349 # occ.  0.00000000
 
ion      s      p      d    tot
    1  0.000  0.251  0.070  0.321
 

 k-point     4 :    0.35000000 0.05000000 0.05000000     weight = 0.02400000

band     1 # energy   -0.10389374 # occ.  1.00000000
 
ion      s      p      d    tot
    1  0.123  0.024  0.607  0.754
 
band     2 # energy    1.01084252 # occ.  1.00000000
 
ion      s      p      d    tot
    1  0.000  0.002  0.917  0.919
 
band     3 # energy    2.45770225 # occ.  1.00000000
 
ion      s      p      d    tot
    1  0.049  0.110  0.634  0.793
 
band     4 # energy    2.65665563 # occ.  1.00000000
 
ion      s      p      d    tot
    1  0.001  0.032  0.902  0.935
 
band     5 # energy    2.71656942 # occ.  1.00000000
 
ion      s      p      d    tot
    1  0.000  0.000  0.977  0.977
 
band     6 # energy    4.13067761 # occ. -0.00877928
 
ion      s      p      d    tot
    1  0.051  0.126  0.623  0.801
 
band     7 # energy   11.42302513 # occ.  0.00000000
 
ion      s      p      d    tot
    1  0.238  0.146  0.257  0.641
 
band     8 # energy   19.39824825 # occ.  0.00000000
 
ion      s      p      d    tot
    1  0.000  0.225  0.133  0.358
 
band     9 # energy   20.02232279 # occ.  0.00000000
 
ion      s      p      d    tot
    1  0.080  0.478  0.050  0.608
 
band    10 # energy   25.87881662 # occ.  0.00000000
 
ion      s      p      d    tot
    1  0.000  0.022  0.343  0.365
 
band    11 # energy   28.52551574 # occ.  0.00000000
 
ion      s      p      d    tot
    1  0.137  0.124  0.251  0.512
 
band    12 # energy   34.68271048 # occ.  0.00000000
 
ion      s      p      d    tot
    1  0.029  0.037  0.081  0.147
 

 k-point     5 :    0.45000000 0.05000000 0.05000000     weight = 0.01200000

band     1 # energy   -0.05717378 # occ.  1.00000000
 
ion      s      p      d    tot
    1  0.083  0.005  0.712  0.800
 
band     2 # energy    0.94685695 # occ.  1.00000000
 
ion      s      p      d    tot
    1  0.000  0.002  0.914  0.916
 
band     3 # energy    2.64641231 # occ.  1.00000000
 
ion      s      p      d    tot
    1  0.007  0.000  0.963  0.970
 
band     4 # energy    2.73259959 # occ.  1.00000000
 
ion      s      p      d    tot
    1  0.000  0.000  0.978  0.978
 
band     5 # energy    3.02905118 # occ.  1.00000000
 
ion      s      p      d    tot
    1  0.000  0.111  0.732  0.843
 
band     6 # energy    5.18962754 # occ. -0.00000000
 
ion      s      p      d    tot
    1  0.000  0.330  0.262  0.591
 
band     7 # energy    9.34366551 # occ. -0.00000000
 
ion      s      p      d    tot
    1  0.374  0.006  0.352  0.733
 
band     8 # energy   19.04497166 # occ.  0.00000000
 
ion      s      p      d    tot
    1  0.000  0.232  0.122  0.354
 
band     9 # energy   19.53484630 # occ.  0.00000000
 
ion      s      p      d    tot
    1  0.078  0.492  0.030  0.600
 
band    10 # energy   25.70407172 # occ.  0.00000000
 
ion      s      p      d    tot
    1  0.000  0.021  0.366  0.387
 
band    11 # energy   28.44766878 # occ.  0.00000000
 
ion      s      p      d    tot
    1  0.159  0.092  0.270  0.521
 
band    12 # energy   34.78093604 # occ.  0.00000000
 
ion      s      p      d    tot
    1  0.000  0.068  0.002  0.071
 

 k-point     6 :   -0.05000000 0.05000000 0.05000000     weight = 0.00600000

band     1 # energy   -3.21215219 # occ.  1.00000000
 
ion      s      p      d    tot
    1  0.478  0.008  0.000  0.486
 
band     2 # energy    1.70570495 # occ.  1.00000000
 
ion      s      p      d    tot
    1  0.000  0.001  0.951  0.951
 
band     3 # energy    1.70575677 # occ.  1.00000000
 
ion      s      p      d    tot
    1  0.000  0.001  0.951  0.951
 
band     4 # energy    1.74514826 # occ.  1.00000000
 
ion      s      p      d    tot
    1  0.000  0.000  0.953  0.953
 
band     5 # energy    2.55435380 # occ.  1.00000000
 
ion      s      p      d    tot
    1  0.000  0.000  0.963  0.963
 
band     6 # energy    2.64232938 # occ.  1.00000000
 
ion      s      p      d    tot
    1  0.000  0.000  0.968  0.968
 
band     7 # energy   25.45078249 # occ.  0.00000000
 
ion      s      p      d    tot
    1  0.000  0.000  0.093  0.093
 
band     8 # energy   26.27208283 # occ.  0.00000000
 
ion      s      p      d    tot
    1  0.000  0.033  0.103  0.136
 
band     9 # energy   26.27208969 # occ.  0.00000000
 
ion      s      p      d    tot
    1  0.000  0.033  0.103  0.136
 
band    10 # energy   28.38991437 # occ.  0.00000000
 
ion      s      p      d    tot
    1  0.019  0.383  0.091  0.492
 
band    11 # energy   29.44746262 # occ.  0.00000000
 
ion      s      p      d    tot
    1  0.000  0.492  0.125  0.617
 
band    12 # energy   29.44748752 # occ.  0.00000000
 
ion      s      p      d    tot
    1  0.000  0.491  0.125  0.617
 

 k-point     7 :    0.15000000 0.15000000 0.05000000     weight = 0.02400000

band     1 # energy   -0.80173319 # occ.  1.00000000
 
ion      s      p      d    tot
    1  0.327  0.098  0.108  0.533
 
band     2 # energy    1.27208155 # occ.  1.00000000
 
ion      s      p      d    tot
    1  0.000  0.011  0.900  0.911
 
band     3 # energy    1.28416720 # occ.  1.00000000
 
ion      s      p      d    tot
    1  0.004  0.011  0.900  0.915
 
band     4 # energy    2.51582242 # occ.  1.00000000
 
ion      s      p      d    tot
    1  0.000  0.000  0.965  0.966
 
band     5 # energy    2.68233236 # occ.  1.00000000
 
ion      s      p      d    tot
    1  0.001  0.000  0.971  0.972
 
band     6 # energy    3.20361440 # occ.  1.00000077
 
ion      s      p      d    tot
    1  0.023  0.029  0.880  0.932
 
band     7 # energy   17.59868134 # occ.  0.00000000
 
ion      s      p      d    tot
    1  0.000  0.225  0.247  0.472
 
band     8 # energy   18.10636749 # occ.  0.00000000
 
ion      s      p      d    tot
    1  0.135  0.262  0.148  0.545
 
band     9 # energy   20.86617097 # occ.  0.00000000
 
ion      s      p      d    tot
    1  0.089  0.340  0.121  0.550
 
band    10 # energy   28.26671927 # occ.  0.00000000
 
ion      s      p      d    tot
    1  0.000  0.026  0.115  0.141
 
band    11 # energy   30.88853432 # occ.  0.00000000
 
ion      s      p      d    tot
    1  0.023  0.165  0.241  0.429
 
band    12 # energy   32.13429017 # occ.  0.00000000
 
ion      s      p      d    tot
    1  0.000  0.263  0.138  0.401
 

 k-point     8 :    0.25000000 0.15000000 0.05000000     weight = 0.04800000

band     1 # energy    0.13999025 # occ.  1.00000000
 
ion      s      p      d    tot
    1  0.161  0.067  0.467  0.695
 
band     2 # energy    1.06686958 # occ.  1.00000000
 
ion      s      p      d    tot
    1  0.000  0.012  0.893  0.905
 
band     3 # energy    1.48375481 # occ.  1.00000000
 
ion      s      p      d    tot
    1  0.037  0.074  0.707  0.818
 
band     4 # energy    2.57960772 # occ.  1.00000000
 
ion      s      p      d    tot
    1  0.000  0.001  0.968  0.969
 
band     5 # energy    2.75002137 # occ.  1.00000000
 
ion      s      p      d    tot
    1  0.004  0.001  0.968  0.973
 
band     6 # energy    4.32065648 # occ. -0.01311338
 
ion      s      p      d    tot
    1  0.066  0.086  0.691  0.843
 
band     7 # energy   13.65935543 # occ.  0.00000000
 
ion      s      p      d    tot
    1  0.147  0.220  0.214  0.581
 
band     8 # energy   16.53836141 # occ.  0.00000000
 
ion      s      p      d    tot
    1  0.102  0.263  0.165  0.530
 
band     9 # energy   19.45880896 # occ.  0.00000000
 
ion      s      p      d    tot
    1  0.080  0.331  0.115  0.526
 
band    10 # energy   28.20322382 # occ.  0.00000000
 
ion      s      p      d    tot
    1  0.009  0.035  0.201  0.245
 
band    11 # energy   31.68616484 # occ.  0.00000000
 
ion      s      p      d    tot
    1  0.001  0.144  0.254  0.399
 
band    12 # energy   32.69494151 # occ.  0.00000000
 
ion      s      p      d    tot
    1  0.070  0.156  0.151  0.377
 

 k-point     9 :    0.35000000 0.15000000 0.05000000     weight = 0.04800000

band     1 # energy    0.27356337 # occ.  1.00000000
 
ion      s      p      d    tot
    1  0.068  0.022  0.718  0.808
 
band     2 # energy    0.96922537 # occ.  1.00000000
 
ion      s      p      d    tot
    1  0.000  0.012  0.892  0.904
 
band     3 # energy    2.05908915 # occ.  1.00000000
 
ion      s      p      d    tot
    1  0.009  0.103  0.709  0.821
 
band     4 # energy    2.65693324 # occ.  1.00000000
 
ion      s      p      d    tot
    1  0.003  0.001  0.966  0.971
 
band     5 # energy    2.82894562 # occ.  1.00000000
 
ion      s      p      d    tot
    1  0.002  0.012  0.951  0.965
 
band     6 # energy    6.00151120 # occ. -0.00000000
 
ion      s      p      d    tot
    1  0.053  0.236  0.384  0.673
 
band     7 # energy   10.26478621 # occ.  0.00000000
 
ion      s      p      d    tot
    1  0.286  0.104  0.277  0.667
 
band     8 # energy   15.81693452 # occ.  0.00000000
 
ion      s      p      d    tot
    1  0.108  0.277  0.148  0.532
 
band     9 # energy   18.73279291 # occ.  0.00000000
 
ion      s      p      d    tot
    1  0.075  0.336  0.105  0.516
 
band    10 # energy   27.95838128 # occ.  0.00000000
 
ion      s      p      d    tot
    1  0.016  0.030  0.250  0.297
 
band    11 # energy   32.02566976 # occ.  0.00000000
 
ion      s      p      d    tot
    1  0.049  0.150  0.253  0.452
 
band    12 # energy   33.49143069 # occ.  0.00000000
 
ion      s      p      d    tot
    1  0.021  0.064  0.116  0.201
 

 k-point    10 :   -0.15000000 0.15000000 0.05000000     weight = 0.02400000

band     1 # energy   -2.53715984 # occ.  1.00000000
 
ion      s      p      d    tot
    1  0.444  0.038  0.007  0.489
 
band     2 # energy    1.58041942 # occ.  1.00000000
 
ion      s      p      d    tot
    1  0.000  0.001  0.944  0.945
 
band     3 # energy    1.69097872 # occ.  1.00000000
 
ion      s      p      d    tot
    1  0.001  0.005  0.934  0.940
 
band     4 # energy    2.03841522 # occ.  1.00000000
 
ion      s      p      d    tot
    1  0.000  0.002  0.954  0.957
 
band     5 # energy    2.42057005 # occ.  1.00000000
 
ion      s      p      d    tot
    1  0.000  0.000  0.956  0.957
 
band     6 # energy    2.68282362 # occ.  1.00000000
 
ion      s      p      d    tot
    1  0.001  0.000  0.968  0.970
 
band     7 # energy   21.86717859 # occ.  0.00000000
 
ion      s      p      d    tot
    1  0.020  0.157  0.211  0.388
 
band     8 # energy   24.47914934 # occ.  0.00000000
 
ion      s      p      d    tot
    1  0.020  0.138  0.102  0.260
 
band     9 # energy   24.80415456 # occ.  0.00000000
 
ion      s      p      d    tot
    1  0.000  0.195  0.240  0.434
 
band    10 # energy   27.67241632 # occ.  0.00000000
 
ion      s      p      d    tot
    1  0.000  0.314  0.168  0.483
 
band    11 # energy   27.70361983 # occ.  0.00000000
 
ion      s      p      d    tot
    1  0.000  0.355  0.126  0.481
 
band    12 # energy   28.71095244 # occ.  0.00000000
 
ion      s      p      d    tot
    1  0.069  0.255  0.023  0.347
 

 k-point    11 :    0.25000000 0.25000000 0.05000000     weight = 0.02400000

band     1 # energy    0.59581593 # occ.  1.00000000
 
ion      s      p      d    tot
    1  0.056  0.026  0.748  0.831
 
band     2 # energy    1.03274659 # occ.  1.00000000
 
ion      s      p      d    tot
    1  0.000  0.040  0.825  0.865
 
band     3 # energy    1.47369592 # occ.  1.00000000
 
ion      s      p      d    tot
    1  0.021  0.084  0.715  0.820
 
band     4 # energy    2.65085877 # occ.  1.00000000
 
ion      s      p      d    tot
    1  0.000  0.002  0.969  0.971
 
band     5 # energy    2.81163110 # occ.  1.00000000
 
ion      s      p      d    tot
    1  0.005  0.004  0.963  0.972
 
band     6 # energy    6.20376430 # occ. -0.00000000
 
ion      s      p      d    tot
    1  0.100  0.176  0.440  0.715
 
band     7 # energy   12.38290794 # occ.  0.00000000
 
ion      s      p      d    tot
    1  0.000  0.294  0.268  0.562
 
band     8 # energy   12.88092858 # occ.  0.00000000
 
ion      s      p      d    tot
    1  0.361  0.141  0.119  0.621
 
band     9 # energy   18.55115990 # occ.  0.00000000
 
ion      s      p      d    tot
    1  0.080  0.316  0.127  0.524
 
band    10 # energy   29.44055501 # occ.  0.00000000
 
ion      s      p      d    tot
    1  0.000  0.050  0.166  0.216
 
band    11 # energy   31.67395857 # occ.  0.00000000
 
ion      s      p      d    tot
    1  0.028  0.073  0.212  0.314
 
band    12 # energy   36.70709634 # occ.  0.00000000
 
ion      s      p      d    tot
    1  0.000  0.181  0.157  0.338
 

 k-point    12 :    0.35000000 0.25000000 0.05000000     weight = 0.02400000

band     1 # energy    0.63994575 # occ.  1.00000000
 
ion      s      p      d    tot
    1  0.034  0.015  0.810  0.859
 
band     2 # energy    1.06051588 # occ.  1.00000000
 
ion      s      p      d    tot
    1  0.000  0.045  0.818  0.863
 
band     3 # energy    1.53401504 # occ.  1.00000000
 
ion      s      p      d    tot
    1  0.000  0.085  0.746  0.831
 
band     4 # energy    2.71654959 # occ.  1.00000000
 
ion      s      p      d    tot
    1  0.001  0.003  0.969  0.973
 
band     5 # energy    2.81741588 # occ.  1.00000000
 
ion      s      p      d    tot
    1  0.000  0.007  0.966  0.973
 
band     6 # energy    8.20913539 # occ. -0.00000000
 
ion      s      p      d    tot
    1  0.000  0.314  0.294  0.608
 
band     7 # energy    9.87555731 # occ.  0.00000000
 
ion      s      p      d    tot
    1  0.245  0.135  0.276  0.656
 
band     8 # energy   12.33497775 # occ.  0.00000000
 
ion      s      p      d    tot
    1  0.270  0.176  0.160  0.605
 
band     9 # energy   18.25500060 # occ.  0.00000000
 
ion      s      p      d    tot
    1  0.081  0.314  0.131  0.526
 
band    10 # energy   29.85314874 # occ.  0.00000000
 
ion      s      p      d    tot
    1  0.007  0.049  0.181  0.237
 
band    11 # energy   31.94466295 # occ.  0.00000000
 
ion      s      p      d    tot
    1  0.000  0.052  0.140  0.192
 
band    12 # energy   36.07955951 # occ.  0.00000000
 
ion      s      p      d    tot
    1  0.007  0.182  0.337  0.526
 

 k-point    13 :   -0.25000000 0.25000000 0.05000000     weight = 0.02400000

band     1 # energy   -1.35623063 # occ.  1.00000000
 
ion      s      p      d    tot
    1  0.364  0.078  0.077  0.519
 
band     2 # energy    1.36139568 # occ.  1.00000000
 
ion      s      p      d    tot
    1  0.000  0.001  0.934  0.935
 
band     3 # energy    1.65092582 # occ.  1.00000000
 
ion      s      p      d    tot
    1  0.016  0.030  0.841  0.887
 
band     4 # energy    2.41143305 # occ.  1.00000000
 
ion      s      p      d    tot
    1  0.000  0.002  0.957  0.959
 
band     5 # energy    2.56656777 # occ.  1.00000000
 
ion      s      p      d    tot
    1  0.000  0.004  0.960  0.965
 
band     6 # energy    2.73022162 # occ.  1.00000000
 
ion      s      p      d    tot
    1  0.006  0.001  0.961  0.969
 
band     7 # energy   17.36304992 # occ.  0.00000000
 
ion      s      p      d    tot
    1  0.082  0.224  0.218  0.524
 
band     8 # energy   22.52631482 # occ.  0.00000000
 
ion      s      p      d    tot
    1  0.023  0.186  0.072  0.281
 
band     9 # energy   22.96666314 # occ.  0.00000000
 
ion      s      p      d    tot
    1  0.000  0.376  0.208  0.585
 
band    10 # energy   26.15446099 # occ.  0.00000000
 
ion      s      p      d    tot
    1  0.000  0.165  0.284  0.449
 
band    11 # energy   27.42066932 # occ.  0.00000000
 
ion      s      p      d    tot
    1  0.065  0.248  0.161  0.474
 
band    12 # energy   29.64741225 # occ.  0.00000000
 
ion      s      p      d    tot
    1  0.079  0.152  0.087  0.318
 

 k-point    14 :   -0.15000000 0.25000000 0.05000000     weight = 0.02400000

band     1 # energy   -1.60962985 # occ.  1.00000000
 
ion      s      p      d    tot
    1  0.387  0.076  0.040  0.503
 
band     2 # energy    1.53711656 # occ.  1.00000000
 
ion      s      p      d    tot
    1  0.002  0.006  0.924  0.933
 
band     3 # energy    1.54931773 # occ.  1.00000000
 
ion      s      p      d    tot
    1  0.000  0.007  0.919  0.926
 
band     4 # energy    2.28669756 # occ.  1.00000000
 
ion      s      p      d    tot
    1  0.000  0.000  0.952  0.952
 
band     5 # energy    2.43959559 # occ.  1.00000000
 
ion      s      p      d    tot
    1  0.002  0.008  0.947  0.957
 
band     6 # energy    2.78016410 # occ.  1.00000000
 
ion      s      p      d    tot
    1  0.009  0.002  0.956  0.967
 
band     7 # energy   19.62716438 # occ.  0.00000000
 
ion      s      p      d    tot
    1  0.000  0.183  0.249  0.431
 
band     8 # energy   20.31558781 # occ.  0.00000000
 
ion      s      p      d    tot
    1  0.097  0.279  0.156  0.532
 
band     9 # energy   25.08539848 # occ.  0.00000000
 
ion      s      p      d    tot
    1  0.000  0.448  0.080  0.529
 
band    10 # energy   25.09923516 # occ.  0.00000000
 
ion      s      p      d    tot
    1  0.000  0.101  0.207  0.307
 
band    11 # energy   27.77132561 # occ.  0.00000000
 
ion      s      p      d    tot
    1  0.084  0.115  0.207  0.405
 
band    12 # energy   30.68252639 # occ.  0.00000000
 
ion      s      p      d    tot
    1  0.000  0.300  0.033  0.334
 

 k-point    15 :   -0.35000000 0.35000000 0.05000000     weight = 0.02400000

band     1 # energy   -0.34779910 # occ.  1.00000000
 
ion      s      p      d    tot
    1  0.196  0.050  0.426  0.672
 
band     2 # energy    1.14937916 # occ.  1.00000000
 
ion      s      p      d    tot
    1  0.000  0.001  0.925  0.926
 
band     3 # energy    2.04157586 # occ.  1.00000000
 
ion      s      p      d    tot
    1  0.053  0.094  0.645  0.791
 
band     4 # energy    2.58340112 # occ.  1.00000000
 
ion      s      p      d    tot
    1  0.000  0.014  0.941  0.956
 
band     5 # energy    2.95598463 # occ.  1.00000000
 
ion      s      p      d    tot
    1  0.043  0.059  0.778  0.880
 
band     6 # energy    3.15124413 # occ.  1.00000011
 
ion      s      p      d    tot
    1  0.000  0.004  0.974  0.977
 
band     7 # energy   13.18708679 # occ.  0.00000000
 
ion      s      p      d    tot
    1  0.177  0.193  0.233  0.603
 
band     8 # energy   21.05730321 # occ.  0.00000000
 
ion      s      p      d    tot
    1  0.020  0.214  0.043  0.278
 
band     9 # energy   21.30517166 # occ.  0.00000000
 
ion      s      p      d    tot
    1  0.000  0.486  0.123  0.608
 
band    10 # energy   25.31027579 # occ.  0.00000000
 
ion      s      p      d    tot
    1  0.000  0.091  0.384  0.475
 
band    11 # energy   27.26922849 # occ.  0.00000000
 
ion      s      p      d    tot
    1  0.144  0.118  0.223  0.486
 
band    12 # energy   31.34048574 # occ.  0.00000000
 
ion      s      p      d    tot
    1  0.061  0.118  0.136  0.314
 

 k-point    16 :   -0.25000000 0.35000000 0.05000000     weight = 0.04800000

band     1 # energy   -0.44504770 # occ.  1.00000000
 
ion      s      p      d    tot
    1  0.262  0.090  0.234  0.587
 
band     2 # energy    1.30126838 # occ.  1.00000000
 
ion      s      p      d    tot
    1  0.000  0.008  0.906  0.914
 
band     3 # energy    1.53930755 # occ.  1.00000000
 
ion      s      p      d    tot
    1  0.018  0.038  0.817  0.873
 
band     4 # energy    2.37068755 # occ.  1.00000000
 
ion      s      p      d    tot
    1  0.000  0.004  0.951  0.956
 
band     5 # energy    2.82361369 # occ.  1.00000000
 
ion      s      p      d    tot
    1  0.008  0.002  0.962  0.971
 
band     6 # energy    3.25682148 # occ.  1.00000484
 
ion      s      p      d    tot
    1  0.040  0.038  0.835  0.912
 
band     7 # energy   15.52265104 # occ.  0.00000000
 
ion      s      p      d    tot
    1  0.106  0.234  0.216  0.557
 
band     8 # energy   18.38861156 # occ.  0.00000000
 
ion      s      p      d    tot
    1  0.075  0.270  0.171  0.517
 
band     9 # energy   23.02912421 # occ.  0.00000000
 
ion      s      p      d    tot
    1  0.000  0.388  0.065  0.453
 
band    10 # energy   25.37244888 # occ.  0.00000000
 
ion      s      p      d    tot
    1  0.026  0.104  0.255  0.384
 
band    11 # energy   28.24074095 # occ.  0.00000000
 
ion      s      p      d    tot
    1  0.058  0.127  0.245  0.429
 
band    12 # energy   31.10686369 # occ.  0.00000000
 
ion      s      p      d    tot
    1  0.068  0.162  0.147  0.377
 

 k-point    17 :   -0.45000000 0.45000000 0.05000000     weight = 0.02400000

band     1 # energy   -0.12226142 # occ.  1.00000000
 
ion      s      p      d    tot
    1  0.095  0.006  0.687  0.788
 
band     2 # energy    1.02163910 # occ.  1.00000000
 
ion      s      p      d    tot
    1  0.000  0.001  0.920  0.921
 
band     3 # energy    2.45349084 # occ.  1.00000000
 
ion      s      p      d    tot
    1  0.008  0.036  0.870  0.914
 
band     4 # energy    2.61849562 # occ.  1.00000000
 
ion      s      p      d    tot
    1  0.005  0.005  0.956  0.965
 
band     5 # energy    3.55025339 # occ.  1.00757030
 
ion      s      p      d    tot
    1  0.000  0.001  0.987  0.988
 
band     6 # energy    4.31232542 # occ. -0.01467880
 
ion      s      p      d    tot
    1  0.041  0.335  0.179  0.556
 
band     7 # energy    9.93733254 # occ.  0.00000000
 
ion      s      p      d    tot
    1  0.321  0.063  0.315  0.699
 
band     8 # energy   20.27640576 # occ.  0.00000000
 
ion      s      p      d    tot
    1  0.019  0.226  0.026  0.271
 
band     9 # energy   20.31818024 # occ.  0.00000000
 
ion      s      p      d    tot
    1  0.000  0.533  0.066  0.598
 
band    10 # energy   24.94280909 # occ.  0.00000000
 
ion      s      p      d    tot
    1  0.000  0.066  0.434  0.500
 
band    11 # energy   27.27858248 # occ.  0.00000000
 
ion      s      p      d    tot
    1  0.194  0.043  0.272  0.510
 
band    12 # energy   32.82669102 # occ.  0.00000000
 
ion      s      p      d    tot
    1  0.015  0.071  0.112  0.198
 

 k-point    18 :   -0.35000000 0.45000000 0.05000000     weight = 0.04800000

band     1 # energy    0.08608279 # occ.  1.00000000
 
ion      s      p      d    tot
    1  0.107  0.030  0.626  0.763
 
band     2 # energy    1.15354770 # occ.  1.00000000
 
ion      s      p      d    tot
    1  0.001  0.007  0.908  0.915
 
band     3 # energy    1.83535806 # occ.  1.00000000
 
ion      s      p      d    tot
    1  0.019  0.076  0.735  0.830
 
band     4 # energy    2.53240847 # occ.  1.00000000
 
ion      s      p      d    tot
    1  0.002  0.006  0.953  0.961
 
band     5 # energy    3.11349371 # occ.  1.00000002
 
ion      s      p      d    tot
    1  0.012  0.019  0.923  0.954
 
band     6 # energy    4.52398602 # occ. -0.00020868
 
ion      s      p      d    tot
    1  0.081  0.159  0.512  0.752
 
band     7 # energy   11.64275065 # occ.  0.00000000
 
ion      s      p      d    tot
    1  0.218  0.168  0.246  0.632
 
band     8 # energy   17.29049931 # occ.  0.00000000
 
ion      s      p      d    tot
    1  0.075  0.300  0.148  0.523
 
band     9 # energy   21.69884738 # occ.  0.00000000
 
ion      s      p      d    tot
    1  0.000  0.394  0.033  0.427
 
band    10 # energy   25.39602280 # occ.  0.00000000
 
ion      s      p      d    tot
    1  0.058  0.036  0.347  0.441
 
band    11 # energy   29.39119243 # occ.  0.00000000
 
ion      s      p      d    tot
    1  0.002  0.173  0.224  0.398
 
band    12 # energy   30.92146219 # occ.  0.00000000
 
ion      s      p      d    tot
    1  0.109  0.062  0.201  0.372
 

 k-point    19 :   -0.25000000 0.45000000 0.05000000     weight = 0.02400000

band     1 # energy    0.34129332 # occ.  1.00000000
 
ion      s      p      d    tot
    1  0.127  0.061  0.541  0.729
 
band     2 # energy    1.08024196 # occ.  1.00000000
 
ion      s      p      d    tot
    1  0.000  0.024  0.852  0.876
 
band     3 # energy    1.53840712 # occ.  1.00000000
 
ion      s      p      d    tot
    1  0.011  0.049  0.808  0.869
 
band     4 # energy    2.45643226 # occ.  1.00000000
 
ion      s      p      d    tot
    1  0.000  0.004  0.955  0.960
 
band     5 # energy    2.93571223 # occ.  1.00000000
 
ion      s      p      d    tot
    1  0.015  0.005  0.945  0.965
 
band     6 # energy    4.65641284 # occ. -0.00000396
 
ion      s      p      d    tot
    1  0.097  0.119  0.575  0.791
 
band     7 # energy   14.00699776 # occ.  0.00000000
 
ion      s      p      d    tot
    1  0.000  0.287  0.264  0.551
 
band     8 # energy   14.36634383 # occ.  0.00000000
 
ion      s      p      d    tot
    1  0.277  0.203  0.122  0.601
 
band     9 # energy   22.53723672 # occ.  0.00000000
 
ion      s      p      d    tot
    1  0.011  0.408  0.069  0.488
 
band    10 # energy   25.44301811 # occ.  0.00000000
 
ion      s      p      d    tot
    1  0.000  0.087  0.223  0.309
 
band    11 # energy   28.19709354 # occ.  0.00000000
 
ion      s      p      d    tot
    1  0.096  0.044  0.285  0.424
 
band    12 # energy   34.98962022 # occ.  0.00000000
 
ion      s      p      d    tot
    1  0.000  0.227  0.127  0.354
 

 k-point    20 :   -0.45000000-0.45000000 0.05000000     weight = 0.02400000

band     1 # energy    0.11840965 # occ.  1.00000000
 
ion      s      p      d    tot
    1  0.069  0.011  0.729  0.808
 
band     2 # energy    1.10635527 # occ.  1.00000000
 
ion      s      p      d    tot
    1  0.000  0.006  0.910  0.916
 