bcc Fe                                  
   2.70000000000000     
    -0.500000    0.500000    0.500000
     0.500000   -0.500000    0.500000
     0.500000    0.500000   -0.500000
   Fe
     1
Direct
  0.000000  0.000000  0.000000
 
   20   20   20
 0.82995702814E+02 0.78610756991E+02 0.66869450860E+02 0.51193288300E+02 0.35291295608E+02
 0.21883818983E+02 0.12382123731E+02 0.70092847207E+01 0.48823844335E+01 0.42944402791E+01
 0.41121564483E+01 0.42944402791E+01 0.48823844335E+01 0.70092847207E+01 0.12382123731E+02
 0.21883818983E+02 0.35291295608E+02 0.51193288300E+02 0.66869450860E+02 0.78610756991E+02
 0.78610756991E+02 0.77181566953E+02 0.67999925101E+02 0.53863561065E+02 0.38408564012E+02
 0.24638319349E+02 0.14320797256E+02 0.80213719427E+01 0.51989631342E+01 0.43710332422E+01
 0.40804170227E+01 0.41403918858E+01 0.45420192839E+01 0.58329347618E+01 0.96937967554E+01
 0.17336227228E+02 0.28938727615E+02 0.43544182554E+02 0.58950060513E+02 0.71821142783E+02
 0.66869450860E+02 0.67999925101E+02 0.61983046205E+02 0.50715709888E+02 0.37310608852E+02
 0.24697490284E+02 0.14808779599E+02 0.84454801767E+01 0.53550954336E+01 0.43553535602E+01
 0.39902403993E+01 0.39384038321E+01 0.42107912248E+01 0.48860137611E+01 0.71325615803E+01
 0.12379137056E+02 0.21215714314E+02 0.33174541064E+02 0.46651920095E+02 0.58950060513E+02
 0.51193288300E+02 0.53863561065E+02 0.50715709888E+02 0.42782322499E+02 0.32397752700E+02
 0.22081738557E+02 0.13682689695E+02 0.80887353996E+01 0.52437908965E+01 0.42504810516E+01
 0.38547311395E+01 0.37225181825E+01 0.38729228798E+01 0.42908801333E+01 0.53218410890E+01
 0.82596508543E+01 0.14034999952E+02 0.22674018543E+02 0.33174541064E+02 0.43544182554E+02
 0.35291295608E+02 0.38408564012E+02 0.37310608852E+02 0.32397752700E+02 0.25218228293E+02
 0.17695362695E+02 0.11381757072E+02 0.70992160676E+01 0.48854211170E+01 0.40713644942E+01
 0.36905993724E+01 0.35201907336E+01 0.35753733066E+01 0.38595476698E+01 0.43664832274E+01
 0.56323832469E+01 0.87015292567E+01 0.14034999952E+02 0.21215714314E+02 0.28938727615E+02
 0.21883818983E+02 0.24638319349E+02 0.24697490284E+02 0.22081738557E+02 0.17695362695E+02
 0.12847719299E+02 0.86880934886E+01 0.58621372375E+01 0.44164819579E+01 0.38467788111E+01
 0.35144694458E+01 0.33461777321E+01 0.33455542017E+01 0.35146413368E+01 0.38645343053E+01
 0.44016287099E+01 0.56323832469E+01 0.82596508543E+01 0.12379137056E+02 0.17336227228E+02
 0.12382123731E+02 0.14320797256E+02 0.14808779599E+02 0.13682689695E+02 0.11381757072E+02
 0.86880934886E+01 0.63442747092E+01 0.47762952092E+01 0.39896297382E+01 0.36060168572E+01
 0.33417248789E+01 0.32040529968E+01 0.31849101905E+01 0.32786526978E+01 0.35001984284E+01
 0.38645343053E+01 0.43664832274E+01 0.53218410890E+01 0.71325615803E+01 0.96937967554E+01
 0.70092847207E+01 0.80213719427E+01 0.84454801767E+01 0.80887353996E+01 0.70992160676E+01
 0.58621372375E+01 0.47762952092E+01 0.40602712144E+01 0.36627060721E+01 0.33781576461E+01
 0.31869747872E+01 0.30928858483E+01 0.30811910189E+01 0.31408213427E+01 0.32786526978E+01
 0.35146413368E+01 0.38595476698E+01 0.42908801333E+01 0.48860137611E+01 0.58329347618E+01
 0.48823844335E+01 0.51989631342E+01 0.53550954336E+01 0.52437908965E+01 0.48854211170E+01
 0.44164819579E+01 0.39896297382E+01 0.36627060721E+01 0.33925523083E+01 0.31886909479E+01
 0.30640979126E+01 0.30140837419E+01 0.30239116470E+01 0.30811910189E+01 0.31849101905E+01
 0.33455542017E+01 0.35753733066E+01 0.38729228798E+01 0.42107912248E+01 0.45420192839E+01
 0.42944402791E+01 0.43710332422E+01 0.43553535602E+01 0.42504810516E+01 0.40713644942E+01
 0.38467788111E+01 0.36060168572E+01 0.33781576461E+01 0.31886909479E+01 0.30552810786E+01
 0.29849790711E+01 0.29745220351E+01 0.30140837419E+01 0.30928858483E+01 0.32040529968E+01
 0.33461777321E+01 0.35201907336E+01 0.37225181825E+01 0.39384038321E+01 0.41403918858E+01
 0.41121564483E+01 0.40804170227E+01 0.39902403993E+01 0.38547311395E+01 0.36905993724E+01
 0.35144694458E+01 0.33417248789E+01 0.31869747872E+01 0.30640979126E+01 0.29849790711E+01
 0.29576613577E+01 0.29849790711E+01 0.30640979126E+01 0.31869747872E+01 0.33417248789E+01
 0.35144694458E+01 0.36905993724E+01 0.38547311395E+01 0.39902403993E+01 0.40804170227E+01
 0.42944402791E+01 0.41403918858E+01 0.39384038321E+01 0.37225181825E+01 0.35201907336E+01
 0.33461777321E+01 0.32040529968E+01 0.30928858483E+01 0.30140837419E+01 0.29745220351E+01
 0.29849790711E+01 0.30552810786E+01 0.31886909479E+01 0.33781576461E+01 0.36060168572E+01
 0.38467788111E+01 0.40713644942E+01 0.42504810516E+01 0.43553535602E+01 0.43710332422E+01
 0.48823844335E+01 0.45420192839E+01 0.42107912248E+01 0.38729228798E+01 0.35753733066E+01
 0.33455542017E+01 0.31849101905E+01 0.30811910189E+01 0.30239116470E+01 0.30140837419E+01
 0.30640979126E+01 0.31886909479E+01 0.33925523083E+01 0.36627060721E+01 0.39896297382E+01
 0.44164819579E+01 0.48854211170E+01 0.52437908965E+01 0.53550954336E+01 0.51989631342E+01
 0.70092847207E+01 0.58329347618E+01 0.48860137611E+01 0.42908801333E+01 0.38595476698E+01
 0.35146413368E+01 0.32786526978E+01 0.31408213427E+01 0.30811910189E+01 0.30928858483E+01
 0.31869747872E+01 0.33781576461E+01 0.36627060721E+01 0.40602712144E+01 0.47762952092E+01
 0.58621372375E+01 0.70992160676E+01 0.80887353996E+01 0.84454801767E+01 0.80213719427E+01
 0.12382123731E+02 0.96937967554E+01 0.71325615803E+01 0.53218410890E+01 0.43664832274E+01
 0.38645343053E+01 0.35001984284E+01 0.32786526978E+01 0.31849101905E+01 0.32040529968E+01
 0.33417248789E+01 0.36060168572E+01 0.39896297382E+01 0.47762952092E+01 0.63442747092E+01
 0.86880934886E+01 0.11381757072E+02 0.13682689695E+02 0.14808779599E+02 0.14320797256E+02
 0.21883818983E+02 0.17336227228E+02 0.12379137056E+02 0.82596508543E+01 0.56323832469E+01
 0.44016287099E+01 0.38645343053E+01 0.35146413368E+01 0.33455542017E+01 0.33461777321E+01
 0.35144694458E+01 0.38467788111E+01 0.44164819579E+01 0.58621372375E+01 0.86880934886E+01
 0.12847719299E+02 0.17695362695E+02 0.22081738557E+02 0.24697490284E+02 0.24638319349E+02
 0.35291295608E+02 0.28938727615E+02 0.21215714314E+02 0.14034999952E+02 0.87015292567E+01
 0.56323832469E+01 0.43664832274E+01 0.38595476698E+01 0.35753733066E+01 0.35201907336E+01
 0.36905993724E+01 0.40713644942E+01 0.48854211170E+01 0.70992160676E+01 0.11381757072E+02
 0.17695362695E+02 0.25218228293E+02 0.32397752700E+02 0.37310608852E+02 0.38408564012E+02
 0.51193288300E+02 0.43544182554E+02 0.33174541064E+02 0.22674018543E+02 0.14034999952E+02
 0.82596508543E+01 0.53218410890E+01 0.42908801333E+01 0.38729228798E+01 0.37225181825E+01
 0.38547311395E+01 0.42504810516E+01 0.52437908965E+01 0.80887353996E+01 0.13682689695E+02
 0.22081738557E+02 0.32397752700E+02 0.42782322499E+02 0.50715709888E+02 0.53863561065E+02
 0.66869450860E+02 0.58950060513E+02 0.46651920095E+02 0.33174541064E+02 0.21215714314E+02
 0.12379137056E+02 0.71325615803E+01 0.48860137611E+01 0.42107912248E+01 0.39384038321E+01
 0.39902403993E+01 0.43553535602E+01 0.53550954336E+01 0.84454801767E+01 0.14808779599E+02
 0.24697490284E+02 0.37310608852E+02 0.50715709888E+02 0.61983046205E+02 0.67999925101E+02
 0.78610756991E+02 0.71821142783E+02 0.58950060513E+02 0.43544182554E+02 0.28938727615E+02
 0.17336227228E+02 0.96937967554E+01 0.58329347618E+01 0.45420192839E+01 0.41403918858E+01
 0.40804170227E+01 0.43710332422E+01 0.51989631342E+01 0.80213719427E+01 0.14320797256E+02
 0.24638319349E+02 0.38408564012E+02 0.53863561065E+02 0.67999925101E+02 0.77181566953E+02
 0.78610756991E+02 0.77181566953E+02 0.67999925101E+02 0.53863561065E+02 0.38408564012E+02
 0.24638319349E+02 0.14320797256E+02 0.80213719427E+01 0.51989631342E+01 0.43710332422E+01
 0.40804170227E+01 0.41403918858E+01 0.45420192839E+01 0.58329347618E+01 0.96937967554E+01
 0.17336227228E+02 0.28938727615E+02 0.43544182554E+02 0.58950060513E+02 0.71821142783E+02
 0.77181566953E+02 0.78608811418E+02 0.71818092492E+02 0.58947286781E+02 0.43542617975E+02
 0.28938387981E+02 0.17336538414E+02 0.96942065925E+01 0.58332095182E+01 0.45421462251E+01
 0.41404047619E+01 0.40803499518E+01 0.43709205393E+01 0.51988093730E+01 0.80211948733E+01
 0.14320793346E+02 0.24638910727E+02 0.38410064948E+02 0.53865653153E+02 0.68001548712E+02
 0.67999925101E+02 0.71818092492E+02 0.67998186799E+02 0.57767386232E+02 0.44109680419E+02
 0.30292099409E+02 0.18739182758E+02 0.10697873619E+02 0.62968202104E+01 0.46351670733E+01
 0.41322140924E+01 0.39640608514E+01 0.41322105926E+01 0.46350612091E+01 0.62964879696E+01
 0.10697368111E+02 0.18738925487E+02 0.30292730980E+02 0.44111490226E+02 0.57769796201E+02
 0.53863561065E+02 0.58947286781E+02 0.57767386232E+02 0.50715724427E+02 0.39948517190E+02
 0.28276630645E+02 0.18048611036E+02 0.10631334751E+02 0.63602497263E+01 0.46129948871E+01
 0.40553882929E+01 0.38113121444E+01 0.38649753604E+01 0.42101074579E+01 0.50129489208E+01
 0.75087799024E+01 0.12869465754E+02 0.21407789475E+02 0.32412948929E+02 0.44110578068E+02
 0.38408564012E+02 0.43542617975E+02 0.44109680419E+02 0.39948517190E+02 0.32398738838E+02
 0.23596202202E+02 0.15543631720E+02 0.95294529197E+01 0.59711982463E+01 0.44533796509E+01
 0.39201190985E+01 0.36431976271E+01 0.36119599775E+01 0.38307012165E+01 0.42847792844E+01
 0.53872682980E+01 0.82952055569E+01 0.13696837556E+02 0.21407494438E+02 0.30291822170E+02
 0.24638319349E+02 0.28938387981E+02 0.30292099409E+02 0.28276630645E+02 0.23596202202E+02
 0.17695967204E+02 0.12087402775E+02 0.78234810157E+01 0.52882952428E+01 0.41938376061E+01
 0.37438815464E+01 0.34764176518E+01 0.34003748497E+01 0.35160038764E+01 0.38304036094E+01
 0.43411461013E+01 0.55440320848E+01 0.82951890098E+01 0.12869283091E+02 0.18738469627E+02
 0.14320797256E+02 0.17336538414E+02 0.18739182758E+02 0.18048611036E+02 0.15543631720E+02
 0.12087402775E+02 0.86880475833E+01 0.60908771599E+01 0.45718131377E+01 0.39067837241E+01
 0.35480023094E+01 0.33215963864E+01 0.32381672819E+01 0.32894517451E+01 0.34833471439E+01
 0.38343925054E+01 0.43411711743E+01 0.53872853141E+01 0.75087346779E+01 0.10697274564E+02
 0.80213719427E+01 0.96942065925E+01 0.10697873619E+02 0.10631334751E+02 0.95294529197E+01
 0.78234810157E+01 0.60908771599E+01 0.47760815940E+01 0.40220027893E+01 0.36329269803E+01
 0.33550684902E+01 0.31856073865E+01 0.31203925119E+01 0.31449741902E+01 0.32597240167E+01
 0.34833606040E+01 0.38304112009E+01 0.42847588779E+01 0.50129118339E+01 0.62965041257E+01
 0.51989631342E+01 0.58332095182E+01 0.62968202104E+01 0.63602497263E+01 0.59711982463E+01
 0.52882952428E+01 0.45718131377E+01 0.40220027893E+01 0.36626649292E+01 0.33850574665E+01
 0.31864669055E+01 0.30751603566E+01 0.30400444532E+01 0.30651937386E+01 0.31449843657E+01
 0.32894554434E+01 0.35159696110E+01 0.38306270614E+01 0.42100424608E+01 0.46350804966E+01
 0.43710332422E+01 0.45421462251E+01 0.46351670733E+01 0.46129948871E+01 0.44533796509E+01
 0.41938376061E+01 0.39067837241E+01 0.36329269803E+01 0.33850574665E+01 0.31887621797E+01
 0.30595297614E+01 0.29987472280E+01 0.29966560966E+01 0.30400377245E+01 0.31203943981E+01
 0.32381576035E+01 0.34003310508E+01 0.36118986297E+01 0.38649484019E+01 0.41322582186E+01
 0.40804170227E+01 0.41404047619E+01 0.41322140924E+01 0.40553882929E+01 0.39201190985E+01
 0.37438815464E+01 0.35480023094E+01 0.33550684902E+01 0.31864669055E+01 0.30595297614E+01
 0.29849951459E+01 0.29659522691E+01 0.29987086244E+01 0.30751249880E+01 0.31855955673E+01
 0.33215954854E+01 0.34764150396E+01 0.36432083339E+01 0.38113605038E+01 0.39641403806E+01
 0.41403918858E+01 0.40803499518E+01 0.39640608514E+01 0.38113121444E+01 0.36431976271E+01
 0.34764176518E+01 0.33215963864E+01 0.31856073865E+01 0.30751603566E+01 0.29987472280E+01
 0.29659522691E+01 0.29849400648E+01 0.30594524065E+01 0.31864195943E+01 0.33550758763E+01
 0.35480507363E+01 0.37439479891E+01 0.39201931469E+01 0.40554604751E+01 0.41322582186E+01
 0.45420192839E+01 0.43709205393E+01 0.41322105926E+01 0.38649753604E+01 0.36119599775E+01
 0.34003748497E+01 0.32381672819E+01 0.31203925119E+01 0.30400444532E+01 0.29966560966E+01
 0.29987086244E+01 0.30594524065E+01 0.31886945407E+01 0.33850584281E+01 0.36330134172E+01
 0.39069181488E+01 0.41939597350E+01 0.44534432041E+01 0.46129805525E+01 0.46350804966E+01
 0.58329347618E+01 0.51988093730E+01 0.46350612091E+01 0.42101074579E+01 0.38307012165E+01
 0.35160038764E+01 0.32894517451E+01 0.31449741902E+01 0.30651937386E+01 0.30400377245E+01
 0.30751249880E+01 0.31864195943E+01 0.33850584281E+01 0.36627685590E+01 0.40221985522E+01
 0.45720136208E+01 0.52883867275E+01 0.59711126686E+01 0.63600042092E+01 0.62965041257E+01
 0.96937967554E+01 0.80211948733E+01 0.62964879696E+01 0.50129489208E+01 0.42847792844E+01
 0.38304036094E+01 0.34833471439E+01 0.32597240167E+01 0.31449843657E+01 0.31203943981E+01
 0.31855955673E+01 0.33550758763E+01 0.36330134172E+01 0.40221985522E+01 0.47763252500E+01
 0.60910158650E+01 0.78233581380E+01 0.95290243043E+01 0.10630716723E+02 0.10697274564E+02
 0.17336227228E+02 0.14320793346E+02 0.10697368111E+02 0.75087799024E+01 0.53872682980E+01
 0.43411461013E+01 0.38343925054E+01 0.34833606040E+01 0.32894554434E+01 0.32381576035E+01
 0.33215954854E+01 0.35480507363E+01 0.39069181488E+01 0.45720136208E+01 0.60910158650E+01
 0.86879178215E+01 0.12086857111E+02 0.15542733986E+02 0.18047643736E+02 0.18738469627E+02
 0.28938727615E+02 0.24638910727E+02 0.18738925487E+02 0.12869465754E+02 0.82952055569E+01
 0.55440320848E+01 0.43411711743E+01 0.38304112009E+01 0.35159696110E+01 0.34003310508E+01
 0.34764150396E+01 0.37439479891E+01 0.41939597350E+01 0.52883867275E+01 0.78233581380E+01
 0.12086857111E+02 0.17694956829E+02 0.23594997077E+02 0.28275709266E+02 0.30291822170E+02
 0.43544182554E+02 0.38410064948E+02 0.30292730980E+02 0.21407789475E+02 0.13696837556E+02
 0.82951890098E+01 0.53872853141E+01 0.42847588779E+01 0.38306270614E+01 0.36118986297E+01
 0.36432083339E+01 0.39201931469E+01 0.44534432041E+01 0.59711126686E+01 0.95290243043E+01
 0.15542733986E+02 0.23594997077E+02 0.32397750549E+02 0.39948358191E+02 0.44110578068E+02
 0.58950060513E+02 0.53865653153E+02 0.44111490226E+02 0.32412948929E+02 0.21407494438E+02
 0.12869283091E+02 0.75087346779E+01 0.50129118339E+01 0.42100424608E+01 0.38649484019E+01
 0.38113605038E+01 0.40554604751E+01 0.46129805525E+01 0.63600042092E+01 0.10630716723E+02
 0.18047643736E+02 0.28275709266E+02 0.39948358191E+02 0.50716904895E+02 0.57769796201E+02
 0.71821142783E+02 0.68001548712E+02 0.57769796201E+02 0.44110578068E+02 0.30291822170E+02
 0.18738469627E+02 0.10697274564E+02 0.62965041257E+01 0.46350804966E+01 0.41322582186E+01
 0.39641403806E+01 0.41322582186E+01 0.46350804966E+01 0.62965041257E+01 0.10697274564E+02
 0.18738469627E+02 0.30291822170E+02 0.44110578068E+02 0.57769796201E+02 0.68001548712E+02
 0.66869450860E+02 0.67999925101E+02 0.61983046205E+02 0.50715709888E+02 0.37310608852E+02
 0.24697490284E+02 0.14808779599E+02 0.84454801767E+01 0.53550954336E+01 0.43553535602E+01
 0.39902403993E+01 0.39384038321E+01 0.42107912248E+01 0.48860137611E+01 0.71325615803E+01
 0.12379137056E+02 0.21215714314E+02 0.33174541064E+02 0.46651920095E+02 0.58950060513E+02
 0.67999925101E+02 0.71818092492E+02 0.67998186799E+02 0.57767386232E+02 0.44109680419E+02
 0.30292099409E+02 0.18739182758E+02 0.10697873619E+02 0.62968202104E+01 0.46351670733E+01
 0.41322140924E+01 0.39640608514E+01 0.41322105926E+01 0.46350612091E+01 0.62964879696E+01
 0.10697368111E+02 0.18738925487E+02 0.30292730980E+02 0.44111490226E+02 0.57769796201E+02
 0.61983046205E+02 0.67998186799E+02 0.66866536249E+02 0.58947302755E+02 0.46650441486E+02
 0.33174519617E+02 0.21216495871E+02 0.12379928259E+02 0.71329806949E+01 0.48861147783E+01
 0.42107733002E+01 0.39383904151E+01 0.39902399016E+01 0.43552968058E+01 0.53549119266E+01
 0.84452467752E+01 0.14808821330E+02 0.24698187371E+02 0.37311924832E+02 0.50716904895E+02
 0.50715709888E+02 0.57767386232E+02 0.58947302755E+02 0.53863761412E+02 0.44111136806E+02
 0.32413840197E+02 0.21408750854E+02 0.12870173572E+02 0.75090766554E+01 0.50129220506E+01
 0.42099788188E+01 0.38649256508E+01 0.38113756751E+01 0.40554626797E+01 0.46129253487E+01
 0.63599376329E+01 0.10630817593E+02 0.18048059617E+02 0.28276238876E+02 0.39948358191E+02
 0.37310608852E+02 0.44109680419E+02 0.46650441486E+02 0.44111136806E+02 0.37312827657E+02
 0.28277774530E+02 0.19268847814E+02 0.11989187170E+02 0.72475624984E+01 0.49303165051E+01
 0.41284768215E+01 0.37529894521E+01 0.36242695426E+01 0.37530510897E+01 0.41286081444E+01
 0.49304703114E+01 0.72475493227E+01 0.11988670482E+02 0.19267528626E+02 0.28275709266E+02
 0.24697490284E+02 0.30292099409E+02 0.33174519617E+02 0.32413840197E+02 0.28277774530E+02
 0.22083154328E+02 0.15543620602E+02 0.10083754217E+02 0.64561109671E+01 0.46498660613E+01
 0.39784810364E+01 0.36149483366E+01 0.34509984694E+01 0.34921071945E+01 0.37407900440E+01
 0.41851499694E+01 0.51600371569E+01 0.75983368674E+01 0.11988541447E+02 0.18047643736E+02
 0.14808779599E+02 0.18739182758E+02 0.21216495871E+02 0.21408750854E+02 0.19268847814E+02
 0.15543620602E+02 0.11381556013E+02 0.78229316067E+01 0.54521329929E+01 0.42768308586E+01
 0.37819417450E+01 0.34640390114E+01 0.33027450798E+01 0.32939488340E+01 0.34371349072E+01
 0.37448687992E+01 0.42093122608E+01 0.51600159737E+01 0.72474898462E+01 0.10630716723E+02
 0.84454801767E+01 0.10697873619E+02 0.12379928259E+02 0.12870173572E+02 0.11989187170E+02
 0.10083754217E+02 0.78229316067E+01 0.58614735357E+01 0.45715455294E+01 0.39273599287E+01
 0.35661673990E+01 0.33137054309E+01 0.31816768720E+01 0.31575252022E+01 0.32338045770E+01
 0.34239249534E+01 0.37448580170E+01 0.41851253731E+01 0.49304627945E+01 0.63600042092E+01
 0.53550954336E+01 0.62968202104E+01 0.71329806949E+01 0.75090766554E+01 0.72475624984E+01
 0.64561109671E+01 0.54521329929E+01 0.45715455294E+01 0.39894475152E+01 0.36330071465E+01
 0.33594687748E+01 0.31775959223E+01 0.30868087193E+01 0.30708228222E+01 0.31179813788E+01
 0.32338258006E+01 0.34371331337E+01 0.37407600062E+01 0.41285904648E+01 0.46129805525E+01
 0.43553535602E+01 0.46351670733E+01 0.48861147783E+01 0.50129220506E+01 0.49303165051E+01
 0.46498660613E+01 0.42768308586E+01 0.39273599287E+01 0.36330071465E+01 0.33783139194E+01
 0.31865451780E+01 0.30688944522E+01 0.30197192861E+01 0.30244153458E+01 0.30708699504E+01
 0.31575809950E+01 0.32939667232E+01 0.34920808698E+01 0.37530149528E+01 0.40554604751E+01
 0.39902403993E+01 0.41322140924E+01 0.42107733002E+01 0.42099788188E+01 0.41284768215E+01
 0.39784810364E+01 0.37819417450E+01 0.35661673990E+01 0.33594687748E+01 0.31865451780E+01
 0.30641649005E+01 0.29987317677E+01 0.29869997654E+01 0.30197455144E+01 0.30868619123E+01
 0.31817258438E+01 0.33027618503E+01 0.34509830166E+01 0.36242436921E+01 0.38113605038E+01
 0.39384038321E+01 0.39640608514E+01 0.39383904151E+01 0.38649256508E+01 0.37529894521E+01
 0.36149483366E+01 0.34640390114E+01 0.33137054309E+01 0.31775959223E+01 0.30688944522E+01
 0.29987317677E+01 0.29744850042E+01 0.29987210191E+01 0.30688791180E+01 0.31775845530E+01
 0.33137046080E+01 0.34640505564E+01 0.36149696279E+01 0.37530149528E+01 0.38649484019E+01
 0.42107912248E+01 0.41322105926E+01 0.39902399016E+01 0.38113756751E+01 0.36242695426E+01
 0.34509984694E+01 0.33027450798E+01 0.31816768720E+01 0.30868087193E+01 0.30197192861E+01
 0.29869997654E+01 0.29987210191E+01 0.30641082236E+01 0.31864528092E+01 0.33593973961E+01
 0.35661732219E+01 0.37820326848E+01 0.39786126064E+01 0.41285904648E+01 0.42100424608E+01
 0.48860137611E+01 0.46350612091E+01 0.43552968058E+01 0.40554626797E+01 0.37530510897E+01
 0.34921071945E+01 0.32939488340E+01 0.31575252022E+01 0.30708228222E+01 0.30244153458E+01
 0.30197455144E+01 0.30688791180E+01 0.31864528092E+01 0.33782045912E+01 0.36330019805E+01
 0.39275318176E+01 0.42771280642E+01 0.46501477158E+01 0.49304627945E+01 0.50129118339E+01
 0.71325615803E+01 0.62964879696E+01 0.53549119266E+01 0.46129253487E+01 0.41286081444E+01
 0.37407900440E+01 0.34371349072E+01 0.32338045770E+01 0.31179813788E+01 0.30708699504E+01
 0.30868619123E+01 0.31775845530E+01 0.33593973961E+01 0.36330019805E+01 0.39896597432E+01
 0.45719863708E+01 0.54526166419E+01 0.64563820115E+01 0.72474898462E+01 0.75087346779E+01
 0.12379137056E+02 0.10697368111E+02 0.84452467752E+01 0.63599376329E+01 0.49304703114E+01
 0.41851499694E+01 0.37448687992E+01 0.34239249534E+01 0.32338258006E+01 0.31575809950E+01
 0.31817258438E+01 0.33137046080E+01 0.35661732219E+01 0.39275318176E+01 0.45719863708E+01
 0.58620528412E+01 0.78233097045E+01 0.10083628952E+02 0.11988541447E+02 0.12869283091E+02
 0.21215714314E+02 0.18738925487E+02 0.14808821330E+02 0.10630817593E+02 0.72475493227E+01
 0.51600371569E+01 0.42093122608E+01 0.37448580170E+01 0.34371331337E+01 0.32939667232E+01
 0.33027618503E+01 0.34640505564E+01 0.37820326848E+01 0.42771280642E+01 0.54526166419E+01
 0.78233097045E+01 0.11381412237E+02 0.15542764553E+02 0.19267528626E+02 0.21407494438E+02
 0.33174541064E+02 0.30292730980E+02 0.24698187371E+02 0.18048059617E+02 0.11988670482E+02
 0.75983368674E+01 0.51600159737E+01 0.41851253731E+01 0.37407600062E+01 0.34920808698E+01
 0.34509830166E+01 0.36149696279E+01 0.39786126064E+01 0.46501477158E+01 0.64563820115E+01
 0.10083628952E+02 0.15542764553E+02 0.22081663190E+02 0.28276238876E+02 0.32412948929E+02
 0.46651920095E+02 0.44111490226E+02 0.37311924832E+02 0.28276238876E+02 0.19267528626E+02
 0.11988541447E+02 0.72474898462E+01 0.49304627945E+01 0.41285904648E+01 0.37530149528E+01
 0.36242436921E+01 0.37530149528E+01 0.41285904648E+01 0.49304627945E+01 0.72474898462E+01
 0.11988541447E+02 0.19267528626E+02 0.28276238876E+02 0.37311924832E+02 0.44111490226E+02
 0.58950060513E+02 0.57769796201E+02 0.50716904895E+02 0.39948358191E+02 0.28275709266E+02
 0.18047643736E+02 0.10630716723E+02 0.63600042092E+01 0.46129805525E+01 0.40554604751E+01
 0.38113605038E+01 0.38649484019E+01 0.42100424608E+01 0.50129118339E+01 0.75087346779E+01
 0.12869283091E+02 0.21407494438E+02 0.32412948929E+02 0.44111490226E+02 0.53865653153E+02
 0.51193288300E+02 0.53863561065E+02 0.50715709888E+02 0.42782322499E+02 0.32397752700E+02
 0.22081738557E+02 0.13682689695E+02 0.80887353996E+01 0.52437908965E+01 0.42504810516E+01
 0.38547311395E+01 0.37225181825E+01 0.38729228798E+01 0.42908801333E+01 0.53218410890E+01
 0.82596508543E+01 0.14034999952E+02 0.22674018543E+02 0.33174541064E+02 0.43544182554E+02
 0.53863561065E+02 0.58947286781E+02 0.57767386232E+02 0.50715724427E+02 0.39948517190E+02
 0.28276630645E+02 0.18048611036E+02 0.10631334751E+02 0.63602497263E+01 0.46129948871E+01
 0.40553882929E+01 0.38113121444E+01 0.38649753604E+01 0.42101074579E+01 0.50129489208E+01
 0.75087799024E+01 0.12869465754E+02 0.21407789475E+02 0.32412948929E+02 0.44110578068E+02
 0.50715709888E+02 0.57767386232E+02 0.58947302755E+02 0.53863761412E+02 0.44111136806E+02
 0.32413840197E+02 0.21408750854E+02 0.12870173572E+02 0.75090766554E+01 0.50129220506E+01
 0.42099788188E+01 0.38649256508E+01 0.38113756751E+01 0.40554626797E+01 0.46129253487E+01
 0.63599376329E+01 0.10630817593E+02 0.18048059617E+02 0.28276238876E+02 0.39948358191E+02
 0.42782322499E+02 0.50715724427E+02 0.53863761412E+02 0.51193910314E+02 0.43545299733E+02
 0.33175915114E+02 0.22675205127E+02 0.14035646814E+02 0.82597312936E+01 0.53216205197E+01
 0.42906731557E+01 0.38728758627E+01 0.37225769925E+01 0.38547602488E+01 0.42503903730E+01
 0.52435851027E+01 0.80884925457E+01 0.13682506136E+02 0.22081663190E+02 0.32397750549E+02
 0.32397752700E+02 0.39948517190E+02 0.44111136806E+02 0.43545299733E+02 0.38411609475E+02
 0.30294256661E+02 0.21408783739E+02 0.13697069611E+02 0.82948527393E+01 0.53868077026E+01
 0.42844660481E+01 0.38305675624E+01 0.36119308280E+01 0.36432007781E+01 0.39201288263E+01
 0.44533797262E+01 0.59710961973E+01 0.95290510838E+01 0.15542764553E+02 0.23594997077E+02
 0.22081738557E+02 0.28276630645E+02 0.32413840197E+02 0.33175915114E+02 0.30294256661E+02
 0.24699330058E+02 0.18048410426E+02 0.11988241040E+02 0.75975426779E+01 0.51593485481E+01
 0.41848145043E+01 0.37407133884E+01 0.34920931202E+01 0.34509572050E+01 0.36149472342E+01
 0.39786538682E+01 0.46502373465E+01 0.64564496599E+01 0.10083628952E+02 0.15542733986E+02
 0.13682689695E+02 0.18048611036E+02 0.21408750854E+02 0.22675205127E+02 0.21408783739E+02
 0.18048410426E+02 0.13682042182E+02 0.95280407893E+01 0.64554241228E+01 0.47334715138E+01
 0.40108706031E+01 0.36132424711E+01 0.33726072290E+01 0.32950077834E+01 0.33725884422E+01
 0.36132820775E+01 0.40111297310E+01 0.47341014026E+01 0.64563820115E+01 0.95290243043E+01
 0.80887353996E+01 0.10631334751E+02 0.12870173572E+02 0.14035646814E+02 0.13697069611E+02
 0.11988241040E+02 0.95280407893E+01 0.70978973940E+01 0.52875536141E+01 0.42768458799E+01
 0.37953103416E+01 0.34640304211E+01 0.32598996947E+01 0.31781678150E+01 0.32049371231E+01
 0.33450620695E+01 0.36156627571E+01 0.40110586553E+01 0.46501477158E+01 0.59711126686E+01
 0.52437908965E+01 0.63602497263E+01 0.75090766554E+01 0.82597312936E+01 0.82948527393E+01
 0.75975426779E+01 0.64554241228E+01 0.52875536141E+01 0.44161194265E+01 0.39069656770E+01
 0.35663940734E+01 0.33124236599E+01 0.31592033231E+01 0.30948416095E+01 0.31026012549E+01
 0.31806608828E+01 0.33450384152E+01 0.36132185211E+01 0.39786126064E+01 0.44534432041E+01
 0.42504810516E+01 0.46129948871E+01 0.50129220506E+01 0.53216205197E+01 0.53868077026E+01
 0.51593485481E+01 0.47334715138E+01 0.42768458799E+01 0.39069656770E+01 0.36063271248E+01
 0.33553317363E+01 0.31776671168E+01 0.30766138916E+01 0.30392772534E+01 0.30499931380E+01
 0.31026405382E+01 0.32049618434E+01 0.33725934962E+01 0.36149696279E+01 0.39201931469E+01
 0.38547311395E+01 0.40553882929E+01 0.42099788188E+01 0.42906731557E+01 0.42844660481E+01
 0.41848145043E+01 0.40108706031E+01 0.37953103416E+01 0.35663940734E+01 0.33553317363E+01
 0.31871478828E+01 0.30751759055E+01 0.30197321269E+01 0.30117047211E+01 0.30393411097E+01
 0.30949219235E+01 0.31782251031E+01 0.32950433740E+01 0.34509830166E+01 0.36432083339E+01
 0.37225181825E+01 0.38113121444E+01 0.38649256508E+01 0.38728758627E+01 0.38305675624E+01
 0.37407133884E+01 0.36132424711E+01 0.34640304211E+01 0.33124236599E+01 0.31776671168E+01
 0.30751759055E+01 0.30140583165E+01 0.29966603385E+01 0.30197761261E+01 0.30766614915E+01
 0.31592171048E+01 0.32598864746E+01 0.33725934962E+01 0.34920808698E+01 0.36118986297E+01
 0.38729228798E+01 0.38649753604E+01 0.38113756751E+01 0.37225769925E+01 0.36119308280E+01
 0.34920931202E+01 0.33726072290E+01 0.32598996947E+01 0.31592033231E+01 0.30766138916E+01
 0.30197321269E+01 0.29966603385E+01 0.30140853615E+01 0.30751599651E+01 0.31775617054E+01
 0.33122667032E+01 0.34639125139E+01 0.36132185211E+01 0.37407600062E+01 0.38306270614E+01
 0.42908801333E+01 0.42101074579E+01 0.40554626797E+01 0.38547602488E+01 0.36432007781E+01
 0.34509572050E+01 0.32950077834E+01 0.31781678150E+01 0.30948416095E+01 0.30392772534E+01
 0.30117047211E+01 0.30197761261E+01 0.30751599651E+01 0.31869771041E+01 0.33550383407E+01
 0.35661416515E+01 0.37952633778E+01 0.40110586553E+01 0.41851253731E+01 0.42847588779E+01
 0.53218410890E+01 0.50129489208E+01 0.46129253487E+01 0.42503903730E+01 0.39201288263E+01
 0.36149472342E+01 0.33725884422E+01 0.32049371231E+01 0.31026012549E+01 0.30499931380E+01
 0.30393411097E+01 0.30766614915E+01 0.31775617054E+01 0.33550383407E+01 0.36060112183E+01
 0.39068966009E+01 0.42771752493E+01 0.47341014026E+01 0.51600159737E+01 0.53872853141E+01
 0.82596508543E+01 0.75087799024E+01 0.63599376329E+01 0.52435851027E+01 0.44533797262E+01
 0.39786538682E+01 0.36132820775E+01 0.33450620695E+01 0.31806608828E+01 0.31026405382E+01
 0.30949219235E+01 0.31592171048E+01 0.33122667032E+01 0.35661416515E+01 0.39068966009E+01
 0.44165084501E+01 0.52884114414E+01 0.64564496599E+01 0.75983368674E+01 0.82951890098E+01
 0.14034999952E+02 0.12869465754E+02 0.10630817593E+02 0.80884925457E+01 0.59710961973E+01
 0.46502373465E+01 0.40111297310E+01 0.36156627571E+01 0.33450384152E+01 0.32049618434E+01
 0.31782251031E+01 0.32598864746E+01 0.34639125139E+01 0.37952633778E+01 0.42771752493E+01
 0.52884114414E+01 0.70990718324E+01 0.95290510838E+01 0.11988670482E+02 0.13696837556E+02
 0.22674018543E+02 0.21407789475E+02 0.18048059617E+02 0.13682506136E+02 0.95290510838E+01
 0.64564496599E+01 0.47341014026E+01 0.40110586553E+01 0.36132185211E+01 0.33725934962E+01
 0.32950433740E+01 0.33725934962E+01 0.36132185211E+01 0.40110586553E+01 0.47341014026E+01
 0.64564496599E+01 0.95290510838E+01 0.13682506136E+02 0.18048059617E+02 0.21407789475E+02
 0.33174541064E+02 0.32412948929E+02 0.28276238876E+02 0.22081663190E+02 0.15542764553E+02
 0.10083628952E+02 0.64563820115E+01 0.46501477158E+01 0.39786126064E+01 0.36149696279E+01
 0.34509830166E+01 0.34920808698E+01 0.37407600062E+01 0.41851253731E+01 0.51600159737E+01
 0.75983368674E+01 0.11988670482E+02 0.18048059617E+02 0.24698187371E+02 0.30292730980E+02
 0.43544182554E+02 0.44110578068E+02 0.39948358191E+02 0.32397750549E+02 0.23594997077E+02
 0.15542733986E+02 0.95290243043E+01 0.59711126686E+01 0.44534432041E+01 0.39201931469E+01
 0.36432083339E+01 0.36118986297E+01 0.38306270614E+01 0.42847588779E+01 0.53872853141E+01
 0.82951890098E+01 0.13696837556E+02 0.21407789475E+02 0.30292730980E+02 0.38410064948E+02
 0.35291295608E+02 0.38408564012E+02 0.37310608852E+02 0.32397752700E+02 0.25218228293E+02
 0.17695362695E+02 0.11381757072E+02 0.70992160676E+01 0.48854211170E+01 0.40713644942E+01
 0.36905993724E+01 0.35201907336E+01 0.35753733066E+01 0.38595476698E+01 0.43664832274E+01
 0.56323832469E+01 0.87015292567E+01 0.14034999952E+02 0.21215714314E+02 0.28938727615E+02
 0.38408564012E+02 0.43542617975E+02 0.44109680419E+02 0.39948517190E+02 0.32398738838E+02
 0.23596202202E+02 0.15543631720E+02 0.95294529197E+01 0.59711982463E+01 0.44533796509E+01