   1   1   0   0
  0.9841500E+01  0.2338269E-09  0.2338269E-09  0.2338269E-09  0.5000000E-15
  1.000000000000000E-004
  CAR 
 bcc Fe                                  
     52.32247229     -4.22525497  301      7.44259626      1.00000000
     -4.225  0.0000E+00  0.0000E+00  0.0000E+00  0.0000E+00
     -4.037  0.0000E+00  0.0000E+00  0.0000E+00  0.0000E+00
     -3.848  0.0000E+00  0.0000E+00  0.0000E+00  0.0000E+00
     -3.660  0.0000E+00  0.0000E+00  0.0000E+00  0.0000E+00
     -3.471  0.0000E+00  0.0000E+00  0.0000E+00  0.0000E+00
     -3.283 -0.1235E-29  0.0000E+00 -0.2327E-30  0.0000E+00
     -3.094 -0.2067E-23 -0.2301E-30 -0.3897E-24 -0.4336E-31
     -2.906 -0.5758E-18 -0.4688E-24 -0.1085E-18 -0.8836E-25
     -2.717 -0.2560E-13 -0.1590E-18 -0.4825E-14 -0.2997E-19
     -2.529 -0.1900E-09 -0.8624E-14 -0.3581E-10 -0.1626E-14
     -2.340 -0.2238E-06 -0.7817E-10 -0.4222E-07 -0.1474E-10
     -2.152 -0.3924E-04 -0.1129E-06 -0.7438E-05 -0.2129E-07
     -1.963 -0.7798E-03 -0.2454E-04 -0.1544E-03 -0.4647E-05
     -1.775  0.3360E-02 -0.6430E-03  0.4789E-03 -0.1259E-03
     -1.586  0.2158E-01  0.1906E-02  0.4547E-02  0.2335E-03
     -1.398  0.7905E-02  0.2062E-01  0.6037E-02  0.4121E-02
     -1.209  0.1970E-01  0.9720E-02  0.9751E-02  0.5953E-02
     -1.021  0.1864E-01  0.1605E-01  0.1326E-01  0.8978E-02
     -0.832  0.3788E-01  0.2211E-01  0.2041E-01  0.1315E-01
     -0.644  0.8579E-01  0.2471E-01  0.3658E-01  0.1780E-01
     -0.455  0.1027E-01  0.8940E-01  0.3851E-01  0.3466E-01
     -0.267 -0.7185E-02  0.2160E-01  0.3716E-01  0.3873E-01
     -0.078  0.2233E-01 -0.6115E-02  0.4137E-01  0.3757E-01
      0.110  0.1082E+00  0.2985E-02  0.6177E-01  0.3814E-01
      0.299  0.5588E-01  0.9313E-01  0.7230E-01  0.5569E-01
      0.487  0.8506E-01  0.6917E-01  0.8834E-01  0.6873E-01
      0.676  0.8999E-01  0.6545E-01  0.1053E+00  0.8106E-01
      0.864  0.5935E-01  0.6999E-01  0.1165E+00  0.9426E-01
      1.053 -0.9572E-02  0.8490E-01  0.1147E+00  0.1103E+00
      1.241  0.2960E-01  0.3448E-01  0.1203E+00  0.1168E+00
      1.430  0.2253E+00 -0.1143E-01  0.1627E+00  0.1146E+00
      1.618  0.2233E+00  0.3706E-01  0.2048E+00  0.1216E+00
      1.807  0.4273E+00  0.1991E+00  0.2854E+00  0.1591E+00
      1.995  0.3066E+00  0.1315E+00  0.3431E+00  0.1839E+00
      2.183  0.5479E+00  0.1006E+00  0.4464E+00  0.2029E+00
      2.372  0.7718E+00  0.2046E+00  0.5919E+00  0.2414E+00
      2.560  0.7153E+00  0.9035E-01  0.7267E+00  0.2585E+00
      2.749  0.8670E+00  0.2172E-01  0.8901E+00  0.2626E+00
      2.937  0.5324E+00  0.2474E+00  0.9905E+00  0.3092E+00
      3.126  0.4307E+00  0.4949E+00  0.1072E+01  0.4025E+00
      3.314  0.3814E+00  0.4505E+00  0.1144E+01  0.4874E+00
      3.503  0.7316E+00  0.3659E+00  0.1281E+01  0.5564E+00
      3.691  0.1451E+01  0.4119E+00  0.1555E+01  0.6340E+00
      3.880  0.9574E+00  0.4361E+00  0.1735E+01  0.7162E+00
      4.068  0.5536E+00  0.7828E+00  0.1840E+01  0.8638E+00
      4.257  0.8631E+00  0.6436E+00  0.2002E+01  0.9851E+00
      4.445  0.1490E+01  0.2276E+00  0.2283E+01  0.1028E+01
      4.634  0.1162E+01  0.2932E+00  0.2502E+01  0.1083E+01
      4.822  0.6797E+00  0.4295E+00  0.2630E+01  0.1164E+01
      5.011  0.3732E+00  0.8238E+00  0.2701E+01  0.1319E+01
      5.199  0.2871E+00  0.1331E+01  0.2755E+01  0.1570E+01
      5.388  0.6494E+00  0.9265E+00  0.2877E+01  0.1745E+01
      5.576  0.5189E+00  0.7720E+00  0.2975E+01  0.1890E+01
      5.765  0.2168E+00  0.1034E+01  0.3016E+01  0.2085E+01
      5.953  0.6229E+00  0.1024E+01  0.3133E+01  0.2278E+01
      6.142  0.1208E+01  0.8734E+00  0.3361E+01  0.2443E+01
      6.330  0.1373E+01  0.1051E+01  0.3620E+01  0.2641E+01
      6.519  0.1664E+01  0.6527E+00  0.3933E+01  0.2764E+01
      6.707  0.1929E+01  0.2562E+00  0.4297E+01  0.2812E+01
      6.896  0.1551E+01  0.1245E+00  0.4589E+01  0.2836E+01
      7.084  0.5392E+00  0.3915E+00  0.4691E+01  0.2910E+01
      7.273  0.7152E+00  0.3417E+00  0.4826E+01  0.2974E+01
      7.461  0.8921E+00  0.2766E+00  0.4994E+01  0.3026E+01
      7.650  0.5721E+00  0.2480E+00  0.5102E+01  0.3073E+01
      7.838  0.4342E+00  0.2370E+00  0.5184E+01  0.3118E+01
      8.027  0.3121E+00  0.7433E+00  0.5243E+01  0.3258E+01
      8.215  0.3338E+00  0.8401E+00  0.5305E+01  0.3416E+01
      8.404  0.1800E+00  0.6249E+00  0.5339E+01  0.3534E+01
      8.592  0.5119E-01  0.1023E+01  0.5349E+01  0.3727E+01
      8.781  0.5363E-01  0.1164E+01  0.5359E+01  0.3946E+01
      8.969  0.1386E+00  0.1105E+01  0.5385E+01  0.4155E+01
      9.158  0.3540E+00  0.1597E+01  0.5452E+01  0.4456E+01
      9.346  0.1127E+00  0.1935E+01  0.5473E+01  0.4820E+01
      9.535  0.1023E+00  0.1091E+01  0.5493E+01  0.5026E+01
      9.723  0.1138E+00  0.7237E+00  0.5514E+01  0.5162E+01
      9.912  0.6443E-01  0.4177E+00  0.5526E+01  0.5241E+01
     10.100 -0.4972E-02  0.2456E+00  0.5525E+01  0.5287E+01
     10.289  0.7331E-01  0.2951E+00  0.5539E+01  0.5343E+01
     10.477  0.2657E+00  0.1018E+00  0.5589E+01  0.5362E+01
     10.666  0.1747E+00  0.2381E+00  0.5622E+01  0.5407E+01
     10.854  0.5251E-01  0.3158E+00  0.5632E+01  0.5467E+01
     11.043  0.1743E+00  0.1129E+00  0.5665E+01  0.5488E+01
     11.231  0.1040E+00  0.1100E+00  0.5684E+01  0.5509E+01
     11.420  0.1170E+00  0.8376E-01  0.5706E+01  0.5524E+01
     11.608  0.6100E-01  0.1032E+00  0.5718E+01  0.5544E+01
     11.797  0.1474E-01  0.1614E+00  0.5721E+01  0.5574E+01
     11.985  0.1461E+00  0.1843E+00  0.5748E+01  0.5609E+01
     12.174  0.1343E+00  0.1443E+00  0.5774E+01  0.5636E+01
     12.362  0.1045E+00  0.1596E+00  0.5793E+01  0.5666E+01
     12.551  0.1965E+00  0.5843E-01  0.5830E+01  0.5677E+01
     12.739  0.7946E-01  0.1246E+00  0.5845E+01  0.5701E+01
     12.928 -0.4157E-02  0.1034E+00  0.5845E+01  0.5720E+01
     13.116  0.3869E-01  0.3335E-01  0.5852E+01  0.5727E+01
     13.305  0.1884E-01  0.1742E+00  0.5855E+01  0.5759E+01
     13.493  0.1491E-01  0.2041E+00  0.5858E+01  0.5798E+01
     13.682  0.1634E+00  0.1975E+00  0.5889E+01  0.5835E+01
     13.870  0.8708E-01  0.5281E-01  0.5905E+01  0.5845E+01
     14.059  0.6425E-01  0.4052E-02  0.5918E+01  0.5846E+01
     14.247  0.5841E-01  0.4382E-01  0.5929E+01  0.5854E+01
     14.435 -0.6084E-02  0.4815E-02  0.5927E+01  0.5855E+01
     14.624  0.3095E-01  0.2753E-01  0.5933E+01  0.5860E+01
     14.812  0.8487E-01  0.1743E+00  0.5949E+01  0.5893E+01
     15.001  0.6684E-01  0.7261E-01  0.5962E+01  0.5907E+01
     15.189  0.1047E+00  0.7415E-01  0.5982E+01  0.5921E+01
     15.378  0.5568E-01  0.5334E-01  0.5992E+01  0.5931E+01
     15.566  0.1407E-02  0.8259E-01  0.5992E+01  0.5946E+01
     15.755 -0.1914E-02  0.3394E-01  0.5992E+01  0.5953E+01
     15.943 -0.7144E-02  0.6907E-01  0.5991E+01  0.5966E+01
     16.132  0.2352E-01  0.5881E-01  0.5995E+01  0.5977E+01
     16.320  0.2209E+00  0.4992E-01  0.6037E+01  0.5986E+01
     16.509  0.2173E+00  0.3280E-01  0.6078E+01  0.5993E+01
     16.697  0.5637E-01 -0.2219E-02  0.6088E+01  0.5992E+01
     16.886  0.1166E+00 -0.9292E-03  0.6110E+01  0.5992E+01
     17.074  0.3961E+00 -0.5509E-02  0.6185E+01  0.5991E+01
     17.263  0.3377E+00  0.1592E-01  0.6249E+01  0.5994E+01
     17.451  0.1868E+00  0.1933E+00  0.6284E+01  0.6030E+01
     17.640  0.2591E+00  0.2867E+00  0.6333E+01  0.6084E+01
     17.828  0.1307E+00  0.9377E-01  0.6357E+01  0.6102E+01
     18.017 -0.5457E-02  0.1886E+00  0.6356E+01  0.6138E+01
     18.205 -0.7969E-02  0.4610E+00  0.6355E+01  0.6225E+01
     18.394  0.7793E-01  0.3614E+00  0.6369E+01  0.6293E+01
     18.582  0.2694E+00  0.2428E+00  0.6420E+01  0.6338E+01
     18.771  0.2606E+00  0.9733E-01  0.6469E+01  0.6357E+01
     18.959  0.1364E+00  0.3753E-02  0.6495E+01  0.6357E+01
     19.148  0.2723E+00  0.3716E-01  0.6546E+01  0.6364E+01
     19.336  0.3863E+00  0.1771E+00  0.6619E+01  0.6398E+01
     19.525  0.1376E+00  0.2347E+00  0.6645E+01  0.6442E+01
     19.713  0.1769E-01  0.2196E+00  0.6648E+01  0.6483E+01
     19.902  0.6778E-01  0.2218E+00  0.6661E+01  0.6525E+01
     20.090  0.1318E+00  0.3027E+00  0.6686E+01  0.6582E+01
     20.279  0.1431E+00  0.2944E+00  0.6713E+01  0.6638E+01
     20.467  0.1848E+00  0.9365E-01  0.6748E+01  0.6655E+01
     20.656  0.2963E+00  0.6995E-01  0.6804E+01  0.6669E+01
     20.844  0.4952E+00  0.8857E-01  0.6897E+01  0.6685E+01
     21.033  0.2242E+00  0.2237E+00  0.6939E+01  0.6728E+01
     21.221 -0.1597E-02  0.1486E+00  0.6939E+01  0.6756E+01
     21.410 -0.7471E-02  0.3147E+00  0.6938E+01  0.6815E+01
     21.598  0.1989E-01  0.3218E+00  0.6941E+01  0.6875E+01
     21.787  0.4607E-01  0.2619E+00  0.6950E+01  0.6925E+01
     21.975  0.2391E+00  0.7837E-01  0.6995E+01  0.6940E+01
     22.164  0.3041E+00 -0.1372E-02  0.7052E+01  0.6939E+01
     22.352  0.1078E+00  0.3594E-01  0.7073E+01  0.6946E+01
     22.541  0.9301E-01  0.8555E-01  0.7090E+01  0.6962E+01
     22.729  0.2555E+00  0.3316E+00  0.7138E+01  0.7025E+01
     22.918  0.2016E+00  0.2243E+00  0.7176E+01  0.7067E+01
     23.106  0.3715E+00  0.6687E-01  0.7246E+01  0.7080E+01
     23.295  0.2960E+00  0.1246E+00  0.7302E+01  0.7103E+01
     23.483  0.8003E-01  0.2344E+00  0.7317E+01  0.7147E+01
     23.672  0.7767E-01  0.3830E+00  0.7332E+01  0.7220E+01
     23.860  0.8752E-01  0.4095E+00  0.7349E+01  0.7297E+01
     24.049  0.1533E+00  0.3727E-01  0.7377E+01  0.7304E+01
     24.237  0.1248E+00  0.6320E-01  0.7401E+01  0.7316E+01
     24.426  0.2289E+00  0.1410E+00  0.7444E+01  0.7342E+01
     24.614  0.1365E+00  0.1833E+00  0.7470E+01  0.7377E+01
     24.803  0.6809E-01  0.1302E+00  0.7483E+01  0.7401E+01
     24.991  0.3401E+00  0.2083E+00  0.7547E+01  0.7441E+01
     25.180  0.1525E+00  0.1494E+00  0.7575E+01  0.7469E+01
     25.368  0.4937E-02  0.8829E-01  0.7576E+01  0.7485E+01
     25.557  0.1024E+00  0.2735E+00  0.7596E+01  0.7537E+01
     25.745  0.1859E+00  0.1550E+00  0.7631E+01  0.7566E+01
     25.934  0.9662E-01  0.2669E-01  0.7649E+01  0.7571E+01
     26.122  0.1822E+00  0.4820E-01  0.7683E+01  0.7580E+01
     26.311  0.3425E+00  0.1551E+00  0.7748E+01  0.7609E+01
     26.499  0.4057E+00  0.1796E+00  0.7824E+01  0.7643E+01
     26.688  0.2913E+00  0.2988E+00  0.7879E+01  0.7700E+01
     26.876  0.1988E+00  0.3711E+00  0.7917E+01  0.7770E+01
     27.064  0.2751E+00  0.2605E+00  0.7969E+01  0.7819E+01
     27.253  0.3182E+00  0.3679E+00  0.8029E+01  0.7888E+01
     27.441  0.2327E+00  0.3113E+00  0.8072E+01  0.7947E+01
     27.630  0.2229E+00  0.2543E+00  0.8114E+01  0.7995E+01
     27.818  0.2072E+00  0.2405E+00  0.8153E+01  0.8040E+01
     28.007  0.2588E+00  0.2747E+00  0.8202E+01  0.8092E+01
     28.195  0.2870E+00  0.2331E+00  0.8256E+01  0.8136E+01
     28.384  0.7150E-01  0.2059E+00  0.8270E+01  0.8175E+01
     28.572  0.1563E-01  0.2192E+00  0.8273E+01  0.8216E+01
     28.761  0.1012E+00  0.2262E+00  0.8292E+01  0.8258E+01
     28.949  0.2080E+00  0.5105E-01  0.8331E+01  0.8268E+01
     29.138  0.1663E+00  0.5266E-01  0.8362E+01  0.8278E+01
     29.326  0.3334E+00  0.2464E+00  0.8425E+01  0.8324E+01
     29.515  0.5283E+00  0.1522E+00  0.8525E+01  0.8353E+01
     29.703  0.2577E+00  0.9842E-01  0.8573E+01  0.8372E+01
     29.892  0.1215E+00  0.6327E+00  0.8596E+01  0.8491E+01
     30.080  0.4089E+00  0.4755E+00  0.8673E+01  0.8581E+01
     30.269  0.3313E+00  0.1207E+00  0.8736E+01  0.8603E+01
     30.457  0.7169E-01  0.3145E+00  0.8749E+01  0.8663E+01
     30.646  0.1069E+00  0.2519E+00  0.8769E+01  0.8710E+01
     30.834  0.2246E+00  0.1038E+00  0.8812E+01  0.8730E+01
     31.023  0.9393E-01  0.8797E-01  0.8830E+01  0.8746E+01
     31.211  0.9504E-01  0.2168E+00  0.8847E+01  0.8787E+01
     31.400  0.1272E+00  0.1813E+00  0.8871E+01  0.8821E+01
     31.588  0.2219E+00  0.3661E-01  0.8913E+01  0.8828E+01
     31.777  0.2203E+00  0.1931E+00  0.8955E+01  0.8865E+01
     31.965  0.3280E+00  0.2228E+00  0.9017E+01  0.8907E+01
     32.154  0.7203E-01  0.1840E+00  0.9030E+01  0.8941E+01
     32.342  0.1738E+00  0.3936E+00  0.9063E+01  0.9016E+01
     32.531  0.1145E+00  0.1791E+00  0.9085E+01  0.9049E+01
     32.719  0.1022E+00  0.9139E-01  0.9104E+01  0.9066E+01
     32.908  0.1371E-01  0.9567E-01  0.9106E+01  0.9085E+01
     33.096  0.5489E-01  0.8051E-01  0.9117E+01  0.9100E+01
     33.285  0.3652E+00  0.1014E-01  0.9186E+01  0.9102E+01
     33.473  0.2727E+00  0.1605E+00  0.9237E+01  0.9132E+01
     33.662  0.3436E-01  0.4595E+00  0.9243E+01  0.9218E+01
     33.850  0.1380E+00  0.1621E+00  0.9269E+01  0.9249E+01
     34.039  0.1651E+00  0.2329E-02  0.9301E+01  0.9249E+01
     34.227  0.1336E-01  0.9549E-01  0.9303E+01  0.9267E+01
     34.416  0.1931E+00  0.6635E-01  0.9339E+01  0.9280E+01
     34.604  0.3419E+00  0.5510E-01  0.9404E+01  0.9290E+01
     34.793  0.7188E+00  0.2011E+00  0.9539E+01  0.9328E+01
     34.981  0.6176E+00  0.5403E+00  0.9656E+01  0.9430E+01
     35.170  0.2543E+00  0.7586E+00  0.9704E+01  0.9573E+01
     35.358  0.2054E-01  0.4271E+00  0.9708E+01  0.9654E+01
     35.547 -0.9049E-02  0.3994E-01  0.9706E+01  0.9661E+01
     35.735 -0.4604E-02  0.7004E-01  0.9705E+01  0.9674E+01
     35.924  0.4830E-01  0.9470E-01  0.9714E+01  0.9692E+01
     36.112  0.1358E+00  0.6534E-01  0.9740E+01  0.9704E+01
     36.301  0.1626E+00  0.5603E-01  0.9770E+01  0.9715E+01
     36.489  0.1863E+00  0.1986E+00  0.9806E+01  0.9752E+01
     36.678  0.6654E-01  0.1265E+00  0.9818E+01  0.9776E+01
     36.866  0.2201E+00  0.7821E-01  0.9860E+01  0.9791E+01
     37.055  0.4155E+00  0.2811E+00  0.9938E+01  0.9844E+01
     37.243  0.1296E+00  0.3802E+00  0.9962E+01  0.9916E+01
     37.432 -0.9300E-02  0.1118E+00  0.9961E+01  0.9937E+01
     37.620  0.7089E-01  0.4460E-01  0.9974E+01  0.9945E+01
     37.809  0.2836E+00  0.7512E-01  0.1003E+02  0.9959E+01
     37.997  0.3244E+00  0.8813E-01  0.1009E+02  0.9976E+01
     38.186  0.4172E+00  0.2369E+00  0.1017E+02  0.1002E+02
     38.374  0.5374E+00  0.2888E+00  0.1027E+02  0.1008E+02
     38.563  0.4281E+00  0.4233E+00  0.1035E+02  0.1015E+02
     38.751  0.1283E+00  0.4952E+00  0.1037E+02  0.1025E+02
     38.940  0.9684E-01  0.2992E+00  0.1039E+02  0.1030E+02
     39.128  0.1816E+00  0.1060E+00  0.1043E+02  0.1032E+02
     39.316  0.2141E+00  0.3525E+00  0.1047E+02  0.1039E+02
     39.505  0.3359E+00  0.2129E+00  0.1053E+02  0.1043E+02
     39.693  0.2757E+00  0.1589E+00  0.1058E+02  0.1046E+02
     39.882  0.1861E+00  0.1099E+00  0.1062E+02  0.1048E+02
     40.070  0.1575E+00  0.3018E+00  0.1065E+02  0.1054E+02
     40.259  0.1177E+00  0.3197E+00  0.1067E+02  0.1060E+02
     40.447  0.1517E+00  0.2315E+00  0.1070E+02  0.1064E+02
     40.636  0.1148E+00  0.1770E+00  0.1072E+02  0.1068E+02
     40.824  0.2553E+00  0.1443E+00  0.1077E+02  0.1070E+02
     41.013  0.1835E+00  0.3054E+00  0.1080E+02  0.1076E+02
     41.201  0.9684E-01  0.1447E+00  0.1082E+02  0.1079E+02
     41.390  0.3715E+00 -0.2021E-01  0.1089E+02  0.1078E+02
     41.578  0.3550E+00  0.6441E-01  0.1096E+02  0.1080E+02
     41.767  0.2472E+00  0.4126E+00  0.1100E+02  0.1087E+02
     41.955  0.3289E+00  0.5272E+00  0.1107E+02  0.1097E+02
     42.144  0.2930E+00  0.1851E+00  0.1112E+02  0.1101E+02
     42.332  0.1810E+00  0.1658E+00  0.1115E+02  0.1104E+02
     42.521  0.1117E+00  0.4299E+00  0.1118E+02  0.1112E+02
     42.709  0.3272E+00  0.2076E+00  0.1124E+02  0.1116E+02
     42.898  0.3002E+00  0.3185E-01  0.1129E+02  0.1117E+02
     43.086  0.1486E+00  0.2091E+00  0.1132E+02  0.1121E+02
     43.275  0.2421E+00  0.2748E+00  0.1137E+02  0.1126E+02
     43.463  0.1969E+00  0.3221E+00  0.1140E+02  0.1132E+02
     43.652  0.1900E+00  0.2679E+00  0.1144E+02  0.1137E+02
     43.840  0.3103E+00  0.2498E+00  0.1150E+02  0.1142E+02
     44.029  0.4628E+00  0.1359E+00  0.1159E+02  0.1144E+02
     44.217  0.1613E+00  0.1428E+00  0.1162E+02  0.1147E+02
     44.406  0.2795E-01  0.3410E+00  0.1162E+02  0.1153E+02
     44.594  0.9887E-01  0.3791E+00  0.1164E+02  0.1160E+02
     44.783  0.4649E-01  0.1520E+00  0.1165E+02  0.1163E+02
     44.971  0.1096E+00  0.1055E+00  0.1167E+02  0.1165E+02
     45.160  0.1586E+00  0.4600E-01  0.1170E+02  0.1166E+02
     45.348  0.2354E-01  0.1216E+00  0.1170E+02  0.1168E+02
     45.537  0.7857E-01  0.8636E-01  0.1172E+02  0.1170E+02
     45.725  0.1147E+00  0.9593E-01  0.1174E+02  0.1172E+02
     45.914  0.2304E+00  0.1600E+00  0.1178E+02  0.1175E+02
     46.102  0.1241E+00  0.1383E-01  0.1181E+02  0.1175E+02
     46.291 -0.1191E-01 -0.1368E-01  0.1181E+02  0.1175E+02
     46.479  0.1144E+00  0.6543E-01  0.1183E+02  0.1176E+02
     46.668  0.2154E+00  0.2211E+00  0.1187E+02  0.1180E+02
     46.856  0.8499E-01  0.2560E+00  0.1188E+02  0.1185E+02
     47.045  0.1024E+00  0.1437E+00  0.1190E+02  0.1188E+02
     47.233  0.3213E-01  0.3342E-01  0.1191E+02  0.1188E+02
     47.422  0.5976E-03  0.1064E+00  0.1191E+02  0.1190E+02
     47.610  0.2915E-01  0.2511E-01  0.1191E+02  0.1191E+02
     47.799  0.1021E-01  0.3762E-02  0.1192E+02  0.1191E+02
     47.987 -0.4958E-02  0.2968E-01  0.1192E+02  0.1191E+02
     48.176  0.6388E-02  0.6925E-02  0.1192E+02  0.1192E+02
     48.364  0.1355E+00 -0.4196E-02  0.1194E+02  0.1192E+02
     48.553  0.1186E+00  0.1859E-02  0.1196E+02  0.1192E+02
     48.741  0.5916E-03  0.1223E+00  0.1196E+02  0.1194E+02
     48.930 -0.3592E-02  0.1318E+00  0.1196E+02  0.1196E+02
     49.118  0.2049E-02  0.2317E-01  0.1196E+02  0.1197E+02
     49.307  0.2546E-01  0.1036E-01  0.1197E+02  0.1197E+02
     49.495  0.2951E-01 -0.4296E-02  0.1197E+02  0.1197E+02
     49.684  0.6698E-01  0.5159E-01  0.1199E+02  0.1198E+02
     49.872  0.6915E-01  0.1025E+00  0.1200E+02  0.1200E+02
     50.061  0.2772E-03  0.1286E-01  0.1200E+02  0.1200E+02
     50.249 -0.1628E-02 -0.3391E-02  0.1200E+02  0.1200E+02
     50.438 -0.3876E-04 -0.1616E-03  0.1200E+02  0.1200E+02
     50.626 -0.1206E-06 -0.9061E-06  0.1200E+02  0.1200E+02
     50.815 -0.5744E-10 -0.7639E-09  0.1200E+02  0.1200E+02
     51.003 -0.4382E-14 -0.1026E-12  0.1200E+02  0.1200E+02
     51.192  0.0000E+00  0.0000E+00  0.1200E+02  0.1200E+02
     51.380  0.0000E+00  0.0000E+00  0.1200E+02  0.1200E+02
     51.569  0.0000E+00  0.0000E+00  0.1200E+02  0.1200E+02
     51.757  0.0000E+00  0.0000E+00  0.1200E+02  0.1200E+02
     51.945  0.0000E+00  0.0000E+00  0.1200E+02  0.1200E+02
     52.134  0.0000E+00  0.0000E+00  0.1200E+02  0.1200E+02
     52.322  0.0000E+00  0.0000E+00  0.1200E+02  0.1200E+02
