 running on    4 total cores
 distrk:  each k-point on    4 cores,    1 groups
 distr:  one band on    1 cores,    4 groups
 using from now: INCAR     
 vasp.5.4.4.18Apr17-6-g9f103f2a35 (build Jul 01 2019 03:25:34) complex          
  
 POSCAR found type information on POSCAR  Fe
 POSCAR found :  1 types and       1 ions
 scaLAPACK will be used
 LDA part: xc-table for Pade appr. of Perdew
 POSCAR, INCAR and KPOINTS ok, starting setup
 FFT: planning ...
 WAVECAR not read
 entering main loop
       N       E                     dE             d eps       ncg     rms          rms(c)
DAV:   1     0.987159397728E+01    0.98716E+01   -0.25896E+03  2408   0.476E+02
DAV:   2    -0.856510591404E+01   -0.18437E+02   -0.16988E+02  2264   0.947E+01
DAV:   3    -0.883780628716E+01   -0.27270E+00   -0.27216E+00  2404   0.127E+01
DAV:   4    -0.883840812515E+01   -0.60184E-03   -0.60181E-03  2404   0.559E-01
DAV:   5    -0.883841034479E+01   -0.22196E-05   -0.22194E-05  1944   0.341E-02    0.136E+01
DAV:   6    -0.810913321206E+01    0.72928E+00   -0.72877E+00  2384   0.324E+01    0.373E+00
DAV:   7    -0.809111037367E+01    0.18023E-01   -0.13011E-01  2472   0.437E+00    0.251E+00
DAV:   8    -0.808104487439E+01    0.10065E-01   -0.46697E-03  2444   0.458E-01    0.134E+00
DAV:   9    -0.807473473846E+01    0.63101E-02   -0.30898E-03  2636   0.290E-01    0.161E-01
DAV:  10    -0.807477864767E+01   -0.43909E-04   -0.36463E-04  2216   0.163E-01
   1 F= -.80747786E+01 E0= -.80742395E+01  d E =-.161753E-02  mag=     1.9594
 writing wavefunctions
