BCC W                                   
   3.30000000000000     
    -0.500000    0.500000    0.500000
     0.500000   -0.500000    0.500000
     0.500000    0.500000   -0.500000
   W 
     1
Direct
  0.000000  0.000000  0.000000
 
   20   20   20
  15.153      14.467      13.146      12.390      12.278      11.794      10.302      8.3581      6.8950      6.1414    
  5.9294      6.1414      6.8950      8.3581      10.302      11.794      12.278      12.390      13.146      14.467    
  14.467      14.183      12.980      12.022      11.804      11.581      10.489      8.7088      7.1320      6.2152    
  5.8593      5.9219      6.4512      7.6010      9.3582      11.026      11.832      11.982      12.442      13.562    
  13.146      12.980      11.903      10.818      10.426      10.354      9.7528      8.4407      7.0433      6.1033    
  5.6588      5.6070      5.9228      6.7323      8.0926      9.6891      10.832      11.313      11.691      12.442    
  12.390      12.022      10.818      9.4860      8.7768      8.6412      8.3933      7.6217      6.6058      5.8009    
  5.3561      5.2456      5.4081      5.9336      6.8895      8.2227      9.5727      10.581      11.313      11.982    
  12.278      11.804      10.426      8.7768      7.6310      7.1881      6.9962      6.5820      5.9450      5.3585    
  4.9944      4.8817      4.9618      5.2748      5.9245      6.9188      8.2046      9.5727      10.832      11.832    
  11.794      11.581      10.354      8.6412      7.1881      6.3702      5.9923      5.6683      5.2605      4.8723    
  4.6254      4.5514      4.6057      4.7936      5.2049      5.9129      6.9188      8.2227      9.6891      11.026    
  10.302      10.489      9.7528      8.3933      6.9962      5.9923      5.4058      5.0222      4.6998      4.4417    
  4.2988      4.2767      4.3394      4.4760      4.7373      5.2049      5.9245      6.8895      8.0926      9.3582    
  8.3581      8.7088      8.4407      7.6217      6.5820      5.6683      5.0222      4.5958      4.3073      4.1257    
  4.0491      4.0655      4.1464      4.2763      4.4760      4.7936      5.2748      5.9336      6.7323      7.6010    
  6.8950      7.1320      7.0433      6.6058      5.9450      5.2605      4.6998      4.3073      4.0626      3.9302    
  3.8867      3.9178      4.0078      4.1464      4.3394      4.6057      4.9618      5.4081      5.9228      6.4512    
  6.1414      6.2152      6.1033      5.8009      5.3585      4.8723      4.4417      4.1257      3.9302      3.8304    
  3.8011      3.8305      3.9178      4.0655      4.2767      4.5514      4.8817      5.2456      5.6070      5.9219    
  5.9294      5.8593      5.6588      5.3561      4.9944      4.6254      4.2988      4.0491      3.8867      3.8011    
  3.7753      3.8011      3.8867      4.0491      4.2988      4.6254      4.9944      5.3561      5.6588      5.8593    
  6.1414      5.9219      5.6070      5.2456      4.8817      4.5514      4.2767      4.0655      3.9178      3.8305    
  3.8011      3.8304      3.9302      4.1257      4.4417      4.8723      5.3585      5.8009      6.1033      6.2152    
  6.8950      6.4512      5.9228      5.4081      4.9618      4.6057      4.3394      4.1464      4.0078      3.9178    
  3.8867      3.9302      4.0626      4.3073      4.6998      5.2605      5.9450      6.6058      7.0433      7.1320    
  8.3581      7.6010      6.7323      5.9336      5.2748      4.7936      4.4760      4.2763      4.1464      4.0655    
  4.0491      4.1257      4.3073      4.5958      5.0222      5.6683      6.5820      7.6217      8.4407      8.7088    
  10.302      9.3582      8.0926      6.8895      5.9245      5.2049      4.7373      4.4760      4.3394      4.2767    
  4.2988      4.4417      4.6998      5.0222      5.4058      5.9923      6.9962      8.3933      9.7528      10.489    
  11.794      11.026      9.6891      8.2227      6.9188      5.9129      5.2049      4.7936      4.6057      4.5514    
  4.6254      4.8723      5.2605      5.6683      5.9923      6.3702      7.1881      8.6412      10.354      11.581    
  12.278      11.832      10.832      9.5727      8.2046      6.9188      5.9245      5.2748      4.9618      4.8817    
  4.9944      5.3585      5.9450      6.5820      6.9962      7.1881      7.6310      8.7768      10.426      11.804    
  12.390      11.982      11.313      10.581      9.5727      8.2227      6.8895      5.9336      5.4081      5.2456    
  5.3561      5.8009      6.6058      7.6217      8.3933      8.6412      8.7768      9.4860      10.818      12.022    
  13.146      12.442      11.691      11.313      10.832      9.6891      8.0926      6.7323      5.9228      5.6070    
  5.6588      6.1033      7.0433      8.4407      9.7528      10.354      10.426      10.818      11.903      12.980    
  14.467      13.562      12.442      11.982      11.832      11.026      9.3582      7.6010      6.4512      5.9219    
  5.8593      6.2152      7.1320      8.7088      10.489      11.581      11.804      12.022      12.980      14.183    
  14.467      14.183      12.980      12.022      11.804      11.581      10.489      8.7088      7.1320      6.2152    
  5.8593      5.9219      6.4512      7.6010      9.3582      11.026      11.832      11.982      12.442      13.562    
  14.183      14.433      13.515      12.409      11.972      11.831      11.022      9.3545      7.6045      6.4594    
  5.9245      5.8528      6.2086      7.1339      8.7162      10.493      11.584      11.819      12.052      13.008    
  12.980      13.515      12.967      11.913      11.281      11.115      10.618      9.3296      7.7182      6.5025    
  5.8497      5.6635      5.8494      6.5025      7.7185      9.3296      10.620      11.121      11.295      11.931    
  12.022      12.409      11.913      10.827      9.9739      9.6696      9.3980      8.5903      7.3712      6.2966    
  5.6350      5.3844      5.4457      5.8517      6.7009      7.9788      9.3271      10.241      10.734      11.281    
  11.804      11.972      11.281      9.9739      8.7817      8.1743      7.9073      7.4493      6.6670      5.8674    
  5.3047      5.0542      5.0494      5.2758      5.8383      6.7650      7.9815      9.2094      10.240      11.111    
  11.581      11.831      11.115      9.6696      8.1743      7.1911      6.7136      6.3501      5.8558      5.3215    
  4.9112      4.7147      4.6960      4.8231      5.1684      5.8196      6.7691      7.9854      9.3303      10.619    
  10.489      11.022      10.618      9.3980      7.9073      6.7136      5.9933      5.5477      5.1569      4.7922    
  4.5240      4.4039      4.4061      4.4975      4.7118      5.1353      5.8234      6.7707      7.9821      9.3281    
  8.7088      9.3545      9.3296      8.5903      7.4493      6.3501      5.5477      5.0207      4.6486      4.3737    
  4.2048      4.1497      4.1832      4.2759      4.4357      4.7137      5.1715      5.8397      6.6979      7.7114    
  7.1320      7.6045      7.7182      7.3712      6.6670      5.8558      5.1569      4.6486      4.3072      4.0931    
  3.9839      3.9660      4.0198      4.1242      4.2764      4.4982      4.8224      5.2720      5.8452      6.4965    
  6.2152      6.4594      6.5025      6.2966      5.8674      5.3215      4.7922      4.3737      4.0931      3.9306    
  3.8567      3.8527      3.9092      4.0197      4.1829      4.4048      4.6931      5.0458      5.4439      5.8517    
  5.8593      5.9245      5.8497      5.6350      5.3047      4.9112      4.5240      4.2048      3.9839      3.8567    
  3.8013      3.8007      3.8526      3.9656      4.1488      4.4025      4.7139      5.0557      5.3894      5.6708    
  5.9219      5.8528      5.6635      5.3844      5.0542      4.7147      4.4039      4.1497      3.9660      3.8527    
  3.8007      3.8012      3.8564      3.9835      4.2046      4.5247      4.9138      5.3093      5.6397      5.8517    
  6.4512      6.2086      5.8494      5.4457      5.0494      4.6960      4.4061      4.1832      4.0198      3.9092    
  3.8526      3.8564      3.9304      4.0933      4.3748      4.7945      5.3245      5.8692      6.2948      6.4965    
  7.6010      7.1339      6.5025      5.8517      5.2758      4.8231      4.4975      4.2759      4.1242      4.0197    
  3.9656      3.9835      4.0933      4.3084      4.6506      5.1587      5.8558      6.6638      7.3649      7.7114    
  9.3582      8.7162      7.7185      6.7009      5.8383      5.1684      4.7118      4.4357      4.2764      4.1829    
  4.1488      4.2046      4.3748      4.6506      5.0222      5.5473      6.3471      7.4442      8.5854      9.3281    
  11.026      10.493      9.3296      7.9788      6.7650      5.8196      5.1353      4.7137      4.4982      4.4048    
  4.4025      4.5247      4.7945      5.1587      5.5473      5.9905      6.7094      7.9028      9.3950      10.619    
  11.832      11.584      10.620      9.3271      7.9815      6.7691      5.8234      5.1715      4.8224      4.6931    
  4.7139      4.9138      5.3245      5.8558      6.3471      6.7094      7.1865      8.1687      9.6636      11.111    
  11.982      11.819      11.121      10.241      9.2094      7.9854      6.7707      5.8397      5.2720      5.0458    
  5.0557      5.3093      5.8692      6.6638      7.4442      7.9028      8.1687      8.7728      9.9654      11.281    
  12.442      12.052      11.295      10.734      10.240      9.3303      7.9821      6.6979      5.8452      5.4439    
  5.3894      5.6397      6.2948      7.3649      8.5854      9.3950      9.6636      9.9654      10.827      11.931    
  13.562      13.008      11.931      11.281      11.111      10.619      9.3281      7.7114      6.4965      5.8517    
  5.6708      5.8517      6.4965      7.7114      9.3281      10.619      11.111      11.281      11.931      13.008    
  13.146      12.980      11.903      10.818      10.426      10.354      9.7528      8.4407      7.0433      6.1033    
  5.6588      5.6070      5.9228      6.7323      8.0926      9.6891      10.832      11.313      11.691      12.442    
  12.980      13.515      12.967      11.913      11.281      11.115      10.618      9.3296      7.7182      6.5025    
  5.8497      5.6635      5.8494      6.5025      7.7185      9.3296      10.620      11.121      11.295      11.931    
  11.903      12.967      13.124      12.420      11.678      11.310      10.833      9.6906      8.0930      6.7326    
  5.9232      5.6071      5.6585      6.1034      7.0438      8.4411      9.7542      10.359      10.435      10.827    
  10.818      11.913      12.420      12.036      11.289      10.737      10.245      9.3335      7.9832      6.6983    
  5.8456      5.4439      5.3891      5.6398      6.2951      7.3650      8.5859      9.3970      9.6667      9.9654    
  10.426      11.281      11.678      11.289      10.438      9.6747      9.1038      8.4013      7.4039      6.3723    
  5.6074      5.1932      5.0791      5.1932      5.6073      6.3719      7.4027      8.3978      9.0967      9.6636    
  10.354      11.115      11.310      10.737      9.6747      8.6491      7.9097      7.2900      6.5811      5.8408    
  5.2431      4.8875      4.7652      4.8087      5.0479      5.5716      6.3676      7.3614      8.3977      9.3950    
  9.7528      10.618      10.833      10.245      9.1038      7.9097      6.9982      6.3473      5.7842      5.2579    
  4.8292      4.5701      4.4792      4.5045      4.6456      4.9750      5.5547      6.3678      7.4029      8.5854    
  8.4407      9.3296      9.6906      9.3335      8.4013      7.2900      6.3473      5.6644      5.1558      4.7510    
  4.4514      4.2860      4.2420      4.2793      4.3832      4.5929      4.9750      5.5717      6.3720      7.3649    
  7.0433      7.7182      8.0930      7.9832      7.4039      6.5811      5.7842      5.1558      4.6991      4.3745    
  4.1660      4.0678      4.0618      4.1184      4.2207      4.3832      4.6454      5.0478      5.6071      6.2948    
  6.1033      6.5025      6.7326      6.6983      6.3723      5.8408      5.2579      4.7510      4.3745      4.1268    
  3.9842      3.9265      3.9388      4.0062      4.1185      4.2793      4.5045      4.8087      5.1932      5.6397    
  5.6588      5.8497      5.9232      5.8456      5.6074      5.2431      4.8292      4.4514      4.1660      3.9842    
  3.8872      3.8528      3.8702      3.9389      4.0619      4.2421      4.4793      4.7653      5.0792      5.3894    
  5.6070      5.6635      5.6071      5.4439      5.1932      4.8875      4.5701      4.2860      4.0678      3.9265    
  3.8528      3.8307      3.8528      3.9265      4.0678      4.2860      4.5702      4.8875      5.1932      5.4439    
  5.9228      5.8494      5.6585      5.3891      5.0791      4.7652      4.4792      4.2420      4.0618      3.9388    
  3.8702      3.8528      3.8871      3.9841      4.1660      4.4515      4.8292      5.2430      5.6071      5.8452    
  6.7323      6.5025      6.1034      5.6398      5.1932      4.8087      4.5045      4.2793      4.1184      4.0062    
  3.9389      3.9265      3.9841      4.1269      4.3749      4.7516      5.2584      5.8410      6.3720      6.6979    
  8.0926      7.7185      7.0438      6.2951      5.6073      5.0479      4.6456      4.3832      4.2207      4.1185    
  4.0619      4.0678      4.1660      4.3749      4.7000      5.1571      5.7850      6.5809      7.4029      7.9821    
  9.6891      9.3296      8.4411      7.3650      6.3719      5.5716      4.9750      4.5929      4.3832      4.2793    
  4.2421      4.2860      4.4515      4.7516      5.1571      5.6656      6.3470      7.2877      8.3977      9.3303    
  10.832      10.620      9.7542      8.5859      7.4027      6.3676      5.5547      4.9750      4.6454      4.5045    
  4.4793      4.5702      4.8292      5.2584      5.7850      6.3470      6.9951      7.9034      9.0967      10.240    
  11.313      11.121      10.359      9.3970      8.3978      7.3614      6.3678      5.5717      5.0478      4.8087    
  4.7653      4.8875      5.2430      5.8410      6.5809      7.2877      7.9034      8.6399      9.6667      10.734    
  11.691      11.295      10.435      9.6667      9.0967      8.3977      7.4029      6.3720      5.6071      5.1932    
  5.0792      5.1932      5.6071      6.3720      7.4029      8.3977      9.0967      9.6667      10.435      11.295    
  12.442      11.931      10.827      9.9654      9.6636      9.3950      8.5854      7.3649      6.2948      5.6397    
  5.3894      5.4439      5.8452      6.6979      7.9821      9.3303      10.240      10.734      11.295      12.052    
  12.390      12.022      10.818      9.4860      8.7768      8.6412      8.3933      7.6217      6.6058      5.8009    
  5.3561      5.2456      5.4081      5.9336      6.8895      8.2227      9.5727      10.581      11.313      11.982    
  12.022      12.409      11.913      10.827      9.9739      9.6696      9.3980      8.5903      7.3712      6.2966    
  5.6350      5.3844      5.4457      5.8517      6.7009      7.9788      9.3271      10.241      10.734      11.281    
  10.818      11.913      12.420      12.036      11.289      10.737      10.245      9.3335      7.9832      6.6983    
  5.8456      5.4439      5.3891      5.6398      6.2951      7.3650      8.5859      9.3970      9.6667      9.9654    
  9.4860      10.827      12.036      12.401      11.987      11.316      10.587      9.5789      8.2233      6.8841    
  5.9289      5.4098      5.2508      5.3578      5.7965      6.6006      7.6206      8.3947      8.6399      8.7728    
  8.7768      9.9739      11.289      11.987      11.822      11.126      10.248      9.2126      7.9820      6.7647    
  5.8380      5.2757      5.0494      5.0543      5.3047      5.8671      6.6662      7.4474      7.9034      8.1687    
  8.6412      9.6696      10.737      11.316      11.126      10.366      9.4017      8.3964      7.3554      6.3634    
  5.5726      5.0513      4.8097      4.7625      4.8848      5.2442      5.8449      6.5838      7.2877      7.9028    
  8.3933      9.3980      10.245      10.587      10.248      9.4017      8.3940      7.4418      6.5778      5.8115    
  5.1929      4.7700      4.5613      4.5053      4.5614      4.7701      5.1935      5.8134      6.5809      7.4442    
  7.6217      8.5903      9.3335      9.5789      9.2126      8.3964      7.4418      6.5751      5.8522      5.2588    
  4.7926      4.4828      4.3326      4.2960      4.3327      4.4565      4.7264      5.1908      5.8410      6.6638    
  6.6058      7.3712      7.9832      8.2233      7.9820      7.3554      6.5778      5.8522      5.2585      4.7940    
  4.4516      4.2396      4.1464      4.1378      4.1811      4.2753      4.4550      4.7677      5.2430      5.8692    
  5.8009      6.2966      6.6983      6.8841      6.7647      6.3634      5.8115      5.2588      4.7940      4.4435    
  4.2053      4.0675      4.0150      4.0271      4.0840      4.1807      4.3321      4.5619      4.8875      5.3093    
  5.3561      5.6350      5.8456      5.9289      5.8380      5.5726      5.1929      4.7926      4.4516      4.2053    
  4.0496      3.9658      3.9388      3.9606      4.0272      4.1381      4.2970      4.5075      4.7653      5.0557    
  5.2456      5.3844      5.4439      5.4098      5.2757      5.0513      4.7700      4.4828      4.2396      4.0675    
  3.9658      3.9177      3.9092      3.9390      4.0154      4.1472      4.3336      4.5619      4.8087      5.0458    
  5.4081      5.4457      5.3891      5.2508      5.0494      4.8097      4.5613      4.3326      4.1464      4.0150    
  3.9388      3.9092      3.9178      3.9660      4.0676      4.2394      4.4819      4.7677      5.0478      5.2720    
  5.9336      5.8517      5.6398      5.3578      5.0543      4.7625      4.5053      4.2960      4.1378      4.0271    
  3.9606      3.9390      3.9660      4.0495      4.2045      4.4500      4.7905      5.1908      5.5717      5.8397    
  6.8895      6.7009      6.2951      5.7965      5.3047      4.8848      4.5614      4.3327      4.1811      4.0840    
  4.0272      4.0154      4.0676      4.2045      4.4418      4.7923      5.2585      5.8134      6.3678      6.7707    
  8.2227      7.9788      7.3650      6.6006      5.8671      5.2442      4.7701      4.4565      4.2753      4.1807    
  4.1381      4.1472      4.2394      4.4500      4.7923      5.2589      5.8559      6.5838      7.3614      7.9854    
  9.5727      9.3271      8.5859      7.6206      6.6662      5.8449      5.1935      4.7264      4.4550      4.3321    
  4.2970      4.3336      4.4819      4.7905      5.2585      5.8559      6.5816      7.4474      8.3978      9.2094    
  10.581      10.241      9.3970      8.3947      7.4474      6.5838      5.8134      5.1908      4.7677      4.5619    
  4.5075      4.5619      4.7677      5.1908      5.8134      6.5838      7.4474      8.3947      9.3970      10.241    
  11.313      10.734      9.6667      8.6399      7.9034      7.2877      6.5809      5.8410      5.2430      4.8875    
  4.7653      4.8087      5.0478      5.5717      6.3678      7.3614      8.3978      9.3970      10.359      11.121    
  11.982      11.281      9.9654      8.7728      8.1687      7.9028      7.4442      6.6638      5.8692      5.3093    
  5.0557      5.0458      5.2720      5.8397      6.7707      7.9854      9.2094      10.241      11.121      11.819    
  12.278      11.804      10.426      8.7768      7.6310      7.1881      6.9962      6.5820      5.9450      5.3585    
  4.9944      4.8817      4.9618      5.2748      5.9245      6.9188      8.2046      9.5727      10.832      11.832    
  11.804      11.972      11.281      9.9739      8.7817      8.1743      7.9073      7.4493      6.6670      5.8674    
  5.3047      5.0542      5.0494      5.2758      5.8383      6.7650      7.9815      9.2094      10.240      11.111    
  10.426      11.281      11.678      11.289      10.438      9.6747      9.1038      8.4013      7.4039      6.3723    
  5.6074      5.1932      5.0791      5.1932      5.6073      6.3719      7.4027      8.3978      9.0967      9.6636    
  8.7768      9.9739      11.289      11.987      11.822      11.126      10.248      9.2126      7.9820      6.7647    
  5.8380      5.2757      5.0494      5.0543      5.3047      5.8671      6.6662      7.4474      7.9034      8.1687    
  7.6310      8.7817      10.438      11.822      12.296      11.845      10.838      9.5729      8.2026      6.9171    
  5.9236      5.2744      4.9617      4.8818      4.9944      5.3584      5.9448      6.5816      6.9951      7.1865    
  7.1881      8.1743      9.6747      11.126      11.845      11.591      10.619      9.3225      7.9765      6.7659    
  5.8221      5.1711      4.8223      4.6931      4.7138      4.9137      5.3244      5.8559      6.3470      6.7094    
  6.9962      7.9073      9.1038      10.248      10.838      10.619      9.7484      8.5778      7.3961      6.3642    
  5.5536      4.9748      4.6453      4.5044      4.4793      4.5701      4.8292      5.2585      5.7850      6.3471    
  6.5820      7.4493      8.4013      9.2126      9.5729      9.3225      8.5778      7.6124      6.6608      5.8429    
  5.1934      4.7266      4.4550      4.3321      4.2971      4.3337      4.4819      4.7905      5.2584      5.8558    
  5.9450      6.6670      7.4039      7.9820      8.2026      7.9765      7.3961      6.6608      5.9422      5.3244    
  4.8301      4.4825      4.2807      4.1902      4.1668      4.1902      4.2805      4.4819      4.8292      5.3245    
  5.3585      5.8674      6.3723      6.7647      6.9171      6.7659      6.3642      5.8429      5.3244      4.8746    
  4.5252      4.2853      4.1465      4.0876      4.0820      4.1141      4.1901      4.3336      4.5702      4.9138    
  4.9944      5.3047      5.6074      5.8380      5.9236      5.8221      5.5536      5.1934      4.8301      4.5252    
  4.2997      4.1490      4.0616      4.0271      4.0358      4.0819      4.1666      4.2970      4.4793      4.7139    
  4.8817      5.0542      5.1932      5.2757      5.2744      5.1711      4.9748      4.7266      4.4825      4.2853    
  4.1490      4.0650      4.0195      4.0061      4.0271      4.0875      4.1901      4.3321      4.5045      4.6931    
  4.9618      5.0494      5.0791      5.0494      4.9617      4.8223      4.6453      4.4550      4.2807      4.1465    
  4.0616      4.0195      4.0075      4.0196      4.0616      4.1464      4.2805      4.4550      4.6454      4.8224    
  5.2748      5.2758      5.1932      5.0543      4.8818      4.6931      4.5044      4.3321      4.1902      4.0876    
  4.0271      4.0061      4.0196      4.0650      4.1487      4.2846      4.4819      4.7264      4.9750      5.1715    
  5.9245      5.8383      5.6073      5.3047      4.9944      4.7138      4.4793      4.2971      4.1668      4.0820    
  4.0358      4.0271      4.0616      4.1487      4.2988      4.5239      4.8292      5.1935      5.5547      5.8234    
  6.9188      6.7650      6.3719      5.8671      5.3584      4.9137      4.5701      4.3337      4.1902      4.1141    
  4.0819      4.0875      4.1464      4.2846      4.5239      4.8734      5.3244      5.8449      6.3676      6.7691    
  8.2046      7.9815      7.4027      6.6662      5.9448      5.3244      4.8292      4.4819      4.2805      4.1901    
  4.1666      4.1901      4.2805      4.4819      4.8292      5.3244      5.9448      6.6662      7.4027      7.9815    
  9.5727      9.2094      8.3978      7.4474      6.5816      5.8559      5.2585      4.7905      4.4819      4.3336    
  4.2970      4.3321      4.4550      4.7264      5.1935      5.8449      6.6662      7.6206      8.5859      9.3271    
  10.832      10.240      9.0967      7.9034      6.9951      6.3470      5.7850      5.2584      4.8292      4.5702    
  4.4793      4.5045      4.6454      4.9750      5.5547      6.3676      7.4027      8.5859      9.7542      10.620    
  11.832      11.111      9.6636      8.1687      7.1865      6.7094      6.3471      5.8558      5.3245      4.9138    
  4.7139      4.6931      4.8224      5.1715      5.8234      6.7691      7.9815      9.3271      10.620      11.584    
  11.794      11.581      10.354      8.6412      7.1881      6.3702      5.9923      5.6683      5.2605      4.8723    
  4.6254      4.5514      4.6057      4.7936      5.2049      5.9129      6.9188      8.2227      9.6891      11.026    
  11.581      11.831      11.115      9.6696      8.1743      7.1911      6.7136      6.3501      5.8558      5.3215    
  4.9112      4.7147      4.6960      4.8231      5.1684      5.8196      6.7691      7.9854      9.3303      10.619    
  10.354      11.115      11.310      10.737      9.6747      8.6491      7.9097      7.2900      6.5811      5.8408    
  5.2431      4.8875      4.7652      4.8087      5.0479      5.5716      6.3676      7.3614      8.3977      9.3950    
  8.6412      9.6696      10.737      11.316      11.126      10.366      9.4017      8.3964      7.3554      6.3634    
  5.5726      5.0513      4.8097      4.7625      4.8848      5.2442      5.8449      6.5838      7.2877      7.9028    
  7.1881      8.1743      9.6747      11.126      11.845      11.591      10.619      9.3225      7.9765      6.7659    
  5.8221      5.1711      4.8223      4.6931      4.7138      4.9137      5.3244      5.8559      6.3470      6.7094    
  6.3702      7.1911      8.6491      10.366      11.591      11.796      11.017      9.6753      8.2134      6.9178    
  5.9162      5.2063      4.7917      4.6037      4.5523      4.6279      4.8734      5.2589      5.6656      5.9905    
  5.9923      6.7136      7.9097      9.4017      10.619      11.017      10.477      9.3153      7.9731      6.7670    
  5.8231      5.1358      4.7119      4.4976      4.4063      4.4040      4.5239      4.7923      5.1571      5.5473    
  5.6683      6.3501      7.2900      8.3964      9.3225      9.6753      9.3153      8.4331      7.3653      6.3765    
  5.5749      4.9750      4.5916      4.3833      4.2804      4.2423      4.2846      4.4500      4.7516      5.1587    
  5.2605      5.8558      6.5811      7.3554      7.9765      8.2134      7.9731      7.3653      6.6054      5.8723    
  5.2465      4.7697      4.4556      4.2755      4.1813      4.1378      4.1464      4.2394      4.4515      4.7945    
  4.8723      5.3215      5.8408      6.3634      6.7659      6.9178      6.7670      6.3765      5.8723      5.3618    
  4.9145      4.5693      4.3330      4.1903      4.1144      4.0819      4.0875      4.1472      4.2860      4.5247    
  4.6254      4.9112      5.2431      5.5726      5.8221      5.9162      5.8231      5.5749      5.2465      4.9145    
  4.6274      4.4030      4.2418      4.1379      4.0820      4.0647      4.0819      4.1381      4.2421      4.4025    
  4.5514      4.7147      4.8875      5.0513      5.1711      5.2063      5.1358      4.9750      4.7697      4.5693    
  4.4030      4.2761      4.1827      4.1185      4.0839      4.0819      4.1141      4.1807      4.2793      4.4048    
  4.6057      4.6960      4.7652      4.8097      4.8223      4.7917      4.7119      4.5916      4.4556      4.3330    
  4.2418      4.1827      4.1461      4.1241      4.1184      4.1378      4.1902      4.2753      4.3832      4.4982    
  4.7936      4.8231      4.8087      4.7625      4.6931      4.6037      4.4976      4.3833      4.2755      4.1903    
  4.1379      4.1185      4.1241      4.1461      4.1830      4.2423      4.3337      4.4565      4.5929      4.7137    
  5.2049      5.1684      5.0479      4.8848      4.7138      4.5523      4.4063      4.2804      4.1813      4.1144    
  4.0820      4.0839      4.1184      4.1830      4.2768      4.4040      4.5701      4.7701      4.9750      5.1353    
  5.9129      5.8196      5.5716      5.2442      4.9137      4.6279      4.4040      4.2423      4.1378      4.0819    
  4.0647      4.0819      4.1378      4.2423      4.4040      4.6279      4.9137      5.2442      5.5716      5.8196    
  6.9188      6.7691      6.3676      5.8449      5.3244      4.8734      4.5239      4.2846      4.1464      4.0875    
  4.0819      4.1141      4.1902      4.3337      4.5701      4.9137      5.3584      5.8671      6.3719      6.7650    
  8.2227      7.9854      7.3614      6.5838      5.8559      5.2589      4.7923      4.4500      4.2394      4.1472    
  4.1381      4.1807      4.2753      4.4565      4.7701      5.2442      5.8671      6.6006      7.3650      7.9788    
  9.6891      9.3303      8.3977      7.2877      6.3470      5.6656      5.1571      4.7516      4.4515      4.2860    
  4.2421      4.2793      4.3832      4.5929      4.9750      5.5716      6.3719      7.3650      8.4411      9.3296    
  11.026      10.619      9.3950      7.9028      6.7094      5.9905      5.5473      5.1587      4.7945      4.5247    
  4.4025      4.4048      4.4982      4.7137      5.1353      5.8196      6.7650      7.9788      9.3296      10.493    
  10.302      10.489      9.7528      8.3933      6.9962      5.9923      5.4058      5.0222      4.6998      4.4417    
  4.2988      4.2767      4.3394      4.4760      4.7373      5.2049      5.9245      6.8895      8.0926      9.3582    
  10.489      11.022      10.618      9.3980      7.9073      6.7136      5.9933      5.5477      5.1569      4.7922    
  4.5240      4.4039      4.4061      4.4975      4.7118      5.1353      5.8234      6.7707      7.9821      9.3281    
  9.7528      10.618      10.833      10.245      9.1038      7.9097      6.9982      6.3473      5.7842      5.2579    