BCC W                                   
   3.30000000000000     
    -0.500000    0.500000    0.500000
     0.500000   -0.500000    0.500000
     0.500000    0.500000   -0.500000
   W 
     1
Direct
  0.000000  0.000000  0.000000
 
   20   20   20
 0.15153069332E+02 0.14467389929E+02 0.13145774675E+02 0.12389635224E+02 0.12278361970E+02
 0.11794459739E+02 0.10301512055E+02 0.83580889576E+01 0.68949933964E+01 0.61414156749E+01
 0.59293728890E+01 0.61414156749E+01 0.68949933964E+01 0.83580889576E+01 0.10301512055E+02
 0.11794459739E+02 0.12278361970E+02 0.12389635224E+02 0.13145774675E+02 0.14467389929E+02
 0.14467389929E+02 0.14182996046E+02 0.12980140256E+02 0.12021812707E+02 0.11804136726E+02
 0.11580976000E+02 0.10488893234E+02 0.87088028197E+01 0.71319719694E+01 0.62152175730E+01
 0.58592667732E+01 0.59219149840E+01 0.64511672323E+01 0.76010350163E+01 0.93581701349E+01
 0.11026033200E+02 0.11832229187E+02 0.11982280079E+02 0.12441619767E+02 0.13561995058E+02
 0.13145774675E+02 0.12980140256E+02 0.11902940681E+02 0.10818395702E+02 0.10425944442E+02
 0.10354286080E+02 0.97528386612E+01 0.84406654746E+01 0.70432929092E+01 0.61033266948E+01
 0.56587816182E+01 0.56070418954E+01 0.59228104040E+01 0.67322861111E+01 0.80925614098E+01
 0.96891264966E+01 0.10832044375E+02 0.11312872655E+02 0.11690775970E+02 0.12441619767E+02
 0.12389635224E+02 0.12021812707E+02 0.10818395702E+02 0.94859854669E+01 0.87767780373E+01
 0.86412428644E+01 0.83932978583E+01 0.76216772986E+01 0.66057893843E+01 0.58009008238E+01
 0.53561354970E+01 0.52455561431E+01 0.54081264028E+01 0.59336281631E+01 0.68895455839E+01
 0.82227321748E+01 0.95727299236E+01 0.10581419155E+02 0.11312872655E+02 0.11982280079E+02
 0.12278361970E+02 0.11804136726E+02 0.10425944442E+02 0.87767780373E+01 0.76310151086E+01
 0.71880528617E+01 0.69961922761E+01 0.65820356690E+01 0.59450012219E+01 0.53585275409E+01
 0.49944261222E+01 0.48817482456E+01 0.49617682485E+01 0.52747612189E+01 0.59244502534E+01
 0.69188246205E+01 0.82046105627E+01 0.95727299236E+01 0.10832044375E+02 0.11832229187E+02
 0.11794459739E+02 0.11580976000E+02 0.10354286080E+02 0.86412428644E+01 0.71880528617E+01
 0.63701839188E+01 0.59923284473E+01 0.56682620293E+01 0.52605081625E+01 0.48723165049E+01
 0.46253951342E+01 0.45514313655E+01 0.46056647131E+01 0.47936230311E+01 0.52049026279E+01
 0.59129093099E+01 0.69188246205E+01 0.82227321748E+01 0.96891264966E+01 0.11026033200E+02
 0.10301512055E+02 0.10488893234E+02 0.97528386612E+01 0.83932978583E+01 0.69961922761E+01
 0.59923284473E+01 0.54057517952E+01 0.50222498992E+01 0.46997969955E+01 0.44417282977E+01
 0.42988167164E+01 0.42766617827E+01 0.43393617198E+01 0.44759599223E+01 0.47373180774E+01
 0.52049026279E+01 0.59244502534E+01 0.68895455839E+01 0.80925614098E+01 0.93581701349E+01
 0.83580889576E+01 0.87088028197E+01 0.84406654746E+01 0.76216772986E+01 0.65820356690E+01
 0.56682620293E+01 0.50222498992E+01 0.45957510808E+01 0.43073082629E+01 0.41256549354E+01
 0.40491357857E+01 0.40655159148E+01 0.41464052779E+01 0.42762614131E+01 0.44759599223E+01
 0.47936230311E+01 0.52747612189E+01 0.59336281631E+01 0.67322861111E+01 0.76010350163E+01
 0.68949933964E+01 0.71319719694E+01 0.70432929092E+01 0.66057893843E+01 0.59450012219E+01
 0.52605081625E+01 0.46997969955E+01 0.43073082629E+01 0.40626288774E+01 0.39301507562E+01
 0.38867367290E+01 0.39177539926E+01 0.40077676815E+01 0.41464052779E+01 0.43393617198E+01
 0.46056647131E+01 0.49617682485E+01 0.54081264028E+01 0.59228104040E+01 0.64511672323E+01
 0.61414156749E+01 0.62152175730E+01 0.61033266948E+01 0.58009008238E+01 0.53585275409E+01
 0.48723165049E+01 0.44417282977E+01 0.41256549354E+01 0.39301507562E+01 0.38304481842E+01
 0.38011476058E+01 0.38305460579E+01 0.39177539926E+01 0.40655159148E+01 0.42766617827E+01
 0.45514313655E+01 0.48817482456E+01 0.52455561431E+01 0.56070418954E+01 0.59219149840E+01
 0.59293728890E+01 0.58592667732E+01 0.56587816182E+01 0.53561354970E+01 0.49944261222E+01
 0.46253951342E+01 0.42988167164E+01 0.40491357857E+01 0.38867367290E+01 0.38011476058E+01
 0.37752663312E+01 0.38011476058E+01 0.38867367290E+01 0.40491357857E+01 0.42988167164E+01
 0.46253951342E+01 0.49944261222E+01 0.53561354970E+01 0.56587816182E+01 0.58592667732E+01
 0.61414156749E+01 0.59219149840E+01 0.56070418954E+01 0.52455561431E+01 0.48817482456E+01
 0.45514313655E+01 0.42766617827E+01 0.40655159148E+01 0.39177539926E+01 0.38305460579E+01
 0.38011476058E+01 0.38304481842E+01 0.39301507562E+01 0.41256549354E+01 0.44417282977E+01
 0.48723165049E+01 0.53585275409E+01 0.58009008238E+01 0.61033266948E+01 0.62152175730E+01
 0.68949933964E+01 0.64511672323E+01 0.59228104040E+01 0.54081264028E+01 0.49617682485E+01
 0.46056647131E+01 0.43393617198E+01 0.41464052779E+01 0.40077676815E+01 0.39177539926E+01
 0.38867367290E+01 0.39301507562E+01 0.40626288774E+01 0.43073082629E+01 0.46997969955E+01
 0.52605081625E+01 0.59450012219E+01 0.66057893843E+01 0.70432929092E+01 0.71319719694E+01
 0.83580889576E+01 0.76010350163E+01 0.67322861111E+01 0.59336281631E+01 0.52747612189E+01
 0.47936230311E+01 0.44759599223E+01 0.42762614131E+01 0.41464052779E+01 0.40655159148E+01
 0.40491357857E+01 0.41256549354E+01 0.43073082629E+01 0.45957510808E+01 0.50222498992E+01
 0.56682620293E+01 0.65820356690E+01 0.76216772986E+01 0.84406654746E+01 0.87088028197E+01
 0.10301512055E+02 0.93581701349E+01 0.80925614098E+01 0.68895455839E+01 0.59244502534E+01
 0.52049026279E+01 0.47373180774E+01 0.44759599223E+01 0.43393617198E+01 0.42766617827E+01
 0.42988167164E+01 0.44417282977E+01 0.46997969955E+01 0.50222498992E+01 0.54057517952E+01
 0.59923284473E+01 0.69961922761E+01 0.83932978583E+01 0.97528386612E+01 0.10488893234E+02
 0.11794459739E+02 0.11026033200E+02 0.96891264966E+01 0.82227321748E+01 0.69188246205E+01
 0.59129093099E+01 0.52049026279E+01 0.47936230311E+01 0.46056647131E+01 0.45514313655E+01
 0.46253951342E+01 0.48723165049E+01 0.52605081625E+01 0.56682620293E+01 0.59923284473E+01
 0.63701839188E+01 0.71880528617E+01 0.86412428644E+01 0.10354286080E+02 0.11580976000E+02
 0.12278361970E+02 0.11832229187E+02 0.10832044375E+02 0.95727299236E+01 0.82046105627E+01
 0.69188246205E+01 0.59244502534E+01 0.52747612189E+01 0.49617682485E+01 0.48817482456E+01
 0.49944261222E+01 0.53585275409E+01 0.59450012219E+01 0.65820356690E+01 0.69961922761E+01
 0.71880528617E+01 0.76310151086E+01 0.87767780373E+01 0.10425944442E+02 0.11804136726E+02
 0.12389635224E+02 0.11982280079E+02 0.11312872655E+02 0.10581419155E+02 0.95727299236E+01
 0.82227321748E+01 0.68895455839E+01 0.59336281631E+01 0.54081264028E+01 0.52455561431E+01
 0.53561354970E+01 0.58009008238E+01 0.66057893843E+01 0.76216772986E+01 0.83932978583E+01
 0.86412428644E+01 0.87767780373E+01 0.94859854669E+01 0.10818395702E+02 0.12021812707E+02
 0.13145774675E+02 0.12441619767E+02 0.11690775970E+02 0.11312872655E+02 0.10832044375E+02
 0.96891264966E+01 0.80925614098E+01 0.67322861111E+01 0.59228104040E+01 0.56070418954E+01
 0.56587816182E+01 0.61033266948E+01 0.70432929092E+01 0.84406654746E+01 0.97528386612E+01
 0.10354286080E+02 0.10425944442E+02 0.10818395702E+02 0.11902940681E+02 0.12980140256E+02
 0.14467389929E+02 0.13561995058E+02 0.12441619767E+02 0.11982280079E+02 0.11832229187E+02
 0.11026033200E+02 0.93581701349E+01 0.76010350163E+01 0.64511672323E+01 0.59219149840E+01
 0.58592667732E+01 0.62152175730E+01 0.71319719694E+01 0.87088028197E+01 0.10488893234E+02
 0.11580976000E+02 0.11804136726E+02 0.12021812707E+02 0.12980140256E+02 0.14182996046E+02
 0.14467389929E+02 0.14182996046E+02 0.12980140256E+02 0.12021812707E+02 0.11804136726E+02
 0.11580976000E+02 0.10488893234E+02 0.87088028197E+01 0.71319719694E+01 0.62152175730E+01
 0.58592667732E+01 0.59219149840E+01 0.64511672323E+01 0.76010350163E+01 0.93581701349E+01
 0.11026033200E+02 0.11832229187E+02 0.11982280079E+02 0.12441619767E+02 0.13561995058E+02
 0.14182996046E+02 0.14433461334E+02 0.13515306247E+02 0.12409223838E+02 0.11971687436E+02
 0.11830957882E+02 0.11022387054E+02 0.93544636607E+01 0.76045349159E+01 0.64594009465E+01
 0.59245121790E+01 0.58528117683E+01 0.62085660104E+01 0.71339111052E+01 0.87162400451E+01
 0.10493414834E+02 0.11584417974E+02 0.11818861361E+02 0.12051810861E+02 0.13007873764E+02
 0.12980140256E+02 0.13515306247E+02 0.12967193309E+02 0.11912810343E+02 0.11280973927E+02
 0.11114541964E+02 0.10618499549E+02 0.93295517678E+01 0.77182448604E+01 0.65025159176E+01
 0.58496565316E+01 0.56635217626E+01 0.58493655423E+01 0.65025058535E+01 0.77184664647E+01
 0.93295598012E+01 0.10619623763E+02 0.11120558758E+02 0.11294532527E+02 0.11930605134E+02
 0.12021812707E+02 0.12409223838E+02 0.11912810343E+02 0.10827319384E+02 0.99738979206E+01
 0.96695526826E+01 0.93979911062E+01 0.85903225111E+01 0.73712210250E+01 0.62965697413E+01
 0.56349634207E+01 0.53844432382E+01 0.54456848789E+01 0.58517030117E+01 0.67008583876E+01
 0.79788233010E+01 0.93270579395E+01 0.10241212093E+02 0.10734315481E+02 0.11280657953E+02
 0.11804136726E+02 0.11971687436E+02 0.11280973927E+02 0.99738979206E+01 0.87817222060E+01
 0.81743326598E+01 0.79072725551E+01 0.74493139866E+01 0.66670067525E+01 0.58674154648E+01
 0.53047239582E+01 0.50541920953E+01 0.50493634533E+01 0.52758392233E+01 0.58382528708E+01
 0.67649820669E+01 0.79815265922E+01 0.92094236544E+01 0.10239623837E+02 0.11111280865E+02
 0.11580976000E+02 0.11830957882E+02 0.11114541964E+02 0.96695526826E+01 0.81743326598E+01
 0.71911185941E+01 0.67136122973E+01 0.63501451076E+01 0.58557910857E+01 0.53214643136E+01
 0.49111857084E+01 0.47146542302E+01 0.46960191593E+01 0.48231349829E+01 0.51683635834E+01
 0.58195949643E+01 0.67691346675E+01 0.79854281681E+01 0.93303460602E+01 0.10618726911E+02
 0.10488893234E+02 0.11022387054E+02 0.10618499549E+02 0.93979911062E+01 0.79072725551E+01
 0.67136122973E+01 0.59932685685E+01 0.55476660670E+01 0.51568692840E+01 0.47921899694E+01
 0.45239993757E+01 0.44039013953E+01 0.44061006495E+01 0.44975497581E+01 0.47118209672E+01
 0.51353313653E+01 0.58234255760E+01 0.67706629581E+01 0.79820915217E+01 0.93280626832E+01
 0.87088028197E+01 0.93544636607E+01 0.93295517678E+01 0.85903225111E+01 0.74493139866E+01
 0.63501451076E+01 0.55476660670E+01 0.50207306242E+01 0.46486029973E+01 0.43736731238E+01
 0.42048327456E+01 0.41497385040E+01 0.41832065062E+01 0.42758884493E+01 0.44357359747E+01
 0.47137486264E+01 0.51715480548E+01 0.58397272126E+01 0.66978853661E+01 0.77114240160E+01
 0.71319719694E+01 0.76045349159E+01 0.77182448604E+01 0.73712210250E+01 0.66670067525E+01
 0.58557910857E+01 0.51568692840E+01 0.46486029973E+01 0.43071603373E+01 0.40931283401E+01
 0.39839012051E+01 0.39660183339E+01 0.40197804482E+01 0.41242198981E+01 0.42763966306E+01
 0.44982495925E+01 0.48223986103E+01 0.52720206208E+01 0.58452301337E+01 0.64964551116E+01
 0.62152175730E+01 0.64594009465E+01 0.65025159176E+01 0.62965697413E+01 0.58674154648E+01
 0.53214643136E+01 0.47921899694E+01 0.43736731238E+01 0.40931283401E+01 0.39305973941E+01
 0.38566638416E+01 0.38527207305E+01 0.39091934551E+01 0.40197322160E+01 0.41828813340E+01
 0.44047681943E+01 0.46931460905E+01 0.50457978808E+01 0.54438631363E+01 0.58517039370E+01
 0.58592667732E+01 0.59245121790E+01 0.58496565316E+01 0.56349634207E+01 0.53047239582E+01
 0.49111857084E+01 0.45239993757E+01 0.42048327456E+01 0.39839012051E+01 0.38566638416E+01
 0.38013236661E+01 0.38007130246E+01 0.38525846188E+01 0.39656074463E+01 0.41488098641E+01
 0.44025453471E+01 0.47138767866E+01 0.50557205997E+01 0.53893528680E+01 0.56707513345E+01
 0.59219149840E+01 0.58528117683E+01 0.56635217626E+01 0.53844432382E+01 0.50541920953E+01
 0.47146542302E+01 0.44039013953E+01 0.41497385040E+01 0.39660183339E+01 0.38527207305E+01
 0.38007130246E+01 0.38012013194E+01 0.38563923336E+01 0.39834853564E+01 0.42045525773E+01
 0.45246649044E+01 0.49137816186E+01 0.53092908435E+01 0.56397267068E+01 0.58517039370E+01
 0.64511672323E+01 0.62085660104E+01 0.58493655423E+01 0.54456848789E+01 0.50493634533E+01
 0.46960191593E+01 0.44061006495E+01 0.41832065062E+01 0.40197804482E+01 0.39091934551E+01
 0.38525846188E+01 0.38563923336E+01 0.39303872035E+01 0.40933347394E+01 0.43747901453E+01
 0.47945397379E+01 0.53244587868E+01 0.58691519422E+01 0.62947591500E+01 0.64964551116E+01
 0.76010350163E+01 0.71339111052E+01 0.65025058535E+01 0.58517030117E+01 0.52758392233E+01
 0.48231349829E+01 0.44975497581E+01 0.42758884493E+01 0.41242198981E+01 0.40197322160E+01
 0.39656074463E+01 0.39834853564E+01 0.40933347394E+01 0.43083564479E+01 0.46506014676E+01
 0.51587246297E+01 0.58558493244E+01 0.66637666935E+01 0.73648658709E+01 0.77114240160E+01
 0.93581701349E+01 0.87162400451E+01 0.77184664647E+01 0.67008583876E+01 0.58382528708E+01
 0.51683635834E+01 0.47118209672E+01 0.44357359747E+01 0.42763966306E+01 0.41828813340E+01
 0.41488098641E+01 0.42045525773E+01 0.43747901453E+01 0.46506014676E+01 0.50222409001E+01
 0.55472762923E+01 0.63471017515E+01 0.74442019320E+01 0.85854400979E+01 0.93280626832E+01
 0.11026033200E+02 0.10493414834E+02 0.93295598012E+01 0.79788233010E+01 0.67649820669E+01
 0.58195949643E+01 0.51353313653E+01 0.47137486264E+01 0.44982495925E+01 0.44047681943E+01
 0.44025453471E+01 0.45246649044E+01 0.47945397379E+01 0.51587246297E+01 0.55472762923E+01
 0.59904989184E+01 0.67093801587E+01 0.79028413901E+01 0.93950224844E+01 0.10618726911E+02
 0.11832229187E+02 0.11584417974E+02 0.10619623763E+02 0.93270579395E+01 0.79815265922E+01
 0.67691346675E+01 0.58234255760E+01 0.51715480548E+01 0.48223986103E+01 0.46931460905E+01
 0.47138767866E+01 0.49137816186E+01 0.53244587868E+01 0.58558493244E+01 0.63471017515E+01
 0.67093801587E+01 0.71864897780E+01 0.81687044802E+01 0.96636449939E+01 0.11111280865E+02
 0.11982280079E+02 0.11818861361E+02 0.11120558758E+02 0.10241212093E+02 0.92094236544E+01
 0.79854281681E+01 0.67706629581E+01 0.58397272126E+01 0.52720206208E+01 0.50457978808E+01
 0.50557205997E+01 0.53092908435E+01 0.58691519422E+01 0.66637666935E+01 0.74442019320E+01
 0.79028413901E+01 0.81687044802E+01 0.87727840114E+01 0.99654050774E+01 0.11280657953E+02
 0.12441619767E+02 0.12051810861E+02 0.11294532527E+02 0.10734315481E+02 0.10239623837E+02
 0.93303460602E+01 0.79820915217E+01 0.66978853661E+01 0.58452301337E+01 0.54438631363E+01
 0.53893528680E+01 0.56397267068E+01 0.62947591500E+01 0.73648658709E+01 0.85854400979E+01
 0.93950224844E+01 0.96636449939E+01 0.99654050774E+01 0.10826765826E+02 0.11930605134E+02
 0.13561995058E+02 0.13007873764E+02 0.11930605134E+02 0.11280657953E+02 0.11111280865E+02
 0.10618726911E+02 0.93280626832E+01 0.77114240160E+01 0.64964551116E+01 0.58517039370E+01
 0.56707513345E+01 0.58517039370E+01 0.64964551116E+01 0.77114240160E+01 0.93280626832E+01
 0.10618726911E+02 0.11111280865E+02 0.11280657953E+02 0.11930605134E+02 0.13007873764E+02
 0.13145774675E+02 0.12980140256E+02 0.11902940681E+02 0.10818395702E+02 0.10425944442E+02
 0.10354286080E+02 0.97528386612E+01 0.84406654746E+01 0.70432929092E+01 0.61033266948E+01
 0.56587816182E+01 0.56070418954E+01 0.59228104040E+01 0.67322861111E+01 0.80925614098E+01
 0.96891264966E+01 0.10832044375E+02 0.11312872655E+02 0.11690775970E+02 0.12441619767E+02
 0.12980140256E+02 0.13515306247E+02 0.12967193309E+02 0.11912810343E+02 0.11280973927E+02
 0.11114541964E+02 0.10618499549E+02 0.93295517678E+01 0.77182448604E+01 0.65025159176E+01
 0.58496565316E+01 0.56635217626E+01 0.58493655423E+01 0.65025058535E+01 0.77184664647E+01
 0.93295598012E+01 0.10619623763E+02 0.11120558758E+02 0.11294532527E+02 0.11930605134E+02
 0.11902940681E+02 0.12967193309E+02 0.13123723078E+02 0.12420299864E+02 0.11678153135E+02
 0.11309639253E+02 0.10833423337E+02 0.96906014139E+01 0.80930175881E+01 0.67325527968E+01
 0.59231668692E+01 0.56070556672E+01 0.56585446765E+01 0.61034434448E+01 0.70437694379E+01
 0.84411185849E+01 0.97542342653E+01 0.10359075050E+02 0.10434776155E+02 0.10826765826E+02
 0.10818395702E+02 0.11912810343E+02 0.12420299864E+02 0.12035926075E+02 0.11289053727E+02
 0.10737053120E+02 0.10244622013E+02 0.93334934987E+01 0.79831641036E+01 0.66983189072E+01
 0.58455913730E+01 0.54438754676E+01 0.53891462535E+01 0.56398285829E+01 0.62951182250E+01
 0.73650230100E+01 0.85858552051E+01 0.93969764106E+01 0.96666785715E+01 0.99654050774E+01
 0.10425944442E+02 0.11280973927E+02 0.11678153135E+02 0.11289053727E+02 0.10438038252E+02
 0.96746854626E+01 0.91038298899E+01 0.84012774383E+01 0.74039479850E+01 0.63722834332E+01
 0.56073554374E+01 0.51931609058E+01 0.50790769121E+01 0.51932277698E+01 0.56073064630E+01
 0.63718827214E+01 0.74026665684E+01 0.83978492494E+01 0.90966753195E+01 0.96636449939E+01
 0.10354286080E+02 0.11114541964E+02 0.11309639253E+02 0.10737053120E+02 0.96746854626E+01
 0.86490572625E+01 0.79096705895E+01 0.72900060143E+01 0.65810951647E+01 0.58408039090E+01
 0.52431039647E+01 0.48874818918E+01 0.47651617923E+01 0.48087201828E+01 0.50479312448E+01
 0.55716442967E+01 0.63675761813E+01 0.73613644235E+01 0.83976614446E+01 0.93950224844E+01
 0.97528386612E+01 0.10618499549E+02 0.10833423337E+02 0.10244622013E+02 0.91038298899E+01
 0.79096705895E+01 0.69981937626E+01 0.63472924343E+01 0.57842094871E+01 0.52578911701E+01
 0.48291679729E+01 0.45701136285E+01 0.44792381183E+01 0.45044764953E+01 0.46455584003E+01
 0.49750316621E+01 0.55547047134E+01 0.63678071073E+01 0.74029475576E+01 0.85854400979E+01
 0.84406654746E+01 0.93295517678E+01 0.96906014139E+01 0.93334934987E+01 0.84012774383E+01
 0.72900060143E+01 0.63472924343E+01 0.56644470419E+01 0.51558333963E+01 0.47509730713E+01
 0.44513970524E+01 0.42859520566E+01 0.42420253613E+01 0.42792587682E+01 0.43832437268E+01
 0.45928844646E+01 0.49750026051E+01 0.55717242542E+01 0.63720023598E+01 0.73648658709E+01
 0.70432929092E+01 0.77182448604E+01 0.80930175881E+01 0.79831641036E+01 0.74039479850E+01
 0.65810951647E+01 0.57842094871E+01 0.51558333963E+01 0.46990854756E+01 0.43745413970E+01
 0.41660283035E+01 0.40678109429E+01 0.40618031197E+01 0.41184221830E+01 0.42206897525E+01
 0.43831991552E+01 0.46454366721E+01 0.50477818283E+01 0.56071082748E+01 0.62947591500E+01
 0.61033266948E+01 0.65025159176E+01 0.67325527968E+01 0.66983189072E+01 0.63722834332E+01
 0.58408039090E+01 0.52578911701E+01 0.47509730713E+01 0.43745413970E+01 0.41268355613E+01
 0.39841744065E+01 0.39265004532E+01 0.39388313587E+01 0.40061999760E+01 0.41184685881E+01
 0.42792883834E+01 0.45044562185E+01 0.48086748018E+01 0.51931678456E+01 0.56397267068E+01
 0.56587816182E+01 0.58496565316E+01 0.59231668692E+01 0.58455913730E+01 0.56073554374E+01
 0.52431039647E+01 0.48291679729E+01 0.44513970524E+01 0.41660283035E+01 0.39841744065E+01
 0.38871544835E+01 0.38527959915E+01 0.38702253697E+01 0.39388677570E+01 0.40618819040E+01
 0.42421199628E+01 0.44793400376E+01 0.47652917790E+01 0.50792496904E+01 0.53893528680E+01
 0.56070418954E+01 0.56635217626E+01 0.56070556672E+01 0.54438754676E+01 0.51931609058E+01
 0.48874818918E+01 0.45701136285E+01 0.42859520566E+01 0.40678109429E+01 0.39265004532E+01
 0.38527959915E+01 0.38307231529E+01 0.38527812790E+01 0.39264875135E+01 0.40678184004E+01
 0.42859843326E+01 0.45701565097E+01 0.48875132989E+01 0.51931678456E+01 0.54438631363E+01
 0.59228104040E+01 0.58493655423E+01 0.56585446765E+01 0.53891462535E+01 0.50790769121E+01
 0.47651617923E+01 0.44792381183E+01 0.42420253613E+01 0.40618031197E+01 0.39388313587E+01
 0.38702253697E+01 0.38527812790E+01 0.38870892083E+01 0.39840980428E+01 0.41660230286E+01
 0.44514829288E+01 0.48292499819E+01 0.52430464017E+01 0.56071082748E+01 0.58452301337E+01
 0.67322861111E+01 0.65025058535E+01 0.61034434448E+01 0.56398285829E+01 0.51932277698E+01
 0.48087201828E+01 0.45044764953E+01 0.42792587682E+01 0.41184221830E+01 0.40061999760E+01
 0.39388677570E+01 0.39264875135E+01 0.39840980428E+01 0.41268545172E+01 0.43748522733E+01
 0.47515505047E+01 0.52584239273E+01 0.58409528775E+01 0.63720023598E+01 0.66978853661E+01
 0.80925614098E+01 0.77184664647E+01 0.70437694379E+01 0.62951182250E+01 0.56073064630E+01
 0.50479312448E+01 0.46455584003E+01 0.43832437268E+01 0.42206897525E+01 0.41184685881E+01
 0.40618819040E+01 0.40678184004E+01 0.41660230286E+01 0.43748522733E+01 0.46999821654E+01
 0.51570681918E+01 0.57850460833E+01 0.65809401798E+01 0.74029475576E+01 0.79820915217E+01
 0.96891264966E+01 0.93295598012E+01 0.84411185849E+01 0.73650230100E+01 0.63718827214E+01
 0.55716442967E+01 0.49750316621E+01 0.45928844646E+01 0.43831991552E+01 0.42792883834E+01
 0.42421199628E+01 0.42859843326E+01 0.44514829288E+01 0.47515505047E+01 0.51570681918E+01
 0.56656006191E+01 0.63470412047E+01 0.72876664262E+01 0.83976614446E+01 0.93303460602E+01
 0.10832044375E+02 0.10619623763E+02 0.97542342653E+01 0.85858552051E+01 0.74026665684E+01
 0.63675761813E+01 0.55547047134E+01 0.49750026051E+01 0.46454366721E+01 0.45044562185E+01
 0.44793400376E+01 0.45701565097E+01 0.48292499819E+01 0.52584239273E+01 0.57850460833E+01
 0.63470412047E+01 0.69950729775E+01 0.79034443889E+01 0.90966753195E+01 0.10239623837E+02
 0.11312872655E+02 0.11120558758E+02 0.10359075050E+02 0.93969764106E+01 0.83978492494E+01
 0.73613644235E+01 0.63678071073E+01 0.55717242542E+01 0.50477818283E+01 0.48086748018E+01
 0.47652917790E+01 0.48875132989E+01 0.52430464017E+01 0.58409528775E+01 0.65809401798E+01
 0.72876664262E+01 0.79034443889E+01 0.86399248517E+01 0.96666785715E+01 0.10734315481E+02
 0.11690775970E+02 0.11294532527E+02 0.10434776155E+02 0.96666785715E+01 0.90966753195E+01
 0.83976614446E+01 0.74029475576E+01 0.63720023598E+01 0.56071082748E+01 0.51931678456E+01
 0.50792496904E+01 0.51931678456E+01 0.56071082748E+01 0.63720023598E+01 0.74029475576E+01
 0.83976614446E+01 0.90966753195E+01 0.96666785715E+01 0.10434776155E+02 0.11294532527E+02
 0.12441619767E+02 0.11930605134E+02 0.10826765826E+02 0.99654050774E+01 0.96636449939E+01
 0.93950224844E+01 0.85854400979E+01 0.73648658709E+01 0.62947591500E+01 0.56397267068E+01
 0.53893528680E+01 0.54438631363E+01 0.58452301337E+01 0.66978853661E+01 0.79820915217E+01
 0.93303460602E+01 0.10239623837E+02 0.10734315481E+02 0.11294532527E+02 0.12051810861E+02
 0.12389635224E+02 0.12021812707E+02 0.10818395702E+02 0.94859854669E+01 0.87767780373E+01
 0.86412428644E+01 0.83932978583E+01 0.76216772986E+01 0.66057893843E+01 0.58009008238E+01
 0.53561354970E+01 0.52455561431E+01 0.54081264028E+01 0.59336281631E+01 0.68895455839E+01
 0.82227321748E+01 0.95727299236E+01 0.10581419155E+02 0.11312872655E+02 0.11982280079E+02
 0.12021812707E+02 0.12409223838E+02 0.11912810343E+02 0.10827319384E+02 0.99738979206E+01
 0.96695526826E+01 0.93979911062E+01 0.85903225111E+01 0.73712210250E+01 0.62965697413E+01
 0.56349634207E+01 0.53844432382E+01 0.54456848789E+01 0.58517030117E+01 0.67008583876E+01
 0.79788233010E+01 0.93270579395E+01 0.10241212093E+02 0.10734315481E+02 0.11280657953E+02
 0.10818395702E+02 0.11912810343E+02 0.12420299864E+02 0.12035926075E+02 0.11289053727E+02
 0.10737053120E+02 0.10244622013E+02 0.93334934987E+01 0.79831641036E+01 0.66983189072E+01
 0.58455913730E+01 0.54438754676E+01 0.53891462535E+01 0.56398285829E+01 0.62951182250E+01
 0.73650230100E+01 0.85858552051E+01 0.93969764106E+01 0.96666785715E+01 0.99654050774E+01
 0.94859854669E+01 0.10827319384E+02 0.12035926075E+02 0.12400610890E+02 0.11986976425E+02
 0.11315840059E+02 0.10587184344E+02 0.95788527347E+01 0.82233041918E+01 0.68841286407E+01
 0.59289465347E+01 0.54097755539E+01 0.52508432989E+01 0.53577765412E+01 0.57965495808E+01
 0.66005633959E+01 0.76206493705E+01 0.83947103221E+01 0.86399248517E+01 0.87727840114E+01
 0.87767780373E+01 0.99738979206E+01 0.11289053727E+02 0.11986976425E+02 0.11821806551E+02
 0.11125755521E+02 0.10248081721E+02 0.92126458239E+01 0.79820147024E+01 0.67647122181E+01
 0.58379792561E+01 0.52756827518E+01 0.50493517716E+01 0.50542570359E+01 0.53046629514E+01
 0.58670638293E+01 0.66661796394E+01 0.74474192347E+01 0.79034443889E+01 0.81687044802E+01
 0.86412428644E+01 0.96695526826E+01 0.10737053120E+02 0.11315840059E+02 0.11125755521E+02
 0.10366122222E+02 0.94016518275E+01 0.83963669969E+01 0.73554093445E+01 0.63633888388E+01
 0.55725750279E+01 0.50513487745E+01 0.48097369609E+01 0.47625448666E+01 0.48848203151E+01
 0.52441681912E+01 0.58449019546E+01 0.65837549686E+01 0.72876664262E+01 0.79028413901E+01
 0.83932978583E+01 0.93979911062E+01 0.10244622013E+02 0.10587184344E+02 0.10248081721E+02
 0.94016518275E+01 0.83939998134E+01 0.74417940145E+01 0.65777504085E+01 0.58114619854E+01
 0.51928589949E+01 0.47699600583E+01 0.45612887530E+01 0.45053065380E+01 0.45614490286E+01
 0.47701159780E+01 0.51934513527E+01 0.58134087842E+01 0.65809401798E+01 0.74442019320E+01
 0.76216772986E+01 0.85903225111E+01 0.93334934987E+01 0.95788527347E+01 0.92126458239E+01
 0.83963669969E+01 0.74417940145E+01 0.65750502327E+01 0.58522335541E+01 0.52587936796E+01
 0.47925850578E+01 0.44828100689E+01 0.43326467164E+01 0.42959734762E+01 0.43326663242E+01
 0.44564517216E+01 0.47263775890E+01 0.51907636395E+01 0.58409528775E+01 0.66637666935E+01
 0.66057893843E+01 0.73712210250E+01 0.79831641036E+01 0.82233041918E+01 0.79820147024E+01
 0.73554093445E+01 0.65777504085E+01 0.58522335541E+01 0.52584782777E+01 0.47939733492E+01
 0.44515839690E+01 0.42395890555E+01 0.41464484706E+01 0.41377613479E+01 0.41811321659E+01
 0.42753111783E+01 0.44549670837E+01 0.47677233304E+01 0.52430464017E+01 0.58691519422E+01
 0.58009008238E+01 0.62965697413E+01 0.66983189072E+01 0.68841286407E+01 0.67647122181E+01
 0.63633888388E+01 0.58114619854E+01 0.52587936796E+01 0.47939733492E+01 0.44435004415E+01
 0.42052942438E+01 0.40675368109E+01 0.40150362332E+01 0.40271068028E+01 0.40840103787E+01
 0.41807409621E+01 0.43320640500E+01 0.45618770228E+01 0.48875132989E+01 0.53092908435E+01
 0.53561354970E+01 0.56349634207E+01 0.58455913730E+01 0.59289465347E+01 0.58379792561E+01
 0.55725750279E+01 0.51928589949E+01 0.47925850578E+01 0.44515839690E+01 0.42052942438E+01
 0.40496258424E+01 0.39657674283E+01 0.39387700998E+01 0.39606410119E+01 0.40272275660E+01
 0.41380776954E+01 0.42970045065E+01 0.45074978637E+01 0.47652917790E+01 0.50557205997E+01
 0.52455561431E+01 0.53844432382E+01 0.54438754676E+01 0.54097755539E+01 0.52756827518E+01
 0.50513487745E+01 0.47699600583E+01 0.44828100689E+01 0.42395890555E+01 0.40675368109E+01
 0.39657674283E+01 0.39176729377E+01 0.39092186115E+01 0.39389696132E+01 0.40154339260E+01
 0.41471508075E+01 0.43336244644E+01 0.45618770228E+01 0.48086748018E+01 0.50457978808E+01
 0.54081264028E+01 0.54456848789E+01 0.53891462535E+01 0.52508432989E+01 0.50493517716E+01
 0.48097369609E+01 0.45612887530E+01 0.43326467164E+01 0.41464484706E+01 0.40150362332E+01
 0.39387700998E+01 0.39092186115E+01 0.39178486649E+01 0.39659829007E+01 0.40676411484E+01
 0.42393943780E+01 0.44818845368E+01 0.47677233304E+01 0.50477818283E+01 0.52720206208E+01
 0.59336281631E+01 0.58517030117E+01 0.56398285829E+01 0.53577765412E+01 0.50542570359E+01
 0.47625448666E+01 0.45053065380E+01 0.42959734762E+01 0.41377613479E+01 0.40271068028E+01
 0.39606410119E+01 0.39389696132E+01 0.39659829007E+01 0.40494609550E+01 0.42044549077E+01
 0.44500102366E+01 0.47904516133E+01 0.51907636395E+01 0.55717242542E+01 0.58397272126E+01
 0.68895455839E+01 0.67008583876E+01 0.62951182250E+01 0.57965495808E+01 0.53046629514E+01
 0.48848203151E+01 0.45614490286E+01 0.43326663242E+01 0.41811321659E+01 0.40840103787E+01
 0.40272275660E+01 0.40154339260E+01 0.40676411484E+01 0.42044549077E+01 0.44417949026E+01
 0.47923278520E+01 0.52584630311E+01 0.58134087842E+01 0.63678071073E+01 0.67706629581E+01
 0.82227321748E+01 0.79788233010E+01 0.73650230100E+01 0.66005633959E+01 0.58670638293E+01
 0.52441681912E+01 0.47701159780E+01 0.44564517216E+01 0.42753111783E+01 0.41807409621E+01
 0.41380776954E+01 0.41471508075E+01 0.42393943780E+01 0.44500102366E+01 0.47923278520E+01
 0.52589244032E+01 0.58559089881E+01 0.65837549686E+01 0.73613644235E+01 0.79854281681E+01
 0.95727299236E+01 0.93270579395E+01 0.85858552051E+01 0.76206493705E+01 0.66661796394E+01
 0.58449019546E+01 0.51934513527E+01 0.47263775890E+01 0.44549670837E+01 0.43320640500E+01
 0.42970045065E+01 0.43336244644E+01 0.44818845368E+01 0.47904516133E+01 0.52584630311E+01
 0.58559089881E+01 0.65815733307E+01 0.74474192347E+01 0.83978492494E+01 0.92094236544E+01
 0.10581419155E+02 0.10241212093E+02 0.93969764106E+01 0.83947103221E+01 0.74474192347E+01
 0.65837549686E+01 0.58134087842E+01 0.51907636395E+01 0.47677233304E+01 0.45618770228E+01
 0.45074978637E+01 0.45618770228E+01 0.47677233304E+01 0.51907636395E+01 0.58134087842E+01
 0.65837549686E+01 0.74474192347E+01 0.83947103221E+01 0.93969764106E+01 0.10241212093E+02
 0.11312872655E+02 0.10734315481E+02 0.96666785715E+01 0.86399248517E+01 0.79034443889E+01
 0.72876664262E+01 0.65809401798E+01 0.58409528775E+01 0.52430464017E+01 0.48875132989E+01
 0.47652917790E+01 0.48086748018E+01 0.50477818283E+01 0.55717242542E+01 0.63678071073E+01
 0.73613644235E+01 0.83978492494E+01 0.93969764106E+01 0.10359075050E+02 0.11120558758E+02
 0.11982280079E+02 0.11280657953E+02 0.99654050774E+01 0.87727840114E+01 0.81687044802E+01
 0.79028413901E+01 0.74442019320E+01 0.66637666935E+01 0.58691519422E+01 0.53092908435E+01
 0.50557205997E+01 0.50457978808E+01 0.52720206208E+01 0.58397272126E+01 0.67706629581E+01
 0.79854281681E+01 0.92094236544E+01 0.10241212093E+02 0.11120558758E+02 0.11818861361E+02
 0.12278361970E+02 0.11804136726E+02 0.10425944442E+02 0.87767780373E+01 0.76310151086E+01
 0.71880528617E+01 0.69961922761E+01 0.65820356690E+01 0.59450012219E+01 0.53585275409E+01
 0.49944261222E+01 0.48817482456E+01 0.49617682485E+01 0.52747612189E+01 0.59244502534E+01
 0.69188246205E+01 0.82046105627E+01 0.95727299236E+01 0.10832044375E+02 0.11832229187E+02
 0.11804136726E+02 0.11971687436E+02 0.11280973927E+02 0.99738979206E+01 0.87817222060E+01
 0.81743326598E+01 0.79072725551E+01 0.74493139866E+01 0.66670067525E+01 0.58674154648E+01