   1   1   0   0
  0.1796850E+02  0.2857884E-09  0.2857884E-09  0.2857884E-09  0.5000000E-15
  1.000000000000000E-004
  CAR 
 BCC W                                   
     25.83733749     -4.17265449  301      6.27774546      1.00000000
     -4.173  0.0000E+00  0.0000E+00
     -4.073  0.0000E+00  0.0000E+00
     -3.973  0.0000E+00  0.0000E+00
     -3.873 -0.1215E-31 -0.1216E-32
     -3.773 -0.4387E-28 -0.4389E-29
     -3.672 -0.9563E-25 -0.9571E-26
     -3.572 -0.1258E-21 -0.1260E-22
     -3.472 -0.9985E-19 -0.1000E-19
     -3.372 -0.4774E-16 -0.4786E-17
     -3.272 -0.1329E-13 -0.1334E-14
     -3.172 -0.2281E-11 -0.2295E-12
     -3.072 -0.2341E-09 -0.2365E-10
     -2.972 -0.1429E-07 -0.1454E-08
     -2.872 -0.5152E-06 -0.5299E-07
     -2.772 -0.1082E-04 -0.1135E-05
     -2.672 -0.1291E-03 -0.1405E-04
     -2.572 -0.8269E-03 -0.9677E-04
     -2.472 -0.2366E-02 -0.3334E-03
     -2.372  0.3388E-03 -0.2995E-03
     -2.272  0.1858E-01  0.1559E-02
     -2.172  0.4333E-01  0.5893E-02
     -2.072  0.4106E-01  0.1000E-01
     -1.972  0.1949E-01  0.1195E-01
     -1.872  0.2637E-01  0.1459E-01
     -1.772  0.5359E-01  0.1995E-01
     -1.672  0.4683E-01  0.2463E-01
     -1.572  0.3472E-01  0.2811E-01
     -1.472  0.1015E+00  0.3826E-01
     -1.372  0.1883E+00  0.5710E-01
     -1.272  0.1556E+00  0.7266E-01
     -1.172  0.4828E-01  0.7749E-01
     -1.072 -0.1149E-01  0.7634E-01
     -0.972 -0.2009E-01  0.7434E-01
     -0.872  0.1397E-01  0.7573E-01
     -0.772  0.1234E+00  0.8808E-01
     -0.671  0.2259E+00  0.1107E+00
     -0.571  0.1905E+00  0.1297E+00
     -0.471  0.1206E+00  0.1418E+00
     -0.371  0.1557E+00  0.1574E+00
     -0.271  0.2100E+00  0.1784E+00
     -0.171  0.2234E+00  0.2007E+00
     -0.071  0.2007E+00  0.2208E+00
      0.029  0.1096E+00  0.2318E+00
      0.129  0.1040E-01  0.2328E+00
      0.229 -0.3525E-01  0.2293E+00
      0.329 -0.1253E-01  0.2280E+00
      0.429  0.1709E+00  0.2451E+00
      0.529  0.4649E+00  0.2916E+00
      0.629  0.5255E+00  0.3442E+00
      0.729  0.3653E+00  0.3807E+00
      0.829  0.4112E+00  0.4219E+00
      0.929  0.5833E+00  0.4802E+00
      1.029  0.5780E+00  0.5380E+00
      1.129  0.4833E+00  0.5864E+00
      1.229  0.3242E+00  0.6188E+00
      1.329  0.1696E+00  0.6358E+00
      1.429  0.3905E+00  0.6749E+00
      1.529  0.9662E+00  0.7715E+00
      1.629  0.1312E+01  0.9027E+00
      1.729  0.1204E+01  0.1023E+01
      1.829  0.9833E+00  0.1122E+01
      1.929  0.7819E+00  0.1200E+01
      2.029  0.5047E+00  0.1250E+01
      2.129  0.3746E+00  0.1288E+01
      2.229  0.7897E+00  0.1367E+01
      2.330  0.1536E+01  0.1520E+01
      2.430  0.1741E+01  0.1695E+01
      2.530  0.1318E+01  0.1826E+01
      2.630  0.1015E+01  0.1928E+01
      2.730  0.8604E+00  0.2014E+01
      2.830  0.5014E+00  0.2064E+01
      2.930  0.1619E+00  0.2080E+01
      3.030  0.1940E+00  0.2100E+01
      3.130  0.5137E+00  0.2151E+01
      3.230  0.7447E+00  0.2226E+01
      3.330  0.8112E+00  0.2307E+01
      3.430  0.9679E+00  0.2404E+01
      3.530  0.1366E+01  0.2540E+01
      3.630  0.2015E+01  0.2742E+01
      3.730  0.2493E+01  0.2991E+01
      3.830  0.2260E+01  0.3217E+01
      3.930  0.1588E+01  0.3376E+01
      4.030  0.1143E+01  0.3491E+01
      4.130  0.1269E+01  0.3617E+01
      4.230  0.1682E+01  0.3786E+01
      4.330  0.1769E+01  0.3963E+01
      4.430  0.1543E+01  0.4117E+01
      4.530  0.1650E+01  0.4282E+01
      4.630  0.2055E+01  0.4488E+01
      4.730  0.2027E+01  0.4690E+01
      4.830  0.1642E+01  0.4855E+01
      4.930  0.1461E+01  0.5001E+01
      5.030  0.1434E+01  0.5144E+01
      5.130  0.1211E+01  0.5265E+01
      5.230  0.9055E+00  0.5356E+01
      5.331  0.8110E+00  0.5437E+01
      5.431  0.8020E+00  0.5517E+01
      5.531  0.6770E+00  0.5585E+01
      5.631  0.4964E+00  0.5635E+01
      5.731  0.3634E+00  0.5671E+01
      5.831  0.3685E+00  0.5708E+01
      5.931  0.5193E+00  0.5760E+01
      6.031  0.6519E+00  0.5825E+01
      6.131  0.7082E+00  0.5896E+01
      6.231  0.7340E+00  0.5969E+01
      6.331  0.5898E+00  0.6028E+01
      6.431  0.4034E+00  0.6069E+01
      6.531  0.4779E+00  0.6116E+01
      6.631  0.5543E+00  0.6172E+01
      6.731  0.3250E+00  0.6204E+01
      6.831  0.1430E+00  0.6219E+01
      6.931  0.4408E+00  0.6263E+01
      7.031  0.9792E+00  0.6361E+01
      7.131  0.1221E+01  0.6483E+01
      7.231  0.1094E+01  0.6592E+01
      7.331  0.9095E+00  0.6683E+01
      7.431  0.9075E+00  0.6774E+01
      7.531  0.1011E+01  0.6875E+01
      7.631  0.1095E+01  0.6985E+01
      7.731  0.1198E+01  0.7105E+01
      7.831  0.1371E+01  0.7242E+01
      7.931  0.1589E+01  0.7401E+01
      8.031  0.1640E+01  0.7565E+01
      8.131  0.1551E+01  0.7720E+01
      8.231  0.1474E+01  0.7867E+01
      8.332  0.1302E+01  0.7997E+01
      8.432  0.1053E+01  0.8103E+01
      8.532  0.1086E+01  0.8211E+01
      8.632  0.1374E+01  0.8349E+01
      8.732  0.1622E+01  0.8511E+01
      8.832  0.2079E+01  0.8719E+01
      8.932  0.2645E+01  0.8984E+01
      9.032  0.2795E+01  0.9263E+01
      9.132  0.2676E+01  0.9531E+01
      9.232  0.2489E+01  0.9780E+01
      9.332  0.2003E+01  0.9980E+01
      9.432  0.1368E+01  0.1012E+02
      9.532  0.9464E+00  0.1021E+02
      9.632  0.6987E+00  0.1028E+02
      9.732  0.4903E+00  0.1033E+02
      9.832  0.3191E+00  0.1036E+02
      9.932  0.2296E+00  0.1039E+02
     10.032  0.2433E+00  0.1041E+02
     10.132  0.3249E+00  0.1044E+02
     10.232  0.3970E+00  0.1048E+02
     10.332  0.3464E+00  0.1052E+02
     10.432  0.2371E+00  0.1054E+02
     10.532  0.2235E+00  0.1056E+02
     10.632  0.2791E+00  0.1059E+02
     10.732  0.3452E+00  0.1063E+02
     10.832  0.3608E+00  0.1066E+02
     10.932  0.4373E+00  0.1071E+02
     11.032  0.8212E+00  0.1079E+02
     11.132  0.1226E+01  0.1091E+02
     11.232  0.1166E+01  0.1103E+02
     11.333  0.7884E+00  0.1111E+02
     11.433  0.4917E+00  0.1115E+02
     11.533  0.3149E+00  0.1119E+02
     11.633  0.2222E+00  0.1121E+02
     11.733  0.2206E+00  0.1123E+02
     11.833  0.2561E+00  0.1126E+02
     11.933  0.2586E+00  0.1128E+02
     12.033  0.1966E+00  0.1130E+02
     12.133  0.1735E+00  0.1132E+02
     12.233  0.2495E+00  0.1134E+02
     12.333  0.2999E+00  0.1137E+02
     12.433  0.2166E+00  0.1140E+02
     12.533  0.7251E-01  0.1140E+02
     12.633  0.3717E-01  0.1141E+02
     12.733  0.1748E+00  0.1142E+02
     12.833  0.3788E+00  0.1146E+02
     12.933  0.4613E+00  0.1151E+02
     13.033  0.3567E+00  0.1154E+02
     13.133  0.2815E+00  0.1157E+02
     13.233  0.4815E+00  0.1162E+02
     13.333  0.8772E+00  0.1171E+02
     13.433  0.9929E+00  0.1181E+02
     13.533  0.6089E+00  0.1187E+02
     13.633  0.1798E+00  0.1189E+02
     13.733  0.5831E-01  0.1189E+02
     13.833  0.1349E+00  0.1191E+02
     13.933  0.1776E+00  0.1192E+02
     14.033  0.1174E+00  0.1193E+02
     14.133  0.1036E+00  0.1195E+02
     14.233  0.1641E+00  0.1196E+02
     14.334  0.1470E+00  0.1198E+02
     14.434  0.9825E-01  0.1199E+02
     14.534  0.1667E+00  0.1200E+02
     14.634  0.3272E+00  0.1204E+02
     14.734  0.6846E+00  0.1210E+02
     14.834  0.1269E+01  0.1223E+02
     14.934  0.1487E+01  0.1238E+02
     15.034  0.1096E+01  0.1249E+02
     15.134  0.6600E+00  0.1256E+02
     15.234  0.4462E+00  0.1260E+02
     15.334  0.2651E+00  0.1263E+02
     15.434  0.1275E+00  0.1264E+02
     15.534  0.1348E+00  0.1265E+02
     15.634  0.1375E+00  0.1267E+02
     15.734  0.1055E+00  0.1268E+02
     15.834  0.3031E+00  0.1271E+02
     15.934  0.6621E+00  0.1277E+02
     16.034  0.6923E+00  0.1284E+02
     16.134  0.3785E+00  0.1288E+02
     16.234  0.1449E+00  0.1290E+02
     16.334  0.5289E-01  0.1290E+02
     16.434 -0.3542E-02  0.1290E+02
     16.534  0.8335E-01  0.1291E+02
     16.634  0.3679E+00  0.1295E+02
     16.734  0.5620E+00  0.1300E+02
     16.834  0.4954E+00  0.1305E+02
     16.934  0.4574E+00  0.1310E+02
     17.034  0.5812E+00  0.1316E+02
     17.134  0.6957E+00  0.1322E+02
     17.234  0.6411E+00  0.1329E+02
     17.335  0.4753E+00  0.1334E+02
     17.435  0.4769E+00  0.1338E+02
     17.535  0.5912E+00  0.1344E+02
     17.635  0.5645E+00  0.1350E+02
     17.735  0.4630E+00  0.1355E+02
     17.835  0.3038E+00  0.1358E+02
     17.935  0.8198E-01  0.1358E+02
     18.035 -0.2302E-01  0.1358E+02
     18.135  0.1048E+00  0.1359E+02
     18.235  0.3857E+00  0.1363E+02
     18.335  0.5205E+00  0.1368E+02
     18.435  0.4046E+00  0.1372E+02
     18.535  0.3435E+00  0.1376E+02
     18.635  0.5383E+00  0.1381E+02
     18.735  0.9123E+00  0.1390E+02
     18.835  0.1127E+01  0.1402E+02
     18.935  0.8836E+00  0.1410E+02
     19.035  0.6804E+00  0.1417E+02
     19.135  0.1012E+01  0.1427E+02
     19.235  0.1313E+01  0.1441E+02
     19.335  0.9872E+00  0.1450E+02
     19.435  0.3515E+00  0.1454E+02
     19.535 -0.1066E-01  0.1454E+02
     19.635  0.6226E-01  0.1454E+02
     19.735  0.4093E+00  0.1459E+02
     19.835  0.6896E+00  0.1465E+02
     19.935  0.6788E+00  0.1472E+02
     20.035  0.5202E+00  0.1477E+02
     20.135  0.3802E+00  0.1481E+02
     20.235  0.4263E+00  0.1485E+02
     20.336  0.7247E+00  0.1493E+02
     20.436  0.9218E+00  0.1502E+02
     20.536  0.8113E+00  0.1510E+02
     20.636  0.5605E+00  0.1516E+02
     20.736  0.3344E+00  0.1519E+02
     20.836  0.2252E+00  0.1521E+02
     20.936  0.1684E+00  0.1523E+02
     21.036  0.7154E-01  0.1524E+02
     21.136 -0.1059E-01  0.1524E+02
     21.236 -0.3063E-01  0.1523E+02
     21.336  0.2556E-01  0.1524E+02
     21.436  0.2242E+00  0.1526E+02
     21.536  0.5993E+00  0.1532E+02
     21.636  0.9394E+00  0.1541E+02
     21.736  0.9671E+00  0.1551E+02
     21.836  0.8115E+00  0.1559E+02
     21.936  0.6441E+00  0.1565E+02
     22.036  0.4040E+00  0.1569E+02
     22.136  0.1511E+00  0.1571E+02
     22.236  0.2239E-01  0.1571E+02
     22.336  0.1996E-01  0.1571E+02
     22.436  0.1213E+00  0.1573E+02
     22.536  0.3625E+00  0.1576E+02
     22.636  0.5848E+00  0.1582E+02
     22.736  0.5626E+00  0.1588E+02
     22.836  0.3622E+00  0.1591E+02
     22.936  0.1531E+00  0.1593E+02
     23.036  0.3563E-01  0.1593E+02
     23.136  0.2724E-01  0.1593E+02
     23.236  0.8693E-01  0.1594E+02
     23.337  0.1741E+00  0.1596E+02
     23.437  0.1858E+00  0.1598E+02
     23.537  0.8927E-01  0.1599E+02
     23.637  0.8198E-02  0.1599E+02
     23.737  0.8351E-02  0.1599E+02
     23.837  0.4007E-01  0.1599E+02
     23.937  0.4379E-01  0.1600E+02
     24.037  0.1870E-01  0.1600E+02
     24.137  0.3520E-03  0.1600E+02
     24.237 -0.2365E-02  0.1600E+02
     24.337 -0.8269E-03  0.1600E+02
     24.437 -0.1291E-03  0.1600E+02
     24.537 -0.1082E-04  0.1600E+02
     24.637 -0.5152E-06  0.1600E+02
     24.737 -0.1429E-07  0.1600E+02
     24.837 -0.2341E-09  0.1600E+02
     24.937 -0.2281E-11  0.1600E+02
     25.037 -0.1329E-13  0.1600E+02
     25.137 -0.5327E-16  0.1600E+02
     25.237  0.0000E+00  0.1600E+02
     25.337  0.0000E+00  0.1600E+02
     25.437  0.0000E+00  0.1600E+02
     25.537  0.0000E+00  0.1600E+02
     25.637  0.0000E+00  0.1600E+02
     25.737  0.0000E+00  0.1600E+02
     25.837  0.0000E+00  0.1600E+02
