    1    1    1    1
  0.1796850E+02  0.2857884E-09  0.2857884E-09  0.2857884E-09  0.5000000E-15
  1.000000000000000E-004
  CAR 
 BCC W                                   
      6     44      8
 
  0.5000000E-01  0.5000000E-01  0.5000000E-01  0.8000000E-02
    1       -1.777965   1.000000
    2        5.082604   1.000000
    3        5.082604   1.000000
    4        6.057043   1.032803
    5        8.117791  -0.000000
    6        8.117791  -0.000000
    7       21.732749   0.000000
    8       22.319036   0.000000
 
  0.1500000E+00  0.5000000E-01  0.5000000E-01  0.2400000E-01
    1       -0.705599   1.000000
    2        4.515283   1.000000
    3        4.737758   1.000000
    4        7.297750  -0.000000
    5        7.829020  -0.000000
    6        8.332277  -0.000000
    7       21.885486   0.000000
    8       22.594068   0.000000
 
  0.2500000E+00  0.5000000E-01  0.5000000E-01  0.2400000E-01
    1        0.563165   1.000000
    2        3.940981   1.000000
    3        4.607196   1.000000
    4        7.970116  -0.000000
    5        8.584674  -0.000000
    6        9.093746  -0.000000
    7       19.877521   0.000000
    8       20.322112   0.000000
 
  0.3500000E+00  0.5000000E-01  0.5000000E-01  0.2400000E-01
    1        1.140819   1.000000
    2        3.541469   1.000000
    3        5.582284   1.000005
    4        8.237823  -0.000000
    5        8.839095  -0.000000
    6       10.998222  -0.000000
    7       16.715721   0.000000
    8       18.798463   0.000000
 
  0.4500000E+00  0.5000000E-01  0.5000000E-01  0.1200000E-01
    1        1.185826   1.000000
    2        3.398694   1.000000
    3        6.581927  -0.026710
    4        8.217417  -0.000000
    5        8.955741  -0.000000
    6       11.966109   0.000000
    7       15.246963   0.000000
    8       18.209495   0.000000
 
 -0.5000000E-01  0.5000000E-01  0.5000000E-01  0.6000000E-02
    1       -2.172654   1.000000
    2        5.341219   1.000000
    3        5.341730   1.000000
    4        5.454506   1.000000
    5        8.012501  -0.000000
    6        8.394771  -0.000000
    7       21.581383   0.000000
    8       21.675795   0.000000
 
  0.1500000E+00  0.1500000E+00  0.5000000E-01  0.2400000E-01
    1        0.512582   1.000000
    2        4.114105   1.000000
    3        4.137633   1.000000
    4        7.880829  -0.000000
    5        8.596487  -0.000000
    6        9.056305  -0.000000
    7       20.641896   0.000000
    8       21.797473   0.000000
 
  0.2500000E+00  0.1500000E+00  0.5000000E-01  0.4800000E-01
    1        1.605335   1.000000
    2        3.670294   1.000000
    3        4.311813   1.000000
    4        8.114258  -0.000000
    5        8.850612  -0.000000
    6       11.143940  -0.000000
    7       17.476611   0.000000
    8       20.036954   0.000000
 
  0.3500000E+00  0.1500000E+00  0.5000000E-01  0.4800000E-01
    1        1.832279   1.000000
    2        3.461293   1.000000
    3        5.377067   1.000000
    4        8.322587  -0.000000
    5        9.022646  -0.000000
    6       12.906292   0.000000
    7       14.825828   0.000000
    8       18.824618   0.000000
 
 -0.1500000E+00  0.1500000E+00  0.5000000E-01  0.2400000E-01
    1       -1.396455   1.000000
    2        4.966388   1.000000
    3        5.210056   1.000000
    4        6.198780   0.807007
    5        7.458934  -0.000000
    6        8.547120  -0.000000
    7       21.997851   0.000000
    8       22.783162   0.000000
 
  0.2500000E+00  0.2500000E+00  0.5000000E-01  0.2400000E-01
    1        2.411029   1.000000
    2        3.653980   1.000000
    3        4.361867   1.000000
    4        8.375323  -0.000000
    5        8.941710  -0.000000
    6       13.341231   0.000000
    7       14.880132   0.000000
    8       18.780615   0.000000
 
  0.3500000E+00  0.2500000E+00  0.5000000E-01  0.2400000E-01
    1        2.548950   1.000000
    2        3.724063   1.000000
    3        4.640918   1.000000
    4        8.575947  -0.000000
    5        8.987627  -0.000000
    6       13.344953   0.000000
    7       14.981259   0.000000
    8       17.514597   0.000000
 
 -0.2500000E+00  0.2500000E+00  0.5000000E-01  0.2400000E-01
    1       -0.130012   1.000000
    2        4.378553   1.000000
    3        4.843942   1.000000
    4        7.434249  -0.000000
    5        7.662343  -0.000000
    6        8.694440  -0.000000
    7       20.850939   0.000000
    8       21.842863   0.000000
 
 -0.1500000E+00  0.2500000E+00  0.5000000E-01  0.2400000E-01
    1       -0.360250   1.000000
    2        4.781792   1.000000
    3        4.784328   1.000000
    4        6.968836  -0.000006
    5        7.232447  -0.000000
    6        8.846094  -0.000000
    7       21.644319   0.000000
    8       22.643346   0.000000
 
 -0.3500000E+00  0.3500000E+00  0.5000000E-01  0.2400000E-01
    1        0.853439   1.000000
    2        3.857483   1.000000
    3        5.106649   1.000000
    4        7.889479  -0.000000
    5        8.874703  -0.000000
    6        9.559153  -0.000000
    7       18.255192   0.000000
    8       19.722272   0.000000
 
 -0.2500000E+00  0.3500000E+00  0.5000000E-01  0.4800000E-01
    1        0.886552   1.000000
    2        4.174071   1.000000
    3        4.576948   1.000000
    4        7.203743  -0.000000
    5        8.827410  -0.000000
    6        9.182666  -0.000000
    7       19.208323   0.000000
    8       21.611369   0.000000
 
 -0.4500000E+00  0.4500000E+00  0.5000000E-01  0.2400000E-01
    1        1.068550   1.000000
    2        3.562160   1.000000
    3        6.230548   0.693675
    4        8.015786  -0.000000
    5        9.278344  -0.000000
    6       11.181679  -0.000000
    7       15.932835   0.000000
    8       18.499871   0.000000
 
 -0.3500000E+00  0.4500000E+00  0.5000000E-01  0.4800000E-01
    1        1.484732   1.000000
    2        3.851317   1.000000
    3        5.004155   1.000000
    4        7.683492  -0.000000
    5        9.199484  -0.000000
    6       11.076385  -0.000000
    7       16.665938   0.000000
    8       19.799981   0.000000
 
 -0.2500000E+00  0.4500000E+00  0.5000000E-01  0.2400000E-01
    1        1.930243   1.000000
    2        3.697722   1.000000
    3        4.605028   1.000000
    4        7.461960  -0.000000
    5        8.912822  -0.000000
    6       11.234281  -0.000000
    7       17.091988   0.000000
    8       20.506333   0.000000
 
 -0.4500000E+00 -0.4500000E+00  0.5000000E-01  0.2400000E-01
    1        1.526050   1.000000
    2        3.744834   1.000000
    3        5.538221   1.000001
    4        7.639166  -0.000000
    5        9.760652  -0.000000
    6       12.200079   0.000000
    7       15.123260   0.000000
    8       19.110329   0.000000
 
 -0.3500000E+00 -0.4500000E+00  0.5000000E-01  0.4800000E-01
    1        2.331163   1.000000
    2        3.723791   1.000000
    3        4.593070   1.000000
    4        7.878407  -0.000000
    5        9.180984  -0.000000
    6       13.422158   0.000000
    7       14.837667   0.000000
    8       18.638827   0.000000
 
 -0.3500000E+00 -0.3500000E+00  0.5000000E-01  0.8000000E-02
    1        2.886480   1.000000
    2        3.890475   1.000000
    3        3.890624   1.000000
    4        8.704409  -0.000000
    5        8.704781  -0.000000
    6       13.630242   0.000000
    7       16.213412   0.000000
    8       16.214066   0.000000
 
  0.1500000E+00  0.1500000E+00  0.1500000E+00  0.8000000E-02
    1        1.839910   1.000000
    2        3.670897   1.000000
    3        3.670897   1.000000
    4        8.548920  -0.000000
    5        8.548920  -0.000000
    6       11.244048  -0.000000
    7       18.288210   0.000000
    8       20.449268   0.000000
 
  0.2500000E+00  0.1500000E+00  0.1500000E+00  0.2400000E-01
    1        2.635172   1.000000
    2        3.440269   1.000000
    3        4.164847   1.000000
    4        8.671118  -0.000000
    5        8.913954  -0.000000
    6       13.323537   0.000000
    7       15.001099   0.000000
    8       19.292611   0.000000
 
  0.3500000E+00  0.1500000E+00  0.1500000E+00  0.1200000E-01
    1        2.612093   1.000000
    2        3.371485   1.000000
    3        4.997367   1.000000
    4        8.723022  -0.000000
    5        9.023409  -0.000000
    6       13.319961   0.000000
    7       14.527852   0.000000
    8       18.856614   0.000000
 
 -0.1500000E+00  0.1500000E+00  0.1500000E+00  0.6000000E-02
    1       -0.653406   1.000000
    2        5.373751   1.000000
    3        5.374230   1.000000
    4        6.207548   0.777721
    5        6.272389   0.522657
    6        8.999035  -0.000000
    7       22.816172   0.000000
    8       23.113237   0.000000
 
  0.2500000E+00  0.2500000E+00  0.1500000E+00  0.2400000E-01
    1        3.116796   1.000000
    2        3.749164   1.000000
    3        4.205065   1.000000
    4        8.914058  -0.000000
    5        9.014042  -0.000000
    6       12.750147   0.000000
    7       15.551350   0.000000
    8       17.723270   0.000000
 
 -0.2500000E+00  0.2500000E+00  0.1500000E+00  0.2400000E-01
    1        0.560450   1.000000
    2        4.783156   1.000000
    3        5.072066   1.000000
    4        6.237116   0.668046
    5        7.451722  -0.000000
    6        9.181494  -0.000000
    7       20.393404   0.000000
    8       23.354043   0.000000
 
 -0.3500000E+00  0.3500000E+00  0.1500000E+00  0.2400000E-01
    1        1.545430   1.000000
    2        4.294320   1.000000
    3        4.625793   1.000000
    4        6.984667  -0.000003
    5        9.344974  -0.000000
    6        9.426839  -0.000000
    7       18.303898   0.000000
    8       21.581239   0.000000
 
 -0.2500000E+00  0.3500000E+00  0.1500000E+00  0.2400000E-01
    1        1.676592   1.000000
    2        3.950559   1.000000
    3        5.250950   1.000000
    4        6.478860  -0.025696
    5        8.581765  -0.000000
    6        9.492773  -0.000000
    7       19.109457   0.000000
    8       22.548132   0.000000
 
 -0.4500000E+00  0.4500000E+00  0.1500000E+00  0.2400000E-01
    1        1.732307   1.000000
    2        4.360747   1.000000
    3        4.689756   1.000000
    4        6.975091  -0.000005
    5       10.755513  -0.000000
    6       11.017832  -0.000000
    7       15.887888   0.000000
    8       20.542613   0.000000
 
 -0.3500000E+00  0.4500000E+00  0.1500000E+00  0.4800000E-01
    1        2.312192   1.000000
    2        3.622288   1.000000
    3        4.920525   1.000000
    4        7.071749  -0.000000
    5        9.345655  -0.000000
    6       11.401432  -0.000000
    7       16.937642   0.000000
    8       20.328655   0.000000
 
 -0.4500000E+00 -0.4500000E+00  0.1500000E+00  0.2400000E-01
    1        2.306723   1.000000
    2        3.999936   1.000000
    3        4.503919   1.000000
    4        7.088751  -0.000000
    5       10.274212  -0.000000
    6       13.145209   0.000000
    7       14.844854   0.000000
    8       19.066422   0.000000
 
 -0.3500000E+00 -0.4500000E+00  0.1500000E+00  0.2400000E-01
    1        3.119041   1.000000
    2        3.172505   1.000000
    3        4.261032   1.000000
    4        8.182223  -0.000000
    5        9.241784  -0.000000
    6       13.870086   0.000000
    7       15.210548   0.000000
    8       17.720835   0.000000
 
  0.2500000E+00  0.2500000E+00  0.2500000E+00  0.2000000E-02
    1        3.812238   1.000000
    2        3.812238   1.000000
    3        3.812674   1.000000
    4        9.068458  -0.000000
    5        9.068458  -0.000000
    6       11.967029   0.000000
    7       17.383557   0.000000
    8       17.384042   0.000000
 
 -0.2500000E+00  0.2500000E+00  0.2500000E+00  0.6000000E-02
    1        1.596142   1.000000
    2        4.172539   1.000000
    3        5.981382   1.028454
    4        5.981827   1.028551
    5        7.585499  -0.000000
    6        9.235268  -0.000000
    7       20.193666   0.000000
    8       23.837337   0.000000
 
 -0.3500000E+00  0.3500000E+00  0.2500000E+00  0.2400000E-01
    1        2.359783   1.000000
    2        3.322050   1.000000
    3        6.036006   1.035417
    4        6.612393  -0.019728
    5        9.077000  -0.000000
    6        9.669299  -0.000000
    7       19.192935   0.000000
    8       21.435950   0.000000
 
 -0.4500000E+00  0.4500000E+00  0.2500000E+00  0.2400000E-01
    1        2.363731   1.000000
    2        3.247169   1.000000
    3        5.880073   1.008299
    4        6.579206  -0.027325
    5       10.762422  -0.000000
    6       11.842784   0.000000
    7       15.982734   0.000000
    8       19.277559   0.000000
 
 -0.3500000E+00  0.4500000E+00  0.2500000E+00  0.2400000E-01
    1        2.642637   1.000000
    2        2.693379   1.000000
    3        5.957457   1.022999
    4        7.718218  -0.000000
    5        9.521295  -0.000000
    6       11.641195  -0.000000
    7       17.216470   0.000000
    8       18.811984   0.000000
 
 -0.4500000E+00 -0.4500000E+00  0.2500000E+00  0.2400000E-01
    1        2.438378   1.000000
    2        2.738669   1.000000
    3        5.731465   1.000387
    4        8.203202  -0.000000
    5       10.192434  -0.000000
    6       14.220519   0.000000
    7       14.600694   0.000000
    8       17.216448   0.000000
 
 -0.3500000E+00  0.3500000E+00  0.3500000E+00  0.6000000E-02
    1        2.434686   1.000000
    2        2.528190   1.000000
    3        7.536179  -0.000000
    4        7.536683  -0.000000
    5        9.243361  -0.000000
    6       10.124885  -0.000000
    7       19.162662   0.000000
    8       19.163092   0.000000
 
 -0.4500000E+00  0.4500000E+00  0.3500000E+00  0.2400000E-01
    1        2.078395   1.000000
    2        2.223361   1.000000
    3        7.940438  -0.000000
    4        8.049985  -0.000000
    5       10.530385  -0.000000
    6       12.350446   0.000000
    7       15.940984   0.000000
    8       17.101361   0.000000
 
 -0.4500000E+00 -0.4500000E+00  0.3500000E+00  0.8000000E-02
    1        1.932144   1.000000
    2        1.932148   1.000000
    3        7.952890  -0.000000
    4       10.012944  -0.000000
    5       10.013760  -0.000000
    6       14.614969   0.000000
    7       14.798360   0.000000
    8       14.798583   0.000000
 
 -0.4500000E+00  0.4500000E+00  0.4500000E+00  0.6000000E-02
    1        1.655145   1.000000
    2        1.694647   1.000000
    3        9.935740  -0.000000
    4        9.936365  -0.000000
    5       10.503672  -0.000000
    6       13.137668   0.000000
    7       14.947907   0.000000
    8       14.948055   0.000000
