 running on    4 total cores
 distrk:  each k-point on    4 cores,    1 groups
 distr:  one band on    1 cores,    4 groups
 using from now: INCAR     
 vasp.5.4.4.18Apr17-6-g9f103f2a35 (build Jul 01 2019 03:25:34) complex          
  
 POSCAR found type information on POSCAR  W 
 POSCAR found :  1 types and       1 ions
 scaLAPACK will be used
 LDA part: xc-table for Ceperly-Alder, standard interpolation
 POSCAR, INCAR and KPOINTS ok, starting setup
 FFT: planning ...
 WAVECAR not read
 entering main loop
       N       E                     dE             d eps       ncg     rms          rms(c)
DAV:   1    -0.118824120079E+02   -0.11882E+02   -0.17854E+03  1040   0.286E+02
DAV:   2    -0.146846857662E+02   -0.28023E+01   -0.26720E+01   752   0.430E+01
DAV:   3    -0.146952755933E+02   -0.10590E-01   -0.10585E-01  1008   0.260E+00
DAV:   4    -0.146952806875E+02   -0.50942E-05   -0.50949E-05   832   0.372E-02
DAV:   5    -0.146952806938E+02   -0.62861E-08   -0.61630E-08   792   0.110E-03    0.443E+00
DAV:   6    -0.140345940037E+02    0.66069E+00   -0.72800E-01   768   0.492E+00    0.220E+00
DAV:   7    -0.138331723388E+02    0.20142E+00   -0.68388E-01   808   0.468E+00    0.289E-01
DAV:   8    -0.138339982713E+02   -0.82593E-03   -0.33776E-02   808   0.112E+00    0.286E-01
DAV:   9    -0.138302998182E+02    0.36985E-02   -0.13711E-02   776   0.679E-01    0.140E-02
DAV:  10    -0.138303041236E+02   -0.43053E-05   -0.76603E-05   520   0.738E-02
   1 F= -.13830304E+02 E0= -.13830171E+02  d E =-.398101E-03
 writing wavefunctions
