<?xml version="1.0" encoding="ISO-8859-1"?>
<modeling>
 <generator>
  <i name="program" type="string">vasp </i>
  <i name="version" type="string">5.4.4.18Apr17-6-g9f103f2a35  </i>
  <i name="subversion" type="string">(build Jul 01 2019 03:25:34) complex            parallel </i>
  <i name="platform" type="string">LinuxIFC </i>
  <i name="date" type="string">2020 07 08 </i>
  <i name="time" type="string">19:51:38 </i>
 </generator>
 <incar>
  <i type="string" name="SYSTEM"> BCC W</i>
  <i type="string" name="PREC">normal</i>
  <i name="EDIFF">      0.00010000</i>
  <i name="ENCUT">    224.00000000</i>
  <v type="int" name="KPOINT_BSE">    -1     0     0     0</v>
 </incar>
 <structure name="primitive_cell" >
  <crystal>
   <varray name="basis" >
    <v>      -1.65000000       1.65000000       1.65000000 </v>
    <v>       1.65000000      -1.65000000       1.65000000 </v>
    <v>       1.65000000       1.65000000      -1.65000000 </v>
   </varray>
   <i name="volume">     17.96850000 </i>
   <varray name="rec_basis" >
    <v>       0.00000000       0.30303030       0.30303030 </v>
    <v>       0.30303030       0.00000000       0.30303030 </v>
    <v>       0.30303030       0.30303030       0.00000000 </v>
   </varray>
  </crystal>
  <varray name="positions" >
   <v>       0.00000000       0.00000000       0.00000000 </v>
  </varray>
 </structure>
 <varray name="primitive_index" >
  <v type="int" >        1 </v>
 </varray>
 <kpoints>
  <generation param="Monkhorst-Pack">
   <v type="int" name="divisions">      10       10       10 </v>
   <v name="usershift">      0.00000000       0.00000000       0.00000000 </v>
   <v name="genvec1">      0.10000000       0.00000000       0.00000000 </v>
   <v name="genvec2">      0.00000000       0.10000000       0.00000000 </v>
   <v name="genvec3">      0.00000000       0.00000000       0.10000000 </v>
   <v name="shift">      0.50000000       0.50000000       0.50000000 </v>
  </generation>
  <varray name="kpointlist" >
   <v>       0.05000000       0.05000000       0.05000000 </v>
   <v>       0.15000000       0.05000000       0.05000000 </v>
   <v>       0.25000000       0.05000000       0.05000000 </v>
   <v>       0.35000000       0.05000000       0.05000000 </v>
   <v>       0.45000000       0.05000000       0.05000000 </v>
   <v>      -0.05000000       0.05000000       0.05000000 </v>
   <v>       0.15000000       0.15000000       0.05000000 </v>
   <v>       0.25000000       0.15000000       0.05000000 </v>
   <v>       0.35000000       0.15000000       0.05000000 </v>
   <v>      -0.15000000       0.15000000       0.05000000 </v>
   <v>       0.25000000       0.25000000       0.05000000 </v>
   <v>       0.35000000       0.25000000       0.05000000 </v>
   <v>      -0.25000000       0.25000000       0.05000000 </v>
   <v>      -0.15000000       0.25000000       0.05000000 </v>
   <v>      -0.35000000       0.35000000       0.05000000 </v>
   <v>      -0.25000000       0.35000000       0.05000000 </v>
   <v>      -0.45000000       0.45000000       0.05000000 </v>
   <v>      -0.35000000       0.45000000       0.05000000 </v>
   <v>      -0.25000000       0.45000000       0.05000000 </v>
   <v>      -0.45000000      -0.45000000       0.05000000 </v>
   <v>      -0.35000000      -0.45000000       0.05000000 </v>
   <v>      -0.35000000      -0.35000000       0.05000000 </v>
   <v>       0.15000000       0.15000000       0.15000000 </v>
   <v>       0.25000000       0.15000000       0.15000000 </v>
   <v>       0.35000000       0.15000000       0.15000000 </v>
   <v>      -0.15000000       0.15000000       0.15000000 </v>
   <v>       0.25000000       0.25000000       0.15000000 </v>
   <v>      -0.25000000       0.25000000       0.15000000 </v>
   <v>      -0.35000000       0.35000000       0.15000000 </v>
   <v>      -0.25000000       0.35000000       0.15000000 </v>
   <v>      -0.45000000       0.45000000       0.15000000 </v>
   <v>      -0.35000000       0.45000000       0.15000000 </v>
   <v>      -0.45000000      -0.45000000       0.15000000 </v>
   <v>      -0.35000000      -0.45000000       0.15000000 </v>
   <v>       0.25000000       0.25000000       0.25000000 </v>
   <v>      -0.25000000       0.25000000       0.25000000 </v>
   <v>      -0.35000000       0.35000000       0.25000000 </v>
   <v>      -0.45000000       0.45000000       0.25000000 </v>
   <v>      -0.35000000       0.45000000       0.25000000 </v>
   <v>      -0.45000000      -0.45000000       0.25000000 </v>
   <v>      -0.35000000       0.35000000       0.35000000 </v>
   <v>      -0.45000000       0.45000000       0.35000000 </v>
   <v>      -0.45000000      -0.45000000       0.35000000 </v>
   <v>      -0.45000000       0.45000000       0.45000000 </v>
  </varray>
  <varray name="weights" >
   <v>       0.00800000 </v>
   <v>       0.02400000 </v>
   <v>       0.02400000 </v>
   <v>       0.02400000 </v>
   <v>       0.01200000 </v>
   <v>       0.00600000 </v>
   <v>       0.02400000 </v>
   <v>       0.04800000 </v>
   <v>       0.04800000 </v>
   <v>       0.02400000 </v>
   <v>       0.02400000 </v>
   <v>       0.02400000 </v>
   <v>       0.02400000 </v>
   <v>       0.02400000 </v>
   <v>       0.02400000 </v>
   <v>       0.04800000 </v>
   <v>       0.02400000 </v>
   <v>       0.04800000 </v>
   <v>       0.02400000 </v>
   <v>       0.02400000 </v>
   <v>       0.04800000 </v>
   <v>       0.00800000 </v>
   <v>       0.00800000 </v>
   <v>       0.02400000 </v>
   <v>       0.01200000 </v>
   <v>       0.00600000 </v>
   <v>       0.02400000 </v>
   <v>       0.02400000 </v>
   <v>       0.02400000 </v>
   <v>       0.02400000 </v>
   <v>       0.02400000 </v>
   <v>       0.04800000 </v>
   <v>       0.02400000 </v>
   <v>       0.02400000 </v>
   <v>       0.00200000 </v>
   <v>       0.00600000 </v>
   <v>       0.02400000 </v>
   <v>       0.02400000 </v>
   <v>       0.02400000 </v>
   <v>       0.02400000 </v>
   <v>       0.00600000 </v>
   <v>       0.02400000 </v>
   <v>       0.00800000 </v>
   <v>       0.00600000 </v>
  </varray>
 </kpoints>
 <parameters>
  <separator name="general" >
   <i type="string" name="SYSTEM">BCC W</i>
   <i type="logical" name="LCOMPAT"> F  </i>
  </separator>
  <separator name="electronic" >
   <i type="string" name="PREC">normal</i>
   <i name="ENMAX">    224.00000000</i>
   <i name="ENAUG">    373.43800000</i>
   <i name="EDIFF">      0.00010000</i>
   <i type="int" name="IALGO">    38</i>
   <i type="int" name="IWAVPR">    10</i>
   <i type="int" name="NBANDS">     8</i>
   <i name="NELECT">      6.00000000</i>
   <i type="int" name="TURBO">     0</i>
   <i type="int" name="IRESTART">     0</i>
   <i type="int" name="NREBOOT">     0</i>
   <i type="int" name="NMIN">     0</i>
   <i name="EREF">      0.00000000</i>
   <separator name="electronic smearing" >
    <i type="int" name="ISMEAR">     1</i>
    <i name="SIGMA">      0.20000000</i>
    <i name="KSPACING">      0.50000000</i>
    <i type="logical" name="KGAMMA"> T  </i>
   </separator>
   <separator name="electronic projectors" >
    <i type="logical" name="LREAL"> F  </i>
    <v name="ROPT">      0.00000000</v>
    <i type="int" name="LMAXPAW">  -100</i>
    <i type="int" name="LMAXMIX">     2</i>
    <i type="logical" name="NLSPLINE"> F  </i>
   </separator>
   <separator name="electronic startup" >
    <i type="int" name="ISTART">     0</i>
    <i type="int" name="ICHARG">     2</i>
    <i type="int" name="INIWAV">     1</i>
   </separator>
   <separator name="electronic spin" >
    <i type="int" name="ISPIN">     1</i>
    <i type="logical" name="LNONCOLLINEAR"> F  </i>
    <v name="MAGMOM">      1.00000000</v>
    <i name="NUPDOWN">     -1.00000000</i>
    <i type="logical" name="LSORBIT"> F  </i>
    <v name="SAXIS">      0.00000000      0.00000000      1.00000000</v>
    <i type="logical" name="LSPIRAL"> F  </i>
    <v name="QSPIRAL">      0.00000000      0.00000000      0.00000000</v>
    <i type="logical" name="LZEROZ"> F  </i>
   </separator>
   <separator name="electronic exchange-correlation" >
    <i type="logical" name="LASPH"> F  </i>
    <i type="logical" name="LMETAGGA"> F  </i>
   </separator>
   <separator name="electronic convergence" >
    <i type="int" name="NELM">    60</i>
    <i type="int" name="NELMDL">    -5</i>
    <i type="int" name="NELMIN">     2</i>
    <i name="ENINI">    224.00000000</i>
    <separator name="electronic convergence detail" >
     <i type="logical" name="LDIAG"> T  </i>
     <i type="logical" name="LSUBROT"> F  </i>
     <i name="WEIMIN">      0.00000000</i>
     <i name="EBREAK">      0.00000313</i>
     <i name="DEPER">      0.30000000</i>
     <i type="int" name="NRMM">     4</i>
     <i name="TIME">      0.40000000</i>
    </separator>
   </separator>
   <separator name="electronic mixer" >
    <i name="AMIX">      0.40000000</i>
    <i name="BMIX">      1.00000000</i>
    <i name="AMIN">      0.10000000</i>
    <i name="AMIX_MAG">      1.60000000</i>
    <i name="BMIX_MAG">      1.00000000</i>
    <separator name="electronic mixer details" >
     <i type="int" name="IMIX">     4</i>
     <i type="logical" name="MIXFIRST"> F  </i>
     <i type="int" name="MAXMIX">   -45</i>
     <i name="WC">    100.00000000</i>
     <i type="int" name="INIMIX">     1</i>
     <i type="int" name="MIXPRE">     1</i>
     <i type="int" name="MREMOVE">     5</i>
    </separator>
   </separator>
   <separator name="electronic dipolcorrection" >
    <i type="logical" name="LDIPOL"> F  </i>
    <i type="logical" name="LMONO"> F  </i>
    <i type="int" name="IDIPOL">     0</i>
    <i name="EPSILON">      1.00000000</i>
    <v name="DIPOL">   -100.00000000   -100.00000000   -100.00000000</v>
    <i name="EFIELD">      0.00000000</i>
   </separator>
  </separator>
  <separator name="grids" >
   <i type="int" name="NGX">    10</i>
   <i type="int" name="NGY">    10</i>
   <i type="int" name="NGZ">    10</i>
   <i type="int" name="NGXF">    20</i>
   <i type="int" name="NGYF">    20</i>
   <i type="int" name="NGZF">    20</i>
   <i type="logical" name="ADDGRID"> F  </i>
  </separator>
  <separator name="ionic" >
   <i type="int" name="NSW">     0</i>
   <i type="int" name="IBRION">    -1</i>
   <i type="int" name="MDALGO">     0</i>
   <i type="int" name="ISIF">     2</i>
   <i name="PSTRESS">      0.00000000</i>
   <i name="EDIFFG">      0.00100000</i>
   <i type="int" name="NFREE">     0</i>
   <i name="POTIM">      0.50000000</i>
   <i name="SMASS">     -3.00000000</i>
   <i name="SCALEE">      1.00000000</i>
  </separator>
  <separator name="ionic md" >
   <i name="TEBEG">      0.00010000</i>
   <i name="TEEND">      0.00010000</i>
   <i type="int" name="NBLOCK">     1</i>
   <i type="int" name="KBLOCK">     1</i>
   <i type="int" name="NPACO">   256</i>
   <i name="APACO">     16.00000000</i>
  </separator>
  <separator name="symmetry" >
   <i type="int" name="ISYM">     2</i>
   <i name="SYMPREC">      0.00001000</i>
  </separator>
  <separator name="dos" >
   <i type="int" name="LORBIT">     0</i>
   <v name="RWIGS">     -1.00000000</v>
   <i type="int" name="NEDOS">   301</i>
   <i name="EMIN">     10.00000000</i>
   <i name="EMAX">    -10.00000000</i>
   <i name="EFERMI">      0.00000000</i>
  </separator>
  <separator name="writing" >
   <i type="int" name="NWRITE">     2</i>
   <i type="logical" name="LWAVE"> T  </i>
   <i type="logical" name="LDOWNSAMPLE"> F  </i>
   <i type="logical" name="LCHARG"> T  </i>
   <i type="logical" name="LPARD"> F  </i>
   <i type="logical" name="LVTOT"> F  </i>
   <i type="logical" name="LVHAR"> F  </i>
   <i type="logical" name="LELF"> F  </i>
   <i type="logical" name="LOPTICS"> F  </i>
   <v name="STM">      0.00000000      0.00000000      0.00000000      0.00000000      0.00000000      0.00000000      0.00000000</v>
  </separator>
  <separator name="performance" >
   <i type="int" name="NPAR">     4</i>
   <i type="int" name="NSIM">     4</i>
   <i type="int" name="NBLK">    -1</i>
   <i type="logical" name="LPLANE"> T  </i>
   <i type="logical" name="LSCALAPACK"> T  </i>
   <i type="logical" name="LSCAAWARE"> F  </i>
   <i type="logical" name="LSCALU"> F  </i>
   <i type="logical" name="LASYNC"> F  </i>
   <i type="logical" name="LORBITALREAL"> F  </i>
  </separator>
  <separator name="miscellaneous" >
   <i type="int" name="IDIOT">     3</i>
   <i type="int" name="ISPECIAL">     0</i>
   <i type="logical" name="LMUSIC"> F  </i>
   <v name="POMASS">    183.85000000</v>
   <v name="DARWINR">      0.00000000</v>
   <v name="DARWINV">      1.00000000</v>
   <i type="logical" name="LCORR"> T  </i>
  </separator>
  <i type="logical" name="GGA_COMPAT"> T  </i>
  <i type="logical" name="LBERRY"> F  </i>
  <i type="int" name="ICORELEVEL">     0</i>
  <i type="logical" name="LDAU"> F  </i>
  <i type="int" name="I_CONSTRAINED_M">     0</i>
  <separator name="electronic exchange-correlation" >
   <i type="string" name="GGA">--</i>
   <i type="int" name="VOSKOWN">     0</i>
   <i type="logical" name="LHFCALC"> F  </i>
   <i type="string" name="PRECFOCK"></i>
   <i type="logical" name="LSYMGRAD"> F  </i>
   <i type="logical" name="LHFONE"> F  </i>
   <i type="logical" name="LRHFCALC"> F  </i>
   <i type="logical" name="LTHOMAS"> F  </i>
   <i type="logical" name="LMODELHF"> F  </i>
   <i name="ENCUT4O">     -1.00000000</i>
   <i type="int" name="EXXOEP">     0</i>
   <i type="int" name="FOURORBIT">     0</i>
   <i name="AEXX">      0.00000000</i>
   <i name="HFALPHA">      0.00000000</i>
   <i name="MCALPHA">      0.00000000</i>
   <i name="ALDAX">      1.00000000</i>
   <i name="AGGAX">      1.00000000</i>
   <i name="ALDAC">      1.00000000</i>
   <i name="AGGAC">      1.00000000</i>
   <i type="int" name="NKREDX">     1</i>
   <i type="int" name="NKREDY">     1</i>
   <i type="int" name="NKREDZ">     1</i>
   <i type="logical" name="SHIFTRED"> F  </i>
   <i type="logical" name="ODDONLY"> F  </i>
   <i type="logical" name="EVENONLY"> F  </i>
   <i type="int" name="LMAXFOCK">     0</i>
   <i type="int" name="NMAXFOCKAE">     0</i>
   <i type="logical" name="LFOCKAEDFT"> F  </i>
   <i name="HFSCREEN">      0.00000000</i>
   <i name="HFSCREENC">      0.00000000</i>
   <i type="int" name="NBANDSGWLOW">     0</i>
  </separator>
  <separator name="vdW DFT" >
   <i type="logical" name="LUSE_VDW"> F  </i>
   <i name="Zab_VDW">     -0.84910000</i>
   <i name="PARAM1">      0.12340000</i>
   <i name="PARAM2">      1.00000000</i>
   <i name="PARAM3">      0.00000000</i>
  </separator>
  <separator name="model GW" >
   <i type="int" name="MODEL_GW">     0</i>
   <i name="MODEL_EPS0">     10.78110000</i>
   <i name="MODEL_ALPHA">      1.00000000</i>
  </separator>
  <separator name="linear response parameters" >
   <i type="logical" name="LEPSILON"> F  </i>
   <i type="logical" name="LRPA"> F  </i>
   <i type="logical" name="LNABLA"> F  </i>
   <i type="logical" name="LVEL"> F  </i>
   <i type="int" name="KINTER">     0</i>
   <i name="CSHIFT">      0.10000000</i>
   <i name="OMEGAMAX">     -1.00000000</i>
   <i name="DEG_THRESHOLD">      0.00200000</i>
   <i name="RTIME">     -0.10000000</i>
   <i name="WPLASMAI">      0.00000000</i>
   <v name="DFIELD">      0.00000000      0.00000000      0.00000000</v>
   <v name="WPLASMA">      0.00000000      0.00000000      0.00000000      0.00000000      0.00000000      0.00000000      0.00000000      0.00000000      0.00000000</v>
  </separator>
  <separator name="orbital magnetization" >
   <i type="logical" name="NUCIND"> F  </i>
   <v name="MAGPOS">      0.00000000      0.00000000      0.00000000</v>
   <i type="logical" name="LNICSALL"> T  </i>
   <i type="logical" name="ORBITALMAG"> F  </i>
   <i type="logical" name="LMAGBLOCH"> F  </i>
   <i type="logical" name="LCHIMAG"> F  </i>
   <i type="logical" name="LGAUGE"> T  </i>
   <i type="int" name="MAGATOM">     0</i>
   <v name="MAGDIPOL">      0.00000000      0.00000000      0.00000000</v>
   <v name="AVECCONST">      0.00000000      0.00000000      0.00000000</v>
  </separator>
  <separator name="response functions" >
   <i type="logical" name="LADDER"> F  </i>
   <i type="logical" name="LRPAFORCE"> F  </i>
   <i type="logical" name="LFXC"> F  </i>
   <i type="logical" name="LHARTREE"> T  </i>
   <i type="int" name="IBSE">     0</i>
   <v type="int" name="KPOINT">    -1     0     0     0</v>
   <i type="logical" name="LTCTE"> F  </i>
   <i type="logical" name="LTETE"> F  </i>
   <i type="logical" name="LTRIPLET"> F  </i>
   <i type="logical" name="LFXCEPS"> F  </i>
   <i type="logical" name="LFXHEG"> F  </i>
   <i type="int" name="NATURALO">     2</i>
   <i type="logical" name="L2ORDER"> F  </i>
   <i type="logical" name="LMP2LT"> F  </i>
   <i type="logical" name="LUSEW"> F  </i>
   <i name="ENCUTGW">     -2.00000000</i>
   <i name="ENCUTGWSOFT">     -2.00000000</i>
   <i name="ENCUTLF">     -1.00000000</i>
   <i type="int" name="LMAXMP2">    -1</i>
   <i name="SCISSOR">      0.00000000</i>
   <i type="int" name="NOMEGA">     0</i>
   <i type="int" name="NOMEGAR">     0</i>
   <i type="int" name="NBANDSGW">    -1</i>
   <i type="int" name="NBANDSO">    -1</i>
   <i type="int" name="NBANDSV">    -1</i>
   <i type="int" name="NELM">     1</i>
   <i type="int" name="NELMHF">     1</i>
   <i type="int" name="DIM">     3</i>
   <i type="int" name="ANTIRES">     0</i>
   <i name="OMEGAMAX">    -30.00000000</i>
   <i name="OMEGAMIN">    -30.00000000</i>
   <i name="OMEGATL">   -200.00000000</i>
   <i type="int" name="OMEGAGRID">   140</i>
   <i name="CSHIFT">     -0.10000000</i>
   <i type="logical" name="SELFENERGY"> F  </i>
   <i type="logical" name="LSPECTRAL"> F  </i>
   <i type="logical" name="LSPECTRALGW"> F  </i>
   <i type="logical" name="LSINGLES"> F  </i>
   <i type="logical" name="LFERMIGW"> F  </i>
   <i type="logical" name="ODDONLYGW"> F  </i>
   <i type="logical" name="EVENONLYGW"> F  </i>
   <i type="int" name="NKREDLFX">     1</i>
   <i type="int" name="NKREDLFY">     1</i>
   <i type="int" name="NKREDLFZ">     1</i>
   <i type="int" name="MAXMEM">  2800</i>
   <i type="int" name="TELESCOPE">     0</i>
   <i type="int" name="TAUPAR">     1</i>
   <i type="int" name="OMEGAPAR">    -1</i>
   <i name="LAMBDA">      1.00000000</i>
  </separator>
  <separator name="External order field" >
   <i name="OFIELD_KAPPA">      0.00000000</i>
   <v name="OFIELD_K">      0.00000000      0.00000000      0.00000000</v>
   <i name="OFIELD_Q6_NEAR">      0.00000000</i>
   <i name="OFIELD_Q6_FAR">      0.00000000</i>
   <i name="OFIELD_A">      0.00000000</i>
  </separator>
 </parameters>
 <atominfo>
  <atoms>       1 </atoms>
  <types>       1 </types>
  <array name="atoms" >
   <dimension dim="1">ion</dimension>
   <field type="string">element</field>
   <field type="int">atomtype</field>
   <set>
    <rc><c>W </c><c>   1</c></rc>
   </set>
  </array>
  <array name="atomtypes" >
   <dimension dim="1">type</dimension>
   <field type="int">atomspertype</field>
   <field type="string">element</field>
   <field>mass</field>
   <field>valence</field>
   <field type="string">pseudopotential</field>
   <set>
    <rc><c>   1</c><c>W </c><c>    183.85000000</c><c>      6.00000000</c><c> PAW W 19Jan2001                        </c></rc>
   </set>
  </array>
 </atominfo>
 <structure name="initialpos" >
  <crystal>
   <varray name="basis" >
    <v>      -1.65000000       1.65000000       1.65000000 </v>
    <v>       1.65000000      -1.65000000       1.65000000 </v>
    <v>       1.65000000       1.65000000      -1.65000000 </v>
   </varray>
   <i name="volume">     17.96850000 </i>
   <varray name="rec_basis" >
    <v>       0.00000000       0.30303030       0.30303030 </v>
    <v>       0.30303030       0.00000000       0.30303030 </v>
    <v>       0.30303030       0.30303030       0.00000000 </v>
   </varray>
  </crystal>
  <varray name="positions" >
   <v>       0.00000000       0.00000000       0.00000000 </v>
  </varray>
 </structure>
 <calculation>
  <scstep>
   <time name="dav">    0.04    0.04</time>
   <time name="total">    0.04    0.05</time>
   <energy>
    <i name="alphaZ">     38.84750647 </i>
    <i name="ewald">   -285.84102064 </i>
    <i name="hartreedc">     -7.46279063 </i>
    <i name="XCdc">    -47.57286541 </i>
    <i name="pawpsdc">    183.53490256 </i>
    <i name="pawaedc">   -125.80866524 </i>
    <i name="eentropy">     -0.00118890 </i>
    <i name="bandstr">     25.91385143 </i>
    <i name="atom">    206.50785835 </i>
    <i name="e_fr_energy">    -11.88241201 </i>
    <i name="e_wo_entrp">    -11.88122311 </i>
    <i name="e_0_energy">    -11.88201571 </i>
   </energy>
  </scstep>
  <scstep>
   <time name="dav">    0.03    0.03</time>
   <time name="total">    0.03    0.03</time>
   <energy>
    <i name="e_fr_energy">    -14.68468577 </i>
    <i name="e_wo_entrp">    -14.68433783 </i>
    <i name="e_0_energy">    -14.68456979 </i>
   </energy>
  </scstep>
  <scstep>
   <time name="dav">    0.04    0.04</time>
   <time name="total">    0.04    0.04</time>
   <energy>
    <i name="e_fr_energy">    -14.69527559 </i>
    <i name="e_wo_entrp">    -14.69493700 </i>
    <i name="e_0_energy">    -14.69516273 </i>
   </energy>
  </scstep>
  <scstep>
   <time name="dav">    0.03    0.03</time>
   <time name="total">    0.03    0.03</time>
   <energy>
    <i name="e_fr_energy">    -14.69528069 </i>
    <i name="e_wo_entrp">    -14.69494215 </i>
    <i name="e_0_energy">    -14.69516784 </i>
   </energy>
  </scstep>
  <scstep>
   <time name="dav">    0.03    0.03</time>
   <time name="total">    0.03    0.03</time>
   <energy>
    <i name="e_fr_energy">    -14.69528069 </i>
    <i name="e_wo_entrp">    -14.69494216 </i>
    <i name="e_0_energy">    -14.69516785 </i>
   </energy>
  </scstep>
  <scstep>
   <time name="dav">    0.03    0.03</time>
   <time name="total">    0.03    0.03</time>
   <energy>
    <i name="e_fr_energy">    -14.03459400 </i>
    <i name="e_wo_entrp">    -14.03400471 </i>
    <i name="e_0_energy">    -14.03439757 </i>
   </energy>
  </scstep>
  <scstep>
   <time name="dav">    0.03    0.03</time>
   <time name="total">    0.03    0.03</time>
   <energy>
    <i name="e_fr_energy">    -13.83317234 </i>
    <i name="e_wo_entrp">    -13.83283406 </i>
    <i name="e_0_energy">    -13.83305958 </i>
   </energy>
  </scstep>
  <scstep>
   <time name="dav">    0.03    0.03</time>
   <time name="total">    0.03    0.03</time>
   <energy>
    <i name="e_fr_energy">    -13.83399827 </i>
    <i name="e_wo_entrp">    -13.83374653 </i>
    <i name="e_0_energy">    -13.83391436 </i>
   </energy>
  </scstep>
  <scstep>
   <time name="dav">    0.03    0.03</time>
   <time name="total">    0.03    0.03</time>
   <energy>
    <i name="e_fr_energy">    -13.83029982 </i>
    <i name="e_wo_entrp">    -13.82990296 </i>
    <i name="e_0_energy">    -13.83016753 </i>
   </energy>
  </scstep>
  <scstep>
   <time name="dav">    0.02    0.02</time>
   <time name="total">    0.02    0.02</time>
   <energy>
    <i name="alphaZ">     38.84750647 </i>
    <i name="ewald">   -285.84102064 </i>
    <i name="hartreedc">     -3.18496189 </i>
    <i name="XCdc">    -47.15188057 </i>
    <i name="pawpsdc">    216.31639292 </i>
    <i name="pawaedc">   -159.89139142 </i>
    <i name="eentropy">     -0.00039810 </i>
    <i name="bandstr">     20.56759076 </i>
    <i name="atom">    206.50785835 </i>
    <i name="e_fr_energy">    -13.83030412 </i>
    <i name="e_wo_entrp">    -13.82990602 </i>
    <i name="e_0_energy">    -13.83017142 </i>
   </energy>
  </scstep>
  <structure>
   <crystal>
    <varray name="basis" >
     <v>      -1.65000000       1.65000000       1.65000000 </v>
     <v>       1.65000000      -1.65000000       1.65000000 </v>
     <v>       1.65000000       1.65000000      -1.65000000 </v>
    </varray>
    <i name="volume">     17.96850000 </i>
    <varray name="rec_basis" >
     <v>       0.00000000       0.30303030       0.30303030 </v>
     <v>       0.30303030       0.00000000       0.30303030 </v>
     <v>       0.30303030       0.30303030       0.00000000 </v>
    </varray>
   </crystal>
   <varray name="positions" >
    <v>       0.00000000       0.00000000       0.00000000 </v>
   </varray>
  </structure>
  <varray name="forces" >
   <v>      -0.00000000       0.00000000      -0.00000000 </v>
  </varray>
  <varray name="stress" >
   <v>    -400.84646160      -0.00000000       0.00000000 </v>
   <v>       0.00000000    -400.84646160       0.00000000 </v>
   <v>       0.00000000       0.00000000    -400.84646160 </v>
  </varray>
  <energy>
   <i name="e_fr_energy">    -13.83030412 </i>
   <i name="e_wo_entrp">    -13.83017142 </i>
   <i name="e_0_energy">     -0.00039810 </i>
  </energy>
  <time name="totalsc">    0.38    0.39</time>
  <eigenvalues>
   <array>
    <dimension dim="1">band</dimension>
    <dimension dim="2">kpoint</dimension>
    <dimension dim="3">spin</dimension>
    <field>eigene</field>
    <field>occ</field>
    <set>
     <set comment="spin 1">
      <set comment="kpoint 1">
       <r>   -1.7780    1.0000 </r>
       <r>    5.0826    1.0000 </r>
       <r>    5.0826    1.0000 </r>
       <r>    6.0570    1.0328 </r>
       <r>    8.1178   -0.0000 </r>
       <r>    8.1178   -0.0000 </r>
       <r>   21.7327    0.0000 </r>
       <r>   22.3190    0.0000 </r>
      </set>
      <set comment="kpoint 2">
       <r>   -0.7056    1.0000 </r>
       <r>    4.5153    1.0000 </r>
       <r>    4.7378    1.0000 </r>
       <r>    7.2978   -0.0000 </r>
       <r>    7.8290   -0.0000 </r>
       <r>    8.3323   -0.0000 </r>
       <r>   21.8855    0.0000 </r>
       <r>   22.5941    0.0000 </r>
      </set>
      <set comment="kpoint 3">
       <r>    0.5632    1.0000 </r>
       <r>    3.9410    1.0000 </r>
       <r>    4.6072    1.0000 </r>
       <r>    7.9701   -0.0000 </r>
       <r>    8.5847   -0.0000 </r>
       <r>    9.0937   -0.0000 </r>
       <r>   19.8775    0.0000 </r>
       <r>   20.3221    0.0000 </r>
      </set>
      <set comment="kpoint 4">
       <r>    1.1408    1.0000 </r>
       <r>    3.5415    1.0000 </r>
       <r>    5.5823    1.0000 </r>
       <r>    8.2378   -0.0000 </r>
       <r>    8.8391   -0.0000 </r>
       <r>   10.9982   -0.0000 </r>
       <r>   16.7157    0.0000 </r>
       <r>   18.7985    0.0000 </r>
      </set>
      <set comment="kpoint 5">
       <r>    1.1858    1.0000 </r>
       <r>    3.3987    1.0000 </r>
       <r>    6.5819   -0.0267 </r>
       <r>    8.2174   -0.0000 </r>
       <r>    8.9557   -0.0000 </r>
       <r>   11.9661    0.0000 </r>
       <r>   15.2470    0.0000 </r>
       <r>   18.2095    0.0000 </r>
      </set>
      <set comment="kpoint 6">
       <r>   -2.1727    1.0000 </r>
       <r>    5.3412    1.0000 </r>
       <r>    5.3417    1.0000 </r>
       <r>    5.4545    1.0000 </r>
       <r>    8.0125   -0.0000 </r>
       <r>    8.3948   -0.0000 </r>
       <r>   21.5814    0.0000 </r>
       <r>   21.6758    0.0000 </r>
      </set>
      <set comment="kpoint 7">
       <r>    0.5126    1.0000 </r>
       <r>    4.1141    1.0000 </r>
       <r>    4.1376    1.0000 </r>
       <r>    7.8808   -0.0000 </r>
       <r>    8.5965   -0.0000 </r>
       <r>    9.0563   -0.0000 </r>
       <r>   20.6419    0.0000 </r>
       <r>   21.7975    0.0000 </r>
      </set>
      <set comment="kpoint 8">
       <r>    1.6053    1.0000 </r>
       <r>    3.6703    1.0000 </r>
       <r>    4.3118    1.0000 </r>
       <r>    8.1143   -0.0000 </r>
       <r>    8.8506   -0.0000 </r>
       <r>   11.1439   -0.0000 </r>
       <r>   17.4766    0.0000 </r>
       <r>   20.0370    0.0000 </r>
      </set>
      <set comment="kpoint 9">
       <r>    1.8323    1.0000 </r>
       <r>    3.4613    1.0000 </r>
       <r>    5.3771    1.0000 </r>
       <r>    8.3226   -0.0000 </r>
       <r>    9.0226   -0.0000 </r>
       <r>   12.9063    0.0000 </r>
       <r>   14.8258    0.0000 </r>
       <r>   18.8246    0.0000 </r>
      </set>
      <set comment="kpoint 10">
       <r>   -1.3965    1.0000 </r>
       <r>    4.9664    1.0000 </r>
       <r>    5.2101    1.0000 </r>
       <r>    6.1988    0.8070 </r>
       <r>    7.4589   -0.0000 </r>
       <r>    8.5471   -0.0000 </r>
       <r>   21.9979    0.0000 </r>
       <r>   22.7832    0.0000 </r>
      </set>
      <set comment="kpoint 11">
       <r>    2.4110    1.0000 </r>
       <r>    3.6540    1.0000 </r>
       <r>    4.3619    1.0000 </r>
       <r>    8.3753   -0.0000 </r>
       <r>    8.9417   -0.0000 </r>
       <r>   13.3412    0.0000 </r>
       <r>   14.8801    0.0000 </r>
       <r>   18.7806    0.0000 </r>
      </set>
      <set comment="kpoint 12">
       <r>    2.5490    1.0000 </r>
       <r>    3.7241    1.0000 </r>
       <r>    4.6409    1.0000 </r>
       <r>    8.5759   -0.0000 </r>
       <r>    8.9876   -0.0000 </r>
       <r>   13.3450    0.0000 </r>
       <r>   14.9813    0.0000 </r>
       <r>   17.5146    0.0000 </r>
      </set>
      <set comment="kpoint 13">
       <r>   -0.1300    1.0000 </r>
       <r>    4.3786    1.0000 </r>
       <r>    4.8439    1.0000 </r>
       <r>    7.4342   -0.0000 </r>
       <r>    7.6623   -0.0000 </r>
       <r>    8.6944   -0.0000 </r>
       <r>   20.8509    0.0000 </r>
       <r>   21.8429    0.0000 </r>
      </set>
      <set comment="kpoint 14">
       <r>   -0.3602    1.0000 </r>
       <r>    4.7818    1.0000 </r>
       <r>    4.7843    1.0000 </r>
       <r>    6.9688   -0.0000 </r>
       <r>    7.2324   -0.0000 </r>
       <r>    8.8461   -0.0000 </r>
       <r>   21.6443    0.0000 </r>
       <r>   22.6433    0.0000 </r>
      </set>
      <set comment="kpoint 15">
       <r>    0.8534    1.0000 </r>
       <r>    3.8575    1.0000 </r>
       <r>    5.1066    1.0000 </r>
       <r>    7.8895   -0.0000 </r>
       <r>    8.8747   -0.0000 </r>
       <r>    9.5592   -0.0000 </r>
       <r>   18.2552    0.0000 </r>
       <r>   19.7223    0.0000 </r>
      </set>
      <set comment="kpoint 16">
       <r>    0.8866    1.0000 </r>
       <r>    4.1741    1.0000 </r>
       <r>    4.5769    1.0000 </r>
       <r>    7.2037   -0.0000 </r>
       <r>    8.8274   -0.0000 </r>
       <r>    9.1827   -0.0000 </r>
       <r>   19.2083    0.0000 </r>
       <r>   21.6114    0.0000 </r>
      </set>
      <set comment="kpoint 17">
       <r>    1.0686    1.0000 </r>
       <r>    3.5622    1.0000 </r>
       <r>    6.2305    0.6937 </r>
       <r>    8.0158   -0.0000 </r>
       <r>    9.2783   -0.0000 </r>
       <r>   11.1817   -0.0000 </r>
       <r>   15.9328    0.0000 </r>
       <r>   18.4999    0.0000 </r>
      </set>
      <set comment="kpoint 18">
       <r>    1.4847    1.0000 </r>
       <r>    3.8513    1.0000 </r>
       <r>    5.0042    1.0000 </r>
       <r>    7.6835   -0.0000 </r>
       <r>    9.1995   -0.0000 </r>
       <r>   11.0764   -0.0000 </r>
       <r>   16.6659    0.0000 </r>
       <r>   19.8000    0.0000 </r>
      </set>
      <set comment="kpoint 19">
       <r>    1.9302    1.0000 </r>
       <r>    3.6977    1.0000 </r>
       <r>    4.6050    1.0000 </r>
       <r>    7.4620   -0.0000 </r>
       <r>    8.9128   -0.0000 </r>
       <r>   11.2343   -0.0000 </r>
       <r>   17.0920    0.0000 </r>
       <r>   20.5063    0.0000 </r>
      </set>
      <set comment="kpoint 20">
       <r>    1.5261    1.0000 </r>
       <r>    3.7448    1.0000 </r>
       <r>    5.5382    1.0000 </r>
       <r>    7.6392   -0.0000 </r>
       <r>    9.7607   -0.0000 </r>
       <r>   12.2001    0.0000 </r>
       <r>   15.1233    0.0000 </r>
       <r>   19.1103    0.0000 </r>
      </set>
      <set comment="kpoint 21">
       <r>    2.3312    1.0000 </r>
       <r>    3.7238    1.0000 </r>
       <r>    4.5931    1.0000 </r>
       <r>    7.8784   -0.0000 </r>
       <r>    9.1810   -0.0000 </r>
       <r>   13.4222    0.0000 </r>
       <r>   14.8377    0.0000 </r>
       <r>   18.6388    0.0000 </r>
      </set>
      <set comment="kpoint 22">
       <r>    2.8865    1.0000 </r>
       <r>    3.8905    1.0000 </r>
       <r>    3.8906    1.0000 </r>
       <r>    8.7044   -0.0000 </r>
       <r>    8.7048   -0.0000 </r>
       <r>   13.6302    0.0000 </r>
       <r>   16.2134    0.0000 </r>
       <r>   16.2141    0.0000 </r>
      </set>
      <set comment="kpoint 23">
       <r>    1.8399    1.0000 </r>
       <r>    3.6709    1.0000 </r>
       <r>    3.6709    1.0000 </r>
       <r>    8.5489   -0.0000 </r>
       <r>    8.5489   -0.0000 </r>
       <r>   11.2440   -0.0000 </r>
       <r>   18.2882    0.0000 </r>
       <r>   20.4493    0.0000 </r>
      </set>
      <set comment="kpoint 24">
       <r>    2.6352    1.0000 </r>
       <r>    3.4403    1.0000 </r>
       <r>    4.1648    1.0000 </r>
       <r>    8.6711   -0.0000 </r>
       <r>    8.9140   -0.0000 </r>
       <r>   13.3235    0.0000 </r>
       <r>   15.0011    0.0000 </r>
       <r>   19.2926    0.0000 </r>
      </set>
      <set comment="kpoint 25">
       <r>    2.6121    1.0000 </r>
       <r>    3.3715    1.0000 </r>
       <r>    4.9974    1.0000 </r>
       <r>    8.7230   -0.0000 </r>
       <r>    9.0234   -0.0000 </r>
       <r>   13.3200    0.0000 </r>
       <r>   14.5279    0.0000 </r>
       <r>   18.8566    0.0000 </r>
      </set>
      <set comment="kpoint 26">
       <r>   -0.6534    1.0000 </r>
       <r>    5.3738    1.0000 </r>
       <r>    5.3742    1.0000 </r>
       <r>    6.2075    0.7777 </r>
       <r>    6.2724    0.5227 </r>
       <r>    8.9990   -0.0000 </r>
       <r>   22.8162    0.0000 </r>
       <r>   23.1132    0.0000 </r>
      </set>
      <set comment="kpoint 27">
       <r>    3.1168    1.0000 </r>
       <r>    3.7492    1.0000 </r>
       <r>    4.2051    1.0000 </r>
       <r>    8.9141   -0.0000 </r>
       <r>    9.0140   -0.0000 </r>
       <r>   12.7501    0.0000 </r>
       <r>   15.5513    0.0000 </r>
       <r>   17.7233    0.0000 </r>
      </set>
      <set comment="kpoint 28">
       <r>    0.5605    1.0000 </r>
       <r>    4.7832    1.0000 </r>
       <r>    5.0721    1.0000 </r>
       <r>    6.2371    0.6680 </r>
       <r>    7.4517   -0.0000 </r>
       <r>    9.1815   -0.0000 </r>
       <r>   20.3934    0.0000 </r>
       <r>   23.3540    0.0000 </r>
      </set>
      <set comment="kpoint 29">
       <r>    1.5454    1.0000 </r>
       <r>    4.2943    1.0000 </r>
       <r>    4.6258    1.0000 </r>
       <r>    6.9847   -0.0000 </r>
       <r>    9.3450   -0.0000 </r>
       <r>    9.4268   -0.0000 </r>
       <r>   18.3039    0.0000 </r>
       <r>   21.5812    0.0000 </r>
      </set>
      <set comment="kpoint 30">
       <r>    1.6766    1.0000 </r>
       <r>    3.9506    1.0000 </r>
       <r>    5.2509    1.0000 </r>
       <r>    6.4789   -0.0257 </r>
       <r>    8.5818   -0.0000 </r>
       <r>    9.4928   -0.0000 </r>
       <r>   19.1095    0.0000 </r>
       <r>   22.5481    0.0000 </r>
      </set>
      <set comment="kpoint 31">
       <r>    1.7323    1.0000 </r>
       <r>    4.3607    1.0000 </r>
       <r>    4.6898    1.0000 </r>
       <r>    6.9751   -0.0000 </r>
       <r>   10.7555   -0.0000 </r>
       <r>   11.0178   -0.0000 </r>
       <r>   15.8879    0.0000 </r>
       <r>   20.5426    0.0000 </r>
      </set>
      <set comment="kpoint 32">
       <r>    2.3122    1.0000 </r>
       <r>    3.6223    1.0000 </r>
       <r>    4.9205    1.0000 </r>
       <r>    7.0717   -0.0000 </r>
       <r>    9.3457   -0.0000 </r>
       <r>   11.4014   -0.0000 </r>
       <r>   16.9376    0.0000 </r>
       <r>   20.3287    0.0000 </r>
      </set>
      <set comment="kpoint 33">
       <r>    2.3067    1.0000 </r>
       <r>    3.9999    1.0000 </r>
       <r>    4.5039    1.0000 </r>
       <r>    7.0888   -0.0000 </r>
       <r>   10.2742   -0.0000 </r>
       <r>   13.1452    0.0000 </r>
       <r>   14.8449    0.0000 </r>
       <r>   19.0664    0.0000 </r>
      </set>
      <set comment="kpoint 34">
       <r>    3.1190    1.0000 </r>
       <r>    3.1725    1.0000 </r>
       <r>    4.2610    1.0000 </r>
       <r>    8.1822   -0.0000 </r>
       <r>    9.2418   -0.0000 </r>
       <r>   13.8701    0.0000 </r>
       <r>   15.2105    0.0000 </r>
       <r>   17.7208    0.0000 </r>
      </set>
      <set comment="kpoint 35">
       <r>    3.8122    1.0000 </r>
       <r>    3.8122    1.0000 </r>
       <r>    3.8127    1.0000 </r>
       <r>    9.0685   -0.0000 </r>
       <r>    9.0685   -0.0000 </r>
       <r>   11.9670    0.0000 </r>
       <r>   17.3836    0.0000 </r>
       <r>   17.3840    0.0000 </r>
      </set>
      <set comment="kpoint 36">
       <r>    1.5961    1.0000 </r>
       <r>    4.1725    1.0000 </r>
       <r>    5.9814    1.0285 </r>
       <r>    5.9818    1.0286 </r>
       <r>    7.5855   -0.0000 </r>
       <r>    9.2353   -0.0000 </r>
       <r>   20.1937    0.0000 </r>
       <r>   23.8373    0.0000 </r>
      </set>
      <set comment="kpoint 37">
       <r>    2.3598    1.0000 </r>
       <r>    3.3220    1.0000 </r>
       <r>    6.0360    1.0354 </r>
       <r>    6.6124   -0.0197 </r>
       <r>    9.0770   -0.0000 </r>
       <r>    9.6693   -0.0000 </r>
       <r>   19.1929    0.0000 </r>
       <r>   21.4359    0.0000 </r>
      </set>
      <set comment="kpoint 38">
       <r>    2.3637    1.0000 </r>
       <r>    3.2472    1.0000 </r>
       <r>    5.8801    1.0083 </r>
       <r>    6.5792   -0.0273 </r>
       <r>   10.7624   -0.0000 </r>
       <r>   11.8428    0.0000 </r>
       <r>   15.9827    0.0000 </r>
       <r>   19.2776    0.0000 </r>
      </set>
      <set comment="kpoint 39">
       <r>    2.6426    1.0000 </r>
       <r>    2.6934    1.0000 </r>
       <r>    5.9575    1.0230 </r>
       <r>    7.7182   -0.0000 </r>
       <r>    9.5213   -0.0000 </r>
       <r>   11.6412   -0.0000 </r>
       <r>   17.2165    0.0000 </r>
       <r>   18.8120    0.0000 </r>
      </set>
      <set comment="kpoint 40">
       <r>    2.4384    1.0000 </r>
       <r>    2.7387    1.0000 </r>
       <r>    5.7315    1.0004 </r>
       <r>    8.2032   -0.0000 </r>
       <r>   10.1924   -0.0000 </r>
       <r>   14.2205    0.0000 </r>
       <r>   14.6007    0.0000 </r>
       <r>   17.2164    0.0000 </r>
      </set>
      <set comment="kpoint 41">
       <r>    2.4347    1.0000 </r>
       <r>    2.5282    1.0000 </r>
       <r>    7.5362   -0.0000 </r>
       <r>    7.5367   -0.0000 </r>
       <r>    9.2434   -0.0000 </r>
       <r>   10.1249   -0.0000 </r>
       <r>   19.1627    0.0000 </r>
       <r>   19.1631    0.0000 </r>
      </set>
      <set comment="kpoint 42">
       <r>    2.0784    1.0000 </r>
       <r>    2.2234    1.0000 </r>
       <r>    7.9404   -0.0000 </r>
       <r>    8.0500   -0.0000 </r>
       <r>   10.5304   -0.0000 </r>
       <r>   12.3504    0.0000 </r>
       <r>   15.9410    0.0000 </r>
       <r>   17.1014    0.0000 </r>
      </set>
      <set comment="kpoint 43">
       <r>    1.9321    1.0000 </r>
       <r>    1.9321    1.0000 </r>
       <r>    7.9529   -0.0000 </r>
       <r>   10.0129   -0.0000 </r>
       <r>   10.0138   -0.0000 </r>
       <r>   14.6150    0.0000 </r>
       <r>   14.7984    0.0000 </r>
       <r>   14.7986    0.0000 </r>
      </set>
      <set comment="kpoint 44">
       <r>    1.6551    1.0000 </r>
       <r>    1.6946    1.0000 </r>
       <r>    9.9357   -0.0000 </r>
       <r>    9.9364   -0.0000 </r>
       <r>   10.5037   -0.0000 </r>
       <r>   13.1377    0.0000 </r>
       <r>   14.9479    0.0000 </r>
       <r>   14.9481    0.0000 </r>
      </set>
     </set>
    </set>
   </array>
  </eigenvalues>
  <separator name="orbital magnetization" >
   <v name="MAGDIPOLOUT">      0.00000000      0.00000000      0.00000000</v>
  </separator>
  <dos>
   <i name="efermi">      6.27774546 </i>
   <total>
    <array>
     <dimension dim="1">gridpoints</dimension>
     <dimension dim="2">spin</dimension>
     <field>energy</field>
     <field>total</field>
     <field>integrated</field>
     <set>
      <set comment="spin 1">
       <r>    -4.1727     0.0000     0.0000 </r>
       <r>    -4.0726     0.0000     0.0000 </r>
       <r>    -3.9726     0.0000     0.0000 </r>
       <r>    -3.8726    -0.0000    -0.0000 </r>
       <r>    -3.7725    -0.0000    -0.0000 </r>
       <r>    -3.6725    -0.0000    -0.0000 </r>
       <r>    -3.5725    -0.0000    -0.0000 </r>
       <r>    -3.4724    -0.0000    -0.0000 </r>
       <r>    -3.3724    -0.0000    -0.0000 </r>
       <r>    -3.2724    -0.0000    -0.0000 </r>
       <r>    -3.1723    -0.0000    -0.0000 </r>
       <r>    -3.0723    -0.0000    -0.0000 </r>
       <r>    -2.9723    -0.0000    -0.0000 </r>
       <r>    -2.8722    -0.0000    -0.0000 </r>
       <r>    -2.7722    -0.0000    -0.0000 </r>
       <r>    -2.6722    -0.0001    -0.0000 </r>
       <r>    -2.5721    -0.0008    -0.0001 </r>
       <r>    -2.4721    -0.0024    -0.0003 </r>
       <r>    -2.3721     0.0003    -0.0003 </r>
       <r>    -2.2720     0.0186     0.0016 </r>
       <r>    -2.1720     0.0433     0.0059 </r>
       <r>    -2.0720     0.0411     0.0100 </r>
       <r>    -1.9719     0.0195     0.0120 </r>
       <r>    -1.8719     0.0264     0.0146 </r>
       <r>    -1.7719     0.0536     0.0199 </r>
       <r>    -1.6718     0.0468     0.0246 </r>
       <r>    -1.5718     0.0347     0.0281 </r>
       <r>    -1.4718     0.1015     0.0383 </r>
       <r>    -1.3717     0.1883     0.0571 </r>
       <r>    -1.2717     0.1556     0.0727 </r>
       <r>    -1.1717     0.0483     0.0775 </r>
       <r>    -1.0716    -0.0115     0.0763 </r>
       <r>    -0.9716    -0.0201     0.0743 </r>
       <r>    -0.8716     0.0140     0.0757 </r>
       <r>    -0.7715     0.1234     0.0881 </r>
       <r>    -0.6715     0.2259     0.1107 </r>
       <r>    -0.5715     0.1905     0.1297 </r>
       <r>    -0.4714     0.1206     0.1418 </r>
       <r>    -0.3714     0.1557     0.1574 </r>
       <r>    -0.2714     0.2100     0.1784 </r>
       <r>    -0.1713     0.2234     0.2007 </r>
       <r>    -0.0713     0.2007     0.2208 </r>
       <r>     0.0287     0.1096     0.2318 </r>
       <r>     0.1288     0.0104     0.2328 </r>
       <r>     0.2288    -0.0353     0.2293 </r>
       <r>     0.3288    -0.0125     0.2280 </r>
       <r>     0.4289     0.1709     0.2451 </r>
       <r>     0.5289     0.4649     0.2916 </r>
       <r>     0.6289     0.5255     0.3442 </r>
       <r>     0.7290     0.3653     0.3807 </r>
       <r>     0.8290     0.4112     0.4219 </r>
       <r>     0.9290     0.5833     0.4802 </r>
       <r>     1.0291     0.5780     0.5380 </r>
       <r>     1.1291     0.4833     0.5864 </r>
       <r>     1.2291     0.3242     0.6188 </r>
       <r>     1.3292     0.1696     0.6358 </r>
       <r>     1.4292     0.3905     0.6749 </r>
       <r>     1.5292     0.9662     0.7715 </r>
       <r>     1.6293     1.3120     0.9027 </r>
       <r>     1.7293     1.2043     1.0232 </r>
       <r>     1.8293     0.9833     1.1216 </r>
       <r>     1.9294     0.7819     1.1998 </r>
       <r>     2.0294     0.5047     1.2503 </r>
       <r>     2.1294     0.3746     1.2878 </r>
       <r>     2.2295     0.7897     1.3667 </r>
       <r>     2.3295     1.5360     1.5204 </r>
       <r>     2.4295     1.7408     1.6945 </r>
       <r>     2.5296     1.3185     1.8264 </r>
       <r>     2.6296     1.0155     1.9280 </r>
       <r>     2.7296     0.8604     2.0141 </r>
       <r>     2.8297     0.5014     2.0642 </r>
       <r>     2.9297     0.1619     2.0804 </r>
       <r>     3.0297     0.1940     2.0998 </r>
       <r>     3.1298     0.5137     2.1512 </r>
       <r>     3.2298     0.7447     2.2257 </r>
       <r>     3.3298     0.8112     2.3069 </r>
       <r>     3.4299     0.9679     2.4037 </r>
       <r>     3.5299     1.3658     2.5403 </r>
       <r>     3.6299     2.0147     2.7419 </r>
       <r>     3.7300     2.4932     2.9913 </r>
       <r>     3.8300     2.2598     3.2173 </r>
       <r>     3.9300     1.5879     3.3762 </r>
       <r>     4.0301     1.1434     3.4905 </r>
       <r>     4.1301     1.2685     3.6174 </r>
       <r>     4.2301     1.6825     3.7857 </r>
       <r>     4.3302     1.7685     3.9626 </r>
       <r>     4.4302     1.5428     4.1170 </r>
       <r>     4.5302     1.6496     4.2820 </r>
       <r>     4.6303     2.0552     4.4876 </r>
       <r>     4.7303     2.0273     4.6904 </r>
       <r>     4.8303     1.6416     4.8546 </r>
       <r>     4.9304     1.4607     5.0007 </r>
       <r>     5.0304     1.4341     5.1442 </r>
       <r>     5.1304     1.2114     5.2654 </r>
       <r>     5.2305     0.9055     5.3559 </r>
       <r>     5.3305     0.8110     5.4371 </r>
       <r>     5.4305     0.8020     5.5173 </r>
       <r>     5.5306     0.6770     5.5850 </r>
       <r>     5.6306     0.4964     5.6347 </r>
       <r>     5.7306     0.3634     5.6710 </r>
       <r>     5.8307     0.3685     5.7079 </r>
       <r>     5.9307     0.5193     5.7598 </r>
       <r>     6.0307     0.6519     5.8250 </r>
       <r>     6.1308     0.7082     5.8959 </r>
       <r>     6.2308     0.7340     5.9693 </r>
       <r>     6.3308     0.5898     6.0283 </r>
       <r>     6.4309     0.4034     6.0687 </r>
       <r>     6.5309     0.4779     6.1165 </r>
       <r>     6.6309     0.5543     6.1719 </r>
       <r>     6.7310     0.3250     6.2044 </r>
       <r>     6.8310     0.1430     6.2187 </r>
       <r>     6.9310     0.4408     6.2628 </r>
       <r>     7.0311     0.9792     6.3608 </r>
       <r>     7.1311     1.2209     6.4829 </r>
       <r>     7.2311     1.0942     6.5924 </r>
       <r>     7.3312     0.9095     6.6834 </r>
       <r>     7.4312     0.9075     6.7741 </r>
       <r>     7.5312     1.0110     6.8753 </r>
       <r>     7.6313     1.0951     6.9848 </r>
       <r>     7.7313     1.1976     7.1046 </r>
       <r>     7.8313     1.3712     7.2418 </r>
       <r>     7.9314     1.5886     7.4007 </r>
       <r>     8.0314     1.6395     7.5647 </r>
       <r>     8.1314     1.5506     7.7198 </r>
       <r>     8.2315     1.4737     7.8672 </r>
       <r>     8.3315     1.3019     7.9975 </r>
       <r>     8.4315     1.0531     8.1028 </r>
       <r>     8.5316     1.0859     8.2114 </r>
       <r>     8.6316     1.3740     8.3489 </r>
       <r>     8.7316     1.6220     8.5111 </r>
       <r>     8.8317     2.0785     8.7191 </r>
       <r>     8.9317     2.6448     8.9836 </r>
       <r>     9.0317     2.7952     9.2633 </r>
       <r>     9.1318     2.6759     9.5309 </r>
       <r>     9.2318     2.4891     9.7799 </r>
       <r>     9.3318     2.0033     9.9803 </r>
       <r>     9.4319     1.3684    10.1172 </r>
       <r>     9.5319     0.9464    10.2119 </r>
       <r>     9.6319     0.6987    10.2818 </r>
       <r>     9.7320     0.4903    10.3308 </r>
       <r>     9.8320     0.3191    10.3627 </r>
       <r>     9.9320     0.2296    10.3857 </r>
       <r>    10.0321     0.2433    10.4100 </r>
       <r>    10.1321     0.3249    10.4425 </r>
       <r>    10.2321     0.3970    10.4823 </r>
       <r>    10.3322     0.3464    10.5169 </r>
       <r>    10.4322     0.2371    10.5406 </r>
       <r>    10.5322     0.2235    10.5630 </r>
       <r>    10.6323     0.2791    10.5909 </r>
       <r>    10.7323     0.3452    10.6254 </r>
       <r>    10.8323     0.3608    10.6615 </r>
       <r>    10.9324     0.4373    10.7053 </r>
       <r>    11.0324     0.8212    10.7874 </r>
       <r>    11.1324     1.2261    10.9101 </r>
       <r>    11.2325     1.1656    11.0267 </r>
       <r>    11.3325     0.7884    11.1056 </r>
       <r>    11.4325     0.4917    11.1547 </r>
       <r>    11.5326     0.3149    11.1862 </r>
       <r>    11.6326     0.2222    11.2085 </r>
       <r>    11.7326     0.2206    11.2305 </r>
       <r>    11.8327     0.2561    11.2562 </r>
       <r>    11.9327     0.2586    11.2820 </r>
       <r>    12.0327     0.1966    11.3017 </r>
       <r>    12.1328     0.1735    11.3191 </r>
       <r>    12.2328     0.2495    11.3440 </r>
       <r>    12.3328     0.2999    11.3740 </r>
       <r>    12.4329     0.2166    11.3957 </r>
       <r>    12.5329     0.0725    11.4029 </r>
       <r>    12.6329     0.0372    11.4067 </r>
       <r>    12.7330     0.1748    11.4241 </r>
       <r>    12.8330     0.3788    11.4620 </r>
       <r>    12.9330     0.4613    11.5082 </r>
       <r>    13.0331     0.3567    11.5439 </r>
       <r>    13.1331     0.2815    11.5720 </r>
       <r>    13.2331     0.4815    11.6202 </r>
       <r>    13.3332     0.8772    11.7079 </r>
       <r>    13.4332     0.9929    11.8072 </r>
       <r>    13.5332     0.6089    11.8682 </r>
       <r>    13.6333     0.1798    11.8861 </r>
       <r>    13.7333     0.0583    11.8920 </r>
       <r>    13.8333     0.1349    11.9055 </r>
       <r>    13.9334     0.1776    11.9232 </r>
       <r>    14.0334     0.1174    11.9350 </r>
       <r>    14.1334     0.1036    11.9453 </r>
       <r>    14.2335     0.1641    11.9618 </r>
       <r>    14.3335     0.1470    11.9765 </r>
       <r>    14.4335     0.0982    11.9863 </r>
       <r>    14.5336     0.1667    12.0030 </r>
       <r>    14.6336     0.3272    12.0357 </r>
       <r>    14.7336     0.6846    12.1042 </r>
       <r>    14.8337     1.2689    12.2311 </r>
       <r>    14.9337     1.4874    12.3799 </r>
       <r>    15.0337     1.0964    12.4896 </r>
       <r>    15.1338     0.6600    12.5556 </r>
       <r>    15.2338     0.4462    12.6002 </r>
       <r>    15.3338     0.2651    12.6268 </r>
       <r>    15.4339     0.1275    12.6395 </r>
       <r>    15.5339     0.1348    12.6530 </r>
       <r>    15.6339     0.1375    12.6668 </r>
       <r>    15.7340     0.1055    12.6773 </r>
       <r>    15.8340     0.3031    12.7076 </r>
       <r>    15.9340     0.6621    12.7738 </r>
       <r>    16.0341     0.6923    12.8431 </r>
       <r>    16.1341     0.3785    12.8810 </r>
       <r>    16.2341     0.1449    12.8955 </r>
       <r>    16.3342     0.0529    12.9007 </r>
       <r>    16.4342    -0.0035    12.9004 </r>
       <r>    16.5342     0.0833    12.9087 </r>
       <r>    16.6343     0.3679    12.9455 </r>
       <r>    16.7343     0.5620    13.0018 </r>
       <r>    16.8343     0.4954    13.0513 </r>
       <r>    16.9344     0.4574    13.0971 </r>
       <r>    17.0344     0.5812    13.1552 </r>
       <r>    17.1344     0.6957    13.2248 </r>
       <r>    17.2345     0.6411    13.2889 </r>
       <r>    17.3345     0.4753    13.3365 </r>
       <r>    17.4345     0.4769    13.3842 </r>
       <r>    17.5346     0.5912    13.4433 </r>
       <r>    17.6346     0.5645    13.4998 </r>
       <r>    17.7346     0.4630    13.5461 </r>
       <r>    17.8347     0.3038    13.5765 </r>
       <r>    17.9347     0.0820    13.5847 </r>
       <r>    18.0347    -0.0230    13.5824 </r>
       <r>    18.1348     0.1048    13.5929 </r>
       <r>    18.2348     0.3857    13.6315 </r>
       <r>    18.3348     0.5205    13.6835 </r>
       <r>    18.4349     0.4046    13.7240 </r>
       <r>    18.5349     0.3435    13.7584 </r>
       <r>    18.6349     0.5383    13.8122 </r>
       <r>    18.7350     0.9123    13.9035 </r>
       <r>    18.8350     1.1275    14.0163 </r>
       <r>    18.9350     0.8836    14.1047 </r>
       <r>    19.0351     0.6804    14.1727 </r>
       <r>    19.1351     1.0122    14.2740 </r>
       <r>    19.2351     1.3126    14.4053 </r>
       <r>    19.3352     0.9872    14.5040 </r>
       <r>    19.4352     0.3515    14.5392 </r>
       <r>    19.5352    -0.0107    14.5381 </r>
       <r>    19.6353     0.0623    14.5444 </r>
       <r>    19.7353     0.4093    14.5853 </r>
       <r>    19.8353     0.6896    14.6543 </r>
       <r>    19.9354     0.6788    14.7222 </r>
       <r>    20.0354     0.5202    14.7742 </r>
       <r>    20.1354     0.3802    14.8123 </r>
       <r>    20.2355     0.4263    14.8549 </r>
       <r>    20.3355     0.7247    14.9274 </r>
       <r>    20.4355     0.9218    15.0196 </r>
       <r>    20.5356     0.8113    15.1008 </r>
       <r>    20.6356     0.5605    15.1568 </r>
       <r>    20.7356     0.3344    15.1903 </r>
       <r>    20.8357     0.2252    15.2128 </r>
       <r>    20.9357     0.1684    15.2297 </r>
       <r>    21.0357     0.0715    15.2368 </r>
       <r>    21.1358    -0.0106    15.2358 </r>
       <r>    21.2358    -0.0306    15.2327 </r>
       <r>    21.3358     0.0256    15.2353 </r>
       <r>    21.4359     0.2242    15.2577 </r>
       <r>    21.5359     0.5993    15.3176 </r>
       <r>    21.6359     0.9394    15.4116 </r>
       <r>    21.7360     0.9671    15.5084 </r>
       <r>    21.8360     0.8115    15.5895 </r>
       <r>    21.9360     0.6441    15.6540 </r>
       <r>    22.0361     0.4040    15.6944 </r>
       <r>    22.1361     0.1511    15.7095 </r>
       <r>    22.2361     0.0224    15.7117 </r>
       <r>    22.3362     0.0200    15.7137 </r>
       <r>    22.4362     0.1213    15.7259 </r>
       <r>    22.5362     0.3625    15.7621 </r>
       <r>    22.6363     0.5848    15.8206 </r>
       <r>    22.7363     0.5626    15.8769 </r>
       <r>    22.8363     0.3622    15.9132 </r>
       <r>    22.9364     0.1531    15.9285 </r>
       <r>    23.0364     0.0356    15.9320 </r>
       <r>    23.1364     0.0272    15.9348 </r>
       <r>    23.2365     0.0869    15.9435 </r>
       <r>    23.3365     0.1741    15.9609 </r>
       <r>    23.4365     0.1858    15.9795 </r>
       <r>    23.5366     0.0893    15.9884 </r>
       <r>    23.6366     0.0082    15.9892 </r>
       <r>    23.7366     0.0084    15.9900 </r>
       <r>    23.8367     0.0401    15.9940 </r>
       <r>    23.9367     0.0438    15.9984 </r>
       <r>    24.0367     0.0187    16.0003 </r>
       <r>    24.1368     0.0004    16.0003 </r>
       <r>    24.2368    -0.0024    16.0001 </r>
       <r>    24.3368    -0.0008    16.0000 </r>
       <r>    24.4369    -0.0001    16.0000 </r>
       <r>    24.5369    -0.0000    16.0000 </r>
       <r>    24.6369    -0.0000    16.0000 </r>
       <r>    24.7370    -0.0000    16.0000 </r>
       <r>    24.8370    -0.0000    16.0000 </r>
       <r>    24.9370    -0.0000    16.0000 </r>
       <r>    25.0371    -0.0000    16.0000 </r>
       <r>    25.1371    -0.0000    16.0000 </r>
       <r>    25.2371     0.0000    16.0000 </r>
       <r>    25.3372     0.0000    16.0000 </r>
       <r>    25.4372     0.0000    16.0000 </r>
       <r>    25.5372     0.0000    16.0000 </r>
       <r>    25.6373     0.0000    16.0000 </r>
       <r>    25.7373     0.0000    16.0000 </r>
       <r>    25.8373     0.0000    16.0000 </r>
      </set>
     </set>
    </array>
   </total>
  </dos>
 </calculation>
 <structure name="finalpos" >
  <crystal>
   <varray name="basis" >
    <v>      -1.65000000       1.65000000       1.65000000 </v>
    <v>       1.65000000      -1.65000000       1.65000000 </v>
    <v>       1.65000000       1.65000000      -1.65000000 </v>
   </varray>
   <i name="volume">     17.96850000 </i>
   <varray name="rec_basis" >
    <v>       0.00000000       0.30303030       0.30303030 </v>
    <v>       0.30303030       0.00000000       0.30303030 </v>
    <v>       0.30303030       0.30303030       0.00000000 </v>
   </varray>
  </crystal>
  <varray name="positions" >
   <v>       0.00000000       0.00000000       0.00000000 </v>
  </varray>
 </structure>
</modeling>
