FCC Au                                  
   4.30000000000000     
     0.000000    0.438642    0.438642
     0.438642    0.000000    0.438642
     0.438642    0.438642    0.000000
   Au
     1
Direct
  0.000000  0.000000  0.000000
 
   24   24   24
  96.940      92.833      82.410      69.496      56.597      44.060      31.857      21.029      13.038      8.3000    
  5.8072      4.5479      4.1747      4.5479      5.8072      8.3000      13.038      21.029      31.857      44.060    
  56.597      69.496      82.410      92.833      92.833      85.604      74.145      61.626      49.265      37.045    
  25.541      16.210      10.080      6.7512      4.9784      4.2161      4.2161      4.9785      6.7512      10.080    
  16.210      25.541      37.045      49.265      61.626      74.145      85.604      92.833      82.410      74.145    
  63.447      52.064      40.430      28.992      19.033      11.879      7.7081      5.4636      4.3287      3.9934    
  4.3287      5.4636      7.7081      11.879      19.033      28.992      40.430      52.064      63.447      74.145    
  82.410      85.604      69.496      61.626      52.064      41.605      30.851      20.971      13.355      8.5718    
  5.9315      4.4810      3.8636      3.8636      4.4810      5.9315      8.5718      13.355      20.971      30.851    
  41.605      52.065      61.626      69.496      74.145      74.145      56.597      49.265      40.430      30.851    
  21.660      14.187      9.1858      6.3014      4.6316      3.7982      3.5530      3.7982      4.6316      6.3014    
  9.1858      14.187      21.660      30.851      40.430      49.265      56.597      61.626      63.447      61.626    
  44.060      37.045      28.992      20.971      14.187      9.4090      6.5054      4.7407      3.7699      3.3582    
  3.3582      3.7699      4.7407      6.5054      9.4090      14.187      20.971      28.992      37.045      44.060    
  49.265      52.065      52.064      49.265      31.857      25.541      19.033      13.355      9.1858      6.5054    
  4.7804      3.7601      3.2506      3.0991      3.2506      3.7600      4.7804      6.5054      9.1858      13.355    
  19.033      25.541      31.857      37.045      40.430      41.605      40.430      37.045      21.029      16.210    
  11.879      8.5718      6.3014      4.7407      3.7601      3.2161      2.9790      2.9790      3.2161      3.7600    
  4.7407      6.3014      8.5718      11.879      16.210      21.029      25.541      28.992      30.851      30.851    
  28.992      25.541      13.038      10.080      7.7081      5.9315      4.6316      3.7699      3.2506      2.9790    
  2.8950      2.9790      3.2506      3.7699      4.6316      5.9315      7.7081      10.080      13.038      16.210    
  19.033      20.971      21.660      20.971      19.033      16.210      8.3000      6.7512      5.4636      4.4810    
  3.7982      3.3582      3.0991      2.9790      2.9790      3.0991      3.3582      3.7982      4.4810      5.4636    
  6.7512      8.3000      10.080      11.879      13.355      14.187      14.187      13.355      11.879      10.080    
  5.8072      4.9784      4.3287      3.8636      3.5530      3.3582      3.2506      3.2161      3.2506      3.3582    
  3.5530      3.8636      4.3287      4.9784      5.8072      6.7512      7.7081      8.5718      9.1858      9.4090    
  9.1858      8.5718      7.7081      6.7512      4.5479      4.2161      3.9934      3.8636      3.7982      3.7699    
  3.7600      3.7600      3.7699      3.7982      3.8636      3.9934      4.2161      4.5479      4.9784      5.4636    
  5.9315      6.3014      6.5054      6.5054      6.3014      5.9315      5.4636      4.9785      4.1747      4.2161    
  4.3287      4.4810      4.6316      4.7407      4.7804      4.7407      4.6316      4.4810      4.3287      4.2161    
  4.1747      4.2161      4.3287      4.4810      4.6316      4.7407      4.7804      4.7407      4.6316      4.4810    
  4.3287      4.2161      4.5479      4.9785      5.4636      5.9315      6.3014      6.5054      6.5054      6.3014    
  5.9315      5.4636      4.9784      4.5479      4.2161      3.9934      3.8636      3.7982      3.7699      3.7600    
  3.7600      3.7699      3.7982      3.8636      3.9934      4.2161      5.8072      6.7512      7.7081      8.5718    
  9.1858      9.4090      9.1858      8.5718      7.7081      6.7512      5.8072      4.9784      4.3287      3.8636    
  3.5530      3.3582      3.2506      3.2161      3.2506      3.3582      3.5530      3.8636      4.3287      4.9784    
  8.3000      10.080      11.879      13.355      14.187      14.187      13.355      11.879      10.080      8.3000    
  6.7512      5.4636      4.4810      3.7982      3.3582      3.0991      2.9790      2.9790      3.0991      3.3582    
  3.7982      4.4810      5.4636      6.7512      13.038      16.210      19.033      20.971      21.660      20.971    
  19.033      16.210      13.038      10.080      7.7081      5.9315      4.6316      3.7699      3.2506      2.9790    
  2.8950      2.9790      3.2506      3.7699      4.6316      5.9315      7.7081      10.080      21.029      25.541    
  28.992      30.851      30.851      28.992      25.541      21.029      16.210      11.879      8.5718      6.3014    
  4.7407      3.7600      3.2161      2.9790      2.9790      3.2161      3.7601      4.7407      6.3014      8.5718    
  11.879      16.210      31.857      37.045      40.430      41.605      40.430      37.045      31.857      25.541    
  19.033      13.355      9.1858      6.5054      4.7804      3.7600      3.2506      3.0991      3.2506      3.7601    
  4.7804      6.5054      9.1858      13.355      19.033      25.541      44.060      49.265      52.064      52.065    
  49.265      44.060      37.045      28.992      20.971      14.187      9.4090      6.5054      4.7407      3.7699    
  3.3582      3.3582      3.7699      4.7407      6.5054      9.4090      14.187      20.971      28.992      37.045    
  56.597      61.626      63.447      61.626      56.597      49.265      40.430      30.851      21.660      14.187    
  9.1858      6.3014      4.6316      3.7982      3.5530      3.7982      4.6316      6.3014      9.1858      14.187    
  21.660      30.851      40.430      49.265      69.496      74.145      74.145      69.496      61.626      52.065    
  41.605      30.851      20.971      13.355      8.5718      5.9315      4.4810      3.8636      3.8636      4.4810    
  5.9315      8.5718      13.355      20.971      30.851      41.605      52.064      61.626      82.410      85.604    
  82.410      74.145      63.447      52.064      40.430      28.992      19.033      11.879      7.7081      5.4636    
  4.3287      3.9934      4.3287      5.4636      7.7081      11.879      19.033      28.992      40.430      52.064    
  63.447      74.145      92.833      92.833      85.604      74.145      61.626      49.265      37.045      25.541    
  16.210      10.080      6.7512      4.9785      4.2161      4.2161      4.9784      6.7512      10.080      16.210    
  25.541      37.045      49.265      61.626      74.145      85.604      92.833      85.604      74.145      61.626    
  49.265      37.045      25.541      16.210      10.080      6.7512      4.9784      4.2161      4.2161      4.9785    
  6.7512      10.080      16.210      25.541      37.045      49.265      61.626      74.145      85.604      92.833    
  85.604      76.662      65.275      53.429      41.530      29.870      19.652      12.243      7.8988      5.5785    
  4.4047      4.0576      4.4047      5.5785      7.8988      12.243      19.652      29.870      41.530      53.429    
  65.275      76.662      85.604      89.086      74.145      65.275      54.892      43.898      32.714      22.344    
  14.212      9.0300      6.1926      4.6445      3.9836      3.9836      4.6445      6.1926      9.0300      14.211    
  22.344      32.714      43.898      54.892      65.275      74.145      79.514      79.514      61.626      53.429    
  43.898      33.701      23.811      15.587      9.9607      6.7256      4.8903      3.9696      3.6985      3.9696    
  4.8903      6.7256      9.9607      15.587      23.811      33.701      43.898      53.429      61.626      67.471    
  69.638      67.471      49.265      41.530      32.714      23.811      16.080      10.489      7.0902      5.0910    
  3.9855      3.5171      3.5171      3.9855      5.0910      7.0902      10.489      16.080      23.811      32.714    
  41.530      49.265      55.149      58.397      58.397      55.149      37.045      29.870      22.344      15.587    
  10.489      7.2208      5.2036      4.0058      3.4102      3.2340      3.4102      4.0058      5.2036      7.2208    
  10.489      15.587      22.344      29.870      37.045      42.917      46.778      48.130      46.778      42.917    
  25.541      19.652      14.212      9.9607      7.0902      5.2036      4.0144      3.3602      3.0787      3.0787    
  3.3602      4.0144      5.2036      7.0902      9.9607      14.212      19.652      25.541      30.937      35.019    
  37.209      37.209      35.019      30.937      16.210      12.243      9.0300      6.7256      5.0910      4.0058    
  3.3602      3.0290      2.9281      3.0290      3.3602      4.0058      5.0910      6.7256      9.0300      12.243    
  16.210      20.368      23.995      26.451      27.318      26.451      23.995      20.368      10.080      7.8988    
  6.1926      4.8903      3.9855      3.4102      3.0787      2.9281      2.9281      3.0787      3.4102      3.9855    
  4.8903      6.1926      7.8988      10.080      12.641      15.206      17.281      18.439      18.439      17.281    
  15.205      12.641      6.7512      5.5785      4.6445      3.9696      3.5171      3.2340      3.0787      3.0290    
  3.0787      3.2340      3.5171      3.9696      4.6445      5.5785      6.7512      8.0924      9.5326      10.867    
  11.818      12.164      11.818      10.867      9.5326      8.0924      4.9784      4.4047      3.9836      3.6985    
  3.5171      3.4102      3.3602      3.3602      3.4102      3.5171      3.6985      3.9836      4.4047      4.9784    
  5.6837      6.4507      7.1751      7.7556      8.0840      8.0840      7.7556      7.1751      6.4507      5.6837    
  4.2161      4.0576      3.9836      3.9696      3.9855      4.0058      4.0144      4.0058      3.9855      3.9696    
  3.9836      4.0576      4.2161      4.4662      4.7889      5.1388      5.4541      5.6733      5.7517      5.6733    
  5.4541      5.1389      4.7889      4.4662      4.2161      4.4047      4.6445      4.8903      5.0910      5.2036    
  5.2036      5.0910      4.8903      4.6445      4.4047      4.2161      4.1059      4.0775      4.1131      4.1817    
  4.2500      4.2914      4.2914      4.2500      4.1817      4.1131      4.0775      4.1059      4.9785      5.5785    
  6.1926      6.7256      7.0902      7.2208      7.0902      6.7256      6.1926      5.5785      4.9784      4.4662    
  4.0775      3.8109      3.6423      3.5429      3.4908      3.4745      3.4908      3.5429      3.6423      3.8109    
  4.0775      4.4662      6.7512      7.8988      9.0300      9.9607      10.489      10.489      9.9607      9.0300    
  7.8988      6.7512      5.6837      4.7889      4.1131      3.6423      3.3346      3.1495      3.0621      3.0621    
  3.1495      3.3346      3.6423      4.1131      4.7889      5.6837      10.080      12.243      14.211      15.587    
  16.080      15.587      14.212      12.243      10.080      8.0924      6.4507      5.1388      4.1817      3.5429    
  3.1495      2.9380      2.8713      2.9380      3.1495      3.5429      4.1817      5.1388      6.4507      8.0924    
  16.210      19.652      22.344      23.811      23.811      22.344      19.652      16.210      12.641      9.5326    
  7.1751      5.4541      4.2500      3.4908      3.0621      2.8713      2.8713      3.0621      3.4908      4.2500    
  5.4541      7.1751      9.5326      12.641      25.541      29.870      32.714      33.701      32.714      29.870    
  25.541      20.368      15.206      10.867      7.7556      5.6733      4.2914      3.4745      3.0621      2.9380    
  3.0621      3.4745      4.2914      5.6733      7.7556      10.867      15.206      20.368      37.045      41.530    
  43.898      43.898      41.530      37.045      30.937      23.995      17.281      11.818      8.0840      5.7517    
  4.2914      3.4908      3.1495      3.1495      3.4908      4.2914      5.7517      8.0839      11.818      17.281    
  23.995      30.937      49.265      53.429      54.892      53.429      49.265      42.917      35.019      26.451    
  18.439      12.164      8.0840      5.6733      4.2500      3.5429      3.3346      3.5429      4.2500      5.6733    
  8.0839      12.164      18.439      26.451      35.019      42.917      61.626      65.275      65.275      61.626    
  55.149      46.778      37.209      27.318      18.439      11.818      7.7556      5.4541      4.1817      3.6423    
  3.6423      4.1817      5.4541      7.7556      11.818      18.439      27.318      37.209      46.778      55.149    
  74.145      76.662      74.145      67.471      58.397      48.130      37.209      26.451      17.281      10.867    
  7.1751      5.1389      4.1131      3.8109      4.1131      5.1388      7.1751      10.867      17.281      26.451    
  37.209      48.130      58.397      67.471      85.604      85.604      79.514      69.638      58.397      46.778    
  35.019      23.995      15.205      9.5326      6.4507      4.7889      4.0775      4.0775      4.7889      6.4507    
  9.5326      15.206      23.995      35.019      46.778      58.397      69.638      79.514      92.833      89.086    
  79.514      67.471      55.149      42.917      30.937      20.368      12.641      8.0924      5.6837      4.4662    
  4.1059      4.4662      5.6837      8.0924      12.641      20.368      30.937      42.917      55.149      67.471    
  79.514      89.086      82.410      74.145      63.447      52.064      40.430      28.992      19.033      11.879    
  7.7081      5.4636      4.3287      3.9934      4.3287      5.4636      7.7081      11.879      19.033      28.992    
  40.430      52.064      63.447      74.145      82.410      85.604      74.145      65.275      54.892      43.898    
  32.714      22.344      14.212      9.0300      6.1926      4.6445      3.9836      3.9836      4.6445      6.1926    
  9.0300      14.211      22.344      32.714      43.898      54.892      65.275      74.145      79.514      79.514    
  63.447      54.892      45.092      34.682      24.564      16.086      10.240      6.8757      4.9820      4.0300    
  3.7497      4.0300      4.9820      6.8757      10.240      16.086      24.564      34.682      45.092      54.892    
  63.447      69.638      71.950      69.638      52.064      43.898      34.682      25.342      17.127      11.098    
  7.4134      5.2834      4.1035      3.6033      3.6033      4.1035      5.2834      7.4134      11.098      17.127    
  25.342      34.682      43.898      52.065      58.397      61.952      61.952      58.397      40.430      32.714    
  24.564      17.127      11.408      7.7143      5.4918      4.1732      3.5177      3.3243      3.5177      4.1732    
  5.4918      7.7143      11.408      17.127      24.564      32.714      40.430      46.778      51.004      52.498    
  51.004      46.778      28.992      22.344      16.086      11.098      7.7143      5.5662      4.2146      3.4729    
  3.1559      3.1559      3.4729      4.2146      5.5662      7.7143      11.098      16.086      22.344      28.992    
  35.019      39.567      42.014      42.014      39.567      35.019      19.033      14.212      10.240      7.4134    
  5.4918      4.2146      3.4589      3.0760      2.9604      3.0760      3.4589      4.2146      5.4918      7.4134    
  10.240      14.212      19.033      23.995      28.265      31.136      32.146      31.136      28.265      23.995    
  11.879      9.0300      6.8757      5.2834      4.1732      3.4729      3.0760      2.8986      2.8986      3.0760    
  3.4729      4.1731      5.2834      6.8757      9.0300      11.879      15.206      18.488      21.112      22.565    
  22.565      21.112      18.488      15.206      7.7081      6.1926      4.9820      4.1035      3.5177      3.1559    
  2.9604      2.8986      2.9604      3.1559      3.5177      4.1035      4.9820      6.1926      7.7081      9.5326    
  11.538      13.392      14.706      15.182      14.706      13.392      11.538      9.5326      5.4636      4.6445    
  4.0300      3.6033      3.3243      3.1559      3.0760      3.0760      3.1559      3.3243      3.6033      4.0300    
  4.6445      5.4636      6.4507      7.5139      8.5591      9.4241      9.9186      9.9186      9.4241      8.5591    
  7.5139      6.4507      4.3287      3.9836      3.7497      3.6033      3.5177      3.4729      3.4589      3.4729    
  3.5177      3.6033      3.7497      3.9836      4.3287      4.7889      5.3348      5.9002      6.3966      6.7369    
  6.8586      6.7369      6.3966      5.9002      5.3348      4.7889      3.9934      3.9836      4.0300      4.1035    
  4.1732      4.2146      4.2146      4.1731      4.1035      4.0300      3.9836      3.9934      4.0775      4.2347    
  4.4420      4.6592      4.8390      4.9408      4.9408      4.8391      4.6592      4.4421      4.2347      4.0775    
  4.3287      4.6445      4.9820      5.2834      5.4918      5.5662      5.4918      5.2834      4.9820      4.6445    
  4.3287      4.0775      3.9103      3.8220      3.7919      3.7938      3.8046      3.8099      3.8047      3.7938    
  3.7919      3.8220      3.9102      4.0775      5.4636      6.1926      6.8757      7.4134      7.7143      7.7143    
  7.4134      6.8757      6.1926      5.4636      4.7889      4.2347      3.8220      3.5369      3.3512      3.2394    
  3.1863      3.1863      3.2394      3.3512      3.5369      3.8220      4.2347      4.7889      7.7081      9.0300    
  10.240      11.098      11.408      11.098      10.240      9.0300      7.7081      6.4507      5.3348      4.4420    
  3.7919      3.3512      3.0719      2.9169      2.8670      2.9169      3.0719      3.3512      3.7919      4.4421    
  5.3348      6.4507      11.879      14.211      16.086      17.127      17.127      16.086      14.212      11.879    
  9.5326      7.5139      5.9002      4.6592      3.7938      3.2394      2.9169      2.7692      2.7692      2.9169    
  3.2394      3.7938      4.6592      5.9002      7.5139      9.5326      19.033      22.344      24.564      25.342    
  24.564      22.344      19.033      15.206      11.538      8.5591      6.3966      4.8390      3.8046      3.1863    
  2.8670      2.7692      2.8670      3.1863      3.8047      4.8391      6.3966      8.5591      11.538      15.205    
  28.992      32.714      34.682      34.682      32.714      28.992      23.995      18.488      13.392      9.4241    
  6.7369      4.9408      3.8099      3.1863      2.9169      2.9169      3.1863      3.8099      4.9408      6.7369    
  9.4241      13.392      18.488      23.995      40.430      43.898      45.092      43.898      40.430      35.019    
  28.265      21.112      14.706      9.9186      6.8586      4.9408      3.8047      3.2394      3.0719      3.2394    
  3.8047      4.9408      6.8586      9.9186      14.706      21.112      28.265      35.019      52.064      54.892    
  54.892      52.065      46.778      39.567      31.136      22.565      15.182      9.9186      6.7369      4.8391    
  3.7938      3.3512      3.3512      3.7938      4.8391      6.7369      9.9186      15.182      22.565      31.136    
  39.567      46.778      63.447      65.275      63.447      58.397      51.004      42.014      32.146      22.565    
  14.706      9.4241      6.3966      4.6592      3.7919      3.5369      3.7919      4.6592      6.3966      9.4241    
  14.706      22.565      32.146      42.014      51.004      58.397      74.145      74.145      69.638      61.952    
  52.498      42.014      31.136      21.112      13.392      8.5591      5.9002      4.4421      3.8220      3.8220    
  4.4421      5.9002      8.5591      13.392      21.112      31.136      42.014      52.498      61.952      69.638    
  82.410      79.514      71.950      61.952      51.004      39.567      28.265      18.488      11.538      7.5139    
  5.3348      4.2347      3.9102      4.2347      5.3348      7.5139      11.538      18.488      28.265      39.567    
  51.004      61.952      71.950      79.514      85.604      79.514      69.638      58.397      46.778      35.019    
  23.995      15.206      9.5326      6.4507      4.7889      4.0775      4.0775      4.7889      6.4507      9.5326    
  15.205      23.995      35.019      46.778      58.397      69.638      79.514      85.604      69.496      61.626    
  52.064      41.605      30.851      20.971      13.355      8.5718      5.9315      4.4810      3.8636      3.8636    
  4.4810      5.9315      8.5718      13.355      20.971      30.851      41.605      52.065      61.626      69.496    
  74.145      74.145      61.626      53.429      43.898      33.701      23.811      15.587      9.9607      6.7256    
  4.8903      3.9696      3.6985      3.9696      4.8903      6.7256      9.9607      15.587      23.811      33.701    
  43.898      53.429      61.626      67.471      69.638      67.471      52.064      43.898      34.682      25.342    
  17.127      11.098      7.4134      5.2834      4.1035      3.6033      3.6033      4.1035      5.2834      7.4134    
  11.098      17.127      25.342      34.682      43.898      52.065      58.397      61.952      61.952      58.397    
  41.605      33.701      25.342      17.674      11.739      7.8915      5.5941      4.2326      3.5557      3.3561    
  3.5557      4.2326      5.5941      7.8915      11.739      17.674      25.342      33.701      41.605      48.130    
  52.498      54.049      52.498      48.130      30.851      23.811      17.127      11.739      8.0639      5.7656    
  4.3252      3.5351      3.1981      3.1981      3.5351      4.3252      5.7656      8.0639      11.739      17.127    
  23.811      30.851      37.209      42.014      44.608      44.608      42.014      37.209      20.971      15.587    
  11.098      7.8915      5.7656      4.3588      3.5278      3.1092      2.9836      3.1092      3.5278      4.3588    
  5.7656      7.8915      11.098      15.587      20.971      26.451      31.136      34.279      35.384      34.279    
  31.136      26.451      13.355      9.9607      7.4134      5.5941      4.3252      3.5278      3.0803      2.8825    
  2.8825      3.0803      3.5278      4.3252      5.5941      7.4134      9.9607      13.355      17.281      21.112    
  24.149      25.825      25.825      24.149      21.112      17.281      8.5718      6.7256      5.2834      4.2326    
  3.5351      3.1092      2.8825      2.8115      2.8825      3.1092      3.5351      4.2326      5.2834      6.7256    
  8.5718      10.867      13.392      15.711      17.345      17.933      17.345      15.711      13.392      10.867    
  5.9315      4.8903      4.1035      3.5557      3.1981      2.9836      2.8825      2.8825      2.9836      3.1981    
  3.5557      4.1035      4.8903      5.9315      7.1751      8.5591      9.9610      11.129      11.797      11.797    
  11.129      9.9610      8.5591      7.1751      4.4810      3.9696      3.6033      3.3561      3.1981      3.1092    
  3.0803      3.1092      3.1981      3.3561      3.6033      3.9696      4.4810      5.1388      5.9002      6.6753    
  7.3565      7.8361      8.0103      7.8361      7.3565      6.6753      5.9002      5.1388      3.8636      3.6985    
  3.6033      3.5557      3.5351      3.5278      3.5278      3.5351      3.5557      3.6033      3.6985      3.8636    
  4.1131      4.4420      4.8191      5.1892      5.4863      5.6519      5.6519      5.4863      5.1892      4.8191    
  4.4421      4.1131      3.8636      3.9696      4.1035      4.2326      4.3252      4.3588      4.3252      4.2326    
  4.1035      3.9696      3.8636      3.8109      3.8220      3.8899      3.9925      4.0987      4.1777      4.2068    
  4.1777      4.0987      3.9925      3.8899      3.8220      3.8109      4.4810      4.8903      5.2834      5.5941    
  5.7656      5.7656      5.5941      5.2834      4.8903      4.4810      4.1131      3.8220      3.6167      3.4861    
  3.4102      3.3702      3.3531      3.3531      3.3702      3.4102      3.4860      3.6167      3.8220      4.1131    
  5.9315      6.7256      7.4134      7.8915      8.0639      7.8915      7.4134      6.7256      5.9315      5.1388    
  4.4420      3.8899      3.4861      3.2074      3.0261      2.9229      2.8891      2.9229      3.0261      3.2074    
  3.4860      3.8899      4.4421      5.1389      8.5718      9.9607      11.098      11.739      11.739      11.098    
  9.9607      8.5718      7.1751      5.9002      4.8191      3.9925      3.4102      3.0261      2.7937      2.6836    
  2.6836      2.7937      3.0261      3.4102      3.9925      4.8191      5.9002      7.1751      13.355      15.587    
  17.127      17.674      17.127      15.587      13.355      10.867      8.5591      6.6753      5.1892      4.0987    
  3.3702      2.9229      2.6836      2.6084      2.6836      2.9229      3.3702      4.0987      5.1892      6.6753    
  8.5591      10.867      20.971      23.811      25.342      25.342      23.811      20.971      17.281      13.392    
  9.9610      7.3565      5.4863      4.1777      3.3531      2.8891      2.6836      2.6836      2.8891      3.3531    
  4.1777      5.4863      7.3565      9.9610      13.392      17.281      30.851      33.701      34.682      33.701    
  30.851      26.451      21.112      15.711      11.129      7.8361      5.6519      4.2068      3.3531      2.9229    
  2.7937      2.9229      3.3531      4.2068      5.6519      7.8361      11.129      15.711      21.112      26.451    
  41.605      43.898      43.898      41.605      37.209      31.136      24.149      17.345      11.797      8.0103    
  5.6519      4.1777      3.3702      3.0261      3.0261      3.3702      4.1777      5.6519      8.0103      11.797    
  17.345      24.149      31.136      37.209      52.065      53.429      52.065      48.130      42.014      34.279    
  25.825      17.933      11.797      7.8361      5.4863      4.0987      3.4102      3.2074      3.4102      4.0987    
  5.4863      7.8361      11.797      17.933      25.825      34.279      42.014      48.130      61.626      61.626    
  58.397      52.498      44.608      35.384      25.825      17.345      11.129      7.3565      5.1892      3.9925    
  3.4860      3.4860      3.9925      5.1892      7.3565      11.129      17.345      25.825      35.384      44.608    
  52.498      58.397      69.496      67.471      61.952      54.049      44.608      34.279      24.149      15.711    
  9.9610      6.6753      4.8191      3.8899      3.6167      3.8899      4.8191      6.6753      9.9610      15.711    
  24.149      34.279      44.608      54.049      61.952      67.471      74.145      69.638      61.952      52.498    
  42.014      31.136      21.112      13.392      8.5591      5.9002      4.4421      3.8220      3.8220      4.4421    
  5.9002      8.5591      13.392      21.112      31.136      42.014      52.498      61.952      69.638      74.145    
  74.145      67.471      58.397      48.130      37.209      26.451      17.281      10.867      7.1751      5.1388    
  4.1131      3.8109      4.1131      5.1389      7.1751      10.867      17.281      26.451      37.209      48.130    
  58.397      67.471      74.145      76.662      56.597      49.265      40.430      30.851      21.660      14.187    
  9.1858      6.3014      4.6316      3.7982      3.5530      3.7982      4.6316      6.3014      9.1858      14.187    
  21.660      30.851      40.430      49.265      56.597      61.626      63.447      61.626      49.265      41.530    
  32.714      23.811      16.080      10.489      7.0902      5.0910      3.9855      3.5171      3.5171      3.9855    
  5.0910      7.0902      10.489      16.080      23.811      32.714      41.530      49.265      55.149      58.397    
  58.397      55.149      40.430      32.714      24.564      17.127      11.408      7.7143      5.4918      4.1732    
  3.5177      3.3243      3.5177      4.1732      5.4918      7.7143      11.408      17.127      24.564      32.714    
  40.430      46.778      51.004      52.498      51.004      46.778      30.851      23.811      17.127      11.739    
  8.0639      5.7656      4.3252      3.5351      3.1981      3.1981      3.5351      4.3252      5.7656      8.0639    
  11.739      17.127      23.811      30.851      37.209      42.014      44.608      44.608      42.014      37.209    
  21.660      16.080      11.408      8.0639      5.8629      4.4104      3.5526      3.1212      2.9920      3.1212    
  3.5526      4.4104      5.8629      8.0639      11.408      16.080      21.660      27.318      32.146      35.384    
  36.524      35.384      32.146      27.318      14.187      10.489      7.7143      5.7656      4.4104      3.5596    
  3.0843      2.8753      2.8753      3.0843      3.5596      4.4104      5.7656      7.7143      10.489      14.187    
  18.439      22.565      25.825      27.620      27.620      25.825      22.565      18.439      9.1858      7.0902    