FCC Au                                  
   4.30000000000000     
    -0.000000    0.471741    0.471741
     0.471741    0.000000    0.471741
     0.471741    0.471741    0.000000
   Au
     1
Direct
  0.000000 -0.000000  0.000000
 
   24   24   24
 0.80796004621E+02 0.77740004280E+02 0.69841629426E+02 0.59797757910E+02 0.49636272397E+02
 0.39837441530E+02 0.30243209100E+02 0.21278925496E+02 0.14004432523E+02 0.91753811239E+01
 0.65508548971E+01 0.52341093779E+01 0.48245937485E+01 0.52341093779E+01 0.65508548971E+01
 0.91753811239E+01 0.14004432523E+02 0.21278925496E+02 0.30243209100E+02 0.39837441530E+02
 0.49636272397E+02 0.59797757910E+02 0.69841629426E+02 0.77740004280E+02 0.77740004280E+02
 0.72284057202E+02 0.63440267496E+02 0.53596334159E+02 0.43893845210E+02 0.34353330032E+02
 0.25097489245E+02 0.16990081139E+02 0.11047952690E+02 0.75188128498E+01 0.56933091503E+01
 0.48702029245E+01 0.48702101967E+01 0.56933208138E+01 0.75188107966E+01 0.11047933590E+02
 0.16990062287E+02 0.25097487829E+02 0.34353336455E+02 0.43893821656E+02 0.53596246833E+02
 0.63440125854E+02 0.72283921437E+02 0.77739948029E+02 0.69841629426E+02 0.63440267496E+02
 0.55032383414E+02 0.46079993992E+02 0.37002758901E+02 0.27927653219E+02 0.19526714943E+02
 0.12862376141E+02 0.85374554929E+01 0.61929635456E+01 0.49928633713E+01 0.46221644453E+01
 0.49928818256E+01 0.61929754339E+01 0.85374410906E+01 0.12862346791E+02 0.19526702538E+02
 0.27927670812E+02 0.37002774295E+02 0.46079950097E+02 0.55032253328E+02 0.63440093558E+02
 0.69841504397E+02 0.72283921437E+02 0.59797757910E+02 0.53596334159E+02 0.46079993992E+02
 0.37919107793E+02 0.29426888984E+02 0.21215683062E+02 0.14297167733E+02 0.94586481499E+01
 0.66616029067E+01 0.51557839771E+01 0.44780564394E+01 0.44780668450E+01 0.51558027139E+01
 0.66616068569E+01 0.94586309074E+01 0.14297149568E+02 0.21215690667E+02 0.29426924474E+02
 0.37919139977E+02 0.46079984397E+02 0.53596275168E+02 0.59797685821E+02 0.63440093558E+02
 0.63440125854E+02 0.49636272397E+02 0.43893845210E+02 0.37002758901E+02 0.29426888984E+02
 0.21806664617E+02 0.15087277304E+02 0.10104276177E+02 0.70348003293E+01 0.53132940273E+01
 0.44077362104E+01 0.41322217034E+01 0.44077451313E+01 0.53133034400E+01 0.70348012247E+01
 0.10104267841E+02 0.15087269569E+02 0.21806671557E+02 0.29426919146E+02 0.37002809440E+02
 0.43893903417E+02 0.49636322202E+02 0.53596275168E+02 0.55032253328E+02 0.53596246833E+02
 0.39837441530E+02 0.34353330032E+02 0.27927653219E+02 0.21215683062E+02 0.15087277304E+02
 0.10336534433E+02 0.72442415376E+01 0.54251289706E+01 0.43794839693E+01 0.39188695139E+01
 0.39188670540E+01 0.43794805978E+01 0.54251306603E+01 0.72442457663E+01 0.10336529613E+02
 0.15087256104E+02 0.21215656833E+02 0.27927649956E+02 0.34353372577E+02 0.39837523324E+02
 0.43893903417E+02 0.46079984397E+02 0.46079950097E+02 0.43893821656E+02 0.30243209100E+02
 0.25097489245E+02 0.19526714943E+02 0.14297167733E+02 0.10104276177E+02 0.72442415376E+01
 0.54653231987E+01 0.43707145784E+01 0.38043990770E+01 0.36334539429E+01 0.38043852766E+01
 0.43707029481E+01 0.54653259746E+01 0.72442498340E+01 0.10104265583E+02 0.14297123615E+02
 0.19526652145E+02 0.25097444145E+02 0.30243208618E+02 0.34353372577E+02 0.37002809440E+02
 0.37919139977E+02 0.37002774295E+02 0.34353336455E+02 0.21278925496E+02 0.16990081139E+02
 0.12862376141E+02 0.94586481499E+01 0.70348003293E+01 0.54251289706E+01 0.43707145784E+01
 0.37683945974E+01 0.35035523777E+01 0.35035441900E+01 0.37683789758E+01 0.43707089128E+01
 0.54251401742E+01 0.70348153318E+01 0.94586436637E+01 0.12862338872E+02 0.16990019622E+02
 0.21278863040E+02 0.25097444145E+02 0.27927649956E+02 0.29426919146E+02 0.29426924474E+02
 0.27927670812E+02 0.25097487829E+02 0.14004432523E+02 0.11047952690E+02 0.85374554929E+01
 0.66616029067E+01 0.53132940273E+01 0.43794839693E+01 0.38043990770E+01 0.35035523777E+01
 0.34112123927E+01 0.35035479760E+01 0.38043955856E+01 0.43794890310E+01 0.53133125199E+01
 0.66616320354E+01 0.85374834928E+01 0.11047963524E+02 0.14004415251E+02 0.16990019622E+02
 0.19526652145E+02 0.21215656833E+02 0.21806671557E+02 0.21215690667E+02 0.19526702538E+02
 0.16990062287E+02 0.91753811239E+01 0.75188128498E+01 0.61929635456E+01 0.51557839771E+01
 0.44077362104E+01 0.39188695139E+01 0.36334539429E+01 0.35035441900E+01 0.35035479760E+01
 0.36334606332E+01 0.39188719067E+01 0.44077368722E+01 0.51557975895E+01 0.61930037595E+01
 0.75188753959E+01 0.91754412603E+01 0.11047963524E+02 0.12862338872E+02 0.14297123615E+02
 0.15087256104E+02 0.15087269569E+02 0.14297149568E+02 0.12862346791E+02 0.11047933590E+02
 0.65508548971E+01 0.56933091503E+01 0.49928633713E+01 0.44780564394E+01 0.41322217034E+01
 0.39188670540E+01 0.38043852766E+01 0.37683789758E+01 0.38043955856E+01 0.39188719067E+01
 0.41322081773E+01 0.44780320720E+01 0.49928535466E+01 0.56933351878E+01 0.65509135680E+01
 0.75188753959E+01 0.85374834928E+01 0.94586436637E+01 0.10104265583E+02 0.10336529613E+02
 0.10104267841E+02 0.94586309074E+01 0.85374410906E+01 0.75188107966E+01 0.52341093779E+01
 0.48702029245E+01 0.46221644453E+01 0.44780668450E+01 0.44077451313E+01 0.43794805978E+01
 0.43707029481E+01 0.43707089128E+01 0.43794890310E+01 0.44077368722E+01 0.44780320720E+01
 0.46221138237E+01 0.48701606902E+01 0.52340949074E+01 0.56933351878E+01 0.61930037595E+01
 0.66616320354E+01 0.70348153318E+01 0.72442498340E+01 0.72442457663E+01 0.70348012247E+01
 0.66616068569E+01 0.61929754339E+01 0.56933208138E+01 0.48245937485E+01 0.48702101967E+01
 0.49928818256E+01 0.51558027139E+01 0.53133034400E+01 0.54251306603E+01 0.54653259746E+01
 0.54251401742E+01 0.53133125199E+01 0.51557975895E+01 0.49928535466E+01 0.48701606902E+01
 0.48245356878E+01 0.48701606902E+01 0.49928535466E+01 0.51557975895E+01 0.53133125199E+01
 0.54251401742E+01 0.54653259746E+01 0.54251306603E+01 0.53133034400E+01 0.51558027139E+01
 0.49928818256E+01 0.48702101967E+01 0.52341093779E+01 0.56933208138E+01 0.61929754339E+01
 0.66616068569E+01 0.70348012247E+01 0.72442457663E+01 0.72442498340E+01 0.70348153318E+01
 0.66616320354E+01 0.61930037595E+01 0.56933351878E+01 0.52340949074E+01 0.48701606902E+01
 0.46221138237E+01 0.44780320720E+01 0.44077368722E+01 0.43794890310E+01 0.43707089128E+01
 0.43707029481E+01 0.43794805978E+01 0.44077451313E+01 0.44780668450E+01 0.46221644453E+01
 0.48702029245E+01 0.65508548971E+01 0.75188107966E+01 0.85374410906E+01 0.94586309074E+01
 0.10104267841E+02 0.10336529613E+02 0.10104265583E+02 0.94586436637E+01 0.85374834928E+01
 0.75188753959E+01 0.65509135680E+01 0.56933351878E+01 0.49928535466E+01 0.44780320720E+01
 0.41322081773E+01 0.39188719067E+01 0.38043955856E+01 0.37683789758E+01 0.38043852766E+01
 0.39188670540E+01 0.41322217034E+01 0.44780564394E+01 0.49928633713E+01 0.56933091503E+01
 0.91753811239E+01 0.11047933590E+02 0.12862346791E+02 0.14297149568E+02 0.15087269569E+02
 0.15087256104E+02 0.14297123615E+02 0.12862338872E+02 0.11047963524E+02 0.91754412603E+01
 0.75188753959E+01 0.61930037595E+01 0.51557975895E+01 0.44077368722E+01 0.39188719067E+01
 0.36334606332E+01 0.35035479760E+01 0.35035441900E+01 0.36334539429E+01 0.39188695139E+01
 0.44077362104E+01 0.51557839771E+01 0.61929635456E+01 0.75188128498E+01 0.14004432523E+02
 0.16990062287E+02 0.19526702538E+02 0.21215690667E+02 0.21806671557E+02 0.21215656833E+02
 0.19526652145E+02 0.16990019622E+02 0.14004415251E+02 0.11047963524E+02 0.85374834928E+01
 0.66616320354E+01 0.53133125199E+01 0.43794890310E+01 0.38043955856E+01 0.35035479760E+01
 0.34112123927E+01 0.35035523777E+01 0.38043990770E+01 0.43794839693E+01 0.53132940273E+01
 0.66616029067E+01 0.85374554929E+01 0.11047952690E+02 0.21278925496E+02 0.25097487829E+02
 0.27927670812E+02 0.29426924474E+02 0.29426919146E+02 0.27927649956E+02 0.25097444145E+02
 0.21278863040E+02 0.16990019622E+02 0.12862338872E+02 0.94586436637E+01 0.70348153318E+01
 0.54251401742E+01 0.43707089128E+01 0.37683789758E+01 0.35035441900E+01 0.35035523777E+01
 0.37683945974E+01 0.43707145784E+01 0.54251289706E+01 0.70348003293E+01 0.94586481499E+01
 0.12862376141E+02 0.16990081139E+02 0.30243209100E+02 0.34353336455E+02 0.37002774295E+02
 0.37919139977E+02 0.37002809440E+02 0.34353372577E+02 0.30243208618E+02 0.25097444145E+02
 0.19526652145E+02 0.14297123615E+02 0.10104265583E+02 0.72442498340E+01 0.54653259746E+01
 0.43707029481E+01 0.38043852766E+01 0.36334539429E+01 0.38043990770E+01 0.43707145784E+01
 0.54653231987E+01 0.72442415376E+01 0.10104276177E+02 0.14297167733E+02 0.19526714943E+02
 0.25097489245E+02 0.39837441530E+02 0.43893821656E+02 0.46079950097E+02 0.46079984397E+02
 0.43893903417E+02 0.39837523324E+02 0.34353372577E+02 0.27927649956E+02 0.21215656833E+02
 0.15087256104E+02 0.10336529613E+02 0.72442457663E+01 0.54251306603E+01 0.43794805978E+01
 0.39188670540E+01 0.39188695139E+01 0.43794839693E+01 0.54251289706E+01 0.72442415376E+01
 0.10336534433E+02 0.15087277304E+02 0.21215683062E+02 0.27927653219E+02 0.34353330032E+02
 0.49636272397E+02 0.53596246833E+02 0.55032253328E+02 0.53596275168E+02 0.49636322202E+02
 0.43893903417E+02 0.37002809440E+02 0.29426919146E+02 0.21806671557E+02 0.15087269569E+02
 0.10104267841E+02 0.70348012247E+01 0.53133034400E+01 0.44077451313E+01 0.41322217034E+01
 0.44077362104E+01 0.53132940273E+01 0.70348003293E+01 0.10104276177E+02 0.15087277304E+02
 0.21806664617E+02 0.29426888984E+02 0.37002758901E+02 0.43893845210E+02 0.59797757910E+02
 0.63440125854E+02 0.63440093558E+02 0.59797685821E+02 0.53596275168E+02 0.46079984397E+02
 0.37919139977E+02 0.29426924474E+02 0.21215690667E+02 0.14297149568E+02 0.94586309074E+01
 0.66616068569E+01 0.51558027139E+01 0.44780668450E+01 0.44780564394E+01 0.51557839771E+01
 0.66616029067E+01 0.94586481499E+01 0.14297167733E+02 0.21215683062E+02 0.29426888984E+02
 0.37919107793E+02 0.46079993992E+02 0.53596334159E+02 0.69841629426E+02 0.72283921437E+02
 0.69841504397E+02 0.63440093558E+02 0.55032253328E+02 0.46079950097E+02 0.37002774295E+02
 0.27927670812E+02 0.19526702538E+02 0.12862346791E+02 0.85374410906E+01 0.61929754339E+01
 0.49928818256E+01 0.46221644453E+01 0.49928633713E+01 0.61929635456E+01 0.85374554929E+01
 0.12862376141E+02 0.19526714943E+02 0.27927653219E+02 0.37002758901E+02 0.46079993992E+02
 0.55032383414E+02 0.63440267496E+02 0.77740004280E+02 0.77739948029E+02 0.72283921437E+02
 0.63440125854E+02 0.53596246833E+02 0.43893821656E+02 0.34353336455E+02 0.25097487829E+02
 0.16990062287E+02 0.11047933590E+02 0.75188107966E+01 0.56933208138E+01 0.48702101967E+01
 0.48702029245E+01 0.56933091503E+01 0.75188128498E+01 0.11047952690E+02 0.16990081139E+02
 0.25097489245E+02 0.34353330032E+02 0.43893845210E+02 0.53596334159E+02 0.63440267496E+02
 0.72284057202E+02 0.77740004280E+02 0.72284057202E+02 0.63440267496E+02 0.53596334159E+02
 0.43893845210E+02 0.34353330032E+02 0.25097489245E+02 0.16990081139E+02 0.11047952690E+02
 0.75188128498E+01 0.56933091503E+01 0.48702029245E+01 0.48702101967E+01 0.56933208138E+01
 0.75188107966E+01 0.11047933590E+02 0.16990062287E+02 0.25097487829E+02 0.34353336455E+02
 0.43893821656E+02 0.53596246833E+02 0.63440125854E+02 0.72283921437E+02 0.77739948029E+02
 0.72284057202E+02 0.65401066011E+02 0.56471063352E+02 0.47140984567E+02 0.37849705696E+02
 0.28628916441E+02 0.20066394828E+02 0.13220273258E+02 0.87421053399E+01 0.63128498552E+01
 0.50765497670E+01 0.46937639361E+01 0.50765710517E+01 0.63128625389E+01 0.87420863095E+01
 0.13220236836E+02 0.20066378946E+02 0.28628934198E+02 0.37849714241E+02 0.47140912411E+02
 0.56470879963E+02 0.65400829751E+02 0.72283889702E+02 0.74924317111E+02 0.63440267496E+02
 0.56471063352E+02 0.48285301388E+02 0.39687261518E+02 0.30897545023E+02 0.22381399001E+02
 0.15109549879E+02 0.99426924092E+01 0.69316252644E+01 0.53328995661E+01 0.46113642655E+01
 0.46113788902E+01 0.53329244298E+01 0.69316260830E+01 0.99426621808E+01 0.15109521826E+02
 0.22381410815E+02 0.30897589202E+02 0.39687277065E+02 0.48285224673E+02 0.56470895231E+02
 0.63440091057E+02 0.67612323912E+02 0.67612399375E+02 0.53596334159E+02 0.47140984567E+02
 0.39687261518E+02 0.31677835988E+02 0.23616130676E+02 0.16387683504E+02 0.10907621756E+02
 0.74799776410E+01 0.55885796544E+01 0.45967178352E+01 0.42936386004E+01 0.45967367783E+01
 0.55885949070E+01 0.74799700670E+01 0.10907599718E+02 0.16387677728E+02 0.23616162990E+02
 0.31677893223E+02 0.39687302829E+02 0.47140977915E+02 0.53596287660E+02 0.58207089034E+02
 0.59911455454E+02 0.58207132180E+02 0.43893845210E+02 0.37849705696E+02 0.30897545023E+02
 0.23616130676E+02 0.16838408971E+02 0.11445132802E+02 0.78638273658E+01 0.57920138191E+01
 0.46155362684E+01 0.40941849499E+01 0.40941892005E+01 0.46155450416E+01 0.57920186039E+01
 0.78638227341E+01 0.11445122315E+02 0.16838404741E+02 0.23616146574E+02 0.30897587926E+02
 0.37849770206E+02 0.43893914762E+02 0.48506982459E+02 0.51061946484E+02 0.51061926481E+02
 0.48506929047E+02 0.34353330032E+02 0.28628916441E+02 0.22381399001E+02 0.16387683504E+02
 0.11445132802E+02 0.80022139893E+01 0.59039411782E+01 0.46386002545E+01 0.39802632338E+01
 0.37814518523E+01 0.39802572767E+01 0.46385963864E+01 0.59039437972E+01 0.80022149719E+01
 0.11445118124E+02 0.16387650972E+02 0.22381368357E+02 0.28628917752E+02 0.34353377165E+02
 0.38959192298E+02 0.41975162090E+02 0.43031023913E+02 0.41975107569E+02 0.38959119395E+02
 0.25097489245E+02 0.20066394828E+02 0.15109549879E+02 0.10907621756E+02 0.78638273658E+01
 0.59039411782E+01 0.46481804610E+01 0.39286794348E+01 0.36134219974E+01 0.36134136873E+01
 0.39286640066E+01 0.46481752535E+01 0.59039499064E+01 0.78638319965E+01 0.10907598169E+02
 0.15109492960E+02 0.20066327587E+02 0.25097445209E+02 0.29515994647E+02 0.32778970140E+02
 0.34510923898E+02 0.34510913100E+02 0.32778952559E+02 0.29516000178E+02 0.16990081139E+02
 0.13220273258E+02 0.99426924092E+01 0.74799776410E+01 0.57920138191E+01 0.46386002545E+01
 0.39286794348E+01 0.35606726861E+01 0.34486846884E+01 0.35606611010E+01 0.39286695192E+01
 0.46386051455E+01 0.57920324099E+01 0.74799930209E+01 0.99426844934E+01 0.13220234386E+02
 0.16990021400E+02 0.20710469025E+02 0.23819769377E+02 0.25871068210E+02 0.26586202264E+02
 0.25871091326E+02 0.23819814901E+02 0.20710529916E+02 0.11047952690E+02 0.87421053399E+01
 0.69316252644E+01 0.55885796544E+01 0.46155362684E+01 0.39802632338E+01 0.36134219974E+01
 0.34486846884E+01 0.34486837074E+01 0.36134202340E+01 0.39802646663E+01 0.46155472604E+01
 0.55886050619E+01 0.69316621827E+01 0.87421401789E+01 0.11047966795E+02 0.13620434233E+02
 0.16066605780E+02 0.17971614399E+02 0.19010972377E+02 0.19010990796E+02 0.17971658180E+02
 0.16066648444E+02 0.13620451980E+02 0.75188128498E+01 0.63128498552E+01 0.53328995661E+01
 0.45967178352E+01 0.40941849499E+01 0.37814518523E+01 0.36134136873E+01 0.35606611010E+01
 0.36134202340E+01 0.37814559066E+01 0.40941813804E+01 0.45967161598E+01 0.53329185533E+01
 0.63128989536E+01 0.75188786368E+01 0.89532607203E+01 0.10480074082E+02 0.11850953860E+02
 0.12802870163E+02 0.13143432968E+02 0.12802888901E+02 0.11850967215E+02 0.10480056137E+02
 0.89532077208E+01 0.56933091503E+01 0.50765497670E+01 0.46113642655E+01 0.42936386004E+01
 0.40941892005E+01 0.39802572767E+01 0.39286640066E+01 0.39286695192E+01 0.39802646663E+01
 0.40941813804E+01 0.42936109463E+01 0.46113337819E+01 0.50765426144E+01 0.56933377026E+01
 0.64226163818E+01 0.72026159553E+01 0.79650545979E+01 0.85865598389E+01 0.89375444263E+01
 0.89375461497E+01 0.85865565009E+01 0.79650307647E+01 0.72025690153E+01 0.64225650353E+01
 0.48702029245E+01 0.46937639361E+01 0.46113788902E+01 0.45967367783E+01 0.46155450416E+01
 0.46385963864E+01 0.46481752535E+01 0.46386051455E+01 0.46155472604E+01 0.45967161598E+01
 0.46113337819E+01 0.46937103998E+01 0.48701629803E+01 0.51443259782E+01 0.54892016045E+01
 0.58518367717E+01 0.61688290804E+01 0.63857452848E+01 0.64634023462E+01 0.63857392166E+01
 0.61688161088E+01 0.58518206614E+01 0.54891938495E+01 0.51443400949E+01 0.48702101967E+01
 0.50765710517E+01 0.53329244298E+01 0.55885949070E+01 0.57920186039E+01 0.59039437972E+01
 0.59039499064E+01 0.57920324099E+01 0.55886050619E+01 0.53329185533E+01 0.50765426144E+01
 0.48701629803E+01 0.47477137674E+01 0.47159226293E+01 0.47550372461E+01 0.48295901900E+01
 0.49025762179E+01 0.49461542826E+01 0.49461497870E+01 0.49025682689E+01 0.48295914638E+01
 0.47550585093E+01 0.47159648398E+01 0.47477665554E+01 0.56933208138E+01 0.63128625389E+01
 0.69316260830E+01 0.74799700670E+01 0.78638227341E+01 0.80022149719E+01 0.78638319965E+01
 0.74799930209E+01 0.69316621827E+01 0.63128989536E+01 0.56933377026E+01 0.51443259782E+01
 0.47159226293E+01 0.44183703265E+01 0.42318275711E+01 0.41251090565E+01 0.40714262843E+01
 0.40551307301E+01 0.40714159231E+01 0.41251043058E+01 0.42318442054E+01 0.44184070465E+01
 0.47159595733E+01 0.51443400949E+01 0.75188107966E+01 0.87420863095E+01 0.99426621808E+01
 0.10907599718E+02 0.11445122315E+02 0.11445118124E+02 0.10907598169E+02 0.99426844934E+01
 0.87421401789E+01 0.75188786368E+01 0.64226163818E+01 0.54892016045E+01 0.47550372461E+01
 0.42318275711E+01 0.38897585374E+01 0.36879271235E+01 0.35948064886E+01 0.35947993925E+01
 0.36879146868E+01 0.38897569940E+01 0.42318405140E+01 0.47550475061E+01 0.54891850133E+01
 0.64225650353E+01 0.11047933590E+02 0.13220236836E+02 0.15109521826E+02 0.16387677728E+02
 0.16838404741E+02 0.16387650972E+02 0.15109492960E+02 0.13220234386E+02 0.11047966795E+02
 0.89532607203E+01 0.72026159553E+01 0.58518367717E+01 0.48295901900E+01 0.41251090565E+01
 0.36879271235E+01 0.34554630339E+01 0.33831536524E+01 0.34554577276E+01 0.36879223909E+01
 0.41251073084E+01 0.48295833129E+01 0.58518116367E+01 0.72025691763E+01 0.89532077208E+01
 0.16990062287E+02 0.20066378946E+02 0.22381410815E+02 0.23616162990E+02 0.23616146574E+02
 0.22381368357E+02 0.20066327587E+02 0.16990021400E+02 0.13620434233E+02 0.10480074082E+02
 0.79650545979E+01 0.61688290804E+01 0.49025762179E+01 0.40714262843E+01 0.35948064886E+01
 0.33831536524E+01 0.33831577303E+01 0.35948147249E+01 0.40714296874E+01 0.49025677532E+01
 0.61688098141E+01 0.79650347481E+01 0.10480067968E+02 0.13620451980E+02 0.25097487829E+02
 0.28628934198E+02 0.30897589202E+02 0.31677893223E+02 0.30897587926E+02 0.28628917752E+02
 0.25097445209E+02 0.20710469025E+02 0.16066605780E+02 0.11850953860E+02 0.85865598389E+01
 0.63857452848E+01 0.49461542826E+01 0.40551307301E+01 0.35947993925E+01 0.34554577276E+01
 0.35948147249E+01 0.40551451540E+01 0.49461529734E+01 0.63857321126E+01 0.85865562847E+01
 0.11850979750E+02 0.16066660210E+02 0.20710529916E+02 0.34353336455E+02 0.37849714241E+02
 0.39687277065E+02 0.39687302829E+02 0.37849770206E+02 0.34353377165E+02 0.29515994647E+02
 0.23819769377E+02 0.17971614399E+02 0.12802870163E+02 0.89375444263E+01 0.64634023462E+01
 0.49461497870E+01 0.40714159231E+01 0.36879146868E+01 0.36879223909E+01 0.40714296874E+01
 0.49461529734E+01 0.64633924716E+01 0.89375399286E+01 0.12802892564E+02 0.17971662634E+02
 0.23819813753E+02 0.29516000178E+02 0.43893821656E+02 0.47140912411E+02 0.48285224673E+02
 0.47140977915E+02 0.43893914762E+02 0.38959192298E+02 0.32778970140E+02 0.25871068210E+02
 0.19010972377E+02 0.13143432968E+02 0.89375461497E+01 0.63857392166E+01 0.49025682689E+01
 0.41251043058E+01 0.38897569940E+01 0.41251073084E+01 0.49025677532E+01 0.63857321126E+01
 0.89375399286E+01 0.13143438951E+02 0.19010989899E+02 0.25871076900E+02 0.32778942541E+02
 0.38959119395E+02 0.53596246833E+02 0.56470879963E+02 0.56470895231E+02 0.53596287660E+02
 0.48506982459E+02 0.41975162090E+02 0.34510923898E+02 0.26586202264E+02 0.19010990796E+02
 0.12802888901E+02 0.85865565009E+01 0.61688161088E+01 0.48295914638E+01 0.42318442054E+01
 0.42318405140E+01 0.48295833129E+01 0.61688098141E+01 0.85865562847E+01 0.12802892564E+02
 0.19010989899E+02 0.26586186927E+02 0.34510889155E+02 0.41975111891E+02 0.48506929047E+02
 0.63440125854E+02 0.65400829751E+02 0.63440091057E+02 0.58207089034E+02 0.51061946484E+02
 0.43031023913E+02 0.34510913100E+02 0.25871091326E+02 0.17971658180E+02 0.11850967215E+02
 0.79650307647E+01 0.58518206614E+01 0.47550585093E+01 0.44184070465E+01 0.47550475061E+01
 0.58518116367E+01 0.79650347481E+01 0.11850979750E+02 0.17971662634E+02 0.25871076900E+02
 0.34510889155E+02 0.43031014419E+02 0.51061967870E+02 0.58207132180E+02 0.72283921437E+02
 0.72283889702E+02 0.67612323912E+02 0.59911455454E+02 0.51061926481E+02 0.41975107569E+02
 0.32778952559E+02 0.23819814901E+02 0.16066648444E+02 0.10480056137E+02 0.72025690153E+01
 0.54891938495E+01 0.47159648398E+01 0.47159595733E+01 0.54891850133E+01 0.72025691763E+01
 0.10480067968E+02 0.16066660210E+02 0.23819813753E+02 0.32778942541E+02 0.41975111891E+02
 0.51061967870E+02 0.59911531044E+02 0.67612399375E+02 0.77739948029E+02 0.74924317111E+02
 0.67612399375E+02 0.58207132180E+02 0.48506929047E+02 0.38959119395E+02 0.29516000178E+02
 0.20710529916E+02 0.13620451980E+02 0.89532077208E+01 0.64225650353E+01 0.51443400949E+01
 0.47477665554E+01 0.51443400949E+01 0.64225650353E+01 0.89532077208E+01 0.13620451980E+02
 0.20710529916E+02 0.29516000178E+02 0.38959119395E+02 0.48506929047E+02 0.58207132180E+02
 0.67612399375E+02 0.74924317111E+02 0.69841629426E+02 0.63440267496E+02 0.55032383414E+02
 0.46079993992E+02 0.37002758901E+02 0.27927653219E+02 0.19526714943E+02 0.12862376141E+02
 0.85374554929E+01 0.61929635456E+01 0.49928633713E+01 0.46221644453E+01 0.49928818256E+01
 0.61929754339E+01 0.85374410906E+01 0.12862346791E+02 0.19526702538E+02 0.27927670812E+02
 0.37002774295E+02 0.46079950097E+02 0.55032253328E+02 0.63440093558E+02 0.69841504397E+02
 0.72283921437E+02 0.63440267496E+02 0.56471063352E+02 0.48285301388E+02 0.39687261518E+02
 0.30897545023E+02 0.22381399001E+02 0.15109549879E+02 0.99426924092E+01 0.69316252644E+01
 0.53328995661E+01 0.46113642655E+01 0.46113788902E+01 0.53329244298E+01 0.69316260830E+01
 0.99426621808E+01 0.15109521826E+02 0.22381410815E+02 0.30897589202E+02 0.39687277065E+02
 0.48285224673E+02 0.56470895231E+02 0.63440091057E+02 0.67612323912E+02 0.67612399375E+02
 0.55032383414E+02 0.48285301388E+02 0.40609673207E+02 0.32445300500E+02 0.24238970865E+02
 0.16843121905E+02 0.11193671424E+02 0.76389873558E+01 0.56855275804E+01 0.46632663869E+01
 0.43503759690E+01 0.46632891389E+01 0.56855447219E+01 0.76389759308E+01 0.11193643960E+02
 0.16843117636E+02 0.24239013625E+02 0.32445366132E+02 0.40609703660E+02 0.48285257223E+02
 0.55032285931E+02 0.59911451155E+02 0.61726547998E+02 0.59911531044E+02 0.46079993992E+02
 0.39687261518E+02 0.32445300500E+02 0.24880782786E+02 0.17781532513E+02 0.12056306495E+02
 0.82086659768E+01 0.59910880777E+01 0.47439671390E+01 0.41891467894E+01 0.41891556509E+01
 0.47439839789E+01 0.59910943524E+01 0.82086554545E+01 0.12056294922E+02 0.17781545089E+02
 0.24880830832E+02 0.32445369734E+02 0.39687323295E+02 0.46080028589E+02 0.51061977562E+02
 0.53866640031E+02 0.53866639678E+02 0.51061967870E+02 0.37002758901E+02 0.30897545023E+02
 0.24238970865E+02 0.17781532513E+02 0.12363658131E+02 0.85282042898E+01 0.61975445482E+01
 0.48190060442E+01 0.40980318659E+01 0.38800054584E+01 0.40980351736E+01 0.48190110291E+01
 0.61975476786E+01 0.85282018462E+01 0.12363650721E+02 0.17781528995E+02 0.24238986262E+02
 0.30897590841E+02 0.37002831575E+02 0.41975189068E+02 0.45285383323E+02 0.46457296505E+02
 0.45285333278E+02 0.41975111891E+02 0.27927653219E+02 0.22381399001E+02 0.16843121905E+02
 0.12056306495E+02 0.85282042898E+01 0.62707307909E+01 0.48629194592E+01 0.40525111913E+01
 0.36974724926E+01 0.36974674429E+01 0.40525025953E+01 0.48629185727E+01 0.62707380133E+01
 0.85282049827E+01 0.12056285217E+02 0.16843081753E+02 0.22381365019E+02 0.27927653039E+02
 0.32778980399E+02 0.36376759901E+02 0.38299713176E+02 0.38299690954E+02 0.36376710878E+02
 0.32778942541E+02 0.19526714943E+02 0.15109549879E+02 0.11193671424E+02 0.82086659768E+01
 0.61975445482E+01 0.48629194592E+01 0.40387221532E+01 0.36130679303E+01 0.34841383939E+01
 0.36130546868E+01 0.40387109063E+01 0.48629235266E+01 0.61975588073E+01 0.82086685943E+01
 0.11193643299E+02 0.15109493295E+02 0.19526653199E+02 0.23819771919E+02 0.27377311627E+02
 0.29718039121E+02 0.30534067547E+02 0.29718039065E+02 0.27377326375E+02 0.23819813753E+02
 0.12862376141E+02 0.99426924092E+01 0.76389873558E+01 0.59910880777E+01 0.48190060442E+01
 0.40525111913E+01 0.36130679303E+01 0.34176709336E+01 0.34176660221E+01 0.36130587535E+01
 0.40525094423E+01 0.48190188350E+01 0.59911104997E+01 0.76390044388E+01 0.99426888171E+01
 0.12862346096E+02 0.16066610837E+02 0.19067539179E+02 0.21380338478E+02 0.22635221359E+02
 0.22635235966E+02 0.21380378165E+02 0.19067592113E+02 0.16066660210E+02 0.85374554929E+01
 0.69316252644E+01 0.56855275804E+01 0.47439671390E+01 0.40980318659E+01 0.36974724926E+01
 0.34841383939E+01 0.34176660221E+01 0.34841394493E+01 0.36974736507E+01 0.40980352458E+01
 0.47439797096E+01 0.56855558296E+01 0.69316661386E+01 0.85374931837E+01 0.10480082618E+02
 0.12532810657E+02 0.14354607226E+02 0.15608172113E+02 0.16054546532E+02 0.15608200612E+02
 0.14354642984E+02 0.12532827390E+02 0.10480067968E+02 0.61929635456E+01 0.53328995661E+01
 0.46632663869E+01 0.41891467894E+01 0.38800054584E+01 0.36974674429E+01 0.36130546868E+01
 0.36130587535E+01 0.36974736507E+01 0.38800035475E+01 0.41891367786E+01 0.46632632070E+01
 0.53329207878E+01 0.61930111482E+01 0.72026238900E+01 0.83315721910E+01 0.94530612587E+01
 0.10366922507E+02 0.10881269406E+02 0.10881277699E+02 0.10366935887E+02 0.94530563766E+01
 0.83315366681E+01 0.72025691763E+01 0.49928633713E+01 0.46113642655E+01 0.43503759690E+01
 0.41891556509E+01 0.40980351736E+01 0.40525025953E+01 0.40387109063E+01 0.40525094423E+01
 0.40980352458E+01 0.41891367786E+01 0.43503423229E+01 0.46113357339E+01 0.49928593037E+01
 0.54892076178E+01 0.60579147922E+01 0.66292134506E+01 0.71357053581E+01 0.74921475990E+01
 0.76211851807E+01 0.74921493453E+01 0.71356983073E+01 0.66291897801E+01 0.60578817304E+01
 0.54891850133E+01 0.46221644453E+01 0.46113788902E+01 0.46632891389E+01 0.47439839789E+01
 0.48190110291E+01 0.48629185727E+01 0.48629235266E+01 0.48190188350E+01 0.47439797096E+01
 0.46632632070E+01 0.46113357339E+01 0.46221195657E+01 0.47159282014E+01 0.48891516103E+01
 0.51127732007E+01 0.53410268860E+01 0.55255247841E+01 0.56280342120E+01 0.56280330591E+01
 0.55255210274E+01 0.53410216969E+01 0.51127723654E+01 0.48891641984E+01 0.47159595733E+01
 0.49928818256E+01 0.53329244298E+01 0.56855447219E+01 0.59910943524E+01 0.61975476786E+01
 0.62707380133E+01 0.61975588073E+01 0.59911104997E+01 0.56855558296E+01 0.53329207878E+01
 0.49928593037E+01 0.47159282014E+01 0.45290602124E+01 0.44309394601E+01 0.43990369389E+01
 0.44028847072E+01 0.44160328392E+01 0.44221732586E+01 0.44160268845E+01 0.44028815123E+01
 0.43990470822E+01 0.44309669573E+01 0.45290988113E+01 0.47159648398E+01 0.61929754339E+01
 0.69316260830E+01 0.76389759308E+01 0.82086554545E+01 0.85282018462E+01 0.85282049827E+01
 0.82086685943E+01 0.76390044388E+01 0.69316661386E+01 0.61930111482E+01 0.54892076178E+01
 0.48891516103E+01 0.44309394601E+01 0.41122501407E+01 0.39074443812E+01 0.37875304430E+01
 0.37321948120E+01 0.37321879525E+01 0.37875181415E+01 0.39074430680E+01 0.41122673592E+01
 0.44309647430E+01 0.48891641984E+01 0.54891938495E+01 0.85374410906E+01 0.99426621808E+01
 0.11193643960E+02 0.12056294922E+02 0.12363650721E+02 0.12056285217E+02 0.11193643299E+02
 0.99426888171E+01 0.85374931837E+01 0.72026238900E+01 0.60579147922E+01 0.51127732007E+01
 0.43990369389E+01 0.39074443812E+01 0.35978355028E+01 0.34294596966E+01 0.33761845408E+01
 0.34294473570E+01 0.35978242642E+01 0.39074454596E+01 0.43990447488E+01 0.51127680847E+01
 0.60578817304E+01 0.72025690153E+01 0.12862346791E+02 0.15109521826E+02 0.16843117636E+02
 0.17781545089E+02 0.17781528995E+02 0.16843081753E+02 0.15109493295E+02 0.12862346096E+02
 0.10480082618E+02 0.83315721910E+01 0.66292134506E+01 0.53410268860E+01 0.44028847072E+01
 0.37875304430E+01 0.34294596966E+01 0.32674471126E+01 0.32674449710E+01 0.34294560808E+01
 0.37875294389E+01 0.44028840664E+01 0.53410173050E+01 0.66291878917E+01 0.83315366681E+01
 0.10480056137E+02 0.19526702538E+02 0.22381410815E+02 0.24239013625E+02 0.24880830832E+02
 0.24238986262E+02 0.22381365019E+02 0.19526653199E+02 0.16066610837E+02 0.12532810657E+02
 0.94530612587E+01 0.71357053581E+01 0.55255247841E+01 0.44160328392E+01 0.37321948120E+01
 0.33761845408E+01 0.32674449710E+01 0.33761936217E+01 0.37322050320E+01 0.44160349274E+01
 0.55255161255E+01 0.71356931209E+01 0.94530583203E+01 0.12532827390E+02 0.16066648444E+02
 0.27927670812E+02 0.30897589202E+02 0.32445366132E+02 0.32445369734E+02 0.30897590841E+02
 0.27927653039E+02 0.23819771919E+02 0.19067539179E+02 0.14354607226E+02 0.10366922507E+02
 0.74921475990E+01 0.56280342120E+01 0.44221732586E+01 0.37321879525E+01 0.34294473570E+01
 0.34294560808E+01 0.37322050320E+01 0.44221812152E+01 0.56280265175E+01 0.74921375301E+01
 0.10366931788E+02 0.14354645042E+02 0.19067592113E+02 0.23819814901E+02 0.37002774295E+02
 0.39687277065E+02 0.40609703660E+02 0.39687323295E+02 0.37002831575E+02 0.32778980399E+02
 0.27377311627E+02 0.21380338478E+02 0.15608172113E+02 0.10881269406E+02 0.76211851807E+01
 0.56280330591E+01 0.44160268845E+01 0.37875181415E+01 0.35978242642E+01 0.37875294389E+01
 0.44160349274E+01 0.56280265175E+01 0.76211714961E+01 0.10881269510E+02 0.15608197652E+02
 0.21380374810E+02 0.27377326375E+02 0.32778952559E+02 0.46079950097E+02 0.48285224673E+02
 0.48285257223E+02 0.46080028589E+02 0.41975189068E+02 0.36376759901E+02 0.29718039121E+02
 0.22635221359E+02 0.16054546532E+02 0.10881277699E+02 0.74921493453E+01 0.55255210274E+01
 0.44028815123E+01 0.39074430680E+01 0.39074454596E+01 0.44028840664E+01 0.55255161255E+01
 0.74921375301E+01 0.10881269510E+02 0.16054550476E+02 0.22635229750E+02 0.29718028666E+02