   1   1   0   0
  0.1987675E+02  0.3040559E-09  0.3040559E-09  0.3040559E-09  0.5000000E-15
  1.000000000000000E-004
  CAR 
 FCC Au                                  
     37.74545804     -6.23762071  301      5.79445390      1.00000000
     -6.238  0.0000E+00  0.0000E+00
     -6.091  0.0000E+00  0.0000E+00
     -5.944 -0.3090E-34 -0.4530E-35
     -5.798 -0.4480E-29 -0.6568E-30
     -5.651 -0.2198E-24 -0.3222E-25
     -5.505 -0.3641E-20 -0.5339E-21
     -5.358 -0.1968E-16 -0.2886E-17
     -5.211 -0.3646E-13 -0.5348E-14
     -5.065 -0.2238E-10 -0.3287E-11
     -4.918 -0.4482E-08 -0.6605E-09
     -4.772 -0.2828E-06 -0.4212E-07
     -4.625 -0.5121E-05 -0.7929E-06
     -4.478 -0.1710E-04 -0.3300E-05
     -4.332  0.6775E-04  0.6633E-05
     -4.185  0.3109E-03  0.5221E-04
     -4.038  0.7168E-03  0.1573E-03
     -3.892  0.1055E-02  0.3120E-03
     -3.745  0.1065E-02  0.4681E-03
     -3.599  0.1187E-02  0.6420E-03
     -3.452  0.1595E-02  0.8759E-03
     -3.305  0.2123E-02  0.1187E-02
     -3.159  0.1789E-02  0.1449E-02
     -3.012  0.1308E-02  0.1641E-02
     -2.866  0.2358E-02  0.1987E-02
     -2.719  0.3438E-02  0.2491E-02
     -2.572  0.2726E-02  0.2891E-02
     -2.426  0.2151E-02  0.3206E-02
     -2.279  0.3614E-02  0.3736E-02
     -2.133  0.3876E-02  0.4304E-02
     -1.986  0.3899E-02  0.4876E-02
     -1.839  0.5780E-02  0.5723E-02
     -1.693  0.9209E-02  0.7073E-02
     -1.546  0.1170E-01  0.8788E-02
     -1.399  0.1336E-01  0.1075E-01
     -1.253  0.1996E-01  0.1367E-01
     -1.106  0.2497E-01  0.1733E-01
     -0.960  0.3140E-01  0.2194E-01
     -0.813  0.3531E-01  0.2711E-01
     -0.666  0.3554E-01  0.3232E-01
     -0.520  0.3395E-01  0.3730E-01
     -0.373  0.2968E-01  0.4165E-01
     -0.227  0.3056E-01  0.4613E-01
     -0.080  0.2455E-01  0.4973E-01
      0.067  0.2307E-01  0.5311E-01
      0.213  0.3211E-01  0.5782E-01
      0.360  0.3577E-01  0.6307E-01
      0.506  0.3686E-01  0.6847E-01
      0.653  0.3500E-01  0.7360E-01
      0.800  0.4033E-01  0.7951E-01
      0.946  0.4324E-01  0.8585E-01
      1.093  0.4295E-01  0.9215E-01
      1.240  0.5195E-01  0.9977E-01
      1.386  0.6328E-01  0.1090E+00
      1.533  0.5133E-01  0.1166E+00
      1.679  0.3509E-01  0.1217E+00
      1.826  0.2791E-01  0.1258E+00
      1.973  0.3062E-01  0.1303E+00
      2.119  0.3208E-01  0.1350E+00
      2.266  0.3703E-01  0.1404E+00
      2.412  0.4335E-01  0.1468E+00
      2.559  0.3747E-01  0.1523E+00
      2.706  0.3293E-01  0.1571E+00
      2.852  0.3947E-01  0.1629E+00
      2.999  0.3103E-01  0.1674E+00
      3.145  0.2630E-01  0.1713E+00
      3.292  0.3418E-01  0.1763E+00
      3.439  0.3151E-01  0.1809E+00
      3.585  0.3846E-01  0.1866E+00
      3.732  0.5032E-01  0.1939E+00
      3.878  0.4950E-01  0.2012E+00
      4.025  0.3704E-01  0.2066E+00
      4.172  0.2416E-01  0.2102E+00
      4.318  0.1391E-01  0.2122E+00
      4.465  0.3187E-02  0.2127E+00
      4.612  0.4507E-03  0.2127E+00
      4.758  0.4147E-02  0.2134E+00
      4.905  0.9272E-02  0.2147E+00
      5.051  0.7959E-02  0.2159E+00
      5.198  0.4418E-02  0.2165E+00
      5.345  0.2946E-02  0.2170E+00
      5.491  0.6256E-02  0.2179E+00
      5.638  0.8631E-02  0.2191E+00
      5.784  0.5578E-02  0.2200E+00
      5.931  0.3824E-02  0.2205E+00
      6.078  0.4347E-02  0.2212E+00
      6.224  0.3510E-02  0.2217E+00
      6.371  0.6984E-02  0.2227E+00
      6.517  0.8205E-02  0.2239E+00
      6.664  0.5970E-02  0.2248E+00
      6.811  0.6164E-02  0.2257E+00
      6.957  0.4878E-02  0.2264E+00
      7.104  0.3267E-02  0.2269E+00
      7.251  0.3828E-02  0.2274E+00
      7.397  0.5268E-02  0.2282E+00
      7.544  0.7267E-02  0.2293E+00
      7.690  0.7136E-02  0.2303E+00
      7.837  0.4843E-02  0.2310E+00
      7.984  0.3290E-02  0.2315E+00
      8.130  0.2918E-02  0.2319E+00
      8.277  0.6448E-02  0.2329E+00
      8.423  0.6317E-02  0.2338E+00
      8.570  0.4229E-02  0.2344E+00
      8.717  0.4425E-02  0.2351E+00
      8.863  0.2881E-02  0.2355E+00
      9.010  0.6903E-02  0.2365E+00
      9.156  0.1275E-01  0.2384E+00
      9.303  0.9575E-02  0.2398E+00
      9.450  0.2876E-02  0.2402E+00
      9.596  0.3283E-02  0.2407E+00
      9.743  0.7262E-02  0.2418E+00
      9.890  0.8280E-02  0.2430E+00
     10.036  0.7203E-02  0.2440E+00
     10.183  0.5857E-02  0.2449E+00
     10.329  0.4284E-02  0.2455E+00
     10.476  0.3140E-02  0.2460E+00
     10.623  0.3449E-02  0.2465E+00
     10.769  0.8015E-02  0.2477E+00
     10.916  0.8994E-02  0.2490E+00
     11.062  0.6769E-02  0.2500E+00
     11.209  0.5499E-02  0.2508E+00
     11.356  0.5597E-02  0.2516E+00
     11.502  0.6824E-02  0.2526E+00
     11.649  0.9043E-02  0.2539E+00
     11.795  0.8193E-02  0.2551E+00
     11.942  0.6745E-02  0.2561E+00
     12.089  0.6868E-02  0.2571E+00
     12.235  0.4128E-02  0.2577E+00
     12.382  0.3359E-02  0.2582E+00
     12.528  0.7311E-02  0.2593E+00
     12.675  0.1002E-01  0.2608E+00
     12.822  0.4566E-02  0.2614E+00
     12.968  0.8129E-03  0.2615E+00
     13.115  0.3367E-02  0.2620E+00
     13.262  0.8070E-02  0.2632E+00
     13.408  0.6728E-02  0.2642E+00
     13.555  0.6006E-02  0.2651E+00
     13.701  0.9681E-02  0.2665E+00
     13.848  0.9179E-02  0.2678E+00
     13.995  0.1089E-01  0.2694E+00
     14.141  0.1026E-01  0.2709E+00
     14.288  0.3040E-02  0.2714E+00
     14.434 -0.3058E-03  0.2713E+00
     14.581  0.3738E-02  0.2719E+00
     14.728  0.9998E-02  0.2734E+00
     14.874  0.8305E-02  0.2746E+00
     15.021  0.5098E-02  0.2753E+00
     15.167  0.6395E-02  0.2763E+00
     15.314  0.1051E-01  0.2778E+00
     15.461  0.9960E-02  0.2793E+00
     15.607  0.7123E-02  0.2803E+00
     15.754  0.9031E-02  0.2816E+00
     15.901  0.8660E-02  0.2829E+00
     16.047  0.7871E-02  0.2841E+00
     16.194  0.9637E-02  0.2855E+00
     16.340  0.8885E-02  0.2868E+00
     16.487  0.8067E-02  0.2880E+00
     16.634  0.1275E-01  0.2898E+00
     16.780  0.1465E-01  0.2920E+00
     16.927  0.5916E-02  0.2928E+00
     17.073  0.4086E-02  0.2934E+00
     17.220  0.7269E-02  0.2945E+00
     17.367  0.9581E-02  0.2959E+00
     17.513  0.1341E-01  0.2979E+00
     17.660  0.1470E-01  0.3000E+00
     17.806  0.1521E-01  0.3023E+00
     17.953  0.1124E-01  0.3039E+00
     18.100  0.4196E-02  0.3045E+00
     18.246  0.3651E-02  0.3051E+00
     18.393  0.7527E-02  0.3062E+00
     18.540  0.1196E-01  0.3079E+00
     18.686  0.9690E-02  0.3093E+00
     18.833  0.9168E-02  0.3107E+00
     18.979  0.1044E-01  0.3122E+00
     19.126  0.9721E-02  0.3136E+00
     19.273  0.8457E-02  0.3149E+00
     19.419  0.1247E-01  0.3167E+00
     19.566  0.1092E-01  0.3183E+00
     19.712  0.7222E-02  0.3194E+00
     19.859  0.9527E-02  0.3208E+00
     20.006  0.1198E-01  0.3225E+00
     20.152  0.9847E-02  0.3240E+00
     20.299  0.8325E-02  0.3252E+00
     20.445  0.1420E-01  0.3273E+00
     20.592  0.1191E-01  0.3290E+00
     20.739  0.6533E-02  0.3300E+00
     20.885  0.7975E-02  0.3311E+00
     21.032  0.1303E-01  0.3330E+00
     21.178  0.1304E-01  0.3350E+00
     21.325  0.1001E-01  0.3364E+00
     21.472  0.1142E-01  0.3381E+00
     21.618  0.1556E-01  0.3404E+00
     21.765  0.1328E-01  0.3423E+00
     21.912  0.1075E-01  0.3439E+00
     22.058  0.1004E-01  0.3454E+00
     22.205  0.8473E-02  0.3466E+00
     22.351  0.9576E-02  0.3480E+00
     22.498  0.8109E-02  0.3492E+00
     22.645  0.5720E-02  0.3500E+00
     22.791  0.7337E-02  0.3511E+00
     22.938  0.1027E-01  0.3526E+00
     23.084  0.1435E-01  0.3547E+00
     23.231  0.2141E-01  0.3579E+00
     23.378  0.1648E-01  0.3603E+00
     23.524  0.1168E-01  0.3620E+00
     23.671  0.1252E-01  0.3638E+00
     23.817  0.1329E-01  0.3658E+00
     23.964  0.1661E-01  0.3682E+00
     24.111  0.2004E-01  0.3712E+00
     24.257  0.1631E-01  0.3735E+00
     24.404  0.1557E-01  0.3758E+00
     24.551  0.1616E-01  0.3782E+00
     24.697  0.1046E-01  0.3797E+00
     24.844  0.7901E-02  0.3809E+00
     24.990  0.1072E-01  0.3825E+00
     25.137  0.1566E-01  0.3848E+00
     25.284  0.1821E-01  0.3874E+00
     25.430  0.1559E-01  0.3897E+00
     25.577  0.1138E-01  0.3914E+00
     25.723  0.7093E-02  0.3924E+00
     25.870  0.6709E-02  0.3934E+00
     26.017  0.1124E-01  0.3951E+00
     26.163  0.1112E-01  0.3967E+00
     26.310  0.1281E-01  0.3986E+00
     26.456  0.1222E-01  0.4004E+00
     26.603  0.6783E-02  0.4013E+00
     26.750  0.4690E-02  0.4020E+00
     26.896  0.4444E-02  0.4027E+00
     27.043  0.7540E-02  0.4038E+00
     27.190  0.1065E-01  0.4054E+00
     27.336  0.9474E-02  0.4067E+00
     27.483  0.9087E-02  0.4081E+00
     27.629  0.7648E-02  0.4092E+00
     27.776  0.4124E-02  0.4098E+00
     27.923  0.6003E-02  0.4107E+00
     28.069  0.6045E-02  0.4116E+00
     28.216  0.6936E-02  0.4126E+00
     28.362  0.1100E-01  0.4142E+00
     28.509  0.7466E-02  0.4153E+00
     28.656  0.8255E-02  0.4165E+00
     28.802  0.1615E-01  0.4189E+00
     28.949  0.1146E-01  0.4206E+00
     29.095  0.7651E-02  0.4217E+00
     29.242  0.4797E-02  0.4224E+00
     29.389  0.8495E-03  0.4225E+00
     29.535  0.6058E-02  0.4234E+00
     29.682  0.1331E-01  0.4253E+00
     29.829  0.1228E-01  0.4271E+00
     29.975  0.9017E-02  0.4285E+00
     30.122  0.9604E-02  0.4299E+00
     30.268  0.1158E-01  0.4316E+00
     30.415  0.1488E-01  0.4337E+00
     30.562  0.1963E-01  0.4366E+00
     30.708  0.1422E-01  0.4387E+00
     30.855  0.1310E-01  0.4406E+00
     31.001  0.1337E-01  0.4426E+00
     31.148  0.1070E-01  0.4442E+00
     31.295  0.1016E-01  0.4457E+00
     31.441  0.1249E-01  0.4475E+00
     31.588  0.1324E-01  0.4494E+00
     31.734  0.1591E-01  0.4518E+00
     31.881  0.1459E-01  0.4539E+00
     32.028  0.1241E-01  0.4557E+00
     32.174  0.1545E-01  0.4580E+00
     32.321  0.1942E-01  0.4608E+00
     32.467  0.1595E-01  0.4632E+00
     32.614  0.1053E-01  0.4647E+00
     32.761  0.1058E-01  0.4663E+00
     32.907  0.1133E-01  0.4679E+00
     33.054  0.7638E-02  0.4690E+00
     33.201  0.7170E-02  0.4701E+00
     33.347  0.1258E-01  0.4719E+00
     33.494  0.1263E-01  0.4738E+00
     33.640  0.6549E-02  0.4747E+00
     33.787  0.3820E-02  0.4753E+00
     33.934  0.2862E-02  0.4757E+00
     34.080  0.2119E-02  0.4760E+00
     34.227  0.3243E-02  0.4765E+00
     34.373  0.4496E-02  0.4772E+00
     34.520  0.4263E-02  0.4778E+00
     34.667  0.3735E-02  0.4783E+00
     34.813  0.4623E-02  0.4790E+00
     34.960  0.1997E-02  0.4793E+00
     35.106 -0.1520E-03  0.4793E+00
     35.253 -0.1260E-03  0.4793E+00
     35.400  0.4710E-03  0.4793E+00
     35.546  0.1163E-02  0.4795E+00
     35.693  0.1685E-02  0.4798E+00
     35.840  0.1439E-02  0.4800E+00
     35.986  0.2838E-03  0.4800E+00
     36.133 -0.7129E-04  0.4800E+00
     36.279 -0.1777E-04  0.4800E+00
     36.426 -0.9097E-06  0.4800E+00
     36.573 -0.1391E-07  0.4800E+00
     36.719 -0.6826E-10  0.4800E+00
     36.866 -0.1102E-12  0.4800E+00
     37.012 -0.5961E-16  0.4800E+00
     37.159  0.0000E+00  0.4800E+00
     37.306  0.0000E+00  0.4800E+00
     37.452  0.0000E+00  0.4800E+00
     37.599  0.0000E+00  0.4800E+00
     37.745  0.0000E+00  0.4800E+00
