    1    1   50    1
  0.1987675E+02  0.3040559E-09  0.3040559E-09  0.3040559E-09  0.5000000E-15
  1.000000000000000E-004
  CAR 
 FCC Au                                  
     11    110     12
 
  0.5000000E-01  0.5000000E-01  0.5000000E-01  0.2000000E-02
    1       -4.237621   1.000000
    2        0.968365   1.000000
    3        1.031210   1.000000
    4        1.031210   1.000000
    5        2.582831   1.000000
    6        2.582831   1.000000
    7       21.252974   0.000000
    8       24.434933   0.000000
    9       25.211062   0.000000
   10       25.211062   0.000000
   11       30.077739   0.000000
   12       33.177677   0.000000
 
  0.1500000E+00  0.5000000E-01  0.5000000E-01  0.6000000E-02
    1       -3.775217   1.000000
    2        0.810566   1.000000
    3        1.174047   1.000000
    4        1.206933   1.000000
    5        2.429016   1.000000
    6        2.634468   1.000000
    7       21.597526   0.000000
    8       22.467033   0.000000
    9       24.852475   0.000000
   10       26.150096   0.000000
   11       29.544456   0.000000
   12       32.198024   0.000000
 
  0.2500000E+00  0.5000000E-01  0.5000000E-01  0.6000000E-02
    1       -2.775963   1.000000
    2        0.689569   1.000000
    3        1.330220   1.000000
    4        1.353705   1.000000
    5        2.439149   1.000000
    6        2.856222   1.000000
    7       18.591192   0.000000
    8       22.214072   0.000000
    9       25.053371   0.000000
   10       27.457426   0.000000
   11       27.508706   0.000000
   12       29.981596   0.000000
 
  0.3500000E+00  0.5000000E-01  0.5000000E-01  0.6000000E-02
    1       -1.886723   1.000000
    2        1.144326   1.000000
    3        1.234136   1.000000
    4        1.374134   1.000000
    5        2.943498   1.000000
    6        3.443030   1.000000
    7       14.547558   0.000000
    8       21.520412   0.000000
    9       24.095985   0.000000
   10       26.323020   0.000000
   11       28.690716   0.000000
   12       29.799799   0.000000
 
  0.4500000E+00  0.5000000E-01  0.5000000E-01  0.6000000E-02
    1       -1.668785   1.000000
    2        0.988832   1.000000
    3        1.061251   1.000000
    4        2.911799   1.000000
    5        3.560339   1.000000
    6        4.330583   1.000000
    7       10.736250  -0.000000
    8       20.738967   0.000000
    9       23.145271   0.000000
   10       24.267358   0.000000
   11       30.505720   0.000000
   12       30.791023   0.000000
 
 -0.4500000E+00  0.5000000E-01  0.5000000E-01  0.6000000E-02
    1       -1.664985   1.000000
    2        0.920290   1.000000
    3        1.020588   1.000000
    4        3.344106   1.000000
    5        3.853459   1.000000
    6        5.188836   1.000080
    7        9.065017  -0.000000
    8       20.525469   0.000000
    9       23.196950   0.000000
   10       23.317704   0.000000
   11       31.015645   0.000000
   12       31.093250   0.000000
 
 -0.3500000E+00  0.5000000E-01  0.5000000E-01  0.6000000E-02
    1       -1.694281   1.000000
    2        1.020287   1.000000
    3        1.134288   1.000000
    4        2.332241   1.000000
    5        3.644370   1.000000
    6        3.766737   1.000000
    7       11.920334   0.000000
    8       20.978877   0.000000
    9       23.623504   0.000000
   10       24.464301   0.000000
   11       30.454486   0.000000
   12       30.596633   0.000000
 
 -0.2500000E+00  0.5000000E-01  0.5000000E-01  0.6000000E-02
    1       -2.110488   1.000000
    2        0.945628   1.000000
    3        1.249675   1.000000
    4        1.312045   1.000000
    5        2.850064   1.000000
    6        3.125617   1.000000
    7       15.905865   0.000000
    8       21.901464   0.000000
    9       24.598062   0.000000
   10       26.455168   0.000000
   11       28.364903   0.000000
   12       30.176404   0.000000
 
 -0.1500000E+00  0.5000000E-01  0.5000000E-01  0.6000000E-02
    1       -3.142947   1.000000
    2        0.677891   1.000000
    3        1.321954   1.000000
    4        1.334689   1.000000
    5        2.393514   1.000000
    6        2.727327   1.000000
    7       19.876536   0.000000
    8       22.306568   0.000000
    9       25.058538   0.000000
   10       26.602513   0.000000
   11       28.254654   0.000000
   12       30.848545   0.000000
 
 -0.5000000E-01  0.5000000E-01  0.5000000E-01  0.6000000E-02
    1       -4.002410   1.000000
    2        0.857509   1.000000
    3        1.129551   1.000000
    4        1.134676   1.000000
    5        2.453913   1.000000
    6        2.642420   1.000000
    7       21.500799   0.000000
    8       23.514168   0.000000
    9       24.961028   0.000000
   10       25.337262   0.000000
   11       30.700246   0.000000
   12       32.401859   0.000000
 
  0.1500000E+00  0.1500000E+00  0.5000000E-01  0.6000000E-02
    1       -3.545719   1.000000
    2        0.635288   1.000000
    3        1.334955   1.000000
    4        1.338804   1.000000
    5        2.228529   1.000000
    6        2.756332   1.000000
    7       21.901913   0.000000
    8       22.640972   0.000000
    9       24.306938   0.000000
   10       24.933145   0.000000
   11       29.956926   0.000000
   12       31.631080   0.000000
 
  0.2500000E+00  0.1500000E+00  0.5000000E-01  0.1200000E-01
    1       -2.715035   1.000000
    2        0.381219   1.000000
    3        1.435694   1.000000
    4        1.625172   1.000000
    5        2.174799   1.000000
    6        2.984340   1.000000
    7       20.134478   0.000000
    8       21.935782   0.000000
    9       23.911188   0.000000
   10       25.168360   0.000000
   11       27.928620   0.000000
   12       30.800037   0.000000
 
  0.3500000E+00  0.1500000E+00  0.5000000E-01  0.1200000E-01
    1       -1.697546   1.000000
    2        0.468621   1.000000
    3        1.125087   1.000000
    4        1.634596   1.000000
    5        2.853661   1.000000
    6        3.581220   1.000000
    7       16.137234   0.000000
    8       21.394911   0.000000
    9       22.848288   0.000000
   10       25.054437   0.000000
   11       28.707364   0.000000
   12       30.496303   0.000000
 
  0.4500000E+00  0.1500000E+00  0.5000000E-01  0.1200000E-01
    1       -1.312147   1.000000
    2        0.813927   1.000000
    3        1.364205   1.000000
    4        1.527162   1.000000
    5        3.625697   1.000000
    6        4.778329   1.000000
    7       12.113988   0.000000
    8       20.877796   0.000000
    9       21.592674   0.000000
   10       23.747696   0.000000
   11       30.515653   0.000000
   12       31.641664   0.000000
 
 -0.4500000E+00  0.1500000E+00  0.5000000E-01  0.1200000E-01
    1       -1.291363   1.000000
    2        0.681743   1.000000
    3        1.327219   1.000000
    4        2.276732   1.000000
    5        3.804990   1.000000
    6        6.657262  -0.000000
    7        9.045818  -0.000000
    8       20.406842   0.000000
    9       21.246490   0.000000
   10       22.964378   0.000000
   11       30.996705   0.000000
   12       32.047503   0.000000
 
 -0.3500000E+00  0.1500000E+00  0.5000000E-01  0.1200000E-01
    1       -1.273963   1.000000
    2        0.765206   1.000000
    3        1.353243   1.000000
    4        1.939745   1.000000
    5        3.476648   1.000000
    6        5.491854   1.027068
    7       10.963575  -0.000000
    8       20.109843   0.000000
    9       21.667535   0.000000
   10       23.921627   0.000000
   11       30.154070   0.000000
   12       31.698914   0.000000
 
 -0.2500000E+00  0.1500000E+00  0.5000000E-01  0.1200000E-01
    1       -1.454142   1.000000
    2        0.757241   1.000000
    3        1.073874   1.000000
    4        1.547359   1.000000
    5        2.763257   1.000000
    6        4.134118   1.000000
    7       14.791970   0.000000
    8       20.379954   0.000000
    9       22.772760   0.000000
   10       25.928080   0.000000
   11       28.301974   0.000000
   12       30.802115   0.000000
 
 -0.1500000E+00  0.1500000E+00  0.5000000E-01  0.1200000E-01
    1       -2.355237   1.000000
    2        0.425730   1.000000
    3        1.326952   1.000000
    4        1.648903   1.000000
    5        2.168968   1.000000
    6        3.253604   1.000000
    7       18.730760   0.000000
    8       21.019190   0.000000
    9       24.480798   0.000000
   10       25.493766   0.000000
   11       29.014550   0.000000
   12       29.667563   0.000000
 
 -0.5000000E-01  0.1500000E+00  0.5000000E-01  0.1200000E-01
    1       -3.334512   1.000000
    2        0.639627   1.000000
    3        1.337599   1.000000
    4        1.348133   1.000000
    5        2.269892   1.000000
    6        2.765790   1.000000
    7       21.118293   0.000000
    8       22.065638   0.000000
    9       24.416732   0.000000
   10       26.243965   0.000000
   11       28.623299   0.000000
   12       31.646724   0.000000
 
  0.2500000E+00  0.2500000E+00  0.5000000E-01  0.6000000E-02
    1       -2.162000   1.000000
    2        0.014249   1.000000
    3        1.592066   1.000000
    4        2.017927   1.000000
    5        2.215441   1.000000
    6        3.109445   1.000000
    7       20.605019   0.000000
    8       21.742963   0.000000
    9       22.811797   0.000000
   10       23.700936   0.000000
   11       24.974705   0.000000
   12       32.263207   0.000000
 
  0.3500000E+00  0.2500000E+00  0.5000000E-01  0.1200000E-01
    1       -1.358142   1.000000
    2       -0.215870   1.000000
    3        1.326207   1.000000
    4        2.376259   1.000000
    5        2.891723   1.000000
    6        3.603621   1.000000
    7       17.867426   0.000000
    8       19.830313   0.000000
    9       21.464141   0.000000
   10       24.172934   0.000000
   11       25.564044   0.000000
   12       32.333653   0.000000
 
  0.4500000E+00  0.2500000E+00  0.5000000E-01  0.1200000E-01
    1       -0.890724   1.000000
    2        0.049251   1.000000
    3        1.073188   1.000000
    4        2.239119   1.000000
    5        3.716538   1.000000
    6        5.056797   1.000001
    7       13.759788   0.000000
    8       19.144538   0.000000
    9       19.716816   0.000000
   10       23.781494   0.000000
   11       28.784968   0.000000
   12       32.293136   0.000000
 
 -0.4500000E+00  0.2500000E+00  0.5000000E-01  0.1200000E-01
    1       -0.770125   1.000000
    2        0.318192   1.000000
    3        1.279823   1.000000
    4        2.034026   1.000000
    5        3.841549   1.000000
    6        7.540628  -0.000000
    7       10.143138  -0.000000
    8       17.845513   0.000000
    9       19.787911   0.000000
   10       23.356392   0.000000
   11       31.379613   0.000000
   12       32.968812   0.000000
 
 -0.3500000E+00  0.2500000E+00  0.5000000E-01  0.1200000E-01
    1       -0.594122   1.000000
    2        0.385387   1.000000
    3        1.300222   1.000000
    4        1.926134   1.000000
    5        3.429336   1.000000
    6        7.378614  -0.000000
    7       10.684688  -0.000000
    8       16.750072   0.000000
    9       20.994681   0.000000
   10       23.536667   0.000000
   11       30.525995   0.000000
   12       32.898944   0.000000
 
 -0.2500000E+00  0.2500000E+00  0.5000000E-01  0.1200000E-01
    1       -0.509551   1.000000
    2        0.464706   1.000000
    3        0.726798   1.000000
    4        2.009297   1.000000
    5        2.720744   1.000000
    6        5.569195   1.033757
    7       14.100093   0.000000
    8       16.672810   0.000000
    9       22.231753   0.000000
   10       25.021093   0.000000
   11       28.315603   0.000000
   12       32.717102   0.000000
 
 -0.1500000E+00  0.2500000E+00  0.5000000E-01  0.1200000E-01
    1       -1.295686   1.000000
    2        0.345557   1.000000
    3        1.046033   1.000000
    4        1.883978   1.000000
    5        2.311344   1.000000
    6        4.226880   1.000000
    7       16.250396   0.000000
    8       18.931947   0.000000
    9       23.245131   0.000000
   10       26.326527   0.000000
   11       27.428205   0.000000
   12       31.348044   0.000000
 
 -0.5000000E-01  0.2500000E+00  0.5000000E-01  0.1200000E-01
    1       -2.270885   1.000000
    2        0.610575   1.000000
    3        1.299272   1.000000
    4        1.451761   1.000000
    5        2.503628   1.000000
    6        3.178659   1.000000
    7       17.350131   0.000000
    8       21.943867   0.000000
    9       24.074107   0.000000
   10       26.501011   0.000000
   11       28.297696   0.000000
   12       29.718949   0.000000
 
  0.3500000E+00  0.3500000E+00  0.5000000E-01  0.6000000E-02
    1       -1.219782   1.000000
    2       -0.604949   1.000000
    3        2.226928   1.000000
    4        2.922625   1.000000
    5        3.359165   1.000000
    6        3.536440   1.000000
    7       17.803600   0.000000
    8       18.802374   0.000000
    9       19.073489   0.000000
   10       23.029371   0.000000
   11       24.946476   0.000000
   12       34.760158   0.000000
 
  0.4500000E+00  0.3500000E+00  0.5000000E-01  0.1200000E-01
    1       -1.073520   1.000000
    2       -0.716126   1.000000
    3        2.278624   1.000000
    4        3.230464   1.000000
    5        3.731112   1.000000
    6        5.104075   1.000006
    7       14.965376   0.000000
    8       17.098872   0.000000
    9       17.720223   0.000000
   10       24.054773   0.000000
   11       25.960755   0.000000
   12       34.328346   0.000000
 
 -0.4500000E+00  0.3500000E+00  0.5000000E-01  0.1200000E-01
    1       -0.902249   1.000000
    2       -0.394774   1.000000
    3        1.912197   1.000000
    4        2.917250   1.000000
    5        3.942660   1.000000
    6        7.767578  -0.000000
    7       11.711166   0.000000
    8       15.357797   0.000000
    9       17.834513   0.000000
   10       24.263791   0.000000
   11       28.721445   0.000000
   12       33.312433   0.000000
 
 -0.3500000E+00  0.3500000E+00  0.5000000E-01  0.1200000E-01
    1       -0.602126   1.000000
    2        0.125444   1.000000
    3        1.352532   1.000000
    4        2.576565   1.000000
    5        3.608012   1.000000
    6        8.999696  -0.000000
    7       11.137637  -0.000000
    8       13.675479   0.000000
    9       19.189394   0.000000
   10       24.015649   0.000000
   11       31.886320   0.000000
   12       32.317877   0.000000
 
 -0.2500000E+00  0.3500000E+00  0.5000000E-01  0.1200000E-01
    1       -0.310779   1.000000
    2        0.428335   1.000000
    3        0.844192   1.000000
    4        2.206953   1.000000
    5        3.182792   1.000000
    6        7.205053  -0.000000
    7       12.557067   0.000000
    8       14.677217   0.000000
    9       20.998180   0.000000
   10       23.911195   0.000000
   11       30.193574   0.000000
   12       33.148556   0.000000
 
 -0.1500000E+00  0.3500000E+00  0.5000000E-01  0.1200000E-01
    1       -0.907087   1.000000
    2        0.662496   1.000000
    3        1.168288   1.000000
    4        1.695236   1.000000
    5        3.094240   1.000000
    6        5.549539   1.035458
    7       12.498138   0.000000
    8       18.418808   0.000000
    9       21.958959   0.000000
   10       24.495771   0.000000
   11       29.148534   0.000000
   12       32.173013   0.000000
 
 -0.5000000E-01  0.3500000E+00  0.5000000E-01  0.1200000E-01
    1       -1.614091   1.000000
    2        1.023294   1.000000
    3        1.278153   1.000000
    4        1.528454   1.000000
    5        3.230285   1.000000
    6        3.953472   1.000000
    7       13.284976   0.000000
    8       21.209858   0.000000
    9       22.882214   0.000000
   10       25.168454   0.000000
   11       29.547413   0.000000
   12       30.547610   0.000000
 
  0.4500000E+00  0.4500000E+00  0.5000000E-01  0.6000000E-02
    1       -1.341791   1.000000
    2       -1.013672   1.000000
    3        3.624929   1.000000
    4        3.627668   1.000000
    5        3.974991   1.000000
    6        5.582297   1.030339
    7       13.584614   0.000000
    8       16.354449   0.000000
    9       16.688618   0.000000
   10       23.361553   0.000000
   11       25.756593   0.000000
   12       35.648868   0.000000
 
 -0.4500000E+00  0.4500000E+00  0.5000000E-01  0.1200000E-01
    1       -1.267540   1.000000
    2       -0.961260   1.000000
    3        3.227502   1.000000
    4        3.578055   1.000000
    5        4.126989   1.000000
    6        7.626866  -0.000000
    7       11.699452   0.000000
    8       15.312969   0.000000
    9       16.282513   0.000000
   10       24.311042   0.000000
   11       26.319358   0.000000
   12       34.766779   0.000000
 
 -0.3500000E+00  0.4500000E+00  0.5000000E-01  0.1200000E-01
    1       -0.957877   1.000000
    2       -0.488197   1.000000
    3        2.209513   1.000000
    4        3.092492   1.000000
    5        3.939100   1.000000
    6        9.212998  -0.000000
    7       10.821067  -0.000000
    8       14.028034   0.000000
    9       17.482091   0.000000
   10       24.458741   0.000000
   11       28.728065   0.000000
   12       33.474342   0.000000
 
 -0.2500000E+00  0.4500000E+00  0.5000000E-01  0.1200000E-01
    1       -0.636604   1.000000
    2        0.174016   1.000000
    3        1.308191   1.000000
    4        2.347881   1.000000
    5        3.736137   1.000000
    6        9.094643  -0.000000
    7        9.630223  -0.000000
    8       15.692346   0.000000
    9       19.388652   0.000000
   10       23.738159   0.000000
   11       31.603312   0.000000
   12       32.678500   0.000000
 
 -0.1500000E+00  0.4500000E+00  0.5000000E-01  0.1200000E-01
    1       -0.963781   1.000000
    2        0.503812   1.000000
    3        1.600260   1.000000
    4        1.797788   1.000000
    5        3.674570   1.000000
    6        7.500905  -0.000000
    7        9.197351  -0.000000
    8       18.796071   0.000000
    9       21.003626   0.000000
   10       23.095431   0.000000
   11       30.879566   0.000000
   12       32.521124   0.000000
 
 -0.5000000E-01  0.4500000E+00  0.5000000E-01  0.1200000E-01
    1       -1.532427   1.000000
    2        0.858461   1.000000
    3        1.139893   1.000000
    4        2.707189   1.000000
    5        3.758930   1.000000
    6        5.363441   1.004693
    7        9.752005  -0.000000
    8       20.663100   0.000000
    9       22.324811   0.000000
   10       23.484764   0.000000
   11       30.846237   0.000000
   12       31.369007   0.000000
 
 -0.4500000E+00 -0.4500000E+00  0.5000000E-01  0.6000000E-02
    1       -1.419612   1.000000
    2       -1.100696   1.000000
    3        3.748267   1.000000
    4        3.922259   1.000000
    5        4.139988   1.000000
    6        6.801846  -0.000000
    7       11.937530   0.000000
    8       15.838937   0.000000
    9       16.207347   0.000000
   10       23.494560   0.000000
   11       25.924829   0.000000
   12       35.444494   0.000000
 
 -0.3500000E+00 -0.4500000E+00  0.5000000E-01  0.1200000E-01
    1       -1.186981   1.000000
    2       -0.877697   1.000000
    3        2.854242   1.000000
    4        3.509894   1.000000
    5        3.967189   1.000000
    6        6.390068  -0.000106
    7       13.217419   0.000000
    8       15.919053   0.000000
    9       16.755932   0.000000
   10       24.197343   0.000000
   11       26.195126   0.000000
   12       34.710222   0.000000
 
 -0.2500000E+00 -0.4500000E+00  0.5000000E-01  0.1200000E-01
    1       -0.843391   1.000000
    2       -0.206879   1.000000
    3        1.468335   1.000000
    4        2.602120   1.000000
    5        3.891487   1.000000
    6        6.308412  -0.000843
    7       12.670152   0.000000
    8       17.278863   0.000000
    9       18.534107   0.000000
   10       23.976893   0.000000
   11       28.734933   0.000000
   12       32.927036   0.000000
 
 -0.1500000E+00 -0.4500000E+00  0.5000000E-01  0.1200000E-01
    1       -1.013539   1.000000
    2        0.554515   1.000000
    3        1.310921   1.000000
    4        1.731696   1.000000
    5        3.824545   1.000000
    6        6.017210  -0.033262
    7       11.049921  -0.000000
    8       19.906430   0.000000
    9       20.347679   0.000000
   10       23.181639   0.000000
   11       31.073554   0.000000
   12       32.746099   0.000000
 
 -0.3500000E+00 -0.3500000E+00  0.5000000E-01  0.6000000E-02
    1       -1.233409   1.000000
    2       -0.844709   1.000000
    3        3.029700   1.000000
    4        3.344262   1.000000
    5        3.751770   1.000000
    6        4.282364   1.000000
    7       15.772904   0.000000
    8       17.367614   0.000000
    9       17.586328   0.000000
   10       23.165124   0.000000
   11       25.424653   0.000000
   12       35.745458   0.000000
 
 -0.2500000E+00 -0.3500000E+00  0.5000000E-01  0.1200000E-01
    1       -1.055814   1.000000
    2       -0.489001   1.000000
    3        1.666459   1.000000
    4        2.815278   1.000000
    5        3.393514   1.000000
    6        4.149775   1.000000
    7       16.509962   0.000000
    8       18.478167   0.000000
    9       19.388791   0.000000
   10       24.019641   0.000000
   11       25.670516   0.000000
   12       33.447485   0.000000
 
 -0.1500000E+00 -0.3500000E+00  0.5000000E-01  0.1200000E-01
    1       -1.181963   1.000000
    2        0.291812   1.000000
    3        0.957242   1.000000
    4        1.902857   1.000000
    5        3.356458   1.000000
    6        4.140385   1.000000
    7       14.933773   0.000000
    8       20.408499   0.000000
    9       21.472822   0.000000
   10       23.993659   0.000000
   11       28.825169   0.000000
   12       31.454603   0.000000
 
 -0.2500000E+00 -0.2500000E+00  0.5000000E-01  0.6000000E-02
    1       -1.517153   1.000000
    2       -0.310887   1.000000
    3        1.676557   1.000000
    4        2.458718   1.000000
    5        2.711655   1.000000
    6        3.320982   1.000000
    7       19.336256   0.000000
    8       20.228801   0.000000
    9       21.416924   0.000000
   10       23.183097   0.000000
   11       24.390158   0.000000
   12       33.380117   0.000000
 
 -0.1500000E+00 -0.2500000E+00  0.5000000E-01  0.1200000E-01
    1       -1.996272   1.000000
    2        0.083606   1.000000
    3        1.350680   1.000000
    4        1.972272   1.000000
    5        2.411720   1.000000
    6        3.259779   1.000000
    7       19.070571   0.000000
    8       21.102719   0.000000
    9       23.213039   0.000000
   10       24.318574   0.000000
   11       26.384606   0.000000
   12       31.302073   0.000000
 
 -0.1500000E+00 -0.1500000E+00  0.5000000E-01  0.6000000E-02
    1       -2.903542   1.000000
    2        0.341503   1.000000
    3        1.582925   1.000000
    4        1.637433   1.000000
    5        2.020197   1.000000
    6        2.916212   1.000000
    7       21.575628   0.000000
    8       22.656740   0.000000
    9       23.178155   0.000000
   10       24.151776   0.000000
   11       27.617049   0.000000
   12       31.616061   0.000000
 
  0.1500000E+00  0.1500000E+00  0.1500000E+00  0.2000000E-02
    1       -3.559646   1.000000
    2        0.794634   1.000000
    3        1.225360   1.000000
    4        1.225360   1.000000
    5        2.534198   1.000000
    6        2.534198   1.000000
    7       20.964444   0.000000
    8       22.184059   0.000000
    9       25.851974   0.000000
   10       25.851974   0.000000
   11       29.120075   0.000000
   12       31.546614   0.000000
 
  0.2500000E+00  0.1500000E+00  0.1500000E+00  0.6000000E-02
    1       -2.926417   1.000000
    2        0.582416   1.000000
    3        1.356447   1.000000
    4        1.438460   1.000000
    5        2.213202   1.000000
    6        2.931741   1.000000
    7       19.903347   0.000000
    8       21.686715   0.000000
    9       24.531964   0.000000
   10       26.767834   0.000000
   11       27.896869   0.000000
   12       31.038205   0.000000
 
  0.3500000E+00  0.1500000E+00  0.1500000E+00  0.6000000E-02
    1       -1.861347   1.000000
    2        0.421460   1.000000
    3        1.244565   1.000000
    4        1.729844   1.000000
    5        2.119771   1.000000
    6        3.692195   1.000000
    7       17.439946   0.000000
    8       20.019187   0.000000
    9       24.178512   0.000000
   10       25.935434   0.000000
   11       28.380251   0.000000
   12       30.369764   0.000000
 
  0.4500000E+00  0.1500000E+00  0.1500000E+00  0.6000000E-02
    1       -1.186577   1.000000
    2        0.814680   1.000000
    3        1.191226   1.000000
    4        1.519795   1.000000
    5        2.814044   1.000000
    6        4.774219   1.000000
    7       13.580608   0.000000
    8       19.374429   0.000000
    9       22.580300   0.000000
   10       25.457179   0.000000
   11       28.372538   0.000000
   12       31.483024   0.000000
 
 -0.4500000E+00  0.1500000E+00  0.1500000E+00  0.6000000E-02
    1       -1.158204   1.000000
    2        0.667850   1.000000
    3        1.405425   1.000000
    4        2.046750   1.000000
    5        3.524062   1.000000
    6        6.378814  -0.000144
    7        9.988600  -0.000000
    8       19.383509   0.000000
    9       21.924320   0.000000
   10       23.096820   0.000000
   11       30.683874   0.000000
   12       31.728333   0.000000
 
 -0.3500000E+00  0.1500000E+00  0.1500000E+00  0.6000000E-02
    1       -1.198032   1.000000
    2        0.639630   1.000000
    3        1.456043   1.000000
    4        1.872475   1.000000
    5        3.886112   1.000000
    6        6.345449  -0.000344
    7        9.816599  -0.000000
    8       20.116064   0.000000
    9       21.797378   0.000000
   10       22.179052   0.000000
   11       31.698829   0.000000
   12       31.920648   0.000000
 
 -0.2500000E+00  0.1500000E+00  0.1500000E+00  0.6000000E-02
    1       -1.277200   1.000000
    2        0.740572   1.000000
    3        0.978377   1.000000
    4        1.623201   1.000000
    5        3.732113   1.000000
    6        4.224516   1.000000
    7       13.445944   0.000000
    8       21.274943   0.000000
    9       21.640095   0.000000
   10       23.207765   0.000000
   11       30.636042   0.000000
   12       31.585947   0.000000
 
 -0.1500000E+00  0.1500000E+00  0.1500000E+00  0.6000000E-02
    1       -1.889333   1.000000
    2        0.216396   1.000000
    3        1.251861   1.000000
    4        1.761495   1.000000
    5        2.775319   1.000000
    6        3.264125   1.000000
    7       17.603460   0.000000
    8       22.258180   0.000000
    9       22.463122   0.000000
   10       24.398048   0.000000
   11       27.505511   0.000000
   12       31.551921   0.000000
 
  0.2500000E+00  0.2500000E+00  0.1500000E+00  0.6000000E-02
    1       -2.560566   1.000000
    2        0.467910   1.000000
    3        1.375789   1.000000
    4        1.512609   1.000000
    5        2.404144   1.000000
    6        2.981438   1.000000
    7       18.753923   0.000000
    8       22.471551   0.000000
    9       23.769267   0.000000
   10       25.958824   0.000000
   11       27.839739   0.000000
   12       30.931342   0.000000
 
  0.3500000E+00  0.2500000E+00  0.1500000E+00  0.1200000E-01
    1       -1.689978   1.000000
    2        0.206192   1.000000
    3        1.149326   1.000000
    4        1.941616   1.000000
    5        2.385105   1.000000
    6        3.670514   1.000000
    7       17.581515   0.000000
    8       20.048707   0.000000
    9       23.294271   0.000000
   10       25.291422   0.000000
   11       27.967311   0.000000
   12       30.312842   0.000000
 
  0.4500000E+00  0.2500000E+00  0.1500000E+00  0.1200000E-01
    1       -0.753593   1.000000
    2        0.230047   1.000000
    3        0.744647   1.000000
    4        2.175053   1.000000
    5        2.703936   1.000000
    6        4.871449   1.000000
    7       15.144835   0.000000
    8       17.799056   0.000000
    9       21.800150   0.000000
   10       26.051601   0.000000
   11       27.528035   0.000000
   12       31.926054   0.000000
 
 -0.4500000E+00  0.2500000E+00  0.1500000E+00  0.1200000E-01
    1       -0.620193   1.000000
    2        0.408327   1.000000
    3        1.059781   1.000000
    4        1.972153   1.000000
    5        3.420212   1.000000
    6        6.565640  -0.000000
    7       11.547995   0.000000
    8       17.543163   0.000000
    9       20.406361   0.000000
   10       24.550403   0.000000
   11       29.613208   0.000000
   12       33.269794   0.000000
 
 -0.3500000E+00  0.2500000E+00  0.1500000E+00  0.1200000E-01
    1       -0.691633   1.000000
    2        0.314645   1.000000
    3        1.402958   1.000000
    4        1.902595   1.000000
    5        3.722224   1.000000
    6        8.245275  -0.000000
    7        9.212792  -0.000000
    8       18.165341   0.000000
    9       19.365399   0.000000
   10       24.030746   0.000000
   11       30.512143   0.000000
   12       33.752476   0.000000
 
 -0.2500000E+00  0.2500000E+00  0.1500000E+00  0.1200000E-01
    1       -0.741704   1.000000
    2        0.408583   1.000000
    3        0.819033   1.000000
    4        2.103053   1.000000
    5        3.548697   1.000000
    6        5.804883   0.455938
    7       12.560348   0.000000
    8       18.420571   0.000000
    9       19.966180   0.000000
   10       24.515290   0.000000
   11       29.572699   0.000000
   12       32.344735   0.000000
 
 -0.1500000E+00  0.2500000E+00  0.1500000E+00  0.1200000E-01
    1       -1.075697   1.000000
    2       -0.029941   1.000000
    3        0.971842   1.000000
    4        2.304631   1.000000
    5        2.807259   1.000000
    6        4.197726   1.000000
    7       16.411880   0.000000
    8       18.892679   0.000000
    9       21.567111   0.000000
   10       25.293695   0.000000
   11       27.087846   0.000000