 running on    4 total cores
 distrk:  each k-point on    4 cores,    1 groups
 distr:  one band on    1 cores,    4 groups
 using from now: INCAR     
 vasp.5.4.4.18Apr17-6-g9f103f2a35 (build Jul 01 2019 03:25:34) complex          
  
 POSCAR found type information on POSCAR  Au
 POSCAR found :  1 types and       1 ions
 scaLAPACK will be used
 LDA part: xc-table for Ceperly-Alder, standard interpolation
 found WAVECAR, reading the header
 POSCAR, INCAR and KPOINTS ok, starting setup
 FFT: planning ...
 reading WAVECAR
 the WAVECAR file was read successfully
 initial charge from wavefunction
 entering main loop
       N       E                     dE             d eps       ncg     rms          rms(c)
DAV:   1    -0.127813731243E+02   -0.12781E+02   -0.11939E+02  2936   0.137E+02    0.165E+01
DAV:   2    -0.450453002302E+01    0.82768E+01   -0.23518E+01  3016   0.572E+01    0.339E+00
DAV:   3    -0.416921551712E+01    0.33531E+00   -0.21144E+00  3084   0.150E+01    0.456E-01
DAV:   4    -0.416562365201E+01    0.35919E-02   -0.45828E-02  2936   0.243E+00    0.883E-02
DAV:   5    -0.416573358479E+01   -0.10993E-03   -0.67728E-04  3132   0.146E-01    0.244E-02
DAV:   6    -0.416577648307E+01   -0.42898E-04   -0.10024E-04  1580   0.555E-02
   1 F= -.41657765E+01 E0= -.41660524E+01  d E =-.416578E+01
 curvature:   0.00 expect dE= 0.000E+00 dE for cont linesearch  0.000E+00
 trial: gam= 0.00000 g(F)=  0.366E-65 g(S)=  0.936E+00 ort = 0.000E+00 (trialstep = 0.100E+01)
 search vector abs. value=  0.936E+00
 bond charge predicted
       N       E                     dE             d eps       ncg     rms          rms(c)
DAV:   1    -0.218348651135E+02   -0.17669E+02   -0.36302E+02  3004   0.227E+02    0.233E+01
DAV:   2    -0.513662613329E+01    0.16698E+02   -0.30237E+01  2972   0.652E+01    0.669E+00
DAV:   3    -0.377016241063E+01    0.13665E+01   -0.52711E+00  3136   0.251E+01    0.181E+00
DAV:   4    -0.378450438524E+01   -0.14342E-01   -0.23444E-01  3016   0.513E+00    0.400E-01
DAV:   5    -0.378297591284E+01    0.15285E-02   -0.22145E-02  3420   0.159E+00    0.802E-02
DAV:   6    -0.378284102095E+01    0.13489E-03   -0.32630E-04  3000   0.165E-01    0.168E-02
DAV:   7    -0.378284139389E+01   -0.37294E-06   -0.48178E-06  1672   0.169E-02
   2 F= -.37828414E+01 E0= -.37827288E+01  d E =0.382935E+00
 trial-energy change:    0.382935  1 .order    0.763247   -0.936463    2.462957
 step:   0.4409(harm=  0.2755)  dis= 0.00000  next Energy=    -4.404850 (dE=-0.239E+00)
 bond charge predicted
       N       E                     dE             d eps       ncg     rms          rms(c)
DAV:   1    -0.986019534096E+01   -0.60774E+01   -0.11890E+02  2920   0.144E+02    0.128E+01
DAV:   2    -0.476780590713E+01    0.50924E+01   -0.14918E+01  3076   0.474E+01    0.294E+00
DAV:   3    -0.443828454968E+01    0.32952E+00   -0.13720E+00  3280   0.118E+01    0.873E-01
DAV:   4    -0.442101372593E+01    0.17271E-01   -0.41431E-02  2908   0.242E+00    0.265E-01
DAV:   5    -0.441944652757E+01    0.15672E-02   -0.82047E-03  3044   0.469E-01    0.392E-02
DAV:   6    -0.441954899827E+01   -0.10247E-03   -0.18669E-04  2956   0.132E-01    0.126E-02
DAV:   7    -0.441955708902E+01   -0.80908E-05   -0.83958E-06  1468   0.263E-02
   3 F= -.44195571E+01 E0= -.44198582E+01  d E =-.253781E+00
 curvature:  -0.13 expect dE=-0.713E-03 dE for cont linesearch -0.713E-03
 trial: gam=-0.07055 g(F)=  0.243E-64 g(S)=  0.546E-02 ort = 0.715E-01 (trialstep = 0.888E+00)
 search vector abs. value=  0.319E-04
 bond charge predicted
       N       E                     dE             d eps       ncg     rms          rms(c)
DAV:   1    -0.442033639472E+01   -0.78740E-03   -0.92497E-03  2972   0.123E+00    0.118E-01
DAV:   2    -0.441990621166E+01    0.43018E-03   -0.13074E-03  2720   0.413E-01    0.228E-02
DAV:   3    -0.441988977268E+01    0.16439E-04   -0.67133E-05  1344   0.795E-02
   4 F= -.44198898E+01 E0= -.44201908E+01  d E =-.332684E-03
 ZBRENT: can't locate minimum, use default step
 trial-energy change:   -0.000333  1 .order   -0.000327   -0.000371   -0.000284
 step:   3.5528(harm=  3.8165)  dis= 0.00000  next Energy=    -4.420353 (dE=-0.796E-03)
 bond charge predicted
       N       E                     dE             d eps       ncg     rms          rms(c)
DAV:   1    -0.442451616003E+01   -0.46099E-02   -0.83672E-02  3000   0.371E+00    0.355E-01
DAV:   2    -0.442059914366E+01    0.39170E-02   -0.11802E-02  3060   0.124E+00    0.693E-02
DAV:   3    -0.442044711459E+01    0.15203E-03   -0.63962E-04  2364   0.243E-01    0.227E-02
DAV:   4    -0.442044278837E+01    0.43262E-05   -0.34575E-05  1564   0.520E-02
   5 F= -.44204428E+01 E0= -.44207420E+01  d E =-.885699E-03
 curvature:  -0.14 expect dE=-0.575E-04 dE for cont linesearch -0.575E-04
 trial: gam=-0.19704 g(F)=  0.183E-63 g(S)=  0.398E-03 ort = 0.113E-03 (trialstep = 0.128E+00)
 search vector abs. value=  0.355E-03
 reached required accuracy - stopping structural energy minimisation
 writing wavefunctions
