 vasp.5.4.4.18Apr17-6-g9f103f2a35 (build Jul 01 2019 03:25:34) complex          
  
 executed on             LinuxIFC date 2020.07.08  00:47:22
 running on    4 total cores
 distrk:  each k-point on    4 cores,    1 groups
 distr:  one band on NCORES_PER_BAND=   1 cores,    4 groups


--------------------------------------------------------------------------------------------------------


 INCAR:
 POTCAR:   PAW Au 04Feb1998                       
 POTCAR:   PAW Au 04Feb1998                       
   VRHFIN =Au: s1d10                                                            
   LEXCH  = CA                                                                  
   EATOM  =   929.4667 eV,   68.3139 Ry                                         
                                                                                
   TITEL  = PAW Au 04Feb1998                                                    
   LULTRA =        F    use ultrasoft PP ?                                      
   IUNSCR =        1    unscreen: 0-lin 1-nonlin 2-no                           
   RPACOR =    2.330    partial core radius                                     
   POMASS =  196.966; ZVAL   =   11.000    mass and valenz                      
   RCORE  =    2.500    outmost cutoff radius                                   
   RWIGS  =    2.840; RWIGS  =    1.503    wigner-seitz radius (au A)           
   ENMAX  =  229.869; ENMIN  =  172.402 eV                                      
   RCLOC  =    1.964    cutoff for local pot                                    
   LCOR   =        T    correct aug charges                                     
   LPAW   =        T    paw PP                                                  
   EAUG   =  356.670                                                            
   DEXC   =    -.020                                                            
   RMAX   =    3.041    core radius for proj-oper                               
   RDEP   =    2.598    core radius for depl-charge                             
   QCUT   =   -4.110; QGAM   =    8.221    optimization parameters              
                                                                                
   Description                                                                  
     l     E      TYP  RCUT    TYP  RCUT                                        
     2   .000     23  2.500                                                     
     2   .000     23  2.500                                                     
     0   .000     23  2.500                                                     
     0   .000     23  2.500                                                     
     1  -.200     23  2.500                                                     
     1   .000     23  2.500                                                     
     3   .000      7   .000                                                     
  local pseudopotential read in
  partial core-charges read in
  atomic valenz-charges read in
  non local Contribution for L=           2  read in
    real space projection operators read in
  non local Contribution for L=           2  read in
    real space projection operators read in
  non local Contribution for L=           0  read in
    real space projection operators read in
  non local Contribution for L=           0  read in
    real space projection operators read in
  non local Contribution for L=           1  read in
    real space projection operators read in
  non local Contribution for L=           1  read in
    real space projection operators read in
    PAW grid and wavefunctions read in
 
   number of l-projection  operators is LMAX  =           6
   number of lm-projection operators is LMMAX =          18
 
 PAW Au 04Feb1998                       :
 energy of atom  1       EATOM= -929.4667
 kinetic energy error for atom=    0.0520 (will be added to EATOM!!)
 
 
 POSCAR: Au bulk FCC                             
  positions in direct lattice
  No initial velocities read in
 exchange correlation table for  LEXCH =        2
   RHO(1)=    0.500       N(1)  =     2000
   RHO(2)=  100.500       N(2)  =     4000
 


--------------------------------------------------------------------------------------------------------


 ion  position               nearest neighbor table
   1  0.000  0.000  0.000-
 
  LATTYP: Found a face centered cubic cell.
 ALAT       =     4.3000000000
  
  Lattice vectors:
  
 A1 = (   0.0000000000,   2.1500000000,   2.1500000000)
 A2 = (   2.1500000000,   0.0000000000,   2.1500000000)
 A3 = (   2.1500000000,   2.1500000000,   0.0000000000)


Analysis of symmetry for initial positions (statically):
=====================================================================
 Subroutine PRICEL returns:
 Original cell was already a primitive cell.
 

 Routine SETGRP: Setting up the symmetry group for a 
 face centered cubic supercell.


 Subroutine GETGRP returns: Found 48 space group operations
 (whereof 48 operations were pure point group operations)
 out of a pool of 48 trial point group operations.


The static configuration has the point symmetry O_h .


Analysis of symmetry for dynamics (positions and initial velocities):
=====================================================================
 Subroutine PRICEL returns:
 Original cell was already a primitive cell.
 

 Routine SETGRP: Setting up the symmetry group for a 
 face centered cubic supercell.


 Subroutine GETGRP returns: Found 48 space group operations
 (whereof 48 operations were pure point group operations)
 out of a pool of 48 trial point group operations.


The dynamic configuration has the point symmetry O_h .


 Subroutine INISYM returns: Found 48 space group operations
 (whereof 48 operations are pure point group operations),
 and found     1 'primitive' translations

 
 
 KPOINTS: 10x10x10                                

Automatic generation of k-mesh.
Space group operators:
 irot       det(A)        alpha          n_x          n_y          n_z        tau_x        tau_y        tau_z
    1     1.000000     0.000000     1.000000     0.000000     0.000000     0.000000     0.000000     0.000000
    2    -1.000000     0.000000     1.000000     0.000000     0.000000     0.000000     0.000000     0.000000
    3     1.000000   120.000000    -0.577350    -0.577350    -0.577350     0.000000     0.000000     0.000000
    4    -1.000000   120.000000    -0.577350    -0.577350    -0.577350     0.000000     0.000000     0.000000
    5     1.000000   120.000000     0.577350     0.577350     0.577350     0.000000     0.000000     0.000000
    6    -1.000000   120.000000     0.577350     0.577350     0.577350     0.000000     0.000000     0.000000
    7     1.000000    90.000000     0.000000     0.000000    -1.000000     0.000000     0.000000     0.000000
    8    -1.000000    90.000000     0.000000     0.000000    -1.000000     0.000000     0.000000     0.000000
    9     1.000000   180.000000     0.000000     0.707107     0.707107     0.000000     0.000000     0.000000
   10    -1.000000   180.000000     0.000000     0.707107     0.707107     0.000000     0.000000     0.000000
   11     1.000000    90.000000     0.000000     1.000000     0.000000     0.000000     0.000000     0.000000
   12    -1.000000    90.000000     0.000000     1.000000     0.000000     0.000000     0.000000     0.000000
   13     1.000000   180.000000     0.000000     0.000000     1.000000     0.000000     0.000000     0.000000
   14    -1.000000   180.000000     0.000000     0.000000     1.000000     0.000000     0.000000     0.000000
   15     1.000000   120.000000    -0.577350     0.577350     0.577350     0.000000     0.000000     0.000000
   16    -1.000000   120.000000    -0.577350     0.577350     0.577350     0.000000     0.000000     0.000000
   17     1.000000   120.000000    -0.577350     0.577350    -0.577350     0.000000     0.000000     0.000000
   18    -1.000000   120.000000    -0.577350     0.577350    -0.577350     0.000000     0.000000     0.000000
   19     1.000000    90.000000     0.000000     0.000000     1.000000     0.000000     0.000000     0.000000
   20    -1.000000    90.000000     0.000000     0.000000     1.000000     0.000000     0.000000     0.000000
   21     1.000000    90.000000    -1.000000     0.000000     0.000000     0.000000     0.000000     0.000000
   22    -1.000000    90.000000    -1.000000     0.000000     0.000000     0.000000     0.000000     0.000000
   23     1.000000   180.000000     0.707107     0.000000     0.707107     0.000000     0.000000     0.000000
   24    -1.000000   180.000000     0.707107     0.000000     0.707107     0.000000     0.000000     0.000000
   25     1.000000   120.000000     0.577350    -0.577350     0.577350     0.000000     0.000000     0.000000
   26    -1.000000   120.000000     0.577350    -0.577350     0.577350     0.000000     0.000000     0.000000
   27     1.000000   120.000000    -0.577350    -0.577350     0.577350     0.000000     0.000000     0.000000
   28    -1.000000   120.000000    -0.577350    -0.577350     0.577350     0.000000     0.000000     0.000000
   29     1.000000   180.000000     1.000000     0.000000     0.000000     0.000000     0.000000     0.000000
   30    -1.000000   180.000000     1.000000     0.000000     0.000000     0.000000     0.000000     0.000000
   31     1.000000    90.000000     0.000000    -1.000000     0.000000     0.000000     0.000000     0.000000
   32    -1.000000    90.000000     0.000000    -1.000000     0.000000     0.000000     0.000000     0.000000
   33     1.000000   180.000000     0.707107     0.707107     0.000000     0.000000     0.000000     0.000000
   34    -1.000000   180.000000     0.707107     0.707107     0.000000     0.000000     0.000000     0.000000
   35     1.000000    90.000000     1.000000     0.000000     0.000000     0.000000     0.000000     0.000000
   36    -1.000000    90.000000     1.000000     0.000000     0.000000     0.000000     0.000000     0.000000
   37     1.000000   120.000000     0.577350    -0.577350    -0.577350     0.000000     0.000000     0.000000
   38    -1.000000   120.000000     0.577350    -0.577350    -0.577350     0.000000     0.000000     0.000000
   39     1.000000   180.000000     0.000000     1.000000     0.000000     0.000000     0.000000     0.000000
   40    -1.000000   180.000000     0.000000     1.000000     0.000000     0.000000     0.000000     0.000000
   41     1.000000   120.000000     0.577350     0.577350    -0.577350     0.000000     0.000000     0.000000
   42    -1.000000   120.000000     0.577350     0.577350    -0.577350     0.000000     0.000000     0.000000
   43     1.000000   180.000000     0.000000    -0.707107     0.707107     0.000000     0.000000     0.000000
   44    -1.000000   180.000000     0.000000    -0.707107     0.707107     0.000000     0.000000     0.000000
   45     1.000000   180.000000     0.707107    -0.707107     0.000000     0.000000     0.000000     0.000000
   46    -1.000000   180.000000     0.707107    -0.707107     0.000000     0.000000     0.000000     0.000000
   47     1.000000   180.000000     0.707107     0.000000    -0.707107     0.000000     0.000000     0.000000
   48    -1.000000   180.000000     0.707107     0.000000    -0.707107     0.000000     0.000000     0.000000
 
 Subroutine IBZKPT returns following result:
 ===========================================
 
 Found    110 irreducible k-points:
 
 Following reciprocal coordinates:
            Coordinates               Weight
  0.050000  0.050000  0.050000     96.000000
  0.150000  0.050000  0.050000    288.000000
  0.250000  0.050000  0.050000    288.000000
  0.350000  0.050000  0.050000    288.000000
  0.450000  0.050000  0.050000    288.000000
 -0.450000  0.050000  0.050000    288.000000
 -0.350000  0.050000  0.050000    288.000000
 -0.250000  0.050000  0.050000    288.000000
 -0.150000  0.050000  0.050000    288.000000
 -0.050000  0.050000  0.050000    288.000000
  0.150000  0.150000  0.050000    288.000000
  0.250000  0.150000  0.050000    576.000000
  0.350000  0.150000  0.050000    576.000000
  0.450000  0.150000  0.050000    576.000000
 -0.450000  0.150000  0.050000    576.000000
 -0.350000  0.150000  0.050000    576.000000
 -0.250000  0.150000  0.050000    576.000000
 -0.150000  0.150000  0.050000    576.000000
 -0.050000  0.150000  0.050000    576.000000
  0.250000  0.250000  0.050000    288.000000
  0.350000  0.250000  0.050000    576.000000
  0.450000  0.250000  0.050000    576.000000
 -0.450000  0.250000  0.050000    576.000000
 -0.350000  0.250000  0.050000    576.000000
 -0.250000  0.250000  0.050000    576.000000
 -0.150000  0.250000  0.050000    576.000000
 -0.050000  0.250000  0.050000    576.000000
  0.350000  0.350000  0.050000    288.000000
  0.450000  0.350000  0.050000    576.000000
 -0.450000  0.350000  0.050000    576.000000
 -0.350000  0.350000  0.050000    576.000000
 -0.250000  0.350000  0.050000    576.000000
 -0.150000  0.350000  0.050000    576.000000
 -0.050000  0.350000  0.050000    576.000000
  0.450000  0.450000  0.050000    288.000000
 -0.450000  0.450000  0.050000    576.000000
 -0.350000  0.450000  0.050000    576.000000
 -0.250000  0.450000  0.050000    576.000000
 -0.150000  0.450000  0.050000    576.000000
 -0.050000  0.450000  0.050000    576.000000
 -0.450000 -0.450000  0.050000    288.000000
 -0.350000 -0.450000  0.050000    576.000000
 -0.250000 -0.450000  0.050000    576.000000
 -0.150000 -0.450000  0.050000    576.000000
 -0.350000 -0.350000  0.050000    288.000000
 -0.250000 -0.350000  0.050000    576.000000
 -0.150000 -0.350000  0.050000    576.000000
 -0.250000 -0.250000  0.050000    288.000000
 -0.150000 -0.250000  0.050000    576.000000
 -0.150000 -0.150000  0.050000    288.000000
  0.150000  0.150000  0.150000     96.000000
  0.250000  0.150000  0.150000    288.000000
  0.350000  0.150000  0.150000    288.000000
  0.450000  0.150000  0.150000    288.000000
 -0.450000  0.150000  0.150000    288.000000
 -0.350000  0.150000  0.150000    288.000000
 -0.250000  0.150000  0.150000    288.000000
 -0.150000  0.150000  0.150000    288.000000
  0.250000  0.250000  0.150000    288.000000
  0.350000  0.250000  0.150000    576.000000
  0.450000  0.250000  0.150000    576.000000
 -0.450000  0.250000  0.150000    576.000000
 -0.350000  0.250000  0.150000    576.000000
 -0.250000  0.250000  0.150000    576.000000
 -0.150000  0.250000  0.150000    576.000000
  0.350000  0.350000  0.150000    288.000000
  0.450000  0.350000  0.150000    576.000000
 -0.450000  0.350000  0.150000    576.000000
 -0.350000  0.350000  0.150000    576.000000
 -0.250000  0.350000  0.150000    576.000000
 -0.150000  0.350000  0.150000    576.000000
  0.450000  0.450000  0.150000    288.000000
 -0.450000  0.450000  0.150000    576.000000
 -0.350000  0.450000  0.150000    576.000000
 -0.250000  0.450000  0.150000    576.000000
 -0.150000  0.450000  0.150000    576.000000
 -0.450000 -0.450000  0.150000    288.000000
 -0.350000 -0.450000  0.150000    576.000000
 -0.250000 -0.450000  0.150000    576.000000
 -0.350000 -0.350000  0.150000    288.000000
 -0.250000 -0.350000  0.150000    576.000000
 -0.250000 -0.250000  0.150000    288.000000
  0.250000  0.250000  0.250000     96.000000
  0.350000  0.250000  0.250000    288.000000
  0.450000  0.250000  0.250000    288.000000
 -0.450000  0.250000  0.250000    288.000000
 -0.350000  0.250000  0.250000    288.000000
 -0.250000  0.250000  0.250000    288.000000
  0.350000  0.350000  0.250000    288.000000
  0.450000  0.350000  0.250000    576.000000
 -0.450000  0.350000  0.250000    576.000000
 -0.350000  0.350000  0.250000    576.000000
 -0.250000  0.350000  0.250000    576.000000
  0.450000  0.450000  0.250000    288.000000
 -0.450000  0.450000  0.250000    576.000000
 -0.350000  0.450000  0.250000    576.000000
 -0.250000  0.450000  0.250000    576.000000
 -0.450000 -0.450000  0.250000    288.000000
 -0.350000 -0.450000  0.250000    576.000000
 -0.350000 -0.350000  0.250000    288.000000
  0.350000  0.350000  0.350000     96.000000
  0.450000  0.350000  0.350000    288.000000
 -0.450000  0.350000  0.350000    288.000000
 -0.350000  0.350000  0.350000    288.000000
  0.450000  0.450000  0.350000    288.000000
 -0.450000  0.450000  0.350000    576.000000
 -0.350000  0.450000  0.350000    576.000000
 -0.450000 -0.450000  0.350000    288.000000
  0.450000  0.450000  0.450000     96.000000
 -0.450000  0.450000  0.450000    288.000000
 
 Following cartesian coordinates:
            Coordinates               Weight
  0.050000  0.050000  0.050000     96.000000
 -0.050000  0.150000  0.150000    288.000000
 -0.150000  0.250000  0.250000    288.000000
 -0.250000  0.350000  0.350000    288.000000
 -0.350000  0.450000  0.450000    288.000000
  0.550000 -0.450000 -0.450000    288.000000
  0.450000 -0.350000 -0.350000    288.000000
  0.350000 -0.250000 -0.250000    288.000000
  0.250000 -0.150000 -0.150000    288.000000
  0.150000 -0.050000 -0.050000    288.000000
  0.050000  0.050000  0.250000    288.000000
 -0.050000  0.150000  0.350000    576.000000
 -0.150000  0.250000  0.450000    576.000000
 -0.250000  0.350000  0.550000    576.000000
  0.650000 -0.550000 -0.350000    576.000000
  0.550000 -0.450000 -0.250000    576.000000
  0.450000 -0.350000 -0.150000    576.000000
  0.350000 -0.250000 -0.050000    576.000000
  0.250000 -0.150000  0.050000    576.000000
  0.050000  0.050000  0.450000    288.000000
 -0.050000  0.150000  0.550000    576.000000
 -0.150000  0.250000  0.650000    576.000000
  0.750000 -0.650000 -0.250000    576.000000
  0.650000 -0.550000 -0.150000    576.000000
  0.550000 -0.450000 -0.050000    576.000000
  0.450000 -0.350000  0.050000    576.000000
  0.350000 -0.250000  0.150000    576.000000
  0.050000  0.050000  0.650000    288.000000
 -0.050000  0.150000  0.750000    576.000000
  0.850000 -0.750000 -0.150000    576.000000
  0.750000 -0.650000 -0.050000    576.000000
  0.650000 -0.550000  0.050000    576.000000
  0.550000 -0.450000  0.150000    576.000000
  0.450000 -0.350000  0.250000    576.000000
  0.050000  0.050000  0.850000    288.000000
  0.950000 -0.850000 -0.050000    576.000000
  0.850000 -0.750000  0.050000    576.000000
  0.750000 -0.650000  0.150000    576.000000
  0.650000 -0.550000  0.250000    576.000000
  0.550000 -0.450000  0.350000    576.000000
  0.050000  0.050000 -0.950000    288.000000
 -0.050000  0.150000 -0.850000    576.000000
 -0.150000  0.250000 -0.750000    576.000000
 -0.250000  0.350000 -0.650000    576.000000
  0.050000  0.050000 -0.750000    288.000000
 -0.050000  0.150000 -0.650000    576.000000
 -0.150000  0.250000 -0.550000    576.000000
  0.050000  0.050000 -0.550000    288.000000
 -0.050000  0.150000 -0.450000    576.000000
  0.050000  0.050000 -0.350000    288.000000
  0.150000  0.150000  0.150000     96.000000
  0.050000  0.250000  0.250000    288.000000
 -0.050000  0.350000  0.350000    288.000000
 -0.150000  0.450000  0.450000    288.000000
  0.750000 -0.450000 -0.450000    288.000000
  0.650000 -0.350000 -0.350000    288.000000
  0.550000 -0.250000 -0.250000    288.000000
  0.450000 -0.150000 -0.150000    288.000000
  0.150000  0.150000  0.350000    288.000000
  0.050000  0.250000  0.450000    576.000000
 -0.050000  0.350000  0.550000    576.000000
  0.850000 -0.550000 -0.350000    576.000000
  0.750000 -0.450000 -0.250000    576.000000
  0.650000 -0.350000 -0.150000    576.000000
  0.550000 -0.250000 -0.050000    576.000000
  0.150000  0.150000  0.550000    288.000000
  0.050000  0.250000  0.650000    576.000000
  0.950000 -0.650000 -0.250000    576.000000
  0.850000 -0.550000 -0.150000    576.000000
  0.750000 -0.450000 -0.050000    576.000000
  0.650000 -0.350000  0.050000    576.000000
  0.150000  0.150000  0.750000    288.000000
  1.050000 -0.750000 -0.150000    576.000000
  0.950000 -0.650000 -0.050000    576.000000
  0.850000 -0.550000  0.050000    576.000000
  0.750000 -0.450000  0.150000    576.000000
  0.150000  0.150000 -1.050000    288.000000
  0.050000  0.250000 -0.950000    576.000000
 -0.050000  0.350000 -0.850000    576.000000
  0.150000  0.150000 -0.850000    288.000000
  0.050000  0.250000 -0.750000    576.000000
  0.150000  0.150000 -0.650000    288.000000
  0.250000  0.250000  0.250000     96.000000
  0.150000  0.350000  0.350000    288.000000
  0.050000  0.450000  0.450000    288.000000
  0.950000 -0.450000 -0.450000    288.000000
  0.850000 -0.350000 -0.350000    288.000000
  0.750000 -0.250000 -0.250000    288.000000
  0.250000  0.250000  0.450000    288.000000
  0.150000  0.350000  0.550000    576.000000
  1.050000 -0.550000 -0.350000    576.000000
  0.950000 -0.450000 -0.250000    576.000000
  0.850000 -0.350000 -0.150000    576.000000
  0.250000  0.250000  0.650000    288.000000
  1.150000 -0.650000 -0.250000    576.000000
  1.050000 -0.550000 -0.150000    576.000000
  0.950000 -0.450000 -0.050000    576.000000
  0.250000  0.250000 -1.150000    288.000000
  0.150000  0.350000 -1.050000    576.000000
  0.250000  0.250000 -0.950000    288.000000
  0.350000  0.350000  0.350000     96.000000
  0.250000  0.450000  0.450000    288.000000
  1.150000 -0.450000 -0.450000    288.000000
  1.050000 -0.350000 -0.350000    288.000000
  0.350000  0.350000  0.550000    288.000000
  1.250000 -0.550000 -0.350000    576.000000
  1.150000 -0.450000 -0.250000    576.000000
  0.350000  0.350000 -1.250000    288.000000
  0.450000  0.450000  0.450000     96.000000
  1.350000 -0.450000 -0.450000    288.000000
 


--------------------------------------------------------------------------------------------------------




 Dimension of arrays:
   k-points           NKPTS =    110   k-points in BZ     NKDIM =    110   number of bands    NBANDS=     12
   number of dos      NEDOS =    301   number of ions     NIONS =      1
   non local maximal  LDIM  =      6   non local SUM 2l+1 LMDIM =     18
   total plane-waves  NPLWV =   5832
   max r-space proj   IRMAX =      1   max aug-charges    IRDMAX=   5515
   dimension x,y,z NGX =    18 NGY =   18 NGZ =   18
   dimension x,y,z NGXF=    24 NGYF=   24 NGZF=   24
   support grid    NGXF=    24 NGYF=   24 NGZF=   24
   ions per type =               1
   NGX,Y,Z   is equivalent  to a cutoff of   9.84,  9.84,  9.84 a.u.
   NGXF,Y,Z  is equivalent  to a cutoff of  13.12, 13.12, 13.12 a.u.

 SYSTEM =  FCC Au                                  
 POSCAR =  Au bulk FCC                             

 Startparameter for this run:
   NWRITE =      2    write-flag & timer
   PREC   = high      normal or accurate (medium, high low for compatibility)
   ISTART =      1    job   : 0-new  1-cont  2-samecut
   ICHARG =      0    charge: 1-file 2-atom 10-const
   ISPIN  =      1    spin polarized calculation?
   LNONCOLLINEAR =      F non collinear calculations
   LSORBIT =      F    spin-orbit coupling
   INIWAV =      1    electr: 0-lowe 1-rand  2-diag
   LASPH  =      F    aspherical Exc in radial PAW
   METAGGA=      F    non-selfconsistent MetaGGA calc.

 Electronic Relaxation 1
   ENCUT  =  287.3 eV  21.12 Ry    4.60 a.u.   4.20  4.20  4.20*2*pi/ulx,y,z
   ENINI  =  287.3     initial cutoff
   ENAUG  =  356.7 eV  augmentation charge cutoff
   NELM   =     60;   NELMIN=  2; NELMDL=  0     # of ELM steps 
   EDIFF  = 0.1E-03   stopping-criterion for ELM
   LREAL  =      F    real-space projection
   NLSPLINE    = F    spline interpolate recip. space projectors
   LCOMPAT=      F    compatible to vasp.4.4
   GGA_COMPAT  = T    GGA compatible to vasp.4.4-vasp.4.6
   LMAXPAW     = -100 max onsite density
   LMAXMIX     =    2 max onsite mixed and CHGCAR
   VOSKOWN=      0    Vosko Wilk Nusair interpolation
   ROPT   =    0.00000
 Ionic relaxation
   EDIFFG = 0.1E-02   stopping-criterion for IOM
   NSW    =     50    number of steps for IOM
   NBLOCK =      1;   KBLOCK =     50    inner block; outer block 
   IBRION =      2    ionic relax: 0-MD 1-quasi-New 2-CG
   NFREE  =      1    steps in history (QN), initial steepest desc. (CG)
   ISIF   =      3    stress and relaxation
   IWAVPR =     11    prediction:  0-non 1-charg 2-wave 3-comb
   ISYM   =      2    0-nonsym 1-usesym 2-fastsym
   LCORR  =      T    Harris-Foulkes like correction to forces

   POTIM  = 0.5000    time-step for ionic-motion
   TEIN   =    0.0    initial temperature
   TEBEG  =    0.0;   TEEND  =   0.0 temperature during run
   SMASS  =  -3.00    Nose mass-parameter (am)
   estimated Nose-frequenzy (Omega)   =  0.10E-29 period in steps =****** mass=  -0.211E-27a.u.
   SCALEE = 1.0000    scale energy and forces
   NPACO  =    256;   APACO  = 16.0  distance and # of slots for P.C.
   PSTRESS=    0.0 pullay stress

  Mass of Ions in am
   POMASS = 196.97
  Ionic Valenz
   ZVAL   =  11.00
  Atomic Wigner-Seitz radii
   RWIGS  =  -1.00
  virtual crystal weights 
   VCA    =   1.00
   NELECT =      11.0000    total number of electrons
   NUPDOWN=      -1.0000    fix difference up-down

 DOS related values:
   EMIN   =  10.00;   EMAX   =-10.00  energy-range for DOS
   EFERMI =   0.00
   ISMEAR =     1;   SIGMA  =   0.20  broadening in eV -4-tet -1-fermi 0-gaus

 Electronic relaxation 2 (details)
   IALGO  =     38    algorithm
   LDIAG  =      T    sub-space diagonalisation (order eigenvalues)
   LSUBROT=      F    optimize rotation matrix (better conditioning)
   TURBO    =      0    0=normal 1=particle mesh
   IRESTART =      0    0=no restart 2=restart with 2 vectors
   NREBOOT  =      0    no. of reboots
   NMIN     =      0    reboot dimension
   EREF     =   0.00    reference energy to select bands
   IMIX   =      4    mixing-type and parameters
     AMIX     =   0.40;   BMIX     =  1.00
     AMIX_MAG =   1.60;   BMIX_MAG =  1.00
     AMIN     =   0.10
     WC   =   100.;   INIMIX=   1;  MIXPRE=   1;  MAXMIX= -45

 Intra band minimization:
   WEIMIN = 0.0010     energy-eigenvalue tresh-hold
   EBREAK =  0.21E-05  absolut break condition
   DEPER  =   0.30     relativ break condition  

   TIME   =   0.40     timestep for ELM

  volume/ion in A,a.u.               =      19.88       134.13
  Fermi-wavevector in a.u.,A,eV,Ry     =   1.344076  2.539936 24.579485  1.806541
  Thomas-Fermi vector in A             =   2.472099
 
 Write flags
   LWAVE        =      T    write WAVECAR
   LDOWNSAMPLE  =      F    k-point downsampling of WAVECAR
   LCHARG       =      T    write CHGCAR
   LVTOT        =      F    write LOCPOT, total local potential
   LVHAR        =      F    write LOCPOT, Hartree potential only
   LELF         =      F    write electronic localiz. function (ELF)
   LORBIT       =      0    0 simple, 1 ext, 2 COOP (PROOUT), +10 PAW based schemes


 Dipole corrections
   LMONO  =      F    monopole corrections only (constant potential shift)
   LDIPOL =      F    correct potential (dipole corrections)
   IDIPOL =      0    1-x, 2-y, 3-z, 4-all directions 
   EPSILON=  1.0000000 bulk dielectric constant

 Exchange correlation treatment:
   GGA     =    --    GGA type
   LEXCH   =     2    internal setting for exchange type
   VOSKOWN=      0    Vosko Wilk Nusair interpolation
   LHFCALC =     F    Hartree Fock is set to
   LHFONE  =     F    Hartree Fock one center treatment
   AEXX    =    0.0000 exact exchange contribution

 Linear response parameters
   LEPSILON=     F    determine dielectric tensor
   LRPA    =     F    only Hartree local field effects (RPA)
   LNABLA  =     F    use nabla operator in PAW spheres
   LVEL    =     F    velocity operator in full k-point grid
   LINTERFAST=   F  fast interpolation
   KINTER  =     0    interpolate to denser k-point grid
   CSHIFT  =0.1000    complex shift for real part using Kramers Kronig
   OMEGAMAX=  -1.0    maximum frequency
   DEG_THRESHOLD= 0.2000000E-02 threshold for treating states as degnerate
   RTIME   =   -0.100 relaxation time in fs
  (WPLASMAI=    0.000 imaginary part of plasma frequency in eV, 0.658/RTIME)
   DFIELD  = 0.0000000 0.0000000 0.0000000 field for delta impulse in time
 
 Orbital magnetization related:
   ORBITALMAG=     F  switch on orbital magnetization
   LCHIMAG   =     F  perturbation theory with respect to B field
   DQ        =  0.001000  dq finite difference perturbation B field
   LLRAUG    =     F  two centre corrections for induced B field



--------------------------------------------------------------------------------------------------------


 conjugate gradient relaxation of ions
 charge density and potential will be updated during run
 non-spin polarized calculation
 Variant of blocked Davidson
 Davidson routine will perform the subspace rotation
 perform sub-space diagonalisation
    after iterative eigenvector-optimisation
 modified Broyden-mixing scheme, WC =      100.0
 initial mixing is a Kerker type mixing with AMIX =  0.4000 and BMIX =      1.0000
 Hartree-type preconditioning will be used
 using additional bands            6
 reciprocal scheme for non local part
 use partial core corrections
 calculate Harris-corrections to forces 
   (improved forces if not selfconsistent)
 use of overlap-Matrix (Vanderbilt PP)
 Methfessel and Paxton  Order N= 1 SIGMA  =   0.20


--------------------------------------------------------------------------------------------------------


  energy-cutoff  :      287.34
  volume of cell :       19.88
      direct lattice vectors                 reciprocal lattice vectors
     0.000000000  2.150000000  2.150000000    -0.232558140  0.232558140  0.232558140
     2.150000000  0.000000000  2.150000000     0.232558140 -0.232558140  0.232558140
     2.150000000  2.150000000  0.000000000     0.232558140  0.232558140 -0.232558140

  length of vectors
     3.040559159  3.040559159  3.040559159     0.402802513  0.402802513  0.402802513


 
 old parameters found on file WAVECAR:
  energy-cutoff  :      287.34
  volume of cell :       19.88
      direct lattice vectors                 reciprocal lattice vectors
     0.000000000  2.150000000  2.150000000    -0.232558140  0.232558140  0.232558140
     2.150000000  0.000000000  2.150000000     0.232558140 -0.232558140  0.232558140
     2.150000000  2.150000000  0.000000000     0.232558140  0.232558140 -0.232558140

  length of vectors

 
 k-points in units of 2pi/SCALE and weight: 10x10x10                                
   0.05000000  0.05000000  0.05000000       0.002
  -0.05000000  0.15000000  0.15000000       0.006
  -0.15000000  0.25000000  0.25000000       0.006
  -0.25000000  0.35000000  0.35000000       0.006
  -0.35000000  0.45000000  0.45000000       0.006
   0.55000000 -0.45000000 -0.45000000       0.006
   0.45000000 -0.35000000 -0.35000000       0.006
   0.35000000 -0.25000000 -0.25000000       0.006
   0.25000000 -0.15000000 -0.15000000       0.006
   0.15000000 -0.05000000 -0.05000000       0.006
   0.05000000  0.05000000  0.25000000       0.006
  -0.05000000  0.15000000  0.35000000       0.012
  -0.15000000  0.25000000  0.45000000       0.012
  -0.25000000  0.35000000  0.55000000       0.012
   0.65000000 -0.55000000 -0.35000000       0.012
   0.55000000 -0.45000000 -0.25000000       0.012
   0.45000000 -0.35000000 -0.15000000       0.012
   0.35000000 -0.25000000 -0.05000000       0.012
   0.25000000 -0.15000000  0.05000000       0.012
   0.05000000  0.05000000  0.45000000       0.006
  -0.05000000  0.15000000  0.55000000       0.012
  -0.15000000  0.25000000  0.65000000       0.012
   0.75000000 -0.65000000 -0.25000000       0.012
   0.65000000 -0.55000000 -0.15000000       0.012
   0.55000000 -0.45000000 -0.05000000       0.012
   0.45000000 -0.35000000  0.05000000       0.012
   0.35000000 -0.25000000  0.15000000       0.012
   0.05000000  0.05000000  0.65000000       0.006
  -0.05000000  0.15000000  0.75000000       0.012
   0.85000000 -0.75000000 -0.15000000       0.012
   0.75000000 -0.65000000 -0.05000000       0.012
   0.65000000 -0.55000000  0.05000000       0.012
   0.55000000 -0.45000000  0.15000000       0.012
   0.45000000 -0.35000000  0.25000000       0.012
   0.05000000  0.05000000  0.85000000       0.006
   0.95000000 -0.85000000 -0.05000000       0.012
   0.85000000 -0.75000000  0.05000000       0.012
   0.75000000 -0.65000000  0.15000000       0.012
   0.65000000 -0.55000000  0.25000000       0.012
   0.55000000 -0.45000000  0.35000000       0.012
   0.05000000  0.05000000 -0.95000000       0.006
  -0.05000000  0.15000000 -0.85000000       0.012
  -0.15000000  0.25000000 -0.75000000       0.012
  -0.25000000  0.35000000 -0.65000000       0.012
   0.05000000  0.05000000 -0.75000000       0.006
  -0.05000000  0.15000000 -0.65000000       0.012
  -0.15000000  0.25000000 -0.55000000       0.012
   0.05000000  0.05000000 -0.55000000       0.006
  -0.05000000  0.15000000 -0.45000000       0.012
   0.05000000  0.05000000 -0.35000000       0.006
   0.15000000  0.15000000  0.15000000       0.002
   0.05000000  0.25000000  0.25000000       0.006
  -0.05000000  0.35000000  0.35000000       0.006
  -0.15000000  0.45000000  0.45000000       0.006
   0.75000000 -0.45000000 -0.45000000       0.006
   0.65000000 -0.35000000 -0.35000000       0.006
   0.55000000 -0.25000000 -0.25000000       0.006
   0.45000000 -0.15000000 -0.15000000       0.006
   0.15000000  0.15000000  0.35000000       0.006
   0.05000000  0.25000000  0.45000000       0.012
  -0.05000000  0.35000000  0.55000000       0.012
   0.85000000 -0.55000000 -0.35000000       0.012
   0.75000000 -0.45000000 -0.25000000       0.012
   0.65000000 -0.35000000 -0.15000000       0.012
   0.55000000 -0.25000000 -0.05000000       0.012
   0.15000000  0.15000000  0.55000000       0.006
   0.05000000  0.25000000  0.65000000       0.012
   0.95000000 -0.65000000 -0.25000000       0.012
   0.85000000 -0.55000000 -0.15000000       0.012
   0.75000000 -0.45000000 -0.05000000       0.012
   0.65000000 -0.35000000  0.05000000       0.012
   0.15000000  0.15000000  0.75000000       0.006
   1.05000000 -0.75000000 -0.15000000       0.012
   0.95000000 -0.65000000 -0.05000000       0.012
   0.85000000 -0.55000000  0.05000000       0.012
   0.75000000 -0.45000000  0.15000000       0.012
   0.15000000  0.15000000 -1.05000000       0.006
   0.05000000  0.25000000 -0.95000000       0.012
  -0.05000000  0.35000000 -0.85000000       0.012
   0.15000000  0.15000000 -0.85000000       0.006
   0.05000000  0.25000000 -0.75000000       0.012
   0.15000000  0.15000000 -0.65000000       0.006
   0.25000000  0.25000000  0.25000000       0.002
   0.15000000  0.35000000  0.35000000       0.006
   0.05000000  0.45000000  0.45000000       0.006
   0.95000000 -0.45000000 -0.45000000       0.006
   0.85000000 -0.35000000 -0.35000000       0.006
   0.75000000 -0.25000000 -0.25000000       0.006
   0.25000000  0.25000000  0.45000000       0.006
   0.15000000  0.35000000  0.55000000       0.012
   1.05000000 -0.55000000 -0.35000000       0.012
   0.95000000 -0.45000000 -0.25000000       0.012
   0.85000000 -0.35000000 -0.15000000       0.012
   0.25000000  0.25000000  0.65000000       0.006
   1.15000000 -0.65000000 -0.25000000       0.012
   1.05000000 -0.55000000 -0.15000000       0.012
   0.95000000 -0.45000000 -0.05000000       0.012
   0.25000000  0.25000000 -1.15000000       0.006
   0.15000000  0.35000000 -1.05000000       0.012
   0.25000000  0.25000000 -0.95000000       0.006
   0.35000000  0.35000000  0.35000000       0.002
   0.25000000  0.45000000  0.45000000       0.006
   1.15000000 -0.45000000 -0.45000000       0.006
   1.05000000 -0.35000000 -0.35000000       0.006
   0.35000000  0.35000000  0.55000000       0.006
   1.25000000 -0.55000000 -0.35000000       0.012
   1.15000000 -0.45000000 -0.25000000       0.012
   0.35000000  0.35000000 -1.25000000       0.006
   0.45000000  0.45000000  0.45000000       0.002
   1.35000000 -0.45000000 -0.45000000       0.006
 
 k-points in reciprocal lattice and weights: 10x10x10                                
   0.05000000  0.05000000  0.05000000       0.002
   0.15000000  0.05000000  0.05000000       0.006
   0.25000000  0.05000000  0.05000000       0.006
   0.35000000  0.05000000  0.05000000       0.006
   0.45000000  0.05000000  0.05000000       0.006
  -0.45000000  0.05000000  0.05000000       0.006
  -0.35000000  0.05000000  0.05000000       0.006
  -0.25000000  0.05000000  0.05000000       0.006
  -0.15000000  0.05000000  0.05000000       0.006
  -0.05000000  0.05000000  0.05000000       0.006
   0.15000000  0.15000000  0.05000000       0.006
   0.25000000  0.15000000  0.05000000       0.012
   0.35000000  0.15000000  0.05000000       0.012
   0.45000000  0.15000000  0.05000000       0.012
  -0.45000000  0.15000000  0.05000000       0.012
  -0.35000000  0.15000000  0.05000000       0.012
  -0.25000000  0.15000000  0.05000000       0.012
  -0.15000000  0.15000000  0.05000000       0.012
  -0.05000000  0.15000000  0.05000000       0.012
   0.25000000  0.25000000  0.05000000       0.006
   0.35000000  0.25000000  0.05000000       0.012
   0.45000000  0.25000000  0.05000000       0.012
  -0.45000000  0.25000000  0.05000000       0.012
  -0.35000000  0.25000000  0.05000000       0.012
  -0.25000000  0.25000000  0.05000000       0.012
  -0.15000000  0.25000000  0.05000000       0.012
  -0.05000000  0.25000000  0.05000000       0.012
   0.35000000  0.35000000  0.05000000       0.006
   0.45000000  0.35000000  0.05000000       0.012
  -0.45000000  0.35000000  0.05000000       0.012
  -0.35000000  0.35000000  0.05000000       0.012
  -0.25000000  0.35000000  0.05000000       0.012
  -0.15000000  0.35000000  0.05000000       0.012
  -0.05000000  0.35000000  0.05000000       0.012
   0.45000000  0.45000000  0.05000000       0.006
  -0.45000000  0.45000000  0.05000000       0.012
  -0.35000000  0.45000000  0.05000000       0.012
  -0.25000000  0.45000000  0.05000000       0.012
  -0.15000000  0.45000000  0.05000000       0.012
  -0.05000000  0.45000000  0.05000000       0.012
  -0.45000000 -0.45000000  0.05000000       0.006
  -0.35000000 -0.45000000  0.05000000       0.012
  -0.25000000 -0.45000000  0.05000000       0.012
  -0.15000000 -0.45000000  0.05000000       0.012
  -0.35000000 -0.35000000  0.05000000       0.006
  -0.25000000 -0.35000000  0.05000000       0.012
  -0.15000000 -0.35000000  0.05000000       0.012
  -0.25000000 -0.25000000  0.05000000       0.006
  -0.15000000 -0.25000000  0.05000000       0.012
  -0.15000000 -0.15000000  0.05000000       0.006
   0.15000000  0.15000000  0.15000000       0.002
   0.25000000  0.15000000  0.15000000       0.006
   0.35000000  0.15000000  0.15000000       0.006
   0.45000000  0.15000000  0.15000000       0.006
  -0.45000000  0.15000000  0.15000000       0.006
  -0.35000000  0.15000000  0.15000000       0.006
  -0.25000000  0.15000000  0.15000000       0.006
  -0.15000000  0.15000000  0.15000000       0.006
   0.25000000  0.25000000  0.15000000       0.006
   0.35000000  0.25000000  0.15000000       0.012
   0.45000000  0.25000000  0.15000000       0.012
  -0.45000000  0.25000000  0.15000000       0.012
  -0.35000000  0.25000000  0.15000000       0.012
  -0.25000000  0.25000000  0.15000000       0.012
  -0.15000000  0.25000000  0.15000000       0.012
   0.35000000  0.35000000  0.15000000       0.006
   0.45000000  0.35000000  0.15000000       0.012
  -0.45000000  0.35000000  0.15000000       0.012
  -0.35000000  0.35000000  0.15000000       0.012
  -0.25000000  0.35000000  0.15000000       0.012
  -0.15000000  0.35000000  0.15000000       0.012
   0.45000000  0.45000000  0.15000000       0.006
  -0.45000000  0.45000000  0.15000000       0.012
  -0.35000000  0.45000000  0.15000000       0.012
  -0.25000000  0.45000000  0.15000000       0.012
  -0.15000000  0.45000000  0.15000000       0.012
  -0.45000000 -0.45000000  0.15000000       0.006
  -0.35000000 -0.45000000  0.15000000       0.012
  -0.25000000 -0.45000000  0.15000000       0.012
  -0.35000000 -0.35000000  0.15000000       0.006
  -0.25000000 -0.35000000  0.15000000       0.012
  -0.25000000 -0.25000000  0.15000000       0.006
   0.25000000  0.25000000  0.25000000       0.002
   0.35000000  0.25000000  0.25000000       0.006
   0.45000000  0.25000000  0.25000000       0.006
  -0.45000000  0.25000000  0.25000000       0.006
  -0.35000000  0.25000000  0.25000000       0.006
  -0.25000000  0.25000000  0.25000000       0.006
   0.35000000  0.35000000  0.25000000       0.006
   0.45000000  0.35000000  0.25000000       0.012
  -0.45000000  0.35000000  0.25000000       0.012
  -0.35000000  0.35000000  0.25000000       0.012
  -0.25000000  0.35000000  0.25000000       0.012
   0.45000000  0.45000000  0.25000000       0.006
  -0.45000000  0.45000000  0.25000000       0.012
  -0.35000000  0.45000000  0.25000000       0.012
  -0.25000000  0.45000000  0.25000000       0.012
  -0.45000000 -0.45000000  0.25000000       0.006
  -0.35000000 -0.45000000  0.25000000       0.012
  -0.35000000 -0.35000000  0.25000000       0.006
   0.35000000  0.35000000  0.35000000       0.002
   0.45000000  0.35000000  0.35000000       0.006
  -0.45000000  0.35000000  0.35000000       0.006
  -0.35000000  0.35000000  0.35000000       0.006
   0.45000000  0.45000000  0.35000000       0.006
  -0.45000000  0.45000000  0.35000000       0.012
  -0.35000000  0.45000000  0.35000000       0.012
  -0.45000000 -0.45000000  0.35000000       0.006
   0.45000000  0.45000000  0.45000000       0.002
  -0.45000000  0.45000000  0.45000000       0.006
 
 position of ions in fractional coordinates (direct lattice) 
   0.00000000  0.00000000  0.00000000
 
 position of ions in cartesian coordinates  (Angst):
   0.00000000  0.00000000  0.00000000
 


--------------------------------------------------------------------------------------------------------


 k-point  1 :   0.0500 0.0500 0.0500  plane waves:     220
 k-point  2 :   0.1500 0.0500 0.0500  plane waves:     217
 k-point  3 :   0.2500 0.0500 0.0500  plane waves:     213
 k-point  4 :   0.3500 0.0500 0.0500  plane waves:     219
 k-point  5 :   0.4500 0.0500 0.0500  plane waves:     222
 k-point  6 :  -0.4500 0.0500 0.0500  plane waves:     224
 k-point  7 :  -0.3500 0.0500 0.0500  plane waves:     222
 k-point  8 :  -0.2500 0.0500 0.0500  plane waves:     217
 k-point  9 :  -0.1500 0.0500 0.0500  plane waves:     220
 k-point 10 :  -0.0500 0.0500 0.0500  plane waves:     215
 k-point 11 :   0.1500 0.1500 0.0500  plane waves:     217
 k-point 12 :   0.2500 0.1500 0.0500  plane waves:     215
 k-point 13 :   0.3500 0.1500 0.0500  plane waves:     219
 k-point 14 :   0.4500 0.1500 0.0500  plane waves:     223
 k-point 15 :  -0.4500 0.1500 0.0500  plane waves:     224
 k-point 16 :  -0.3500 0.1500 0.0500  plane waves:     222
 k-point 17 :  -0.2500 0.1500 0.0500  plane waves:     217
 k-point 18 :  -0.1500 0.1500 0.0500  plane waves:     216
 k-point 19 :  -0.0500 0.1500 0.0500  plane waves:     219
 k-point 20 :   0.2500 0.2500 0.0500  plane waves:     220
 k-point 21 :   0.3500 0.2500 0.0500  plane waves:     218
 k-point 22 :   0.4500 0.2500 0.0500  plane waves:     221
 k-point 23 :  -0.4500 0.2500 0.0500  plane waves:     222
 k-point 24 :  -0.3500 0.2500 0.0500  plane waves:     224
 k-point 25 :  -0.2500 0.2500 0.0500  plane waves:     218
 k-point 26 :  -0.1500 0.2500 0.0500  plane waves:     216
 k-point 27 :  -0.0500 0.2500 0.0500  plane waves:     217
 k-point 28 :   0.3500 0.3500 0.0500  plane waves:     218
 k-point 29 :   0.4500 0.3500 0.0500  plane waves:     220
 k-point 30 :  -0.4500 0.3500 0.0500  plane waves:     220
 k-point 31 :  -0.3500 0.3500 0.0500  plane waves:     222
 k-point 32 :  -0.2500 0.3500 0.0500  plane waves:     223
 k-point 33 :  -0.1500 0.3500 0.0500  plane waves:     220
 k-point 34 :  -0.0500 0.3500 0.0500  plane waves:     219
 k-point 35 :   0.4500 0.4500 0.0500  plane waves:     221
 k-point 36 :  -0.4500 0.4500 0.0500  plane waves:     220
 k-point 37 :  -0.3500 0.4500 0.0500  plane waves:     222
 k-point 38 :  -0.2500 0.4500 0.0500  plane waves:     222
 k-point 39 :  -0.1500 0.4500 0.0500  plane waves:     223
 k-point 40 :  -0.0500 0.4500 0.0500  plane waves:     223
 k-point 41 :  -0.4500-0.4500 0.0500  plane waves:     222
 k-point 42 :  -0.3500-0.4500 0.0500  plane waves:     218
 k-point 43 :  -0.2500-0.4500 0.0500  plane waves:     219
 k-point 44 :  -0.1500-0.4500 0.0500  plane waves:     225
 k-point 45 :  -0.3500-0.3500 0.0500  plane waves:     219
 k-point 46 :  -0.2500-0.3500 0.0500  plane waves:     216
 k-point 47 :  -0.1500-0.3500 0.0500  plane waves:     220
 k-point 48 :  -0.2500-0.2500 0.0500  plane waves:     218
 k-point 49 :  -0.1500-0.2500 0.0500  plane waves:     218
 k-point 50 :  -0.1500-0.1500 0.0500  plane waves:     217
 k-point 51 :   0.1500 0.1500 0.1500  plane waves:     214
 k-point 52 :   0.2500 0.1500 0.1500  plane waves:     214
 k-point 53 :   0.3500 0.1500 0.1500  plane waves:     216
 k-point 54 :   0.4500 0.1500 0.1500  plane waves:     217
 k-point 55 :  -0.4500 0.1500 0.1500  plane waves:     221
 k-point 56 :  -0.3500 0.1500 0.1500  plane waves:     221
 k-point 57 :  -0.2500 0.1500 0.1500  plane waves:     222
 k-point 58 :  -0.1500 0.1500 0.1500  plane waves:     219
 k-point 59 :   0.2500 0.2500 0.1500  plane waves:     220
 k-point 60 :   0.3500 0.2500 0.1500  plane waves:     217
 k-point 61 :   0.4500 0.2500 0.1500  plane waves:     217
 k-point 62 :  -0.4500 0.2500 0.1500  plane waves:     220
 k-point 63 :  -0.3500 0.2500 0.1500  plane waves:     222
 k-point 64 :  -0.2500 0.2500 0.1500  plane waves:     222
 k-point 65 :  -0.1500 0.2500 0.1500  plane waves:     219
 k-point 66 :   0.3500 0.3500 0.1500  plane waves:     219
 k-point 67 :   0.4500 0.3500 0.1500  plane waves:     219
 k-point 68 :  -0.4500 0.3500 0.1500  plane waves:     218
 k-point 69 :  -0.3500 0.3500 0.1500  plane waves:     219
 k-point 70 :  -0.2500 0.3500 0.1500  plane waves:     220
 k-point 71 :  -0.1500 0.3500 0.1500  plane waves:     221
 k-point 72 :   0.4500 0.4500 0.1500  plane waves:     220
 k-point 73 :  -0.4500 0.4500 0.1500  plane waves:     218
 k-point 74 :  -0.3500 0.4500 0.1500  plane waves:     216
 k-point 75 :  -0.2500 0.4500 0.1500  plane waves:     218
 k-point 76 :  -0.1500 0.4500 0.1500  plane waves:     221
 k-point 77 :  -0.4500-0.4500 0.1500  plane waves:     218
 k-point 78 :  -0.3500-0.4500 0.1500  plane waves:     217
 k-point 79 :  -0.2500-0.4500 0.1500  plane waves:     216
 k-point 80 :  -0.3500-0.3500 0.1500  plane waves:     221
 k-point 81 :  -0.2500-0.3500 0.1500  plane waves:     221
 k-point 82 :  -0.2500-0.2500 0.1500  plane waves:     220
 k-point 83 :   0.2500 0.2500 0.2500  plane waves:     217
 k-point 84 :   0.3500 0.2500 0.2500  plane waves:     215
 k-point 85 :   0.4500 0.2500 0.2500  plane waves:     218
 k-point 86 :  -0.4500 0.2500 0.2500  plane waves:     222
 k-point 87 :  -0.3500 0.2500 0.2500  plane waves:     221
 k-point 88 :  -0.2500 0.2500 0.2500  plane waves:     223
 k-point 89 :   0.3500 0.3500 0.2500  plane waves:     217
 k-point 90 :   0.4500 0.3500 0.2500  plane waves:     219
 k-point 91 :  -0.4500 0.3500 0.2500  plane waves:     224
 k-point 92 :  -0.3500 0.3500 0.2500  plane waves:     222
 k-point 93 :  -0.2500 0.3500 0.2500  plane waves:     220
 k-point 94 :   0.4500 0.4500 0.2500  plane waves:     223
 k-point 95 :  -0.4500 0.4500 0.2500  plane waves:     222
 k-point 96 :  -0.3500 0.4500 0.2500  plane waves:     214
 k-point 97 :  -0.2500 0.4500 0.2500  plane waves:     217
 k-point 98 :  -0.4500-0.4500 0.2500  plane waves:     221
 k-point 99 :  -0.3500-0.4500 0.2500  plane waves:     220
 k-point ** :  -0.3500-0.3500 0.2500  plane waves:     223
 k-point ** :   0.3500 0.3500 0.3500  plane waves:     223
 k-point ** :   0.4500 0.3500 0.3500  plane waves:     219
 k-point ** :  -0.4500 0.3500 0.3500  plane waves:     221
 k-point ** :  -0.3500 0.3500 0.3500  plane waves:     220
 k-point ** :   0.4500 0.4500 0.3500  plane waves:     225
 k-point ** :  -0.4500 0.4500 0.3500  plane waves:     222
 k-point ** :  -0.3500 0.4500 0.3500  plane waves:     224
 k-point ** :  -0.4500-0.4500 0.3500  plane waves:     221
 k-point ** :   0.4500 0.4500 0.4500  plane waves:     225
 k-point ** :  -0.4500 0.4500 0.4500  plane waves:     223

 maximum and minimum number of plane-waves per node :       225      213

 maximum number of plane-waves:       225
 maximum index in each direction: 
   IXMAX=    4   IYMAX=    4   IZMAX=    4
   IXMIN=   -4   IYMIN=   -4   IZMIN=   -4


 serial   3D FFT for wavefunctions
 parallel 3D FFT for charge:
    minimum data exchange during FFTs selected (reduces bandwidth)


 total amount of memory used by VASP MPI-rank0    35703. kBytes
=======================================================================

   base      :      30000. kBytes
   nonl-proj :       3615. kBytes
   fftplans  :        301. kBytes
   grid      :        463. kBytes
   one-center:         15. kBytes
   wavefun   :       1309. kBytes
 
     INWAV:  cpu time    0.0343: real time    0.0759
 Broyden mixing: mesh for mixing (old mesh)
   NGX =  9   NGY =  9   NGZ =  9
  (NGX  = 24   NGY  = 24   NGZ  = 24)
  gives a total of    729 points

 charge density for first step will be calculated from the start-wavefunctions


--------------------------------------------------------------------------------------------------------


 Maximum index for augmentation-charges         1261 (set IRDMAX)


--------------------------------------------------------------------------------------------------------


 initial charge from wavefunction
 First call to EWALD:  gamma=   0.654
 Maximum number of real-space cells 3x 3x 3
 Maximum number of reciprocal cells 3x 3x 3

    FEWALD:  cpu time    0.0012: real time    0.0012


--------------------------------------- Iteration      1(   1)  ---------------------------------------


    POTLOK:  cpu time    0.0024: real time    0.5326
    SETDIJ:  cpu time    0.0043: real time    0.0043
     EDDAV:  cpu time    0.6413: real time    1.2849
       DOS:  cpu time    0.0016: real time    0.0016
    CHARGE:  cpu time    0.0342: real time    0.0652
    MIXING:  cpu time    0.0004: real time    0.0007
    --------------------------------------------
      LOOP:  cpu time    0.6842: real time    1.8893

 eigenvalue-minimisations  :  2936
 total energy-change (2. order) :-0.1278137E+02  (-0.1193883E+02)
 number of electron      10.9999947 magnetization 
 augmentation part        4.9388212 magnetization 

 Broyden mixing:
  rms(total) = 0.16514E+01    rms(broyden)= 0.16512E+01
  rms(prec ) = 0.57017E+01
  weight for this iteration     100.00

 Free energy of the ion-electron system (eV)
  ---------------------------------------------------
  alpha Z        PSCENC =        92.46377501
  Ewald energy   TEWEN  =      -928.90065159
  -Hartree energ DENC   =       -90.02735034
  -exchange      EXHF   =         0.00000000
  -V(xc)+E(xc)   XCENC  =        13.39721420
  PAW double counting   =       699.84759998     -681.13598834
  entropy T*S    EENTRO =        -0.00074304
  eigenvalues    EBANDS =       -47.83993848
  atomic energy  EATOM  =       929.41470947
  Solvation  Ediel_sol  =         0.00000000
  ---------------------------------------------------
  free energy    TOTEN  =       -12.78137312 eV

  energy without entropy =      -12.78063009  energy(sigma->0) =      -12.78112545


--------------------------------------------------------------------------------------------------------




--------------------------------------- Iteration      1(   2)  ---------------------------------------


    POTLOK:  cpu time    0.0017: real time    0.0025
    SETDIJ:  cpu time    0.0006: real time    0.0013
     EDDAV:  cpu time    0.6566: real time    1.3239
       DOS:  cpu time    0.0014: real time    0.0014
    CHARGE:  cpu time    0.0341: real time    0.0670
    MIXING:  cpu time    0.0003: real time    0.0004
    --------------------------------------------
      LOOP:  cpu time    0.6948: real time    1.3964

 eigenvalue-minimisations  :  3016
 total energy-change (2. order) : 0.8276843E+01  (-0.2351825E+01)
 number of electron      10.9999955 magnetization 
 augmentation part        4.2408093 magnetization 

 Broyden mixing:
  rms(total) = 0.33893E+00    rms(broyden)= 0.33888E+00
  rms(prec ) = 0.12365E+01
  weight for this iteration     100.00

 eigenvalues of (default mixing * dielectric matrix)
  average eigenvalue GAMMA=   1.2523
  1.2523

 Free energy of the ion-electron system (eV)
  ---------------------------------------------------
  alpha Z        PSCENC =        92.46377501
  Ewald energy   TEWEN  =      -928.90065159
  -Hartree energ DENC   =      -123.06961503
  -exchange      EXHF   =         0.00000000
  -V(xc)+E(xc)   XCENC  =        14.87882026
  PAW double counting   =       749.17416960     -730.57745031
  entropy T*S    EENTRO =         0.00027350
  eigenvalues    EBANDS =        -7.88856092
  atomic energy  EATOM  =       929.41470947
  Solvation  Ediel_sol  =         0.00000000
  ---------------------------------------------------
  free energy    TOTEN  =        -4.50453002 eV

  energy without entropy =       -4.50480352  energy(sigma->0) =       -4.50462119


--------------------------------------------------------------------------------------------------------




--------------------------------------- Iteration      1(   3)  ---------------------------------------


    POTLOK:  cpu time    0.0015: real time    0.0021
    SETDIJ:  cpu time    0.0006: real time    0.0012
     EDDAV:  cpu time    0.6730: real time    1.3544
       DOS:  cpu time    0.0014: real time    0.0015
    CHARGE:  cpu time    0.0350: real time    0.0694
    MIXING:  cpu time    0.0010: real time    0.0004
    --------------------------------------------
      LOOP:  cpu time    0.7125: real time    1.4290

 eigenvalue-minimisations  :  3084
 total energy-change (2. order) : 0.3353145E+00  (-0.2114418E+00)
 number of electron      10.9999958 magnetization 
 augmentation part        4.0091444 magnetization 

 Broyden mixing:
  rms(total) = 0.45621E-01    rms(broyden)= 0.45404E-01
  rms(prec ) = 0.15529E+00
  weight for this iteration     100.00

 eigenvalues of (default mixing * dielectric matrix)
  average eigenvalue GAMMA=   1.1417
  1.1417  1.1417

 Free energy of the ion-electron system (eV)
  ---------------------------------------------------
  alpha Z        PSCENC =        92.46377501
  Ewald energy   TEWEN  =      -928.90065159
  -Hartree energ DENC   =      -133.33116901
  -exchange      EXHF   =         0.00000000
  -V(xc)+E(xc)   XCENC  =        15.36599245
  PAW double counting   =       753.90629699     -735.14306153
  entropy T*S    EENTRO =         0.00087142
  eigenvalues    EBANDS =         2.05402129
  atomic energy  EATOM  =       929.41470947
  Solvation  Ediel_sol  =         0.00000000
  ---------------------------------------------------
  free energy    TOTEN  =        -4.16921552 eV

  energy without entropy =       -4.17008693  energy(sigma->0) =       -4.16950599


--------------------------------------------------------------------------------------------------------




--------------------------------------- Iteration      1(   4)  ---------------------------------------


    POTLOK:  cpu time    0.0011: real time    0.0062
    SETDIJ:  cpu time    0.0008: real time    0.0011
     EDDAV:  cpu time    0.6396: real time    1.2836
       DOS:  cpu time    0.0016: real time    0.0027
    CHARGE:  cpu time    0.0346: real time    0.0702
    MIXING:  cpu time    0.0004: real time    0.0006
    --------------------------------------------
      LOOP:  cpu time    0.6779: real time    1.3644

 eigenvalue-minimisations  :  2936
 total energy-change (2. order) : 0.3591865E-02  (-0.4582755E-02)
 number of electron      10.9999958 magnetization 
 augmentation part        4.0367061 magnetization 

 Broyden mixing:
  rms(total) = 0.88335E-02    rms(broyden)= 0.88218E-02
  rms(prec ) = 0.19735E-01
  weight for this iteration     100.00

 eigenvalues of (default mixing * dielectric matrix)
  average eigenvalue GAMMA=   1.4908
  1.0842  1.0842  2.3042

 Free energy of the ion-electron system (eV)
  ---------------------------------------------------
  alpha Z        PSCENC =        92.46377501
  Ewald energy   TEWEN  =      -928.90065159
  -Hartree energ DENC   =      -132.04492133
  -exchange      EXHF   =         0.00000000
  -V(xc)+E(xc)   XCENC  =        15.30516791
  PAW double counting   =       744.65986843     -725.94319457
  entropy T*S    EENTRO =         0.00083377
  eigenvalues    EBANDS =         0.87878925
  atomic energy  EATOM  =       929.41470947
  Solvation  Ediel_sol  =         0.00000000
  ---------------------------------------------------
  free energy    TOTEN  =        -4.16562365 eV

  energy without entropy =       -4.16645742  energy(sigma->0) =       -4.16590157


--------------------------------------------------------------------------------------------------------




--------------------------------------- Iteration      1(   5)  ---------------------------------------


    POTLOK:  cpu time    0.0015: real time    0.0027
    SETDIJ:  cpu time    0.0010: real time    0.0060
     EDDAV:  cpu time    0.6700: real time    1.3423
       DOS:  cpu time    0.0015: real time    0.0014
    CHARGE:  cpu time    0.0341: real time    0.0692
    MIXING:  cpu time    0.0005: real time    0.0005
    --------------------------------------------
      LOOP:  cpu time    0.7095: real time    1.4222

 eigenvalue-minimisations  :  3132
 total energy-change (2. order) :-0.1099328E-03  (-0.6772801E-04)
 number of electron      10.9999958 magnetization 
 augmentation part        4.0339051 magnetization 

 Broyden mixing:
  rms(total) = 0.24422E-02    rms(broyden)= 0.24393E-02
  rms(prec ) = 0.40449E-02
  weight for this iteration     100.00

 eigenvalues of (default mixing * dielectric matrix)
  average eigenvalue GAMMA=   1.4606
  1.1569  1.1569  0.9045  2.6239

 Free energy of the ion-electron system (eV)
  ---------------------------------------------------
  alpha Z        PSCENC =        92.46377501
  Ewald energy   TEWEN  =      -928.90065159
  -Hartree energ DENC   =      -132.14475644
  -exchange      EXHF   =         0.00000000
  -V(xc)+E(xc)   XCENC  =        15.31061824
  PAW double counting   =       736.32708348     -717.63912136
  entropy T*S    EENTRO =         0.00082974
  eigenvalues    EBANDS =         1.00177987
  atomic energy  EATOM  =       929.41470947
  Solvation  Ediel_sol  =         0.00000000
  ---------------------------------------------------
  free energy    TOTEN  =        -4.16573358 eV

  energy without entropy =       -4.16656332  energy(sigma->0) =       -4.16601016


--------------------------------------------------------------------------------------------------------




--------------------------------------- Iteration      1(   6)  ---------------------------------------


    POTLOK:  cpu time    0.0016: real time    0.0054
    SETDIJ:  cpu time    0.0008: real time    0.0012
     EDDAV:  cpu time    0.4464: real time    0.9004
       DOS:  cpu time    0.0014: real time    0.0015
    --------------------------------------------
      LOOP:  cpu time    0.4493: real time    0.9086

 eigenvalue-minimisations  :  1580
 total energy-change (2. order) :-0.4289828E-04  (-0.1002361E-04)
 number of electron      10.9999958 magnetization 
 augmentation part        4.0339051 magnetization 

 Free energy of the ion-electron system (eV)
  ---------------------------------------------------
  alpha Z        PSCENC =        92.46377501
  Ewald energy   TEWEN  =      -928.90065159
  -Hartree energ DENC   =      -132.16872569
  -exchange      EXHF   =         0.00000000
  -V(xc)+E(xc)   XCENC  =        15.31201730
  PAW double counting   =       732.79011583     -714.12276059
  entropy T*S    EENTRO =         0.00082768
  eigenvalues    EBANDS =         1.04491610
  atomic energy  EATOM  =       929.41470947
  Solvation  Ediel_sol  =         0.00000000
  ---------------------------------------------------
  free energy    TOTEN  =        -4.16577648 eV

  energy without entropy =       -4.16660417  energy(sigma->0) =       -4.16605238


--------------------------------------------------------------------------------------------------------




 average (electrostatic) potential at core
  the test charge radii are     1.2098
  (the norm of the test charge is              1.0000)
       1 -47.1725
 
 
 
 E-fermi :   3.6221     XC(G=0): -12.1105     alpha+bet : -8.8234


 k-point     1 :       0.0500    0.0500    0.0500
  band No.  band energies     occupation 
      1      -4.6508      2.00000
      2      -0.2909      2.00000
      3      -0.2456      2.00000
      4      -0.2456      2.00000
      5       0.8951      2.00000
      6       0.8951      2.00000
      7      18.9592      0.00000
      8      21.1333      0.00000
      9      21.8496      0.00000
     10      21.8496      0.00000
     11      26.3423      0.00000
     12      28.3578      0.00000

 k-point     2 :       0.1500    0.0500    0.0500
  band No.  band energies     occupation 
      1      -4.2544      2.00000
      2      -0.4009      2.00000
      3      -0.1374      2.00000
      4      -0.1114      2.00000
      5       0.7884      2.00000
      6       0.9363      2.00000
      7      18.7215      0.00000
      8      19.4776      0.00000
      9      21.3000      0.00000
     10      22.6057      0.00000
     11      25.3334      0.00000
     12      27.8318      0.00000

 k-point     3 :       0.2500    0.0500    0.0500
  band No.  band energies     occupation 
      1      -3.3837      2.00000
      2      -0.4721      2.00000
      3      -0.0142      2.00000
      4      -0.0007      2.00000
      5       0.8038      2.00000
      6       1.1072      2.00000
      7      15.1942      0.00000
      8      19.3963      0.00000
      9      21.1916      0.00000
     10      23.2180      0.00000
     11      23.9244      0.00000
     12      25.7856      0.00000

 k-point     4 :       0.3500    0.0500    0.0500
  band No.  band energies     occupation 
      1      -2.5699      2.00000
      2      -0.1471      2.00000
      3      -0.0858      2.00000
      4       0.1159      2.00000
      5       1.1758      2.00000
      6       1.5527      2.00000
      7      11.3425      0.00000
      8      18.8777      0.00000
      9      20.1991      0.00000
     10      21.9802      0.00000
     11      24.9107      0.00000
     12      25.7115      0.00000

 k-point     5 :       0.4500    0.0500    0.0500
  band No.  band energies     occupation 
      1      -2.3437      2.00000
      2      -0.2652      2.00000
      3      -0.2126      2.00000
      4       1.3402      2.00000
      5       1.6208      2.00000
      6       2.4544      2.00000
      7       7.7930     -0.00000
      8      18.3467      0.00000
      9      19.4084      0.00000
     10      20.3837      0.00000
     11      26.1634      0.00000
     12      26.2542      0.00000

 k-point     6 :      -0.4500    0.0500    0.0500
  band No.  band energies     occupation 
      1      -2.3317      2.00000
      2      -0.3154      2.00000
      3      -0.2428      2.00000
      4       1.5625      2.00000
      5       1.8289      2.00000
      6       3.5624      1.48098
      7       6.0910     -0.00000
      8      18.2202      0.00000
      9      19.4588      0.00000
     10      19.5983      0.00000
     11      26.4644      0.00000
     12      26.5056      0.00000

 k-point     7 :      -0.3500    0.0500    0.0500
  band No.  band energies     occupation 
      1      -2.3744      2.00000
      2      -0.2419      2.00000
      3      -0.1591      2.00000
      4       0.9053      2.00000
      5       1.6796      2.00000
      6       1.9089      2.00000
      7       8.9066     -0.00000
      8      18.5945      0.00000
      9      19.7533      0.00000
     10      20.4618      0.00000
     11      26.1063      0.00000
     12      26.4050      0.00000

 k-point     8 :      -0.2500    0.0500    0.0500
  band No.  band energies     occupation 
      1      -2.7811      2.00000
      2      -0.2527      2.00000
      3      -0.0630      2.00000
      4      -0.0292      2.00000
      5       1.1172      2.00000
      6       1.3043      2.00000
      7      12.6138      0.00000
      8      19.3118      0.00000
      9      20.4805      0.00000
     10      22.1001      0.00000
     11      24.5915      0.00000
     12      26.3845      0.00000

 k-point     9 :      -0.1500    0.0500    0.0500
  band No.  band energies     occupation 
      1      -3.7064      2.00000
      2      -0.4895      2.00000
      3      -0.0229      2.00000
      4      -0.0151      2.00000
      5       0.7694      2.00000
      6       1.0083      2.00000
      7      16.4717      0.00000
      8      19.6808      0.00000
      9      21.1106      0.00000
     10      22.9001      0.00000
     11      24.1324      0.00000
     12      26.8732      0.00000

 k-point    10 :      -0.0500    0.0500    0.0500
  band No.  band energies     occupation 
      1      -4.4495      2.00000
      2      -0.3702      2.00000
      3      -0.1707      2.00000
      4      -0.1668      2.00000
      5       0.8049      2.00000
      6       0.9393      2.00000
      7      19.0667      0.00000
      8      20.2484      0.00000
      9      21.4298      0.00000
     10      21.8979      0.00000
     11      26.4233      0.00000
     12      27.8109      0.00000

 k-point    11 :       0.1500    0.1500    0.0500
  band No.  band energies     occupation 
      1      -4.0571      2.00000
      2      -0.5310      2.00000
      3      -0.0144      2.00000
      4      -0.0120      2.00000
      5       0.6472      2.00000
      6       1.0239      2.00000
      7      18.9552      0.00000
      8      19.6208      0.00000
      9      20.5668      0.00000
     10      21.4171      0.00000
     11      25.0990      0.00000
     12      27.5261      0.00000

 k-point    12 :       0.2500    0.1500    0.0500
  band No.  band energies     occupation 
      1      -3.3362      2.00000
      2      -0.7132      2.00000
      3       0.0685      2.00000
      4       0.2038      2.00000
      5       0.6174      2.00000
      6       1.1963      2.00000
      7      16.6815      0.00000
      8      18.4778      0.00000
      9      20.6607      0.00000
     10      21.7893      0.00000
     11      23.0727      0.00000
     12      26.8194      0.00000

 k-point    13 :       0.3500    0.1500    0.0500
  band No.  band energies     occupation 
      1      -2.4286      2.00000
      2      -0.6276      2.00000
      3      -0.1534      2.00000
      4       0.2139      2.00000
      5       1.1324      2.00000
      6       1.6587      2.00000
      7      12.8316      0.00000
      8      17.8669      0.00000
      9      19.6933      0.00000
     10      20.9978      0.00000
     11      24.6035      0.00000
     12      26.5461      0.00000

 k-point    14 :       0.4500    0.1500    0.0500
  band No.  band energies     occupation 
      1      -2.0579      2.00000
      2      -0.3816      2.00000
      3       0.0450      2.00000
      4       0.1963      2.00000
      5       1.6781      2.00000
      6       2.7261      2.00000
      7       9.1357      0.00000
      8      17.5484      0.00000
      9      18.3151      0.00000
     10      20.0071      0.00000
     11      26.4079      0.00000
     12      27.2921      0.00000

 k-point    15 :      -0.4500    0.1500    0.0500
  band No.  band energies     occupation 
      1      -2.0281      2.00000
      2      -0.4796      2.00000
      3      -0.0110      2.00000
      4       0.8016      2.00000
      5       1.7956      2.00000
      6       4.6539     -0.00000
      7       6.1421     -0.00000
      8      17.2022      0.00000
      9      17.8403      0.00000
     10      19.5850      0.00000
     11      26.5281      0.00000
     12      27.7131      0.00000

 k-point    16 :      -0.3500    0.1500    0.0500
  band No.  band energies     occupation 
      1      -2.0214      2.00000
      2      -0.4202      2.00000
      3       0.0091      2.00000
      4       0.5606      2.00000
      5       1.5672      2.00000
      6       3.3589      2.06866
      7       8.0621     -0.00000
      8      16.7138      0.00000
      9      18.6205      0.00000
     10      20.1926      0.00000
     11      25.9967      0.00000
     12      27.2999      0.00000

 k-point    17 :      -0.2500    0.1500    0.0500
  band No.  band energies     occupation 
      1      -2.2079      2.00000
      2      -0.4086      2.00000
      3      -0.1682      2.00000
      4       0.1527      2.00000
      5       1.0535      2.00000
      6       2.0995      2.00000
      7      11.5858      0.00000
      8      16.8527      0.00000
      9      19.7587      0.00000
     10      21.7761      0.00000
     11      24.5946      0.00000
     12      26.4771      0.00000

 k-point    18 :      -0.1500    0.1500    0.0500
  band No.  band energies     occupation 
      1      -3.0218      2.00000
      2      -0.6747      2.00000
      3      -0.0074      2.00000
      4       0.2209      2.00000
      5       0.6113      2.00000
      6       1.4041      2.00000
      7      15.3255      0.00000
      8      17.4475      0.00000
      9      21.2952      0.00000
     10      22.1962      0.00000
     11      24.2195      0.00000
     12      25.6060      0.00000

 k-point    19 :      -0.0500    0.1500    0.0500
  band No.  band energies     occupation 
      1      -3.8744      2.00000
      2      -0.5239      2.00000
      3      -0.0107      2.00000
      4      -0.0053      2.00000
      5       0.6778      2.00000
      6       1.0344      2.00000
      7      17.7556      0.00000
      8      19.1230      0.00000
      9      20.9478      0.00000
     10      22.6410      0.00000
     11      24.3913      0.00000
     12      26.9917      0.00000

 k-point    20 :       0.2500    0.2500    0.0500
  band No.  band energies     occupation 
      1      -2.8462      2.00000
      2      -0.9880      2.00000
      3       0.1971      2.00000
      4       0.4989      2.00000
      5       0.6541      2.00000
      6       1.2844      2.00000
      7      17.0183      0.00000
      8      18.0430      0.00000
      9      19.6554      0.00000
     10      20.0173      0.00000
     11      20.6340      0.00000
     12      28.5497      0.00000

 k-point    21 :       0.3500    0.2500    0.0500
  band No.  band energies     occupation 
      1      -2.1229      2.00000
      2      -1.1578      2.00000
      3       0.0087      2.00000
      4       0.7676      2.00000
      5       1.1705      2.00000
      6       1.6735      2.00000
      7      14.4269      0.00000
      8      16.2912      0.00000
      9      17.8561      0.00000
     10      20.3674      0.00000
     11      21.7850      0.00000
     12      28.4598      0.00000

 k-point    22 :       0.4500    0.2500    0.0500
  band No.  band energies     occupation 
      1      -1.6969      2.00000
      2      -0.9337      2.00000
      3      -0.1762      2.00000
      4       0.6692      2.00000
      5       1.7399      2.00000
      6       2.9382      2.00001
      7      10.7230      0.00000
      8      15.5837      0.00000
      9      16.3086      0.00000
     10      20.1951      0.00000
     11      24.6608      0.00000
     12      28.1327      0.00000

 k-point    23 :      -0.4500    0.2500    0.0500
  band No.  band energies     occupation 
      1      -1.5983      2.00000
      2      -0.7215      2.00000
      3       0.0047      2.00000
      4       0.5205      2.00000
      5       1.8227      2.00000
      6       5.0970     -0.00000
      7       7.4835     -0.00000
      8      14.3733      0.00000
      9      16.3770      0.00000
     10      20.0112      0.00000
     11      27.2383      0.00000
     12      28.2913      0.00000

 k-point    24 :      -0.3500    0.2500    0.0500
  band No.  band energies     occupation 
      1      -1.4678      2.00000
      2      -0.6786      2.00000
      3       0.0416      2.00000
      4       0.4404      2.00000
      5       1.5293      2.00000
      6       4.9519     -0.00000
      7       7.8891     -0.00000
      8      13.4105      0.00000
      9      17.4630      0.00000
     10      20.2162      0.00000
     11      26.6003      0.00000
     12      28.7791      0.00000

 k-point    25 :      -0.2500    0.2500    0.0500
  band No.  band energies     occupation 
      1      -1.4163      2.00000
      2      -0.6358      2.00000
      3      -0.4051      2.00000
      4       0.5057      2.00000
      5       1.0159      2.00000
      6       3.2863      2.03894
      7      10.9885      0.00000
      8      13.3057      0.00000
      9      18.8642      0.00000
     10      21.2046      0.00000
     11      24.8994      0.00000
     12      28.4216      0.00000

 k-point    26 :      -0.1500    0.2500    0.0500
  band No.  band energies     occupation 
      1      -2.0932      2.00000
      2      -0.7271      2.00000
      3      -0.1996      2.00000
      4       0.4038      2.00000
      5       0.7181      2.00000
      6       2.1617      2.00000
      7      12.9627      0.00000
      8      15.3622      0.00000
      9      20.0989      0.00000
     10      22.5587      0.00000
     11      23.5535      0.00000
     12      26.8742      0.00000

 k-point    27 :      -0.0500    0.2500    0.0500
  band No.  band energies     occupation 
      1      -2.9377      2.00000
      2      -0.5257      2.00000
      3      -0.0294      2.00000
      4       0.0747      2.00000
      5       0.8589      2.00000
      6       1.3480      2.00000
      7      13.9809      0.00000
      8      18.7662      0.00000
      9      20.5363      0.00000
     10      22.6202      0.00000
     11      24.0412      0.00000
     12      25.8454      0.00000

 k-point    28 :       0.3500    0.3500    0.0500
  band No.  band energies     occupation 
      1      -1.9586      2.00000
      2      -1.4534      2.00000
      3       0.7455      2.00000
      4       1.1668      2.00000
      5       1.5659      2.00000
      6       1.5974      2.00000
      7      14.2534      0.00000
      8      15.5142      0.00000
      9      15.5276      0.00000
     10      19.3461      0.00000
     11      21.1160      0.00000
     12      30.8387      0.00000

 k-point    29 :       0.4500    0.3500    0.0500
  band No.  band energies     occupation 
      1      -1.8116      2.00000
      2      -1.5364      2.00000
      3       0.7608      2.00000
      4       1.3991      2.00000
      5       1.7510      2.00000
      6       3.0564      2.00047
      7      11.6921      0.00000
      8      13.8734      0.00000
      9      14.5369      0.00000
     10      20.1847      0.00000
     11      21.9599      0.00000
     12      30.2809      0.00000

 k-point    30 :      -0.4500    0.3500    0.0500
  band No.  band energies     occupation 
      1      -1.6748      2.00000
      2      -1.2746      2.00000
      3       0.4826      2.00000
      4       1.1695      2.00000
      5       1.8955      2.00000
      6       5.3236     -0.00000
      7       8.9386     -0.00000
      8      12.1010      0.00000
      9      14.6725      0.00000
     10      20.4464      0.00000
     11      24.4824      0.00000
     12      29.2978      0.00000

 k-point    31 :      -0.3500    0.3500    0.0500
  band No.  band energies     occupation 
      1      -1.4505      2.00000
      2      -0.8597      2.00000
      3       0.0573      2.00000
      4       0.9210      2.00000
      5       1.6575      2.00000
      6       6.3479     -0.00000
      7       8.4486     -0.00000
      8      10.5486      0.00000
      9      15.7822      0.00000
     10      20.4134      0.00000
     11      27.6302      0.00000
     12      28.1809      0.00000

 k-point    32 :      -0.2500    0.3500    0.0500
  band No.  band energies     occupation 
      1      -1.2440      2.00000
      2      -0.6283      2.00000
      3      -0.3225      2.00000
      4       0.6510      2.00000
      5       1.3509      2.00000
      6       4.7594     -0.00000
      7       9.5826      0.00000
      8      11.5207      0.00000
      9      17.3939      0.00000
     10      20.4801      0.00000
     11      26.5502      0.00000
     12      29.1093      0.00000

 k-point    33 :      -0.1500    0.3500    0.0500
  band No.  band energies     occupation 
      1      -1.7301      2.00000
      2      -0.4928      2.00000
      3      -0.0516      2.00000
      4       0.2741      2.00000
      5       1.2913      2.00000
      6       3.3086      2.04915
      7       9.5039      0.00000
      8      14.9629      0.00000
      9      18.7682      0.00000
     10      20.7501      0.00000
     11      25.4072      0.00000
     12      27.8032      0.00000

 k-point    34 :      -0.0500    0.3500    0.0500
  band No.  band energies     occupation 
      1      -2.3224      2.00000
      2      -0.2380      2.00000
      3      -0.0492      2.00000
      4       0.2463      2.00000
      5       1.3994      2.00000
      6       1.9803      2.00000
      7      10.1819      0.00000
      8      18.2981      0.00000
      9      19.4011      0.00000
     10      21.0254      0.00000
     11      25.6274      0.00000
     12      26.2304      0.00000

 k-point    35 :       0.4500    0.4500    0.0500
  band No.  band energies     occupation 
      1      -2.0105      2.00000
      2      -1.7652      2.00000
      3       1.6672      2.00000
      4       1.7184      2.00000
      5       1.9195      2.00000
      6       3.7201      0.27054
      7      10.1782      0.00000
      8      13.4586      0.00000
      9      13.8072      0.00000
     10      19.4644      0.00000
     11      21.5177      0.00000
     12      31.6761      0.00000

 k-point    36 :      -0.4500    0.4500    0.0500
  band No.  band energies     occupation 
      1      -1.9460      2.00000
      2      -1.7243      2.00000
      3       1.4459      2.00000
      4       1.6394      2.00000
      5       2.0282      2.00000
      6       5.5606     -0.00000
      7       8.4224     -0.00000
      8      12.4646      0.00000
      9      13.4071      0.00000
     10      20.2832      0.00000
     11      22.1013      0.00000
     12      30.8586      0.00000

 k-point    37 :      -0.3500    0.4500    0.0500
  band No.  band energies     occupation 
      1      -1.7126      2.00000
      2      -1.3482      2.00000
      3       0.7090      2.00000
      4       1.2934      2.00000
      5       1.8944      2.00000
      6       6.6981     -0.00000
      7       7.9959     -0.00000
      8      10.9920      0.00000
      9      14.3734      0.00000
     10      20.5461      0.00000
     11      24.4524      0.00000
     12      29.5704      0.00000

 k-point    38 :      -0.2500    0.4500    0.0500
  band No.  band energies     occupation 
      1      -1.4839      2.00000
      2      -0.8238      2.00000
      3       0.0233      2.00000
      4       0.7526      2.00000
      5       1.7485      2.00000
      6       6.2738     -0.00000
      7       7.2427     -0.00000
      8      12.3870      0.00000
      9      15.9786      0.00000
     10      20.2517      0.00000
     11      27.4951      0.00000
     12      28.1898      0.00000

 k-point    39 :      -0.1500    0.4500    0.0500
  band No.  band energies     occupation 
      1      -1.7631      2.00000
      2      -0.6017      2.00000
      3       0.1949      2.00000
      4       0.4312      2.00000
      5       1.7036      2.00000
      6       5.2581     -0.00000
      7       6.3900     -0.00000
      8      15.3466      0.00000
      9      17.6113      0.00000
     10      19.8451      0.00000
[...]
      1      -0.2617      2.00000
      2       0.2453      2.00000
      3       0.8552      2.00000
      4       2.4003      2.00000
      5       3.5449      2.00000
      6       8.2901     -0.00000
      7      11.9362      0.00000
      8      13.9958      0.00000
      9      18.9189      0.00000
     10      25.1455      0.00000
     11      30.2659      0.00000
     12      34.1749      0.00000

 k-point    93 :      -0.2500    0.3500    0.2500
  band No.  band energies     occupation 
      1      -0.6019      2.00000
      2      -0.0539      2.00000
      3       1.2820      2.00000
      4       2.6571      2.00000
      5       3.8502      2.00000
      6       8.5750     -0.00000
      7      10.9453     -0.00000
      8      15.3070      0.00000
      9      17.6811      0.00000
     10      25.1284      0.00000
     11      30.1598      0.00000
     12      32.1341      0.00000

 k-point    94 :       0.4500    0.4500    0.2500
  band No.  band energies     occupation 
      1      -0.9803      2.00000
      2       0.4015      2.00000
      3       1.0955      2.00000
      4       1.9038      2.00000
      5       3.9005      2.00000
      6       5.4258      2.02563
      7      12.3109      0.00000
      8      19.6884      0.00000
      9      20.4834      0.00000
     10      22.8568      0.00000
     11      30.7755      0.00000
     12      32.3376      0.00000

 k-point    95 :      -0.4500    0.4500    0.2500
  band No.  band energies     occupation 
      1      -0.6011      2.00000
      2       0.1229      2.00000
      3       1.0098      2.00000
      4       2.4260      2.00000
      5       3.7528      2.00000
      6       7.0931     -0.00000
      7      11.6341      0.00000
      8      17.1244      0.00000
      9      18.4496      0.00000
     10      24.7496      0.00000
     11      29.8769      0.00000
     12      32.3408      0.00000

 k-point    96 :      -0.3500    0.4500    0.2500
  band No.  band energies     occupation 
      1      -0.2149      2.00000
      2       0.1896      2.00000
      3       0.6578      2.00000
      4       2.5424      2.00000
      5       3.8967      2.00000
      6       8.9412     -0.00000
      7      12.0052      0.00000
      8      13.8992      0.00000
      9      16.7402      0.00000
     10      27.4134      0.00000
     11      29.0677      0.00000
     12      32.4688      0.00000

 k-point    97 :      -0.2500    0.4500    0.2500
  band No.  band energies     occupation 
      1      -0.3414      2.00000
      2       0.1964      2.00000
      3       0.8200      2.00000
      4       2.4965      2.00000
      5       4.1214      2.00000
      6      10.2265     -0.00000
      7      11.6668      0.00000
      8      13.0276      0.00000
      9      15.7521      0.00000
     10      28.1873      0.00000
     11      29.6924      0.00000
     12      31.1353      0.00000

 k-point    98 :      -0.4500   -0.4500    0.2500
  band No.  band energies     occupation 
      1      -0.8173      2.00000
      2      -0.0898      2.00000
      3       1.6477      2.00000
      4       2.5863      2.00000
      5       3.8659      2.00000
      6       8.4337     -0.00000
      7      10.5588     -0.00000
      8      15.4523      0.00000
      9      19.0107      0.00000
     10      23.5080      0.00000
     11      30.4466      0.00000
     12      33.3718      0.00000

 k-point    99 :      -0.3500   -0.4500    0.2500
  band No.  band energies     occupation 
      1      -0.6422      2.00000
      2      -0.1286      2.00000
      3       1.4924      2.00000
      4       2.7408      2.00000
      5       3.9057      2.00000
      6       9.8196     -0.00000
      7      10.7224     -0.00000
      8      13.6557      0.00000
      9      17.3621      0.00000
     10      25.3944      0.00000
     11      30.4349      0.00000
     12      31.8657      0.00000

 k-point   100 :      -0.3500   -0.3500    0.2500
  band No.  band energies     occupation 
      1      -0.8354      2.00000
      2      -0.1835      2.00000
      3       1.8494      2.00000
      4       2.8514      2.00000
      5       3.7402      2.00000
      6       9.6458     -0.00000
      7      10.3794     -0.00000
      8      13.7135      0.00000
      9      18.7166      0.00000
     10      23.7492      0.00000
     11      30.3948      0.00000
     12      33.5618      0.00000

 k-point   101 :       0.3500    0.3500    0.3500
  band No.  band energies     occupation 
      1      -1.8297      2.00000
      2       1.1296      2.00000
      3       1.1296      2.00000
      4       2.0173      2.00000
      5       3.3321      2.00000
      6       3.3321      2.00000
      7      13.1705      0.00000
      8      21.2035      0.00000
      9      24.8970      0.00000
     10      24.8970      0.00000
     11      30.0959      0.00000
     12      30.1278      0.00000

 k-point   102 :       0.4500    0.3500    0.3500
  band No.  band energies     occupation 
      1      -1.4793      2.00000
      2       0.9411      2.00000
      3       1.2446      2.00000
      4       1.9415      2.00000
      5       3.2200      2.00000
      6       4.6049      2.00000
      7      12.0568      0.00000
      8      20.6770      0.00000
      9      22.3158      0.00000
     10      24.9030      0.00000
     11      29.5315      0.00000
     12      30.9808      0.00000

 k-point   103 :      -0.4500    0.3500    0.3500
  band No.  band energies     occupation 
      1      -0.7610      2.00000
      2       0.5546      2.00000
      3       1.3820      2.00000
      4       1.7136      2.00000
      5       3.1964      2.00000
      6       6.3676     -0.00039
      7      11.5236      0.00000
      8      17.5088      0.00000
      9      22.4173      0.00000
     10      23.1500      0.00000
     11      30.0033      0.00000
     12      32.1800      0.00000

 k-point   104 :      -0.3500    0.3500    0.3500
  band No.  band energies     occupation 
      1      -0.4901      2.00000
      2       0.3709      2.00000
      3       1.1203      2.00000
      4       2.3544      2.00000
      5       3.3488      2.00000
      6       8.0357     -0.00000
      7      11.8676      0.00000
      8      13.9945      0.00000
      9      20.8073      0.00000
     10      23.1534      0.00000
     11      31.7299      0.00000
     12      32.8674      0.00000

 k-point   105 :       0.4500    0.4500    0.3500
  band No.  band energies     occupation 
      1      -1.4790      2.00000
      2       0.8489      2.00000
      3       1.2454      2.00000
      4       2.1523      2.00000
      5       3.8384      2.00000
      6       4.8993      2.00000
      7      10.7977     -0.00000
      8      20.8664      0.00000
      9      22.5810      0.00000
     10      23.0866      0.00000
     11      31.1387      0.00000
     12      31.4381      0.00000

 k-point   106 :      -0.4500    0.4500    0.3500
  band No.  band energies     occupation 
      1      -1.0039      2.00000
      2       0.5356      2.00000
      3       1.5421      2.00000
      4       1.7513      2.00000
      5       3.6858      2.00000
      6       6.7195     -0.00000
      7      10.0075     -0.00000
      8      19.5021      0.00000
      9      20.3842      0.00000
     10      23.6170      0.00000
     11      30.4750      0.00000
     12      32.7676      0.00000

 k-point   107 :      -0.3500    0.4500    0.3500
  band No.  band energies     occupation 
      1      -0.3991      2.00000
      2       0.1853      2.00000
      3       1.1155      2.00000
      4       2.1925      2.00000
      5       3.6418      2.00000
      6       8.6110     -0.00000
      7      10.0110     -0.00000
      8      16.1075      0.00000
      9      19.0492      0.00000
     10      24.6655      0.00000
     11      30.4035      0.00000
     12      34.4111      0.00000

 k-point   108 :      -0.4500   -0.4500    0.3500
  band No.  band energies     occupation 
      1      -0.8893      2.00000
      2       0.4469      2.00000
      3       1.5894      2.00000
      4       1.7461      2.00000
      5       3.7856      2.00000
      6       7.9622     -0.00000
      7       9.0463     -0.00000
      8      18.2602      0.00000
      9      21.2652      0.00000
     10      22.3852      0.00000
     11      31.9798      0.00000
     12      32.2184      0.00000

 k-point   109 :       0.4500    0.4500    0.4500
  band No.  band energies     occupation 
      1      -1.7323      2.00000
      2       0.9845      2.00000
      3       0.9845      2.00000
      4       3.7834      2.00000
      5       3.7834      2.00000
      6       4.1534      2.00000
      7       9.7047     -0.00000
      8      20.5377      0.00000
      9      23.7063      0.00000
     10      23.7063      0.00000
     11      30.8253      0.00000
     12      30.8253      0.00000

 k-point   110 :      -0.4500    0.4500    0.4500
  band No.  band energies     occupation 
      1      -1.4696      2.00000
      2       0.8044      2.00000
      3       1.1650      2.00000
      4       2.7208      2.00000
      5       3.7602      2.00000
      6       6.0661     -0.06638
      7       9.0679     -0.00000
      8      20.5084      0.00000
      9      22.1034      0.00000
     10      23.1270      0.00000
     11      31.1395      0.00000
     12      31.3244      0.00000


--------------------------------------------------------------------------------------------------------


 soft charge-density along one line, spin component           1
         0         1         2         3         4         5         6         7         8         9
 total charge-density along one line
 
 pseudopotential strength for first ion, spin component:           1
 -9.718   0.000   0.000   0.000  -0.000   0.000   0.000   0.000  -0.000   0.000  -0.108   0.000  -0.000   0.000   0.000   0.000
  0.000   0.000  -9.718   0.000   0.000   0.000   0.000   0.000  -0.000   0.000  -0.000   0.000  -0.108   0.000  -0.000   0.000
 -0.000   0.000   0.000   0.000  -9.699   0.000   0.000   0.000   0.000   0.000   0.000   0.000  -0.000   0.000  -0.110   0.000
  0.000   0.000   0.000   0.000   0.000   0.000  -9.718   0.000   0.000   0.000  -0.000   0.000  -0.000   0.000  -0.000   0.000
 -0.000   0.000  -0.000   0.000   0.000   0.000   0.000   0.000  -9.699   0.000   0.000   0.000   0.000   0.000  -0.000   0.000
 -0.108   0.000  -0.000   0.000   0.000   0.000  -0.000   0.000   0.000   0.000   0.285   0.000   0.000   0.000  -0.000   0.000
 -0.000   0.000  -0.108   0.000  -0.000   0.000  -0.000   0.000   0.000   0.000   0.000   0.000   0.285   0.000   0.000   0.000
  0.000   0.000  -0.000   0.000  -0.110   0.000  -0.000   0.000  -0.000   0.000  -0.000   0.000   0.000   0.000   0.286   0.000
 -0.000   0.000  -0.000   0.000  -0.000   0.000  -0.108   0.000  -0.000   0.000   0.000   0.000   0.000   0.000   0.000   0.000
  0.000   0.000   0.000   0.000  -0.000   0.000  -0.000   0.000  -0.110   0.000  -0.000   0.000  -0.000   0.000   0.000   0.000
 -0.000   0.000  -0.000   0.000  -0.000   0.000  -0.000   0.000   0.000   0.000  -0.000   0.000  -0.000   0.000  -0.000   0.000
  0.000   0.000   0.000   0.000   0.000   0.000   0.000   0.000  -0.000   0.000  -0.000   0.000  -0.000   0.000   0.000   0.000
 -0.000   0.000   0.000   0.000  -0.000   0.000   0.000   0.000  -0.000   0.000   0.000   0.000  -0.000   0.000   0.000   0.000
  0.000   0.000   0.000   0.000   0.000   0.000  -0.000   0.000  -0.000   0.000  -0.000   0.000  -0.000   0.000  -0.000   0.000
  0.000   0.000   0.000   0.000   0.000   0.000  -0.000   0.000  -0.000   0.000  -0.000   0.000  -0.000   0.000  -0.000   0.000
  0.000   0.000  -0.000   0.000   0.000   0.000  -0.000   0.000   0.000   0.000  -0.000   0.000   0.000   0.000  -0.000   0.000
 -0.000   0.000  -0.000   0.000  -0.000   0.000   0.000   0.000   0.000   0.000   0.000   0.000   0.000   0.000   0.000   0.000
 -0.000   0.000  -0.000   0.000  -0.000   0.000   0.000   0.000   0.000   0.000   0.000   0.000   0.000   0.000   0.000   0.000
 total augmentation occupancy for first ion, spin component:           1
  1.903   0.000   0.000   0.000   0.000  -0.030  -0.000   0.000   0.000   0.000   0.000   0.000   0.000   0.000   0.000   0.000
  0.000   1.903   0.000   0.000  -0.000   0.000  -0.030   0.000   0.000  -0.000   0.000   0.000   0.000   0.000   0.000   0.000
  0.000   0.000   1.952   0.000   0.000  -0.000  -0.000  -0.079   0.000   0.000  -0.000   0.000   0.000   0.000   0.000   0.000
  0.000   0.000   0.000   1.903  -0.000  -0.000  -0.000   0.000  -0.030  -0.000  -0.000   0.000   0.000   0.000   0.000   0.000
  0.000  -0.000   0.000   0.000   1.952   0.000   0.000   0.000  -0.000  -0.079   0.000   0.000   0.000   0.000   0.000   0.000
 -0.030   0.000   0.000  -0.000   0.000   0.241   0.000   0.000   0.000   0.000   0.000  -0.000   0.000   0.000   0.000   0.000
 -0.000  -0.030  -0.000  -0.000   0.000  -0.000   0.241   0.000  -0.000  -0.000   0.000  -0.000   0.000   0.000   0.000   0.000
  0.000  -0.000  -0.079   0.000   0.000   0.000  -0.000   0.191  -0.000   0.000  -0.000   0.000   0.000   0.000   0.000   0.000
  0.000   0.000   0.000  -0.030  -0.000   0.000  -0.000  -0.000   0.241   0.000   0.000  -0.000   0.000   0.000   0.000   0.000
  0.000   0.000   0.000  -0.000  -0.079   0.000  -0.000   0.000  -0.000   0.191   0.000   0.000   0.000   0.000   0.000   0.000
  0.000   0.000   0.000  -0.000   0.000   0.000  -0.000  -0.000  -0.000   0.000   1.090  -0.398   0.000   0.000   0.000   0.000
  0.000   0.000   0.000   0.000  -0.000  -0.000  -0.000   0.000  -0.000   0.000  -0.398   0.268   0.000   0.000   0.000   0.000
  0.000   0.000   0.000   0.000   0.000   0.000   0.000   0.000   0.000   0.000   0.000   0.000   0.174  -0.000   0.000  -0.013
  0.000   0.000   0.000   0.000   0.000   0.000   0.000   0.000   0.000   0.000   0.000   0.000  -0.000   0.174  -0.000  -0.000
  0.000   0.000   0.000   0.000   0.000   0.000   0.000   0.000   0.000   0.000   0.000   0.000   0.000  -0.000   0.174   0.000
  0.000   0.000   0.000   0.000   0.000   0.000   0.000   0.000   0.000   0.000   0.000   0.000  -0.013   0.000   0.000   0.001
  0.000   0.000   0.000   0.000   0.000   0.000   0.000   0.000   0.000   0.000   0.000   0.000  -0.000  -0.013  -0.000   0.000
  0.000   0.000   0.000   0.000   0.000   0.000   0.000   0.000   0.000   0.000   0.000   0.000  -0.000  -0.000  -0.013   0.000


------------------------ aborting loop because EDIFF is reached ----------------------------------------


    CHARGE:  cpu time    0.0346: real time    0.0791
    FORLOC:  cpu time    0.0002: real time    0.0002
    FORNL :  cpu time    0.0122: real time    0.0210
    STRESS:  cpu time    0.0788: real time    0.1555
    FORCOR:  cpu time    0.0028: real time    0.0050
    FORHAR:  cpu time    0.0007: real time    0.0051
    MIXING:  cpu time    0.0003: real time    0.0003
    OFIELD:  cpu time    0.0000: real time    0.0000

  FORCE on cell =-STRESS in cart. coord.  units (eV):
  Direction    XX          YY          ZZ          XY          YZ          ZX
  --------------------------------------------------------------------------------------
  Alpha Z   110.09557   110.09557   110.09557
  Ewald    -328.18150  -328.18150  -328.18150     0.00000     0.00000     0.00000
  Hartree    36.36432    36.36432    36.36432     0.00000     0.00000     0.00000
  E(xc)     -49.13396   -49.13396   -49.13396    -0.00000    -0.00000    -0.00000
  Local      82.94101    82.94101    82.94101     0.00002     0.00002     0.00002
  n-local   -48.74469   -45.87361   -49.62817     0.59713    -0.65869     0.01476
  augment    42.43923    42.43923    42.43923    -0.00002    -0.00002    -0.00002
  Kinetic   153.52335   152.39955   154.59226    -0.39248     0.19621     0.01298
  Fock        0.00000     0.00000     0.00000     0.00000     0.00000     0.00000
  -------------------------------------------------------------------------------------
  Total      -0.05243    -0.05243    -0.05243     0.00000     0.00000    -0.00000
  in kB      -5.03226    -5.03226    -5.03226     0.00000     0.00000    -0.00000
  external pressure =       -5.03 kB  Pullay stress =        0.00 kB


 VOLUME and BASIS-vectors are now :
 -----------------------------------------------------------------------------
  energy-cutoff  :      287.34
  volume of cell :       16.69
      direct lattice vectors                 reciprocal lattice vectors
    -0.000000000  2.028487759  2.028487759    -0.246489040  0.246489040  0.246489040
     2.028487759  0.000000000  2.028487759     0.246489040 -0.246489040  0.246489040
     2.028487759  2.028487759  0.000000000     0.246489040  0.246489040 -0.246489040

  length of vectors
     2.868714900  2.868714900  2.868714900     0.426931540  0.426931540  0.426931540


 FORCES acting on ions
    electron-ion (+dipol)            ewald-force                    non-local-force                 convergence-correction
 -----------------------------------------------------------------------------------------------
   0.118E-14 -.224E-14 -.479E-14   -.117E-14 -.105E-14 -.280E-14   0.000E+00 0.000E+00 0.139E-27   0.128E-13 0.280E-14 0.353E-14
 -----------------------------------------------------------------------------------------------
   0.118E-14 -.224E-14 -.479E-14   -.117E-14 -.105E-14 -.280E-14   0.000E+00 0.000E+00 0.139E-27   0.128E-13 0.280E-14 0.353E-14
 
 
 POSITION                                       TOTAL-FORCE (eV/Angst)
 -----------------------------------------------------------------------------------
      0.00000      0.00000      0.00000         0.000000      0.000000      0.000000
 -----------------------------------------------------------------------------------
    total drift:                                0.000000     -0.000000     -0.000000


--------------------------------------------------------------------------------------------------------



  FREE ENERGIE OF THE ION-ELECTRON SYSTEM (eV)
  ---------------------------------------------------
  free  energy   TOTEN  =        -4.42044279 eV

  energy  without entropy=       -4.42134053  energy(sigma->0) =       -4.42074204
 
 d Force = 0.0000000E+00[ 0.000E+00, 0.000E+00]  d Energy = 0.5530157E-03-0.553E-03
 d Force = 0.0000000E+00[ 0.000E+00, 0.000E+00]  d Ewald  = 0.1879306E+01-0.188E+01


--------------------------------------------------------------------------------------------------------


    POTLOK:  cpu time    0.0026: real time    0.0069


--------------------------------------------------------------------------------------------------------




--------------------------------------------------------------------------------------------------------


  
 reached required accuracy - stopping structural energy minimisation
 writing wavefunctions
     LOOP+:  cpu time    2.7800: real time    5.6351
    4ORBIT:  cpu time    0.0000: real time    0.0000

 total amount of memory used by VASP MPI-rank0    35703. kBytes
=======================================================================

   base      :      30000. kBytes
   nonl-proj :       3615. kBytes
   fftplans  :        301. kBytes
   grid      :        463. kBytes
   one-center:         15. kBytes
   wavefun   :       1309. kBytes
 
  
  
 General timing and accounting informations for this job:
 ========================================================
  
                  Total CPU time used (sec):       19.311
                            User time (sec):       18.598
                          System time (sec):        0.713
                         Elapsed time (sec):       39.538
  
                   Maximum memory used (kb):       61276.
                   Average memory used (kb):           0.
  
                          Minor page faults:        52119
                          Major page faults:            0
                 Voluntary context switches:         3044
