FCC Au                                  
           1
     0.000000    2.150000    2.150000
     2.150000    0.000000    2.150000
     2.150000    2.150000    0.000000
   Au
   1
Direct configuration=     1
   0.00000000  0.00000000  0.00000000
FCC Au                                  
           1
     0.000000    1.886161    1.886161
     1.886161    0.000000    1.886161
     1.886161    1.886161    0.000000
   Au
   1
Direct configuration=     2
   0.00000000  0.00000000  0.00000000
FCC Au                                  
           1
     0.000000    2.033660    2.033660
     2.033660    0.000000    2.033660
     2.033660    2.033660    0.000000
   Au
   1
Direct configuration=     3
   0.00000000  0.00000000  0.00000000
FCC Au                                  
           1
     0.000000    2.032367    2.032367
     2.032367    0.000000    2.032367
     2.032367    2.032367    0.000000
   Au
   1
Direct configuration=     4
   0.00000000 -0.00000000  0.00000000
FCC Au                                  
           1
    -0.000000    2.028488    2.028488
     2.028488    0.000000    2.028488
     2.028488    2.028488    0.000000
   Au
   1
Direct configuration=     5
   0.00000000 -0.00000000  0.00000000
