   1   1   1   0
  0.1000000E+04  0.1000000E-08  0.1000000E-08  0.1000000E-08  0.5000000E-15
  1.000000000000000E-004
  CAR 
 O-Spin                                  
      3.28257383    -27.16412274  301     -7.17065702      1.00000000
    -27.164  0.0000E+00  0.0000E+00  0.0000E+00  0.0000E+00
    -27.063  0.0000E+00  0.0000E+00  0.0000E+00  0.0000E+00
    -26.961  0.0000E+00  0.0000E+00  0.0000E+00  0.0000E+00
    -26.860 -0.2885E-31  0.0000E+00 -0.2928E-32  0.0000E+00
    -26.758 -0.1143E-27  0.0000E+00 -0.1160E-28  0.0000E+00
    -26.657 -0.2695E-24  0.0000E+00 -0.2736E-25  0.0000E+00
    -26.555 -0.3778E-21  0.0000E+00 -0.3837E-22  0.0000E+00
    -26.454 -0.3148E-18  0.0000E+00 -0.3199E-19  0.0000E+00
    -26.352 -0.1557E-15  0.0000E+00 -0.1583E-16  0.0000E+00
    -26.251 -0.4410E-13  0.0000E+00 -0.4492E-14  0.0000E+00
    -26.149 -0.7596E-11  0.0000E+00 -0.7754E-12  0.0000E+00
    -26.048 -0.7698E-09  0.0000E+00 -0.7890E-10  0.0000E+00
    -25.946 -0.4568E-07  0.0000E+00 -0.4714E-08  0.0000E+00
    -25.845 -0.1573E-05  0.0000E+00 -0.1643E-06  0.0000E+00
    -25.743 -0.3095E-04  0.0000E+00 -0.3306E-05  0.0000E+00
    -25.642 -0.3378E-03  0.0000E+00 -0.3759E-04  0.0000E+00
    -25.540 -0.1900E-02  0.0000E+00 -0.2304E-03  0.0000E+00
    -25.439 -0.4173E-02  0.0000E+00 -0.6540E-03  0.0000E+00
    -25.337  0.5447E-02  0.0000E+00 -0.1011E-03  0.0000E+00
    -25.236  0.4378E-01  0.0000E+00  0.4342E-02  0.0000E+00
    -25.134  0.8028E-01  0.0000E+00  0.1249E-01  0.0000E+00
    -25.033  0.6291E-01  0.0000E+00  0.1887E-01  0.0000E+00
    -24.931  0.1796E-01  0.0000E+00  0.2070E-01  0.0000E+00
    -24.830 -0.2960E-02  0.0000E+00  0.2040E-01  0.0000E+00
    -24.728 -0.3057E-02  0.0000E+00  0.2009E-01  0.0000E+00
    -24.627 -0.7527E-03  0.0000E+00  0.2001E-01  0.0000E+00
    -24.525 -0.8948E-04  0.0000E+00  0.2000E-01  0.0000E+00
    -24.424 -0.5771E-05  0.0000E+00  0.2000E-01  0.0000E+00
    -24.322 -0.2107E-06  0.0000E+00  0.2000E-01  0.0000E+00
    -24.221 -0.4440E-08  0.0000E+00  0.2000E-01  0.0000E+00
    -24.119 -0.5461E-10  0.0000E+00  0.2000E-01  0.0000E+00
    -24.018 -0.3946E-12  0.0000E+00  0.2000E-01  0.0000E+00
    -23.916 -0.1707E-14  0.0000E+00  0.2000E-01  0.0000E+00
    -23.815  0.0000E+00  0.0000E+00  0.2000E-01  0.0000E+00
    -23.713  0.0000E+00  0.0000E+00  0.2000E-01  0.0000E+00
    -23.612  0.0000E+00 -0.2756E-31  0.2000E-01 -0.2798E-32
    -23.511  0.0000E+00 -0.1095E-27  0.2000E-01 -0.1112E-28
    -23.409  0.0000E+00 -0.2589E-24  0.2000E-01 -0.2629E-25
    -23.308  0.0000E+00 -0.3640E-21  0.2000E-01 -0.3697E-22
    -23.206  0.0000E+00 -0.3041E-18  0.2000E-01 -0.3090E-19
    -23.105  0.0000E+00 -0.1508E-15  0.2000E-01 -0.1534E-16
    -23.003  0.0000E+00 -0.4286E-13  0.2000E-01 -0.4365E-14
    -22.902  0.0000E+00 -0.7400E-11  0.2000E-01 -0.7554E-12
    -22.800  0.0000E+00 -0.7521E-09  0.2000E-01 -0.7709E-10
    -22.699  0.0000E+00 -0.4475E-07  0.2000E-01 -0.4619E-08
    -22.597  0.0000E+00 -0.1546E-05  0.2000E-01 -0.1615E-06
    -22.496  0.0000E+00 -0.3051E-04  0.2000E-01 -0.3258E-05
    -22.394  0.0000E+00 -0.3341E-03  0.2000E-01 -0.3716E-04
    -22.293  0.0000E+00 -0.1887E-02  0.2000E-01 -0.2286E-03
    -22.191  0.0000E+00 -0.4173E-02  0.2000E-01 -0.6522E-03
    -22.090  0.0000E+00  0.5323E-02  0.2000E-01 -0.1119E-03
    -21.988  0.0000E+00  0.4353E-01  0.2000E-01  0.4305E-02
    -21.887  0.0000E+00  0.8020E-01  0.2000E-01  0.1245E-01
    -21.785  0.0000E+00  0.6313E-01  0.2000E-01  0.1885E-01
    -21.684  0.0000E+00  0.1816E-01  0.2000E-01  0.2070E-01
    -21.582  0.0000E+00 -0.2924E-02  0.2000E-01  0.2040E-01
    -21.481  0.0000E+00 -0.3073E-02  0.2000E-01  0.2009E-01
    -21.379  0.0000E+00 -0.7600E-03  0.2000E-01  0.2001E-01
    -21.278  0.0000E+00 -0.9066E-04  0.2000E-01  0.2000E-01
    -21.176  0.0000E+00 -0.5866E-05  0.2000E-01  0.2000E-01
    -21.075  0.0000E+00 -0.2148E-06  0.2000E-01  0.2000E-01
    -20.973  0.0000E+00 -0.4539E-08  0.2000E-01  0.2000E-01
    -20.872  0.0000E+00 -0.5599E-10  0.2000E-01  0.2000E-01
    -20.770  0.0000E+00 -0.4057E-12  0.2000E-01  0.2000E-01
    -20.669  0.0000E+00 -0.1750E-14  0.2000E-01  0.2000E-01
    -20.567  0.0000E+00  0.0000E+00  0.2000E-01  0.2000E-01
    -20.466  0.0000E+00  0.0000E+00  0.2000E-01  0.2000E-01
    -20.364  0.0000E+00  0.0000E+00  0.2000E-01  0.2000E-01
    -20.263  0.0000E+00  0.0000E+00  0.2000E-01  0.2000E-01
    -20.161  0.0000E+00  0.0000E+00  0.2000E-01  0.2000E-01
    -20.060  0.0000E+00  0.0000E+00  0.2000E-01  0.2000E-01
    -19.958  0.0000E+00  0.0000E+00  0.2000E-01  0.2000E-01
    -19.857  0.0000E+00  0.0000E+00  0.2000E-01  0.2000E-01
    -19.755  0.0000E+00  0.0000E+00  0.2000E-01  0.2000E-01
    -19.654  0.0000E+00  0.0000E+00  0.2000E-01  0.2000E-01
    -19.552  0.0000E+00  0.0000E+00  0.2000E-01  0.2000E-01
    -19.451  0.0000E+00  0.0000E+00  0.2000E-01  0.2000E-01
    -19.349  0.0000E+00  0.0000E+00  0.2000E-01  0.2000E-01
    -19.248  0.0000E+00  0.0000E+00  0.2000E-01  0.2000E-01
    -19.146  0.0000E+00  0.0000E+00  0.2000E-01  0.2000E-01
    -19.045  0.0000E+00  0.0000E+00  0.2000E-01  0.2000E-01
    -18.944  0.0000E+00  0.0000E+00  0.2000E-01  0.2000E-01
    -18.842  0.0000E+00  0.0000E+00  0.2000E-01  0.2000E-01
    -18.741  0.0000E+00  0.0000E+00  0.2000E-01  0.2000E-01
    -18.639  0.0000E+00  0.0000E+00  0.2000E-01  0.2000E-01
    -18.538  0.0000E+00  0.0000E+00  0.2000E-01  0.2000E-01
    -18.436  0.0000E+00  0.0000E+00  0.2000E-01  0.2000E-01
    -18.335  0.0000E+00  0.0000E+00  0.2000E-01  0.2000E-01
    -18.233  0.0000E+00  0.0000E+00  0.2000E-01  0.2000E-01
    -18.132  0.0000E+00  0.0000E+00  0.2000E-01  0.2000E-01
    -18.030  0.0000E+00  0.0000E+00  0.2000E-01  0.2000E-01
    -17.929  0.0000E+00  0.0000E+00  0.2000E-01  0.2000E-01
    -17.827  0.0000E+00  0.0000E+00  0.2000E-01  0.2000E-01
    -17.726  0.0000E+00  0.0000E+00  0.2000E-01  0.2000E-01
    -17.624  0.0000E+00  0.0000E+00  0.2000E-01  0.2000E-01
    -17.523  0.0000E+00  0.0000E+00  0.2000E-01  0.2000E-01
    -17.421  0.0000E+00  0.0000E+00  0.2000E-01  0.2000E-01
    -17.320  0.0000E+00  0.0000E+00  0.2000E-01  0.2000E-01
    -17.218  0.0000E+00  0.0000E+00  0.2000E-01  0.2000E-01
    -17.117  0.0000E+00  0.0000E+00  0.2000E-01  0.2000E-01
    -17.015  0.0000E+00  0.0000E+00  0.2000E-01  0.2000E-01
    -16.914  0.0000E+00  0.0000E+00  0.2000E-01  0.2000E-01
    -16.812  0.0000E+00  0.0000E+00  0.2000E-01  0.2000E-01
    -16.711  0.0000E+00  0.0000E+00  0.2000E-01  0.2000E-01
    -16.609  0.0000E+00  0.0000E+00  0.2000E-01  0.2000E-01
    -16.508  0.0000E+00  0.0000E+00  0.2000E-01  0.2000E-01
    -16.406  0.0000E+00  0.0000E+00  0.2000E-01  0.2000E-01
    -16.305  0.0000E+00  0.0000E+00  0.2000E-01  0.2000E-01
    -16.203  0.0000E+00  0.0000E+00  0.2000E-01  0.2000E-01
    -16.102  0.0000E+00  0.0000E+00  0.2000E-01  0.2000E-01
    -16.000  0.0000E+00  0.0000E+00  0.2000E-01  0.2000E-01
    -15.899  0.0000E+00  0.0000E+00  0.2000E-01  0.2000E-01
    -15.797  0.0000E+00  0.0000E+00  0.2000E-01  0.2000E-01
    -15.696  0.0000E+00  0.0000E+00  0.2000E-01  0.2000E-01
    -15.594  0.0000E+00  0.0000E+00  0.2000E-01  0.2000E-01
    -15.493  0.0000E+00  0.0000E+00  0.2000E-01  0.2000E-01
    -15.391  0.0000E+00  0.0000E+00  0.2000E-01  0.2000E-01
    -15.290  0.0000E+00  0.0000E+00  0.2000E-01  0.2000E-01
    -15.188  0.0000E+00  0.0000E+00  0.2000E-01  0.2000E-01
    -15.087  0.0000E+00  0.0000E+00  0.2000E-01  0.2000E-01
    -14.985  0.0000E+00  0.0000E+00  0.2000E-01  0.2000E-01
    -14.884  0.0000E+00  0.0000E+00  0.2000E-01  0.2000E-01
    -14.782  0.0000E+00  0.0000E+00  0.2000E-01  0.2000E-01
    -14.681  0.0000E+00  0.0000E+00  0.2000E-01  0.2000E-01
    -14.579  0.0000E+00  0.0000E+00  0.2000E-01  0.2000E-01
    -14.478  0.0000E+00  0.0000E+00  0.2000E-01  0.2000E-01
    -14.377  0.0000E+00  0.0000E+00  0.2000E-01  0.2000E-01
    -14.275  0.0000E+00  0.0000E+00  0.2000E-01  0.2000E-01
    -14.174  0.0000E+00  0.0000E+00  0.2000E-01  0.2000E-01
    -14.072  0.0000E+00  0.0000E+00  0.2000E-01  0.2000E-01
    -13.971  0.0000E+00  0.0000E+00  0.2000E-01  0.2000E-01
    -13.869  0.0000E+00  0.0000E+00  0.2000E-01  0.2000E-01
    -13.768  0.0000E+00  0.0000E+00  0.2000E-01  0.2000E-01
    -13.666  0.0000E+00  0.0000E+00  0.2000E-01  0.2000E-01
    -13.565  0.0000E+00  0.0000E+00  0.2000E-01  0.2000E-01
    -13.463  0.0000E+00  0.0000E+00  0.2000E-01  0.2000E-01
    -13.362  0.0000E+00  0.0000E+00  0.2000E-01  0.2000E-01
    -13.260  0.0000E+00  0.0000E+00  0.2000E-01  0.2000E-01
    -13.159  0.0000E+00  0.0000E+00  0.2000E-01  0.2000E-01
    -13.057  0.0000E+00  0.0000E+00  0.2000E-01  0.2000E-01
    -12.956  0.0000E+00  0.0000E+00  0.2000E-01  0.2000E-01
    -12.854  0.0000E+00  0.0000E+00  0.2000E-01  0.2000E-01
    -12.753  0.0000E+00  0.0000E+00  0.2000E-01  0.2000E-01
    -12.651  0.0000E+00  0.0000E+00  0.2000E-01  0.2000E-01
    -12.550  0.0000E+00  0.0000E+00  0.2000E-01  0.2000E-01
    -12.448  0.0000E+00  0.0000E+00  0.2000E-01  0.2000E-01
    -12.347  0.0000E+00  0.0000E+00  0.2000E-01  0.2000E-01
    -12.245  0.0000E+00  0.0000E+00  0.2000E-01  0.2000E-01
    -12.144  0.0000E+00  0.0000E+00  0.2000E-01  0.2000E-01
    -12.042  0.0000E+00  0.0000E+00  0.2000E-01  0.2000E-01
    -11.941  0.0000E+00  0.0000E+00  0.2000E-01  0.2000E-01
    -11.839 -0.3030E-30  0.0000E+00  0.2000E-01  0.2000E-01
    -11.738 -0.1112E-26  0.0000E+00  0.2000E-01  0.2000E-01
    -11.636 -0.2429E-23  0.0000E+00  0.2000E-01  0.2000E-01
    -11.535 -0.3154E-20  0.0000E+00  0.2000E-01  0.2000E-01
    -11.433 -0.2434E-17  0.0000E+00  0.2000E-01  0.2000E-01
    -11.332 -0.1082E-14  0.0000E+00  0.2000E-01  0.2000E-01
    -11.230 -0.2921E-12  0.0000E+00  0.2000E-01  0.2000E-01
    -11.129 -0.4653E-10  0.0000E+00  0.2000E-01  0.2000E-01
    -11.027 -0.4359E-08  0.0000E+00  0.2000E-01  0.2000E-01
    -10.926 -0.2389E-06  0.0000E+00  0.2000E-01  0.2000E-01
    -10.824 -0.7584E-05  0.0000E+00  0.2000E-01  0.2000E-01
    -10.723 -0.1372E-03  0.0000E+00  0.1999E-01  0.2000E-01
    -10.621 -0.1366E-02  0.0000E+00  0.1985E-01  0.2000E-01
    -10.520 -0.6882E-02  0.0000E+00  0.1915E-01  0.2000E-01
    -10.418 -0.1212E-01  0.0000E+00  0.1792E-01  0.2000E-01
    -10.317  0.2774E-01  0.0000E+00  0.2073E-01  0.2000E-01
    -10.215  0.1525E+00  0.0000E+00  0.3621E-01  0.2000E-01
    -10.114  0.2447E+00  0.0000E+00  0.6105E-01  0.2000E-01
    -10.012  0.1692E+00  0.0000E+00  0.7822E-01  0.2000E-01
     -9.911  0.3853E-01  0.0000E+00  0.8213E-01  0.2000E-01
     -9.810 -0.1114E-01  0.0000E+00  0.8100E-01  0.2000E-01
     -9.708 -0.7891E-02  0.0000E+00  0.8019E-01  0.2000E-01
     -9.607 -0.1720E-02  0.0000E+00  0.8002E-01  0.2000E-01
     -9.505 -0.1860E-03  0.0000E+00  0.8000E-01  0.2000E-01
     -9.404 -0.1101E-04  0.0000E+00  0.8000E-01  0.2000E-01
     -9.302 -0.3704E-06  0.0000E+00  0.8000E-01  0.2000E-01
     -9.201 -0.7206E-08  0.0000E+00  0.8000E-01  0.2000E-01
     -9.099 -0.8193E-10  0.0000E+00  0.8000E-01  0.2000E-01
     -8.998 -0.5477E-12  0.0000E+00  0.8000E-01  0.2000E-01
     -8.896 -0.2100E-14  0.0000E+00  0.8000E-01  0.2000E-01
     -8.795  0.0000E+00 -0.1177E-29  0.8000E-01  0.2000E-01
     -8.693  0.0000E+00 -0.3973E-26  0.8000E-01  0.2000E-01
     -8.592  0.0000E+00 -0.7981E-23  0.8000E-01  0.2000E-01
     -8.490  0.0000E+00 -0.9531E-20  0.8000E-01  0.2000E-01
     -8.389  0.0000E+00 -0.6762E-17  0.8000E-01  0.2000E-01
     -8.287  0.0000E+00 -0.2748E-14  0.8000E-01  0.2000E-01
     -8.186  0.0000E+00 -0.6849E-12  0.8000E-01  0.2000E-01
     -8.084  0.0000E+00 -0.1002E-09  0.8000E-01  0.2000E-01
     -7.983  0.0000E+00 -0.8615E-08  0.8000E-01  0.2000E-01
     -7.881  0.0000E+00 -0.4327E-06  0.8000E-01  0.2000E-01
     -7.780  0.0000E+00 -0.1256E-04  0.8000E-01  0.2000E-01
     -7.678  0.0000E+00 -0.2071E-03  0.8000E-01  0.1998E-01
     -7.577  0.0000E+00 -0.1863E-02  0.8000E-01  0.1979E-01
     -7.475  0.0000E+00 -0.8261E-02  0.8000E-01  0.1895E-01
     -7.374  0.0000E+00 -0.1061E-01  0.8000E-01  0.1787E-01
     -7.272  0.0000E+00  0.4274E-01  0.8000E-01  0.2221E-01
     -7.171  0.0000E+00  0.1750E+00  0.8000E-01  0.3997E-01
     -7.069  0.0000E+00  0.2440E+00  0.8000E-01  0.6473E-01
     -6.968  0.0000E+00  0.1464E+00  0.8000E-01  0.7960E-01
     -6.866  0.0000E+00  0.2422E-01  0.8000E-01  0.8205E-01
     -6.765  0.0000E+00 -0.1232E-01  0.8000E-01  0.8080E-01
     -6.663  0.0000E+00 -0.6531E-02  0.8000E-01  0.8014E-01
     -6.562  0.0000E+00 -0.1255E-02  0.8000E-01  0.8001E-01
     -6.460  0.0000E+00 -0.1227E-03  0.8000E-01  0.8000E-01
     -6.359  0.0000E+00 -0.6621E-05  0.8000E-01  0.8000E-01
     -6.257  0.0000E+00 -0.2037E-06  0.8000E-01  0.8000E-01
     -6.156  0.0000E+00 -0.3633E-08  0.8000E-01  0.8000E-01
     -6.054  0.0000E+00 -0.3791E-10  0.8000E-01  0.8000E-01
     -5.953  0.0000E+00 -0.2326E-12  0.8000E-01  0.8000E-01
     -5.851  0.0000E+00 -0.9189E-15  0.8000E-01  0.8000E-01
     -5.750  0.0000E+00  0.0000E+00  0.8000E-01  0.8000E-01
     -5.648  0.0000E+00  0.0000E+00  0.8000E-01  0.8000E-01
     -5.547  0.0000E+00  0.0000E+00  0.8000E-01  0.8000E-01
     -5.445  0.0000E+00  0.0000E+00  0.8000E-01  0.8000E-01
     -5.344  0.0000E+00  0.0000E+00  0.8000E-01  0.8000E-01
     -5.243  0.0000E+00  0.0000E+00  0.8000E-01  0.8000E-01
     -5.141  0.0000E+00  0.0000E+00  0.8000E-01  0.8000E-01
     -5.040  0.0000E+00  0.0000E+00  0.8000E-01  0.8000E-01
     -4.938  0.0000E+00  0.0000E+00  0.8000E-01  0.8000E-01
     -4.837  0.0000E+00  0.0000E+00  0.8000E-01  0.8000E-01
     -4.735  0.0000E+00  0.0000E+00  0.8000E-01  0.8000E-01
     -4.634  0.0000E+00  0.0000E+00  0.8000E-01  0.8000E-01
     -4.532  0.0000E+00  0.0000E+00  0.8000E-01  0.8000E-01
     -4.431  0.0000E+00  0.0000E+00  0.8000E-01  0.8000E-01
     -4.329  0.0000E+00  0.0000E+00  0.8000E-01  0.8000E-01
     -4.228  0.0000E+00  0.0000E+00  0.8000E-01  0.8000E-01
     -4.126  0.0000E+00  0.0000E+00  0.8000E-01  0.8000E-01
     -4.025  0.0000E+00  0.0000E+00  0.8000E-01  0.8000E-01
     -3.923  0.0000E+00  0.0000E+00  0.8000E-01  0.8000E-01
     -3.822  0.0000E+00  0.0000E+00  0.8000E-01  0.8000E-01
     -3.720  0.0000E+00  0.0000E+00  0.8000E-01  0.8000E-01
     -3.619  0.0000E+00  0.0000E+00  0.8000E-01  0.8000E-01
     -3.517  0.0000E+00  0.0000E+00  0.8000E-01  0.8000E-01
     -3.416  0.0000E+00  0.0000E+00  0.8000E-01  0.8000E-01
     -3.314  0.0000E+00  0.0000E+00  0.8000E-01  0.8000E-01
     -3.213  0.0000E+00  0.0000E+00  0.8000E-01  0.8000E-01
     -3.111  0.0000E+00  0.0000E+00  0.8000E-01  0.8000E-01
     -3.010  0.0000E+00  0.0000E+00  0.8000E-01  0.8000E-01
     -2.908  0.0000E+00  0.0000E+00  0.8000E-01  0.8000E-01
     -2.807  0.0000E+00  0.0000E+00  0.8000E-01  0.8000E-01
     -2.705  0.0000E+00  0.0000E+00  0.8000E-01  0.8000E-01
     -2.604  0.0000E+00  0.0000E+00  0.8000E-01  0.8000E-01
     -2.502  0.0000E+00  0.0000E+00  0.8000E-01  0.8000E-01
     -2.401  0.0000E+00  0.0000E+00  0.8000E-01  0.8000E-01
     -2.299  0.0000E+00  0.0000E+00  0.8000E-01  0.8000E-01
     -2.198  0.0000E+00  0.0000E+00  0.8000E-01  0.8000E-01
     -2.096  0.0000E+00  0.0000E+00  0.8000E-01  0.8000E-01
     -1.995 -0.1484E-30  0.0000E+00  0.8000E-01  0.8000E-01
     -1.893 -0.5319E-27 -0.1035E-28  0.8000E-01  0.8000E-01
     -1.792 -0.1135E-23 -0.2846E-25  0.8000E-01  0.8000E-01
     -1.690 -0.1439E-20 -0.4656E-22  0.8000E-01  0.8000E-01
     -1.589 -0.1084E-17 -0.4526E-19  0.8000E-01  0.8000E-01
     -1.487 -0.4738E-15 -0.2613E-16  0.8000E-01  0.8000E-01
     -1.386 -0.1240E-12 -0.8661E-14  0.8000E-01  0.8000E-01
     -1.284 -0.1929E-10 -0.1744E-11  0.8000E-01  0.8000E-01
     -1.183 -0.1764E-08 -0.2070E-09  0.8000E-01  0.8000E-01
     -1.081 -0.9431E-07 -0.1440E-07  0.8000E-01  0.8000E-01
     -0.980 -0.2920E-05 -0.5834E-06  0.8000E-01  0.8000E-01
     -0.878 -0.5144E-04 -0.1358E-04  0.7999E-01  0.8000E-01
     -0.777 -0.4981E-03 -0.1774E-03  0.7994E-01  0.7998E-01
     -0.675 -0.2422E-02 -0.1230E-02  0.7970E-01  0.7986E-01
     -0.574 -0.3940E-02 -0.3815E-02  0.7930E-01  0.7947E-01
     -0.473  0.1057E-01 -0.3430E-04  0.8037E-01  0.7947E-01
     -0.371  0.5299E-01  0.2991E-01  0.8575E-01  0.8250E-01
     -0.270  0.8168E-01  0.7364E-01  0.9404E-01  0.8997E-01
     -0.168  0.5428E-01  0.7383E-01  0.9955E-01  0.9747E-01
     -0.067  0.1141E-01  0.3018E-01  0.1007E+00  0.1005E+00
      0.035 -0.3865E-02  0.5076E-04  0.1003E+00  0.1005E+00
      0.136 -0.2500E-02 -0.3828E-02  0.1001E+00  0.1001E+00
      0.238 -0.5261E-03 -0.1242E-02  0.1000E+00  0.1000E+00
      0.339 -0.7068E-04 -0.1798E-03  0.1000E+00  0.1000E+00
      0.441 -0.1997E-03 -0.1405E-04  0.9998E-01  0.1000E+00
      0.542 -0.1322E-02 -0.7018E-05  0.9984E-01  0.1000E+00
      0.644 -0.3935E-02 -0.1039E-03  0.9944E-01  0.9999E-01
      0.745  0.2740E-03 -0.9493E-03  0.9947E-01  0.9989E-01
      0.847  0.2950E-01 -0.4600E-02  0.1025E+00  0.9943E-01
      0.948  0.6735E-01 -0.8987E-02  0.1093E+00  0.9851E-01
      1.050  0.7229E-01  0.1252E-01  0.1166E+00  0.9978E-01
      1.151  0.8785E-01  0.9937E-01  0.1256E+00  0.1099E+00
      1.253  0.1466E+00  0.2059E+00  0.1404E+00  0.1308E+00
      1.354  0.1440E+00  0.2037E+00  0.1551E+00  0.1514E+00
      1.456  0.5933E-01  0.9271E-01  0.1611E+00  0.1609E+00
      1.557 -0.2056E-04  0.6721E-02  0.1611E+00  0.1615E+00
      1.659 -0.7674E-02 -0.1021E-01  0.1603E+00  0.1605E+00
      1.760 -0.2491E-02 -0.4129E-02  0.1600E+00  0.1601E+00
      1.862 -0.3609E-03 -0.7055E-03  0.1600E+00  0.1600E+00
      1.963 -0.2775E-04 -0.6341E-04  0.1600E+00  0.1600E+00
      2.065 -0.1197E-05 -0.3189E-05  0.1600E+00  0.1600E+00
      2.166 -0.2967E-07 -0.9207E-07  0.1600E+00  0.1600E+00
      2.268 -0.4281E-09 -0.1547E-08  0.1600E+00  0.1600E+00
      2.369 -0.3623E-11 -0.1523E-10  0.1600E+00  0.1600E+00
      2.471 -0.1803E-13 -0.8826E-13  0.1600E+00  0.1600E+00
      2.572 -0.8751E-16 -0.3501E-15  0.1600E+00  0.1600E+00
      2.674  0.0000E+00  0.0000E+00  0.1600E+00  0.1600E+00
      2.775  0.0000E+00  0.0000E+00  0.1600E+00  0.1600E+00
      2.877  0.0000E+00  0.0000E+00  0.1600E+00  0.1600E+00
      2.978  0.0000E+00  0.0000E+00  0.1600E+00  0.1600E+00
      3.080  0.0000E+00  0.0000E+00  0.1600E+00  0.1600E+00
      3.181  0.0000E+00  0.0000E+00  0.1600E+00  0.1600E+00
      3.283  0.0000E+00  0.0000E+00  0.1600E+00  0.1600E+00
      3.28257383    -27.16412274  301     -7.17065702      1.00000000
    -27.164  0.0000E+00  0.0000E+00  0.0000E+00  0.0000E+00  0.0000E+00  0.0000E+00
    -27.063  0.0000E+00  0.0000E+00  0.0000E+00  0.0000E+00  0.0000E+00  0.0000E+00
    -26.961  0.0000E+00  0.0000E+00  0.0000E+00  0.0000E+00  0.0000E+00  0.0000E+00
    -26.860 -0.1099E-29  0.0000E+00 -0.6885E-46  0.0000E+00 -0.1556E-49  0.0000E+00
    -26.758 -0.4355E-26  0.0000E+00 -0.2728E-42  0.0000E+00 -0.6166E-46  0.0000E+00
    -26.657 -0.1027E-22  0.0000E+00 -0.6431E-39  0.0000E+00 -0.1454E-42  0.0000E+00
    -26.555 -0.1439E-19  0.0000E+00 -0.9017E-36  0.0000E+00 -0.2038E-39  0.0000E+00
    -26.454 -0.1199E-16  0.0000E+00 -0.7512E-33  0.0000E+00 -0.1698E-36  0.0000E+00
    -26.352 -0.5930E-14  0.0000E+00 -0.3715E-30  0.0000E+00 -0.8397E-34  0.0000E+00
    -26.251 -0.1680E-11  0.0000E+00 -0.1052E-27  0.0000E+00 -0.2379E-31  0.0000E+00
    -26.149 -0.2894E-09  0.0000E+00 -0.1813E-25  0.0000E+00 -0.4098E-29  0.0000E+00
    -26.048 -0.2933E-07  0.0000E+00 -0.1837E-23  0.0000E+00 -0.4153E-27  0.0000E+00
    -25.946 -0.1740E-05  0.0000E+00 -0.1090E-21  0.0000E+00 -0.2464E-25  0.0000E+00
    -25.845 -0.5992E-04  0.0000E+00 -0.3753E-20  0.0000E+00 -0.8484E-24  0.0000E+00
    -25.743 -0.1179E-02  0.0000E+00 -0.7387E-19  0.0000E+00 -0.1670E-22  0.0000E+00
    -25.642 -0.1287E-01  0.0000E+00 -0.8061E-18  0.0000E+00 -0.1822E-21  0.0000E+00
    -25.540 -0.7239E-01  0.0000E+00 -0.4535E-17  0.0000E+00 -0.1025E-20  0.0000E+00
    -25.439 -0.1590E+00  0.0000E+00 -0.9958E-17  0.0000E+00 -0.2251E-20  0.0000E+00
    -25.337  0.2075E+00  0.0000E+00  0.1300E-16  0.0000E+00  0.2938E-20  0.0000E+00
    -25.236  0.1668E+01  0.0000E+00  0.1045E-15  0.0000E+00  0.2362E-19  0.0000E+00
    -25.134  0.3058E+01  0.0000E+00  0.1916E-15  0.0000E+00  0.4330E-19  0.0000E+00
    -25.033  0.2397E+01  0.0000E+00  0.1501E-15  0.0000E+00  0.3394E-19  0.0000E+00
    -24.931  0.6842E+00  0.0000E+00  0.4286E-16  0.0000E+00  0.9688E-20  0.0000E+00
    -24.830 -0.1128E+00  0.0000E+00 -0.7063E-17  0.0000E+00 -0.1597E-20  0.0000E+00
    -24.728 -0.1165E+00  0.0000E+00 -0.7295E-17  0.0000E+00 -0.1649E-20  0.0000E+00
    -24.627 -0.2868E-01  0.0000E+00 -0.1796E-17  0.0000E+00 -0.4060E-21  0.0000E+00
    -24.525 -0.3409E-02  0.0000E+00 -0.2135E-18  0.0000E+00 -0.4827E-22  0.0000E+00
    -24.424 -0.2199E-03  0.0000E+00 -0.1377E-19  0.0000E+00 -0.3113E-23  0.0000E+00
    -24.322 -0.8026E-05  0.0000E+00 -0.5027E-21  0.0000E+00 -0.1136E-24  0.0000E+00
    -24.221 -0.1691E-06  0.0000E+00 -0.1060E-22  0.0000E+00 -0.2395E-26  0.0000E+00
    -24.119 -0.2080E-08  0.0000E+00 -0.1303E-24  0.0000E+00 -0.2946E-28  0.0000E+00
    -24.018 -0.1503E-10  0.0000E+00 -0.9417E-27  0.0000E+00 -0.2129E-30  0.0000E+00
    -23.916 -0.6501E-13  0.0000E+00 -0.4072E-29  0.0000E+00 -0.9206E-33  0.0000E+00
    -23.815  0.0000E+00  0.0000E+00  0.0000E+00  0.0000E+00  0.0000E+00  0.0000E+00
    -23.713  0.0000E+00  0.0000E+00  0.0000E+00  0.0000E+00  0.0000E+00  0.0000E+00
    -23.612  0.0000E+00 -0.1025E-29  0.0000E+00 -0.1488E-44  0.0000E+00 -0.1216E-50
    -23.511  0.0000E+00 -0.4070E-26  0.0000E+00 -0.5910E-41  0.0000E+00 -0.4830E-47
    -23.409  0.0000E+00 -0.9623E-23  0.0000E+00 -0.1397E-37  0.0000E+00 -0.1142E-43
    -23.308  0.0000E+00 -0.1353E-19  0.0000E+00 -0.1964E-34  0.0000E+00 -0.1605E-40
    -23.206  0.0000E+00 -0.1130E-16  0.0000E+00 -0.1641E-31  0.0000E+00 -0.1341E-37
    -23.105  0.0000E+00 -0.5605E-14  0.0000E+00 -0.8138E-29  0.0000E+00 -0.6651E-35
    -23.003  0.0000E+00 -0.1593E-11  0.0000E+00 -0.2313E-26  0.0000E+00 -0.1890E-32
    -22.902  0.0000E+00 -0.2750E-09  0.0000E+00 -0.3994E-24  0.0000E+00 -0.3264E-30
    -22.800  0.0000E+00 -0.2795E-07  0.0000E+00 -0.4059E-22  0.0000E+00 -0.3317E-28
    -22.699  0.0000E+00 -0.1663E-05  0.0000E+00 -0.2415E-20  0.0000E+00 -0.1974E-26
    -22.597  0.0000E+00 -0.5744E-04  0.0000E+00 -0.8341E-19  0.0000E+00 -0.6817E-25
    -22.496  0.0000E+00 -0.1134E-02  0.0000E+00 -0.1647E-17  0.0000E+00 -0.1346E-23
    -22.394  0.0000E+00 -0.1242E-01  0.0000E+00 -0.1803E-16  0.0000E+00 -0.1473E-22
    -22.293  0.0000E+00 -0.7012E-01  0.0000E+00 -0.1018E-15  0.0000E+00 -0.8321E-22
    -22.191  0.0000E+00 -0.1551E+00  0.0000E+00 -0.2252E-15  0.0000E+00 -0.1841E-21
    -22.090  0.0000E+00  0.1978E+00  0.0000E+00  0.2873E-15  0.0000E+00  0.2348E-21
    -21.988  0.0000E+00  0.1618E+01  0.0000E+00  0.2349E-14  0.0000E+00  0.1920E-20
    -21.887  0.0000E+00  0.2981E+01  0.0000E+00  0.4328E-14  0.0000E+00  0.3537E-20
    -21.785  0.0000E+00  0.2346E+01  0.0000E+00  0.3407E-14  0.0000E+00  0.2785E-20
    -21.684  0.0000E+00  0.6749E+00  0.0000E+00  0.9800E-15  0.0000E+00  0.8009E-21
    -21.582  0.0000E+00 -0.1087E+00  0.0000E+00 -0.1578E-15  0.0000E+00 -0.1290E-21
    -21.481  0.0000E+00 -0.1142E+00  0.0000E+00 -0.1658E-15  0.0000E+00 -0.1355E-21
    -21.379  0.0000E+00 -0.2825E-01  0.0000E+00 -0.4101E-16  0.0000E+00 -0.3352E-22
    -21.278  0.0000E+00 -0.3369E-02  0.0000E+00 -0.4892E-17  0.0000E+00 -0.3998E-23
    -21.176  0.0000E+00 -0.2180E-03  0.0000E+00 -0.3166E-18  0.0000E+00 -0.2587E-24
    -21.075  0.0000E+00 -0.7982E-05  0.0000E+00 -0.1159E-19  0.0000E+00 -0.9472E-26
    -20.973  0.0000E+00 -0.1687E-06  0.0000E+00 -0.2450E-21  0.0000E+00 -0.2002E-27
    -20.872  0.0000E+00 -0.2081E-08  0.0000E+00 -0.3022E-23  0.0000E+00 -0.2469E-29
    -20.770  0.0000E+00 -0.1508E-10  0.0000E+00 -0.2190E-25  0.0000E+00 -0.1789E-31
    -20.669  0.0000E+00 -0.6505E-13  0.0000E+00 -0.9446E-28  0.0000E+00 -0.7720E-34
    -20.567  0.0000E+00  0.0000E+00  0.0000E+00  0.0000E+00  0.0000E+00  0.0000E+00
    -20.466  0.0000E+00  0.0000E+00  0.0000E+00  0.0000E+00  0.0000E+00  0.0000E+00
    -20.364  0.0000E+00  0.0000E+00  0.0000E+00  0.0000E+00  0.0000E+00  0.0000E+00
    -20.263  0.0000E+00  0.0000E+00  0.0000E+00  0.0000E+00  0.0000E+00  0.0000E+00
    -20.161  0.0000E+00  0.0000E+00  0.0000E+00  0.0000E+00  0.0000E+00  0.0000E+00
    -20.060  0.0000E+00  0.0000E+00  0.0000E+00  0.0000E+00  0.0000E+00  0.0000E+00
    -19.958  0.0000E+00  0.0000E+00  0.0000E+00  0.0000E+00  0.0000E+00  0.0000E+00
    -19.857  0.0000E+00  0.0000E+00  0.0000E+00  0.0000E+00  0.0000E+00  0.0000E+00
    -19.755  0.0000E+00  0.0000E+00  0.0000E+00  0.0000E+00  0.0000E+00  0.0000E+00
    -19.654  0.0000E+00  0.0000E+00  0.0000E+00  0.0000E+00  0.0000E+00  0.0000E+00
    -19.552  0.0000E+00  0.0000E+00  0.0000E+00  0.0000E+00  0.0000E+00  0.0000E+00
    -19.451  0.0000E+00  0.0000E+00  0.0000E+00  0.0000E+00  0.0000E+00  0.0000E+00
    -19.349  0.0000E+00  0.0000E+00  0.0000E+00  0.0000E+00  0.0000E+00  0.0000E+00
    -19.248  0.0000E+00  0.0000E+00  0.0000E+00  0.0000E+00  0.0000E+00  0.0000E+00
    -19.146  0.0000E+00  0.0000E+00  0.0000E+00  0.0000E+00  0.0000E+00  0.0000E+00
    -19.045  0.0000E+00  0.0000E+00  0.0000E+00  0.0000E+00  0.0000E+00  0.0000E+00
    -18.944  0.0000E+00  0.0000E+00  0.0000E+00  0.0000E+00  0.0000E+00  0.0000E+00
    -18.842  0.0000E+00  0.0000E+00  0.0000E+00  0.0000E+00  0.0000E+00  0.0000E+00
    -18.741  0.0000E+00  0.0000E+00  0.0000E+00  0.0000E+00  0.0000E+00  0.0000E+00
    -18.639  0.0000E+00  0.0000E+00  0.0000E+00  0.0000E+00  0.0000E+00  0.0000E+00
    -18.538  0.0000E+00  0.0000E+00  0.0000E+00  0.0000E+00  0.0000E+00  0.0000E+00
    -18.436  0.0000E+00  0.0000E+00  0.0000E+00  0.0000E+00  0.0000E+00  0.0000E+00
    -18.335  0.0000E+00  0.0000E+00  0.0000E+00  0.0000E+00  0.0000E+00  0.0000E+00
    -18.233  0.0000E+00  0.0000E+00  0.0000E+00  0.0000E+00  0.0000E+00  0.0000E+00
    -18.132  0.0000E+00  0.0000E+00  0.0000E+00  0.0000E+00  0.0000E+00  0.0000E+00
    -18.030  0.0000E+00  0.0000E+00  0.0000E+00  0.0000E+00  0.0000E+00  0.0000E+00
    -17.929  0.0000E+00  0.0000E+00  0.0000E+00  0.0000E+00  0.0000E+00  0.0000E+00
    -17.827  0.0000E+00  0.0000E+00  0.0000E+00  0.0000E+00  0.0000E+00  0.0000E+00
    -17.726  0.0000E+00  0.0000E+00  0.0000E+00  0.0000E+00  0.0000E+00  0.0000E+00
    -17.624  0.0000E+00  0.0000E+00  0.0000E+00  0.0000E+00  0.0000E+00  0.0000E+00
    -17.523  0.0000E+00  0.0000E+00  0.0000E+00  0.0000E+00  0.0000E+00  0.0000E+00
    -17.421  0.0000E+00  0.0000E+00  0.0000E+00  0.0000E+00  0.0000E+00  0.0000E+00
    -17.320  0.0000E+00  0.0000E+00  0.0000E+00  0.0000E+00  0.0000E+00  0.0000E+00
    -17.218  0.0000E+00  0.0000E+00  0.0000E+00  0.0000E+00  0.0000E+00  0.0000E+00
    -17.117  0.0000E+00  0.0000E+00  0.0000E+00  0.0000E+00  0.0000E+00  0.0000E+00
    -17.015  0.0000E+00  0.0000E+00  0.0000E+00  0.0000E+00  0.0000E+00  0.0000E+00
    -16.914  0.0000E+00  0.0000E+00  0.0000E+00  0.0000E+00  0.0000E+00  0.0000E+00
    -16.812  0.0000E+00  0.0000E+00  0.0000E+00  0.0000E+00  0.0000E+00  0.0000E+00
    -16.711  0.0000E+00  0.0000E+00  0.0000E+00  0.0000E+00  0.0000E+00  0.0000E+00
    -16.609  0.0000E+00  0.0000E+00  0.0000E+00  0.0000E+00  0.0000E+00  0.0000E+00
    -16.508  0.0000E+00  0.0000E+00  0.0000E+00  0.0000E+00  0.0000E+00  0.0000E+00
    -16.406  0.0000E+00  0.0000E+00  0.0000E+00  0.0000E+00  0.0000E+00  0.0000E+00
    -16.305  0.0000E+00  0.0000E+00  0.0000E+00  0.0000E+00  0.0000E+00  0.0000E+00
    -16.203  0.0000E+00  0.0000E+00  0.0000E+00  0.0000E+00  0.0000E+00  0.0000E+00
    -16.102  0.0000E+00  0.0000E+00  0.0000E+00  0.0000E+00  0.0000E+00  0.0000E+00
    -16.000  0.0000E+00  0.0000E+00  0.0000E+00  0.0000E+00  0.0000E+00  0.0000E+00
    -15.899  0.0000E+00  0.0000E+00  0.0000E+00  0.0000E+00  0.0000E+00  0.0000E+00
    -15.797  0.0000E+00  0.0000E+00  0.0000E+00  0.0000E+00  0.0000E+00  0.0000E+00
    -15.696  0.0000E+00  0.0000E+00  0.0000E+00  0.0000E+00  0.0000E+00  0.0000E+00
    -15.594  0.0000E+00  0.0000E+00  0.0000E+00  0.0000E+00  0.0000E+00  0.0000E+00
    -15.493  0.0000E+00  0.0000E+00  0.0000E+00  0.0000E+00  0.0000E+00  0.0000E+00
    -15.391  0.0000E+00  0.0000E+00  0.0000E+00  0.0000E+00  0.0000E+00  0.0000E+00
    -15.290  0.0000E+00  0.0000E+00  0.0000E+00  0.0000E+00  0.0000E+00  0.0000E+00
    -15.188  0.0000E+00  0.0000E+00  0.0000E+00  0.0000E+00  0.0000E+00  0.0000E+00
    -15.087  0.0000E+00  0.0000E+00  0.0000E+00  0.0000E+00  0.0000E+00  0.0000E+00
    -14.985  0.0000E+00  0.0000E+00  0.0000E+00  0.0000E+00  0.0000E+00  0.0000E+00
    -14.884  0.0000E+00  0.0000E+00  0.0000E+00  0.0000E+00  0.0000E+00  0.0000E+00
    -14.782  0.0000E+00  0.0000E+00  0.0000E+00  0.0000E+00  0.0000E+00  0.0000E+00
    -14.681  0.0000E+00  0.0000E+00  0.0000E+00  0.0000E+00  0.0000E+00  0.0000E+00
    -14.579  0.0000E+00  0.0000E+00  0.0000E+00  0.0000E+00  0.0000E+00  0.0000E+00
    -14.478  0.0000E+00  0.0000E+00  0.0000E+00  0.0000E+00  0.0000E+00  0.0000E+00
    -14.377  0.0000E+00  0.0000E+00  0.0000E+00  0.0000E+00  0.0000E+00  0.0000E+00
    -14.275  0.0000E+00  0.0000E+00  0.0000E+00  0.0000E+00  0.0000E+00  0.0000E+00
    -14.174  0.0000E+00  0.0000E+00  0.0000E+00  0.0000E+00  0.0000E+00  0.0000E+00
    -14.072  0.0000E+00  0.0000E+00  0.0000E+00  0.0000E+00  0.0000E+00  0.0000E+00
    -13.971  0.0000E+00  0.0000E+00  0.0000E+00  0.0000E+00  0.0000E+00  0.0000E+00
    -13.869  0.0000E+00  0.0000E+00  0.0000E+00  0.0000E+00  0.0000E+00  0.0000E+00
    -13.768  0.0000E+00  0.0000E+00  0.0000E+00  0.0000E+00  0.0000E+00  0.0000E+00
    -13.666  0.0000E+00  0.0000E+00  0.0000E+00  0.0000E+00  0.0000E+00  0.0000E+00
    -13.565  0.0000E+00  0.0000E+00  0.0000E+00  0.0000E+00  0.0000E+00  0.0000E+00
    -13.463  0.0000E+00  0.0000E+00  0.0000E+00  0.0000E+00  0.0000E+00  0.0000E+00
    -13.362  0.0000E+00  0.0000E+00  0.0000E+00  0.0000E+00  0.0000E+00  0.0000E+00
    -13.260  0.0000E+00  0.0000E+00  0.0000E+00  0.0000E+00  0.0000E+00  0.0000E+00