    1    1   50    2
  0.1000000E+04  0.1000000E-08  0.1000000E-08  0.1000000E-08  0.5000000E-15
  1.000000000000000E-004
  CAR 
 O-Spin                                  
      6      1      8
 
  0.0000000E+00  0.0000000E+00  0.0000000E+00  0.1000000E+01
    1      -25.164123    -21.915933   1.000000   1.000000
    2      -10.158703     -7.130377   1.000000   0.333333
    3      -10.158703     -7.130377   1.000000   0.333333
    4      -10.158703     -7.130377   1.000000   0.333333
    5       -0.318887     -0.269233   0.000000   0.000000
    6        0.944029      1.179777   0.000000   0.000000
    7        1.253246      1.282571   0.000000   0.000000
    8        1.253247      1.282574   0.000000   0.000000
