 running on    4 total cores
 distrk:  each k-point on    4 cores,    1 groups
 distr:  one band on    4 cores,    1 groups
 using from now: INCAR     
 vasp.5.4.4.18Apr17-6-g9f103f2a35 (build May 18 2018 14:42:58) complex          
  
 POSCAR found type information on POSCAR  O 
 POSCAR found :  1 types and       1 ions
 scaLAPACK will be used
 LDA part: xc-table for Pade appr. of Perdew
 POSCAR, INCAR and KPOINTS ok, starting setup
 FFT: planning ...
 WAVECAR not read
 entering main loop
       N       E                     dE             d eps       ncg     rms          rms(c)
DAV:   1     0.438459202770E+02    0.43846E+02   -0.81303E+02    32   0.256E+02
DAV:   2     0.972203213466E+01   -0.34124E+02   -0.33504E+02    64   0.506E+01
DAV:   3    -0.615812233750E+00   -0.10338E+02   -0.91649E+01    32   0.493E+01
DAV:   4    -0.117127599097E+01   -0.55546E+00   -0.52406E+00    32   0.124E+01
DAV:   5    -0.117644401420E+01   -0.51680E-02   -0.51640E-02    32   0.115E+00    0.653E+00
DAV:   6     0.484750591829E+00    0.16612E+01   -0.35229E+00    32   0.942E+00    0.151E+00
DAV:   7    -0.817172952997E+00   -0.13019E+01   -0.73920E-01    32   0.398E+00    0.430E-01
DAV:   8    -0.129430438447E+01   -0.47713E+00   -0.13731E-01    32   0.173E+00    0.275E-01
DAV:   9    -0.141068154198E+01   -0.11638E+00   -0.84659E-03    40   0.556E-01    0.153E-01
DAV:  10    -0.158290655877E+01   -0.17223E+00   -0.36124E-02    32   0.877E-01    0.984E-02
DAV:  11    -0.158103140440E+01    0.18752E-02   -0.11435E-03    32   0.187E-01    0.276E-02
DAV:  12    -0.158588633153E+01   -0.48549E-02   -0.42487E-04    32   0.908E-02    0.942E-03
DAV:  13    -0.158687740448E+01   -0.99107E-03   -0.15866E-04    32   0.491E-02    0.671E-03
DAV:  14    -0.158736309413E+01   -0.48569E-03   -0.12184E-05    32   0.173E-02    0.344E-03
DAV:  15    -0.158740623298E+01   -0.43139E-04   -0.66166E-06    32   0.113E-02
   1 F= -.15874062E+01 E0= -.15625156E+01  d E =-.158741E+01  mag=     1.9998
 curvature:   0.00 expect dE= 0.000E+00 dE for cont linesearch  0.000E+00
 trial: gam= 0.00000 g(F)=  0.000E+00 g(S)=  0.000E+00 ort = 0.000E+00 (trialstep = 0.100E+01)
 search vector abs. value=  0.100E-09
 reached required accuracy - stopping structural energy minimisation
 writing wavefunctions
