<?xml version="1.0" encoding="ISO-8859-1"?>
<modeling>
 <generator>
  <i name="program" type="string">vasp </i>
  <i name="version" type="string">5.4.4.18Apr17-6-g9f103f2a35  </i>
  <i name="subversion" type="string">(build May 18 2018 14:42:58) complex            parallel </i>
  <i name="platform" type="string">LinuxIFC </i>
  <i name="date" type="string">2020 06 17 </i>
  <i name="time" type="string">21:22:51 </i>
 </generator>
 <incar>
  <i type="string" name="SYSTEM"> O-Spin</i>
  <i type="string" name="PREC">normal</i>
  <i type="int" name="ISPIN">     2</i>
  <i type="int" name="IBRION">     2</i>
  <i name="EDIFFG">     -0.01000000</i>
  <i type="int" name="NSW">    50</i>
  <i name="ENCUT">    400.00000000</i>
  <v name="RWIGS">      0.82000000</v>
  <v name="MAGMOM">      1.00000000</v>
  <v type="int" name="KPOINT_BSE">    -1     0     0     0</v>
 </incar>
 <structure name="primitive_cell" >
  <crystal>
   <varray name="basis" >
    <v>      10.00000000       0.00000000       0.00000000 </v>
    <v>       0.00000000      10.00000000       0.00000000 </v>
    <v>       0.00000000       0.00000000      10.00000000 </v>
   </varray>
   <i name="volume">   1000.00000000 </i>
   <varray name="rec_basis" >
    <v>       0.10000000       0.00000000       0.00000000 </v>
    <v>       0.00000000       0.10000000       0.00000000 </v>
    <v>       0.00000000       0.00000000       0.10000000 </v>
   </varray>
  </crystal>
  <varray name="positions" >
   <v>       0.00000000       0.00000000       0.00000000 </v>
  </varray>
 </structure>
 <varray name="primitive_index" >
  <v type="int" >        1 </v>
 </varray>
 <kpoints>
  <generation param="Gamma">
   <v type="int" name="divisions">       1        1        1 </v>
   <v name="usershift">      0.00000000       0.00000000       0.00000000 </v>
   <v name="genvec1">      1.00000000       0.00000000       0.00000000 </v>
   <v name="genvec2">      0.00000000       1.00000000       0.00000000 </v>
   <v name="genvec3">      0.00000000       0.00000000       1.00000000 </v>
   <v name="shift">      0.00000000       0.00000000       0.00000000 </v>
  </generation>
  <varray name="kpointlist" >
   <v>       0.00000000       0.00000000       0.00000000 </v>
  </varray>
  <varray name="weights" >
   <v>       1.00000000 </v>
  </varray>
 </kpoints>
 <parameters>
  <separator name="general" >
   <i type="string" name="SYSTEM">O-Spin</i>
   <i type="logical" name="LCOMPAT"> F  </i>
  </separator>
  <separator name="electronic" >
   <i type="string" name="PREC">normal</i>
   <i name="ENMAX">    400.00000000</i>
   <i name="ENAUG">    605.39200000</i>
   <i name="EDIFF">      0.00010000</i>
   <i type="int" name="IALGO">    38</i>
   <i type="int" name="IWAVPR">    11</i>
   <i type="int" name="NBANDS">     8</i>
   <i name="NELECT">      6.00000000</i>
   <i type="int" name="TURBO">     0</i>
   <i type="int" name="IRESTART">     0</i>
   <i type="int" name="NREBOOT">     0</i>
   <i type="int" name="NMIN">     0</i>
   <i name="EREF">      0.00000000</i>
   <separator name="electronic smearing" >
    <i type="int" name="ISMEAR">     1</i>
    <i name="SIGMA">      0.20000000</i>
    <i name="KSPACING">      0.50000000</i>
    <i type="logical" name="KGAMMA"> T  </i>
   </separator>
   <separator name="electronic projectors" >
    <i type="logical" name="LREAL"> F  </i>
    <v name="ROPT">      0.00000000</v>
    <i type="int" name="LMAXPAW">  -100</i>
    <i type="int" name="LMAXMIX">     2</i>
    <i type="logical" name="NLSPLINE"> F  </i>
   </separator>
   <separator name="electronic startup" >
    <i type="int" name="ISTART">     0</i>
    <i type="int" name="ICHARG">     2</i>
    <i type="int" name="INIWAV">     1</i>
   </separator>
   <separator name="electronic spin" >
    <i type="int" name="ISPIN">     2</i>
    <i type="logical" name="LNONCOLLINEAR"> F  </i>
    <v name="MAGMOM">      1.00000000</v>
    <i name="NUPDOWN">     -1.00000000</i>
    <i type="logical" name="LSORBIT"> F  </i>
    <v name="SAXIS">      0.00000000      0.00000000      1.00000000</v>
    <i type="logical" name="LSPIRAL"> F  </i>
    <v name="QSPIRAL">      0.00000000      0.00000000      0.00000000</v>
    <i type="logical" name="LZEROZ"> F  </i>
   </separator>
   <separator name="electronic exchange-correlation" >
    <i type="logical" name="LASPH"> F  </i>
    <i type="logical" name="LMETAGGA"> F  </i>
   </separator>
   <separator name="electronic convergence" >
    <i type="int" name="NELM">    60</i>
    <i type="int" name="NELMDL">    -5</i>
    <i type="int" name="NELMIN">     2</i>
    <i name="ENINI">    400.00000000</i>
    <separator name="electronic convergence detail" >
     <i type="logical" name="LDIAG"> T  </i>
     <i type="logical" name="LSUBROT"> F  </i>
     <i name="WEIMIN">      0.00100000</i>
     <i name="EBREAK">      0.00000313</i>
     <i name="DEPER">      0.30000000</i>
     <i type="int" name="NRMM">     4</i>
     <i name="TIME">      0.40000000</i>
    </separator>
   </separator>
   <separator name="electronic mixer" >
    <i name="AMIX">      0.40000000</i>
    <i name="BMIX">      1.00000000</i>
    <i name="AMIN">      0.10000000</i>
    <i name="AMIX_MAG">      1.60000000</i>
    <i name="BMIX_MAG">      1.00000000</i>
    <separator name="electronic mixer details" >
     <i type="int" name="IMIX">     4</i>
     <i type="logical" name="MIXFIRST"> F  </i>
     <i type="int" name="MAXMIX">   -45</i>
     <i name="WC">    100.00000000</i>
     <i type="int" name="INIMIX">     1</i>
     <i type="int" name="MIXPRE">     1</i>
     <i type="int" name="MREMOVE">     5</i>
    </separator>
   </separator>
   <separator name="electronic dipolcorrection" >
    <i type="logical" name="LDIPOL"> F  </i>
    <i type="logical" name="LMONO"> F  </i>
    <i type="int" name="IDIPOL">     0</i>
    <i name="EPSILON">      1.00000000</i>
    <v name="DIPOL">   -100.00000000   -100.00000000   -100.00000000</v>
    <i name="EFIELD">      0.00000000</i>
   </separator>
  </separator>
  <separator name="grids" >
   <i type="int" name="NGX">    50</i>
   <i type="int" name="NGY">    50</i>
   <i type="int" name="NGZ">    50</i>
   <i type="int" name="NGXF">   100</i>
   <i type="int" name="NGYF">   100</i>
   <i type="int" name="NGZF">   100</i>
   <i type="logical" name="ADDGRID"> F  </i>
  </separator>
  <separator name="ionic" >
   <i type="int" name="NSW">    50</i>
   <i type="int" name="IBRION">     2</i>
   <i type="int" name="MDALGO">     0</i>
   <i type="int" name="ISIF">     2</i>
   <i name="PSTRESS">      0.00000000</i>
   <i name="EDIFFG">     -0.01000000</i>
   <i type="int" name="NFREE">     1</i>
   <i name="POTIM">      0.50000000</i>
   <i name="SMASS">     -3.00000000</i>
   <i name="SCALEE">      1.00000000</i>
  </separator>
  <separator name="ionic md" >
   <i name="TEBEG">      0.00010000</i>
   <i name="TEEND">      0.00010000</i>
   <i type="int" name="NBLOCK">     1</i>
   <i type="int" name="KBLOCK">    50</i>
   <i type="int" name="NPACO">   256</i>
   <i name="APACO">     16.00000000</i>
  </separator>
  <separator name="symmetry" >
   <i type="int" name="ISYM">     2</i>
   <i name="SYMPREC">      0.00001000</i>
  </separator>
  <separator name="dos" >
   <i type="int" name="LORBIT">     0</i>
   <v name="RWIGS">      0.82000000</v>
   <i type="int" name="NEDOS">   301</i>
   <i name="EMIN">     10.00000000</i>
   <i name="EMAX">    -10.00000000</i>
   <i name="EFERMI">      0.00000000</i>
  </separator>
  <separator name="writing" >
   <i type="int" name="NWRITE">     2</i>
   <i type="logical" name="LWAVE"> T  </i>
   <i type="logical" name="LDOWNSAMPLE"> F  </i>
   <i type="logical" name="LCHARG"> T  </i>
   <i type="logical" name="LPARD"> F  </i>
   <i type="logical" name="LVTOT"> F  </i>
   <i type="logical" name="LVHAR"> F  </i>
   <i type="logical" name="LELF"> F  </i>
   <i type="logical" name="LOPTICS"> F  </i>
   <v name="STM">      0.00000000      0.00000000      0.00000000      0.00000000      0.00000000      0.00000000      0.00000000</v>
  </separator>
  <separator name="performance" >
   <i type="int" name="NPAR">     1</i>
   <i type="int" name="NSIM">     4</i>
   <i type="int" name="NBLK">    -1</i>
   <i type="logical" name="LPLANE"> T  </i>
   <i type="logical" name="LSCALAPACK"> T  </i>
   <i type="logical" name="LSCAAWARE"> F  </i>
   <i type="logical" name="LSCALU"> F  </i>
   <i type="logical" name="LASYNC"> F  </i>
   <i type="logical" name="LORBITALREAL"> F  </i>
  </separator>
  <separator name="miscellaneous" >
   <i type="int" name="IDIOT">     3</i>
   <i type="int" name="ISPECIAL">     0</i>
   <i type="logical" name="LMUSIC"> F  </i>
   <v name="POMASS">     16.00000000</v>
   <v name="DARWINR">      0.00000000</v>
   <v name="DARWINV">      1.00000000</v>
   <i type="logical" name="LCORR"> T  </i>
  </separator>
  <i type="logical" name="GGA_COMPAT"> T  </i>
  <i type="logical" name="LBERRY"> F  </i>
  <i type="int" name="ICORELEVEL">     0</i>
  <i type="logical" name="LDAU"> F  </i>
  <i type="int" name="I_CONSTRAINED_M">     0</i>
  <separator name="electronic exchange-correlation" >
   <i type="string" name="GGA">--</i>
   <i type="int" name="VOSKOWN">     0</i>
   <i type="logical" name="LHFCALC"> F  </i>
   <i type="string" name="PRECFOCK"></i>
   <i type="logical" name="LSYMGRAD"> F  </i>
   <i type="logical" name="LHFONE"> F  </i>
   <i type="logical" name="LRHFCALC"> F  </i>
   <i type="logical" name="LTHOMAS"> F  </i>
   <i type="logical" name="LMODELHF"> F  </i>
   <i name="ENCUT4O">     -1.00000000</i>
   <i type="int" name="EXXOEP">     0</i>
   <i type="int" name="FOURORBIT">     0</i>
   <i name="AEXX">      0.00000000</i>
   <i name="HFALPHA">      0.00000000</i>
   <i name="MCALPHA">      0.00000000</i>
   <i name="ALDAX">      1.00000000</i>
   <i name="AGGAX">      1.00000000</i>
   <i name="ALDAC">      1.00000000</i>
   <i name="AGGAC">      1.00000000</i>
   <i type="int" name="NKREDX">     1</i>
   <i type="int" name="NKREDY">     1</i>
   <i type="int" name="NKREDZ">     1</i>
   <i type="logical" name="SHIFTRED"> F  </i>
   <i type="logical" name="ODDONLY"> F  </i>
   <i type="logical" name="EVENONLY"> F  </i>
   <i type="int" name="LMAXFOCK">     0</i>
   <i type="int" name="NMAXFOCKAE">     0</i>
   <i type="logical" name="LFOCKAEDFT"> F  </i>
   <i name="HFSCREEN">      0.00000000</i>
   <i name="HFSCREENC">      0.00000000</i>
   <i type="int" name="NBANDSGWLOW">     0</i>
  </separator>
  <separator name="vdW DFT" >
   <i type="logical" name="LUSE_VDW"> F  </i>
   <i name="Zab_VDW">     -0.84910000</i>
   <i name="PARAM1">      0.12340000</i>
   <i name="PARAM2">      1.00000000</i>
   <i name="PARAM3">      0.00000000</i>
  </separator>
  <separator name="model GW" >
   <i type="int" name="MODEL_GW">     0</i>
   <i name="MODEL_EPS0">    600.00000000</i>
   <i name="MODEL_ALPHA">      1.00000000</i>
  </separator>
  <separator name="linear response parameters" >
   <i type="logical" name="LEPSILON"> F  </i>
   <i type="logical" name="LRPA"> F  </i>
   <i type="logical" name="LNABLA"> F  </i>
   <i type="logical" name="LVEL"> F  </i>
   <i type="int" name="KINTER">     0</i>
   <i name="CSHIFT">      0.10000000</i>
   <i name="OMEGAMAX">     -1.00000000</i>
   <i name="DEG_THRESHOLD">      0.00200000</i>
   <i name="RTIME">     -0.10000000</i>
   <i name="WPLASMAI">      0.00000000</i>
   <v name="DFIELD">      0.00000000      0.00000000      0.00000000</v>
   <v name="WPLASMA">      0.00000000      0.00000000      0.00000000      0.00000000      0.00000000      0.00000000      0.00000000      0.00000000      0.00000000</v>
  </separator>
  <separator name="orbital magnetization" >
   <i type="logical" name="NUCIND"> F  </i>
   <v name="MAGPOS">      0.00000000      0.00000000      0.00000000</v>
   <i type="logical" name="LNICSALL"> T  </i>
   <i type="logical" name="ORBITALMAG"> F  </i>
   <i type="logical" name="LMAGBLOCH"> F  </i>
   <i type="logical" name="LCHIMAG"> F  </i>
   <i type="logical" name="LGAUGE"> T  </i>
   <i type="int" name="MAGATOM">     0</i>
   <v name="MAGDIPOL">      0.00000000      0.00000000      0.00000000</v>
   <v name="AVECCONST">      0.00000000      0.00000000      0.00000000</v>
  </separator>
  <separator name="response functions" >
   <i type="logical" name="LADDER"> F  </i>
   <i type="logical" name="LRPAFORCE"> F  </i>
   <i type="logical" name="LFXC"> F  </i>
   <i type="logical" name="LHARTREE"> T  </i>
   <i type="int" name="IBSE">     0</i>
   <v type="int" name="KPOINT">    -1     0     0     0</v>
   <i type="logical" name="LTCTE"> F  </i>
   <i type="logical" name="LTETE"> F  </i>
   <i type="logical" name="LTRIPLET"> F  </i>
   <i type="logical" name="LFXCEPS"> F  </i>
   <i type="logical" name="LFXHEG"> F  </i>
   <i type="int" name="NATURALO">     2</i>
   <i type="logical" name="L2ORDER"> F  </i>
   <i type="logical" name="LMP2LT"> F  </i>
   <i type="logical" name="LUSEW"> F  </i>
   <i name="ENCUTGW">     -2.00000000</i>
   <i name="ENCUTGWSOFT">     -2.00000000</i>
   <i name="ENCUTLF">     -1.00000000</i>
   <i type="int" name="LMAXMP2">    -1</i>
   <i name="SCISSOR">      0.00000000</i>
   <i type="int" name="NOMEGA">     0</i>
   <i type="int" name="NOMEGAR">     0</i>
   <i type="int" name="NBANDSGW">    -1</i>
   <i type="int" name="NBANDSO">    -1</i>
   <i type="int" name="NBANDSV">    -1</i>
   <i type="int" name="NELM">     1</i>
   <i type="int" name="NELMHF">     1</i>
   <i type="int" name="DIM">     3</i>
   <i type="int" name="ANTIRES">     0</i>
   <i name="OMEGAMAX">    -30.00000000</i>
   <i name="OMEGAMIN">    -30.00000000</i>
   <i name="OMEGATL">   -200.00000000</i>
   <i type="int" name="OMEGAGRID">   140</i>
   <i name="CSHIFT">     -0.10000000</i>
   <i type="logical" name="SELFENERGY"> F  </i>
   <i type="logical" name="LSPECTRAL"> F  </i>
   <i type="logical" name="LSPECTRALGW"> F  </i>
   <i type="logical" name="LSINGLES"> F  </i>
   <i type="logical" name="LFERMIGW"> F  </i>
   <i type="logical" name="ODDONLYGW"> F  </i>
   <i type="logical" name="EVENONLYGW"> F  </i>
   <i type="int" name="NKREDLFX">     1</i>
   <i type="int" name="NKREDLFY">     1</i>
   <i type="int" name="NKREDLFZ">     1</i>
   <i type="int" name="MAXMEM">  2800</i>
   <i type="int" name="TELESCOPE">     0</i>
   <i type="int" name="TAUPAR">     1</i>
   <i type="int" name="OMEGAPAR">    -1</i>
   <i name="LAMBDA">      1.00000000</i>
  </separator>
  <separator name="External order field" >
   <i name="OFIELD_KAPPA">      0.00000000</i>
   <v name="OFIELD_K">      0.00000000      0.00000000      0.00000000</v>
   <i name="OFIELD_Q6_NEAR">      0.00000000</i>
   <i name="OFIELD_Q6_FAR">      0.00000000</i>
   <i name="OFIELD_A">      0.00000000</i>
  </separator>
 </parameters>
 <atominfo>
  <atoms>       1 </atoms>
  <types>       1 </types>
  <array name="atoms" >
   <dimension dim="1">ion</dimension>
   <field type="string">element</field>
   <field type="int">atomtype</field>
   <set>
    <rc><c>O </c><c>   1</c></rc>
   </set>
  </array>
  <array name="atomtypes" >
   <dimension dim="1">type</dimension>
   <field type="int">atomspertype</field>
   <field type="string">element</field>
   <field>mass</field>
   <field>valence</field>
   <field type="string">pseudopotential</field>
   <set>
    <rc><c>   1</c><c>O </c><c>     16.00000000</c><c>      6.00000000</c><c> PAW_PBE O 08Apr2002                    </c></rc>
   </set>
  </array>
 </atominfo>
 <structure name="initialpos" >
  <crystal>
   <varray name="basis" >
    <v>      10.00000000       0.00000000       0.00000000 </v>
    <v>       0.00000000      10.00000000       0.00000000 </v>
    <v>       0.00000000       0.00000000      10.00000000 </v>
   </varray>
   <i name="volume">   1000.00000000 </i>
   <varray name="rec_basis" >
    <v>       0.10000000       0.00000000       0.00000000 </v>
    <v>       0.00000000       0.10000000       0.00000000 </v>
    <v>       0.00000000       0.00000000       0.10000000 </v>
   </varray>
  </crystal>
  <varray name="positions" >
   <v>       0.00000000       0.00000000       0.00000000 </v>
  </varray>
 </structure>
 <calculation>
  <scstep>
   <time name="dav">    0.05    0.05</time>
   <time name="total">    0.32    0.38</time>
   <energy>
    <i name="alphaZ">      0.13893267 </i>
    <i name="ewald">    -73.54166402 </i>
    <i name="hartreedc">   -299.66407486 </i>
    <i name="XCdc">     26.26291542 </i>
    <i name="pawpsdc">    245.86419871 </i>
    <i name="pawaedc">   -247.70903455 </i>
    <i name="eentropy">     -0.04861578 </i>
    <i name="bandstr">    -39.71993334 </i>
    <i name="atom">    432.26319604 </i>
    <i name="e_fr_energy">     43.84592028 </i>
    <i name="e_wo_entrp">     43.89453606 </i>
    <i name="e_0_energy">     43.86212554 </i>
   </energy>
  </scstep>
  <scstep>
   <time name="dav">    0.07    0.07</time>
   <time name="total">    0.07    0.07</time>
   <energy>
    <i name="e_fr_energy">      9.72203213 </i>
    <i name="e_wo_entrp">      9.71449148 </i>
    <i name="e_0_energy">      9.71951858 </i>
   </energy>
  </scstep>
  <scstep>
   <time name="dav">    0.04    0.04</time>
   <time name="total">    0.04    0.04</time>
   <energy>
    <i name="e_fr_energy">     -0.61581223 </i>
    <i name="e_wo_entrp">     -0.57320327 </i>
    <i name="e_0_energy">     -0.60160925 </i>
   </energy>
  </scstep>
  <scstep>
   <time name="dav">    0.04    0.04</time>
   <time name="total">    0.04    0.04</time>
   <energy>
    <i name="e_fr_energy">     -1.17127599 </i>
    <i name="e_wo_entrp">     -1.09660838 </i>
    <i name="e_0_energy">     -1.14638679 </i>
   </energy>
  </scstep>
  <scstep>
   <time name="dav">    0.04    0.04</time>
   <time name="total">    0.08    0.08</time>
   <energy>
    <i name="e_fr_energy">     -1.17644401 </i>
    <i name="e_wo_entrp">     -1.10177222 </i>
    <i name="e_0_energy">     -1.15155342 </i>
   </energy>
  </scstep>
  <scstep>
   <time name="dav">    0.05    0.05</time>
   <time name="total">    0.36    0.36</time>
   <energy>
    <i name="e_fr_energy">      0.48475059 </i>
    <i name="e_wo_entrp">      0.55942229 </i>
    <i name="e_0_energy">      0.50964116 </i>
   </energy>
  </scstep>
  <scstep>
   <time name="dav">    0.05    0.05</time>
   <time name="total">    0.36    0.36</time>
   <energy>
    <i name="e_fr_energy">     -0.81717295 </i>
    <i name="e_wo_entrp">     -0.74250116 </i>
    <i name="e_0_energy">     -0.79228236 </i>
   </energy>
  </scstep>
  <scstep>
   <time name="dav">    0.05    0.05</time>
   <time name="total">    0.37    0.37</time>
   <energy>
    <i name="e_fr_energy">     -1.29430438 </i>
    <i name="e_wo_entrp">     -1.21963259 </i>
    <i name="e_0_energy">     -1.26941379 </i>
   </energy>
  </scstep>
  <scstep>
   <time name="dav">    0.05    0.05</time>
   <time name="total">    0.36    0.37</time>
   <energy>
    <i name="e_fr_energy">     -1.41068154 </i>
    <i name="e_wo_entrp">     -1.33600974 </i>
    <i name="e_0_energy">     -1.38579094 </i>
   </energy>
  </scstep>
  <scstep>
   <time name="dav">    0.05    0.05</time>
   <time name="total">    0.36    0.37</time>
   <energy>
    <i name="e_fr_energy">     -1.58290656 </i>
    <i name="e_wo_entrp">     -1.50823476 </i>
    <i name="e_0_energy">     -1.55801596 </i>
   </energy>
  </scstep>
  <scstep>
   <time name="dav">    0.04    0.04</time>
   <time name="total">    0.36    0.36</time>
   <energy>
    <i name="e_fr_energy">     -1.58103140 </i>
    <i name="e_wo_entrp">     -1.50635961 </i>
    <i name="e_0_energy">     -1.55614080 </i>
   </energy>
  </scstep>
  <scstep>
   <time name="dav">    0.04    0.04</time>
   <time name="total">    0.36    0.36</time>
   <energy>
    <i name="e_fr_energy">     -1.58588633 </i>
    <i name="e_wo_entrp">     -1.51121453 </i>
    <i name="e_0_energy">     -1.56099573 </i>
   </energy>
  </scstep>
  <scstep>
   <time name="dav">    0.04    0.04</time>
   <time name="total">    0.36    0.37</time>
   <energy>
    <i name="e_fr_energy">     -1.58687740 </i>
    <i name="e_wo_entrp">     -1.51220561 </i>
    <i name="e_0_energy">     -1.56198681 </i>
   </energy>
  </scstep>
  <scstep>
   <time name="dav">    0.05    0.05</time>
   <time name="total">    0.37    0.37</time>
   <energy>
    <i name="e_fr_energy">     -1.58736309 </i>
    <i name="e_wo_entrp">     -1.51269130 </i>
    <i name="e_0_energy">     -1.56247249 </i>
   </energy>
  </scstep>
  <scstep>
   <time name="dav">    0.05    0.05</time>
   <time name="total">    0.32    0.32</time>
   <energy>
    <i name="alphaZ">      0.13893267 </i>
    <i name="ewald">    -73.54166402 </i>
    <i name="hartreedc">   -300.69007418 </i>
    <i name="XCdc">     26.80278154 </i>
    <i name="pawpsdc">    251.09026063 </i>
    <i name="pawaedc">   -252.88962437 </i>
    <i name="eentropy">     -0.07467180 </i>
    <i name="bandstr">    -84.68654276 </i>
    <i name="atom">    432.26319604 </i>
    <i name="e_fr_energy">     -1.58740623 </i>
    <i name="e_wo_entrp">     -1.51273443 </i>
    <i name="e_0_energy">     -1.56251563 </i>
   </energy>
  </scstep>
  <structure>
   <crystal>
    <varray name="basis" >
     <v>      10.00000000       0.00000000       0.00000000 </v>
     <v>       0.00000000      10.00000000       0.00000000 </v>
     <v>       0.00000000       0.00000000      10.00000000 </v>
    </varray>
    <i name="volume">   1000.00000000 </i>
    <varray name="rec_basis" >
     <v>       0.10000000       0.00000000       0.00000000 </v>
     <v>       0.00000000       0.10000000       0.00000000 </v>
     <v>       0.00000000       0.00000000       0.10000000 </v>
    </varray>
   </crystal>
   <varray name="positions" >
    <v>       0.00000000       0.00000000       0.00000000 </v>
   </varray>
  </structure>
  <varray name="forces" >
   <v>       0.00000000       0.00000000       0.00000000 </v>
  </varray>
  <varray name="stress" >
   <v>      -1.33101914      -0.00000000      -0.00000000 </v>
   <v>      -0.00000000      -1.33101914      -0.00000000 </v>
   <v>       0.00000000       0.00000000      -1.33101914 </v>
  </varray>
  <energy>
   <i name="e_fr_energy">     -1.58740623 </i>
   <i name="e_wo_entrp">     -1.56251563 </i>
   <i name="e_0_energy">     -0.07467180 </i>
  </energy>
  <time name="totalsc">    7.08    7.35</time>
  <eigenvalues>
   <array>
    <dimension dim="1">band</dimension>
    <dimension dim="2">kpoint</dimension>
    <dimension dim="3">spin</dimension>
    <field>eigene</field>
    <field>occ</field>
    <set>
     <set comment="spin 1">
      <set comment="kpoint 1">
       <r>  -25.1641    1.0000 </r>
       <r>  -10.1587    1.0000 </r>
       <r>  -10.1587    1.0000 </r>
       <r>  -10.1587    1.0000 </r>
       <r>   -0.3189    0.0000 </r>
       <r>    0.9440    0.0000 </r>
       <r>    1.2532    0.0000 </r>
       <r>    1.2532    0.0000 </r>
      </set>
     </set>
     <set comment="spin 2">
      <set comment="kpoint 1">
       <r>  -21.9159    1.0000 </r>
       <r>   -7.1304    0.3333 </r>
       <r>   -7.1304    0.3333 </r>
       <r>   -7.1304    0.3333 </r>
       <r>   -0.2692    0.0000 </r>
       <r>    1.1798    0.0000 </r>
       <r>    1.2826    0.0000 </r>
       <r>    1.2826    0.0000 </r>
      </set>
     </set>
    </set>
   </array>
  </eigenvalues>
  <separator name="orbital magnetization" >
   <v name="MAGDIPOLOUT">      0.00000000      0.00000000      0.00000000</v>
  </separator>
  <dos>
   <i name="efermi">     -7.17065702 </i>
   <total>
    <array>
     <dimension dim="1">gridpoints</dimension>
     <dimension dim="2">spin</dimension>
     <field>energy</field>
     <field>total</field>
     <field>integrated</field>
     <set>
      <set comment="spin 1">
       <r>   -27.1641     0.0000     0.0000 </r>
       <r>   -27.0626     0.0000     0.0000 </r>
       <r>   -26.9611     0.0000     0.0000 </r>
       <r>   -26.8597    -0.0000    -0.0000 </r>
       <r>   -26.7582    -0.0000    -0.0000 </r>
       <r>   -26.6567    -0.0000    -0.0000 </r>
       <r>   -26.5552    -0.0000    -0.0000 </r>
       <r>   -26.4537    -0.0000    -0.0000 </r>
       <r>   -26.3522    -0.0000    -0.0000 </r>
       <r>   -26.2507    -0.0000    -0.0000 </r>
       <r>   -26.1492    -0.0000    -0.0000 </r>
       <r>   -26.0477    -0.0000    -0.0000 </r>
       <r>   -25.9463    -0.0000    -0.0000 </r>
       <r>   -25.8448    -0.0001    -0.0000 </r>
       <r>   -25.7433    -0.0015    -0.0002 </r>
       <r>   -25.6418    -0.0169    -0.0019 </r>
       <r>   -25.5403    -0.0950    -0.0115 </r>
       <r>   -25.4388    -0.2087    -0.0327 </r>
       <r>   -25.3373     0.2724    -0.0051 </r>
       <r>   -25.2358     2.1891     0.2171 </r>
       <r>   -25.1343     4.0138     0.6245 </r>
       <r>   -25.0329     3.1454     0.9437 </r>
       <r>   -24.9314     0.8980     1.0348 </r>
       <r>   -24.8299    -0.1480     1.0198 </r>
       <r>   -24.7284    -0.1529     1.0043 </r>
       <r>   -24.6269    -0.0376     1.0005 </r>
       <r>   -24.5254    -0.0045     1.0000 </r>
       <r>   -24.4239    -0.0003     1.0000 </r>
       <r>   -24.3224    -0.0000     1.0000 </r>
       <r>   -24.2209    -0.0000     1.0000 </r>
       <r>   -24.1195    -0.0000     1.0000 </r>
       <r>   -24.0180    -0.0000     1.0000 </r>
       <r>   -23.9165    -0.0000     1.0000 </r>
       <r>   -23.8150     0.0000     1.0000 </r>
       <r>   -23.7135     0.0000     1.0000 </r>
       <r>   -23.6120     0.0000     1.0000 </r>
       <r>   -23.5105     0.0000     1.0000 </r>
       <r>   -23.4090     0.0000     1.0000 </r>
       <r>   -23.3075     0.0000     1.0000 </r>
       <r>   -23.2061     0.0000     1.0000 </r>
       <r>   -23.1046     0.0000     1.0000 </r>
       <r>   -23.0031     0.0000     1.0000 </r>
       <r>   -22.9016     0.0000     1.0000 </r>
       <r>   -22.8001     0.0000     1.0000 </r>
       <r>   -22.6986     0.0000     1.0000 </r>
       <r>   -22.5971     0.0000     1.0000 </r>
       <r>   -22.4956     0.0000     1.0000 </r>
       <r>   -22.3941     0.0000     1.0000 </r>
       <r>   -22.2927     0.0000     1.0000 </r>
       <r>   -22.1912     0.0000     1.0000 </r>
       <r>   -22.0897     0.0000     1.0000 </r>
       <r>   -21.9882     0.0000     1.0000 </r>
       <r>   -21.8867     0.0000     1.0000 </r>
       <r>   -21.7852     0.0000     1.0000 </r>
       <r>   -21.6837     0.0000     1.0000 </r>
       <r>   -21.5822     0.0000     1.0000 </r>
       <r>   -21.4807     0.0000     1.0000 </r>
       <r>   -21.3793     0.0000     1.0000 </r>
       <r>   -21.2778     0.0000     1.0000 </r>
       <r>   -21.1763     0.0000     1.0000 </r>
       <r>   -21.0748     0.0000     1.0000 </r>
       <r>   -20.9733     0.0000     1.0000 </r>
       <r>   -20.8718     0.0000     1.0000 </r>
       <r>   -20.7703     0.0000     1.0000 </r>
       <r>   -20.6688     0.0000     1.0000 </r>
       <r>   -20.5673     0.0000     1.0000 </r>
       <r>   -20.4658     0.0000     1.0000 </r>
       <r>   -20.3644     0.0000     1.0000 </r>
       <r>   -20.2629     0.0000     1.0000 </r>
       <r>   -20.1614     0.0000     1.0000 </r>
       <r>   -20.0599     0.0000     1.0000 </r>
       <r>   -19.9584     0.0000     1.0000 </r>
       <r>   -19.8569     0.0000     1.0000 </r>
       <r>   -19.7554     0.0000     1.0000 </r>
       <r>   -19.6539     0.0000     1.0000 </r>
       <r>   -19.5524     0.0000     1.0000 </r>
       <r>   -19.4510     0.0000     1.0000 </r>
       <r>   -19.3495     0.0000     1.0000 </r>
       <r>   -19.2480     0.0000     1.0000 </r>
       <r>   -19.1465     0.0000     1.0000 </r>
       <r>   -19.0450     0.0000     1.0000 </r>
       <r>   -18.9435     0.0000     1.0000 </r>
       <r>   -18.8420     0.0000     1.0000 </r>
       <r>   -18.7405     0.0000     1.0000 </r>
       <r>   -18.6390     0.0000     1.0000 </r>
       <r>   -18.5376     0.0000     1.0000 </r>
       <r>   -18.4361     0.0000     1.0000 </r>
       <r>   -18.3346     0.0000     1.0000 </r>
       <r>   -18.2331     0.0000     1.0000 </r>
       <r>   -18.1316     0.0000     1.0000 </r>
       <r>   -18.0301     0.0000     1.0000 </r>
       <r>   -17.9286     0.0000     1.0000 </r>
       <r>   -17.8271     0.0000     1.0000 </r>
       <r>   -17.7256     0.0000     1.0000 </r>
       <r>   -17.6242     0.0000     1.0000 </r>
       <r>   -17.5227     0.0000     1.0000 </r>
       <r>   -17.4212     0.0000     1.0000 </r>
       <r>   -17.3197     0.0000     1.0000 </r>
       <r>   -17.2182     0.0000     1.0000 </r>
       <r>   -17.1167     0.0000     1.0000 </r>
       <r>   -17.0152     0.0000     1.0000 </r>
       <r>   -16.9137     0.0000     1.0000 </r>
       <r>   -16.8122     0.0000     1.0000 </r>
       <r>   -16.7108     0.0000     1.0000 </r>
       <r>   -16.6093     0.0000     1.0000 </r>
       <r>   -16.5078     0.0000     1.0000 </r>
       <r>   -16.4063     0.0000     1.0000 </r>
       <r>   -16.3048     0.0000     1.0000 </r>
       <r>   -16.2033     0.0000     1.0000 </r>
       <r>   -16.1018     0.0000     1.0000 </r>
       <r>   -16.0003     0.0000     1.0000 </r>
       <r>   -15.8988     0.0000     1.0000 </r>
       <r>   -15.7974     0.0000     1.0000 </r>
       <r>   -15.6959     0.0000     1.0000 </r>
       <r>   -15.5944     0.0000     1.0000 </r>
       <r>   -15.4929     0.0000     1.0000 </r>
       <r>   -15.3914     0.0000     1.0000 </r>
       <r>   -15.2899     0.0000     1.0000 </r>
       <r>   -15.1884     0.0000     1.0000 </r>
       <r>   -15.0869     0.0000     1.0000 </r>
       <r>   -14.9854     0.0000     1.0000 </r>
       <r>   -14.8840     0.0000     1.0000 </r>
       <r>   -14.7825     0.0000     1.0000 </r>
       <r>   -14.6810     0.0000     1.0000 </r>
       <r>   -14.5795     0.0000     1.0000 </r>
       <r>   -14.4780     0.0000     1.0000 </r>
       <r>   -14.3765     0.0000     1.0000 </r>
       <r>   -14.2750     0.0000     1.0000 </r>
       <r>   -14.1735     0.0000     1.0000 </r>
       <r>   -14.0720     0.0000     1.0000 </r>
       <r>   -13.9706     0.0000     1.0000 </r>
       <r>   -13.8691     0.0000     1.0000 </r>
       <r>   -13.7676     0.0000     1.0000 </r>
       <r>   -13.6661     0.0000     1.0000 </r>
       <r>   -13.5646     0.0000     1.0000 </r>
       <r>   -13.4631     0.0000     1.0000 </r>
       <r>   -13.3616     0.0000     1.0000 </r>
       <r>   -13.2601     0.0000     1.0000 </r>
       <r>   -13.1586     0.0000     1.0000 </r>
       <r>   -13.0572     0.0000     1.0000 </r>
       <r>   -12.9557     0.0000     1.0000 </r>
       <r>   -12.8542     0.0000     1.0000 </r>
       <r>   -12.7527     0.0000     1.0000 </r>
       <r>   -12.6512     0.0000     1.0000 </r>
       <r>   -12.5497     0.0000     1.0000 </r>
       <r>   -12.4482     0.0000     1.0000 </r>
       <r>   -12.3467     0.0000     1.0000 </r>
       <r>   -12.2452     0.0000     1.0000 </r>
       <r>   -12.1438     0.0000     1.0000 </r>
       <r>   -12.0423     0.0000     1.0000 </r>
       <r>   -11.9408     0.0000     1.0000 </r>
       <r>   -11.8393    -0.0000     1.0000 </r>
       <r>   -11.7378    -0.0000     1.0000 </r>
       <r>   -11.6363    -0.0000     1.0000 </r>
       <r>   -11.5348    -0.0000     1.0000 </r>
       <r>   -11.4333    -0.0000     1.0000 </r>
       <r>   -11.3318    -0.0000     1.0000 </r>
       <r>   -11.2304    -0.0000     1.0000 </r>
       <r>   -11.1289    -0.0000     1.0000 </r>
       <r>   -11.0274    -0.0000     1.0000 </r>
       <r>   -10.9259    -0.0000     1.0000 </r>
       <r>   -10.8244    -0.0004     1.0000 </r>
       <r>   -10.7229    -0.0069     0.9993 </r>
       <r>   -10.6214    -0.0683     0.9923 </r>
       <r>   -10.5199    -0.3441     0.9574 </r>
       <r>   -10.4184    -0.6060     0.8959 </r>
       <r>   -10.3170     1.3871     1.0367 </r>
       <r>   -10.2155     7.6263     1.8107 </r>
       <r>   -10.1140    12.2348     3.0524 </r>
       <r>   -10.0125     8.4582     3.9108 </r>
       <r>    -9.9110     1.9263     4.1063 </r>
       <r>    -9.8095    -0.5569     4.0498 </r>
       <r>    -9.7080    -0.3946     4.0097 </r>
       <r>    -9.6065    -0.0860     4.0010 </r>
       <r>    -9.5050    -0.0093     4.0001 </r>
       <r>    -9.4035    -0.0006     4.0000 </r>
       <r>    -9.3021    -0.0000     4.0000 </r>
       <r>    -9.2006    -0.0000     4.0000 </r>
       <r>    -9.0991    -0.0000     4.0000 </r>
       <r>    -8.9976    -0.0000     4.0000 </r>
       <r>    -8.8961    -0.0000     4.0000 </r>
       <r>    -8.7946     0.0000     4.0000 </r>
       <r>    -8.6931     0.0000     4.0000 </r>
       <r>    -8.5916     0.0000     4.0000 </r>
       <r>    -8.4901     0.0000     4.0000 </r>
       <r>    -8.3887     0.0000     4.0000 </r>
       <r>    -8.2872     0.0000     4.0000 </r>
       <r>    -8.1857     0.0000     4.0000 </r>
       <r>    -8.0842     0.0000     4.0000 </r>
       <r>    -7.9827     0.0000     4.0000 </r>
       <r>    -7.8812     0.0000     4.0000 </r>
       <r>    -7.7797     0.0000     4.0000 </r>
       <r>    -7.6782     0.0000     4.0000 </r>
       <r>    -7.5767     0.0000     4.0000 </r>
       <r>    -7.4753     0.0000     4.0000 </r>
       <r>    -7.3738     0.0000     4.0000 </r>
       <r>    -7.2723     0.0000     4.0000 </r>
       <r>    -7.1708     0.0000     4.0000 </r>
       <r>    -7.0693     0.0000     4.0000 </r>
       <r>    -6.9678     0.0000     4.0000 </r>
       <r>    -6.8663     0.0000     4.0000 </r>
       <r>    -6.7648     0.0000     4.0000 </r>
       <r>    -6.6633     0.0000     4.0000 </r>
       <r>    -6.5619     0.0000     4.0000 </r>
       <r>    -6.4604     0.0000     4.0000 </r>
       <r>    -6.3589     0.0000     4.0000 </r>
       <r>    -6.2574     0.0000     4.0000 </r>
       <r>    -6.1559     0.0000     4.0000 </r>
       <r>    -6.0544     0.0000     4.0000 </r>
       <r>    -5.9529     0.0000     4.0000 </r>
       <r>    -5.8514     0.0000     4.0000 </r>
       <r>    -5.7499     0.0000     4.0000 </r>
       <r>    -5.6485     0.0000     4.0000 </r>
       <r>    -5.5470     0.0000     4.0000 </r>
       <r>    -5.4455     0.0000     4.0000 </r>
       <r>    -5.3440     0.0000     4.0000 </r>
       <r>    -5.2425     0.0000     4.0000 </r>
       <r>    -5.1410     0.0000     4.0000 </r>
       <r>    -5.0395     0.0000     4.0000 </r>
       <r>    -4.9380     0.0000     4.0000 </r>
       <r>    -4.8365     0.0000     4.0000 </r>
       <r>    -4.7351     0.0000     4.0000 </r>
       <r>    -4.6336     0.0000     4.0000 </r>
       <r>    -4.5321     0.0000     4.0000 </r>
       <r>    -4.4306     0.0000     4.0000 </r>
       <r>    -4.3291     0.0000     4.0000 </r>
       <r>    -4.2276     0.0000     4.0000 </r>
       <r>    -4.1261     0.0000     4.0000 </r>
       <r>    -4.0246     0.0000     4.0000 </r>
       <r>    -3.9231     0.0000     4.0000 </r>
       <r>    -3.8217     0.0000     4.0000 </r>
       <r>    -3.7202     0.0000     4.0000 </r>
       <r>    -3.6187     0.0000     4.0000 </r>
       <r>    -3.5172     0.0000     4.0000 </r>
       <r>    -3.4157     0.0000     4.0000 </r>
       <r>    -3.3142     0.0000     4.0000 </r>
       <r>    -3.2127     0.0000     4.0000 </r>
       <r>    -3.1112     0.0000     4.0000 </r>
       <r>    -3.0097     0.0000     4.0000 </r>
       <r>    -2.9083     0.0000     4.0000 </r>
       <r>    -2.8068     0.0000     4.0000 </r>
       <r>    -2.7053     0.0000     4.0000 </r>
       <r>    -2.6038     0.0000     4.0000 </r>
       <r>    -2.5023     0.0000     4.0000 </r>
       <r>    -2.4008     0.0000     4.0000 </r>
       <r>    -2.2993     0.0000     4.0000 </r>
       <r>    -2.1978     0.0000     4.0000 </r>
       <r>    -2.0963     0.0000     4.0000 </r>
       <r>    -1.9949    -0.0000     4.0000 </r>
       <r>    -1.8934    -0.0000     4.0000 </r>
       <r>    -1.7919    -0.0000     4.0000 </r>
       <r>    -1.6904    -0.0000     4.0000 </r>
       <r>    -1.5889    -0.0000     4.0000 </r>
       <r>    -1.4874    -0.0000     4.0000 </r>
       <r>    -1.3859    -0.0000     4.0000 </r>
       <r>    -1.2844    -0.0000     4.0000 </r>
       <r>    -1.1829    -0.0000     4.0000 </r>
       <r>    -1.0815    -0.0000     4.0000 </r>
       <r>    -0.9800    -0.0001     4.0000 </r>
       <r>    -0.8785    -0.0026     3.9997 </r>
       <r>    -0.7770    -0.0249     3.9972 </r>
       <r>    -0.6755    -0.1211     3.9849 </r>
       <r>    -0.5740    -0.1970     3.9649 </r>
       <r>    -0.4725     0.5285     4.0186 </r>
       <r>    -0.3710     2.6496     4.2875 </r>
       <r>    -0.2695     4.0838     4.7019 </r>
       <r>    -0.1681     2.7142     4.9774 </r>
       <r>    -0.0666     0.5703     5.0353 </r>
       <r>     0.0349    -0.1932     5.0156 </r>
       <r>     0.1364    -0.1250     5.0030 </r>
       <r>     0.2379    -0.0263     5.0003 </r>
       <r>     0.3394    -0.0035     4.9999 </r>
       <r>     0.4409    -0.0100     4.9989 </r>
       <r>     0.5424    -0.0661     4.9922 </r>
       <r>     0.6439    -0.1968     4.9722 </r>
       <r>     0.7453     0.0137     4.9736 </r>
       <r>     0.8468     1.4749     5.1233 </r>
       <r>     0.9483     3.3677     5.4651 </r>
       <r>     1.0498     3.6146     5.8319 </r>
       <r>     1.1513     4.3926     6.2777 </r>
       <r>     1.2528     7.3318     7.0218 </r>
       <r>     1.3543     7.2006     7.7526 </r>
       <r>     1.4558     2.9663     8.0537 </r>
       <r>     1.5573    -0.0010     8.0536 </r>
       <r>     1.6588    -0.3837     8.0146 </r>
       <r>     1.7602    -0.1245     8.0020 </r>
       <r>     1.8617    -0.0180     8.0001 </r>
       <r>     1.9632    -0.0014     8.0000 </r>
       <r>     2.0647    -0.0001     8.0000 </r>
       <r>     2.1662    -0.0000     8.0000 </r>
       <r>     2.2677    -0.0000     8.0000 </r>
       <r>     2.3692    -0.0000     8.0000 </r>
       <r>     2.4707    -0.0000     8.0000 </r>
       <r>     2.5722    -0.0000     8.0000 </r>
       <r>     2.6736     0.0000     8.0000 </r>
       <r>     2.7751     0.0000     8.0000 </r>
       <r>     2.8766     0.0000     8.0000 </r>
       <r>     2.9781     0.0000     8.0000 </r>
       <r>     3.0796     0.0000     8.0000 </r>
       <r>     3.1811     0.0000     8.0000 </r>
       <r>     3.2826     0.0000     8.0000 </r>
      </set>
      <set comment="spin 2">
       <r>   -27.1641     0.0000     0.0000 </r>
       <r>   -27.0626     0.0000     0.0000 </r>
       <r>   -26.9611     0.0000     0.0000 </r>
       <r>   -26.8597     0.0000     0.0000 </r>
       <r>   -26.7582     0.0000     0.0000 </r>
       <r>   -26.6567     0.0000     0.0000 </r>
       <r>   -26.5552     0.0000     0.0000 </r>
       <r>   -26.4537     0.0000     0.0000 </r>
       <r>   -26.3522     0.0000     0.0000 </r>
       <r>   -26.2507     0.0000     0.0000 </r>
       <r>   -26.1492     0.0000     0.0000 </r>
       <r>   -26.0477     0.0000     0.0000 </r>
       <r>   -25.9463     0.0000     0.0000 </r>
       <r>   -25.8448     0.0000     0.0000 </r>
       <r>   -25.7433     0.0000     0.0000 </r>
       <r>   -25.6418     0.0000     0.0000 </r>
       <r>   -25.5403     0.0000     0.0000 </r>
       <r>   -25.4388     0.0000     0.0000 </r>
       <r>   -25.3373     0.0000     0.0000 </r>
       <r>   -25.2358     0.0000     0.0000 </r>
       <r>   -25.1343     0.0000     0.0000 </r>
       <r>   -25.0329     0.0000     0.0000 </r>
       <r>   -24.9314     0.0000     0.0000 </r>
       <r>   -24.8299     0.0000     0.0000 </r>
       <r>   -24.7284     0.0000     0.0000 </r>
       <r>   -24.6269     0.0000     0.0000 </r>
       <r>   -24.5254     0.0000     0.0000 </r>
       <r>   -24.4239     0.0000     0.0000 </r>
       <r>   -24.3224     0.0000     0.0000 </r>
       <r>   -24.2209     0.0000     0.0000 </r>
       <r>   -24.1195     0.0000     0.0000 </r>
       <r>   -24.0180     0.0000     0.0000 </r>
       <r>   -23.9165     0.0000     0.0000 </r>
       <r>   -23.8150     0.0000     0.0000 </r>
       <r>   -23.7135     0.0000     0.0000 </r>
       <r>   -23.6120    -0.0000    -0.0000 </r>
       <r>   -23.5105    -0.0000    -0.0000 </r>
       <r>   -23.4090    -0.0000    -0.0000 </r>
       <r>   -23.3075    -0.0000    -0.0000 </r>
       <r>   -23.2061    -0.0000    -0.0000 </r>
       <r>   -23.1046    -0.0000    -0.0000 </r>
       <r>   -23.0031    -0.0000    -0.0000 </r>
       <r>   -22.9016    -0.0000    -0.0000 </r>
       <r>   -22.8001    -0.0000    -0.0000 </r>
       <r>   -22.6986    -0.0000    -0.0000 </r>
       <r>   -22.5971    -0.0001    -0.0000 </r>
       <r>   -22.4956    -0.0015    -0.0002 </r>
       <r>   -22.3941    -0.0167    -0.0019 </r>
       <r>   -22.2927    -0.0943    -0.0114 </r>
       <r>   -22.1912    -0.2087    -0.0326 </r>
       <r>   -22.0897     0.2662    -0.0056 </r>
       <r>   -21.9882     2.1763     0.2153 </r>
       <r>   -21.8867     4.0102     0.6223 </r>
       <r>   -21.7852     3.1567     0.9426 </r>
       <r>   -21.6837     0.9079     1.0348 </r>
       <r>   -21.5822    -0.1462     1.0199 </r>
       <r>   -21.4807    -0.1536     1.0043 </r>
       <r>   -21.3793    -0.0380     1.0005 </r>
       <r>   -21.2778    -0.0045     1.0000 </r>
       <r>   -21.1763    -0.0003     1.0000 </r>
       <r>   -21.0748    -0.0000     1.0000 </r>
       <r>   -20.9733    -0.0000     1.0000 </r>
       <r>   -20.8718    -0.0000     1.0000 </r>
       <r>   -20.7703    -0.0000     1.0000 </r>
       <r>   -20.6688    -0.0000     1.0000 </r>
       <r>   -20.5673     0.0000     1.0000 </r>
       <r>   -20.4658     0.0000     1.0000 </r>
       <r>   -20.3644     0.0000     1.0000 </r>
       <r>   -20.2629     0.0000     1.0000 </r>
       <r>   -20.1614     0.0000     1.0000 </r>
       <r>   -20.0599     0.0000     1.0000 </r>
       <r>   -19.9584     0.0000     1.0000 </r>
       <r>   -19.8569     0.0000     1.0000 </r>
       <r>   -19.7554     0.0000     1.0000 </r>
       <r>   -19.6539     0.0000     1.0000 </r>
       <r>   -19.5524     0.0000     1.0000 </r>
       <r>   -19.4510     0.0000     1.0000 </r>
       <r>   -19.3495     0.0000     1.0000 </r>
       <r>   -19.2480     0.0000     1.0000 </r>
       <r>   -19.1465     0.0000     1.0000 </r>
       <r>   -19.0450     0.0000     1.0000 </r>
       <r>   -18.9435     0.0000     1.0000 </r>
       <r>   -18.8420     0.0000     1.0000 </r>
       <r>   -18.7405     0.0000     1.0000 </r>
       <r>   -18.6390     0.0000     1.0000 </r>
       <r>   -18.5376     0.0000     1.0000 </r>
       <r>   -18.4361     0.0000     1.0000 </r>
       <r>   -18.3346     0.0000     1.0000 </r>
       <r>   -18.2331     0.0000     1.0000 </r>
       <r>   -18.1316     0.0000     1.0000 </r>
       <r>   -18.0301     0.0000     1.0000 </r>
       <r>   -17.9286     0.0000     1.0000 </r>
       <r>   -17.8271     0.0000     1.0000 </r>
       <r>   -17.7256     0.0000     1.0000 </r>
       <r>   -17.6242     0.0000     1.0000 </r>
       <r>   -17.5227     0.0000     1.0000 </r>
       <r>   -17.4212     0.0000     1.0000 </r>
       <r>   -17.3197     0.0000     1.0000 </r>
       <r>   -17.2182     0.0000     1.0000 </r>
       <r>   -17.1167     0.0000     1.0000 </r>
       <r>   -17.0152     0.0000     1.0000 </r>
       <r>   -16.9137     0.0000     1.0000 </r>
       <r>   -16.8122     0.0000     1.0000 </r>
       <r>   -16.7108     0.0000     1.0000 </r>
       <r>   -16.6093     0.0000     1.0000 </r>
       <r>   -16.5078     0.0000     1.0000 </r>
       <r>   -16.4063     0.0000     1.0000 </r>
       <r>   -16.3048     0.0000     1.0000 </r>
       <r>   -16.2033     0.0000     1.0000 </r>
       <r>   -16.1018     0.0000     1.0000 </r>
       <r>   -16.0003     0.0000     1.0000 </r>
       <r>   -15.8988     0.0000     1.0000 </r>
       <r>   -15.7974     0.0000     1.0000 </r>
       <r>   -15.6959     0.0000     1.0000 </r>
       <r>   -15.5944     0.0000     1.0000 </r>
       <r>   -15.4929     0.0000     1.0000 </r>
       <r>   -15.3914     0.0000     1.0000 </r>
       <r>   -15.2899     0.0000     1.0000 </r>
       <r>   -15.1884     0.0000     1.0000 </r>
       <r>   -15.0869     0.0000     1.0000 </r>
       <r>   -14.9854     0.0000     1.0000 </r>
       <r>   -14.8840     0.0000     1.0000 </r>
       <r>   -14.7825     0.0000     1.0000 </r>
       <r>   -14.6810     0.0000     1.0000 </r>
       <r>   -14.5795     0.0000     1.0000 </r>
       <r>   -14.4780     0.0000     1.0000 </r>
       <r>   -14.3765     0.0000     1.0000 </r>
       <r>   -14.2750     0.0000     1.0000 </r>
       <r>   -14.1735     0.0000     1.0000 </r>
       <r>   -14.0720     0.0000     1.0000 </r>
       <r>   -13.9706     0.0000     1.0000 </r>
       <r>   -13.8691     0.0000     1.0000 </r>
       <r>   -13.7676     0.0000     1.0000 </r>
       <r>   -13.6661     0.0000     1.0000 </r>
       <r>   -13.5646     0.0000     1.0000 </r>
       <r>   -13.4631     0.0000     1.0000 </r>
       <r>   -13.3616     0.0000     1.0000 </r>
       <r>   -13.2601     0.0000     1.0000 </r>
       <r>   -13.1586     0.0000     1.0000 </r>
       <r>   -13.0572     0.0000     1.0000 </r>
       <r>   -12.9557     0.0000     1.0000 </r>
       <r>   -12.8542     0.0000     1.0000 </r>
       <r>   -12.7527     0.0000     1.0000 </r>
       <r>   -12.6512     0.0000     1.0000 </r>
       <r>   -12.5497     0.0000     1.0000 </r>
       <r>   -12.4482     0.0000     1.0000 </r>
       <r>   -12.3467     0.0000     1.0000 </r>
       <r>   -12.2452     0.0000     1.0000 </r>
       <r>   -12.1438     0.0000     1.0000 </r>
       <r>   -12.0423     0.0000     1.0000 </r>
       <r>   -11.9408     0.0000     1.0000 </r>
       <r>   -11.8393     0.0000     1.0000 </r>
       <r>   -11.7378     0.0000     1.0000 </r>
       <r>   -11.6363     0.0000     1.0000 </r>
       <r>   -11.5348     0.0000     1.0000 </r>
       <r>   -11.4333     0.0000     1.0000 </r>
       <r>   -11.3318     0.0000     1.0000 </r>
       <r>   -11.2304     0.0000     1.0000 </r>
       <r>   -11.1289     0.0000     1.0000 </r>
       <r>   -11.0274     0.0000     1.0000 </r>
       <r>   -10.9259     0.0000     1.0000 </r>
       <r>   -10.8244     0.0000     1.0000 </r>
       <r>   -10.7229     0.0000     1.0000 </r>
       <r>   -10.6214     0.0000     1.0000 </r>
       <r>   -10.5199     0.0000     1.0000 </r>
       <r>   -10.4184     0.0000     1.0000 </r>
       <r>   -10.3170     0.0000     1.0000 </r>
       <r>   -10.2155     0.0000     1.0000 </r>
       <r>   -10.1140     0.0000     1.0000 </r>
       <r>   -10.0125     0.0000     1.0000 </r>
       <r>    -9.9110     0.0000     1.0000 </r>
       <r>    -9.8095     0.0000     1.0000 </r>
       <r>    -9.7080     0.0000     1.0000 </r>
       <r>    -9.6065     0.0000     1.0000 </r>
       <r>    -9.5050     0.0000     1.0000 </r>
       <r>    -9.4035     0.0000     1.0000 </r>
       <r>    -9.3021     0.0000     1.0000 </r>
       <r>    -9.2006     0.0000     1.0000 </r>
       <r>    -9.0991     0.0000     1.0000 </r>
       <r>    -8.9976     0.0000     1.0000 </r>
       <r>    -8.8961     0.0000     1.0000 </r>
       <r>    -8.7946    -0.0000     1.0000 </r>
       <r>    -8.6931    -0.0000     1.0000 </r>
       <r>    -8.5916    -0.0000     1.0000 </r>
       <r>    -8.4901    -0.0000     1.0000 </r>
       <r>    -8.3887    -0.0000     1.0000 </r>
       <r>    -8.2872    -0.0000     1.0000 </r>
       <r>    -8.1857    -0.0000     1.0000 </r>
       <r>    -8.0842    -0.0000     1.0000 </r>
       <r>    -7.9827    -0.0000     1.0000 </r>
       <r>    -7.8812    -0.0000     1.0000 </r>
       <r>    -7.7797    -0.0006     0.9999 </r>
       <r>    -7.6782    -0.0104     0.9989 </r>
       <r>    -7.5767    -0.0932     0.9894 </r>
       <r>    -7.4753    -0.4130     0.9475 </r>
       <r>    -7.3738    -0.5307     0.8937 </r>
       <r>    -7.2723     2.1370     1.1105 </r>
       <r>    -7.1708     8.7483     1.9984 </r>
       <r>    -7.0693    12.2008     3.2367 </r>
       <r>    -6.9678     7.3221     3.9798 </r>
       <r>    -6.8663     1.2112     4.1027 </r>
       <r>    -6.7648    -0.6160     4.0402 </r>
       <r>    -6.6633    -0.3265     4.0070 </r>
       <r>    -6.5619    -0.0628     4.0007 </r>
       <r>    -6.4604    -0.0061     4.0000 </r>
       <r>    -6.3589    -0.0003     4.0000 </r>
       <r>    -6.2574    -0.0000     4.0000 </r>
       <r>    -6.1559    -0.0000     4.0000 </r>
       <r>    -6.0544    -0.0000     4.0000 </r>
       <r>    -5.9529    -0.0000     4.0000 </r>
       <r>    -5.8514    -0.0000     4.0000 </r>
       <r>    -5.7499     0.0000     4.0000 </r>
       <r>    -5.6485     0.0000     4.0000 </r>
       <r>    -5.5470     0.0000     4.0000 </r>
       <r>    -5.4455     0.0000     4.0000 </r>
       <r>    -5.3440     0.0000     4.0000 </r>
       <r>    -5.2425     0.0000     4.0000 </r>
       <r>    -5.1410     0.0000     4.0000 </r>
       <r>    -5.0395     0.0000     4.0000 </r>
       <r>    -4.9380     0.0000     4.0000 </r>
       <r>    -4.8365     0.0000     4.0000 </r>
       <r>    -4.7351     0.0000     4.0000 </r>
       <r>    -4.6336     0.0000     4.0000 </r>
       <r>    -4.5321     0.0000     4.0000 </r>
       <r>    -4.4306     0.0000     4.0000 </r>
       <r>    -4.3291     0.0000     4.0000 </r>
       <r>    -4.2276     0.0000     4.0000 </r>
       <r>    -4.1261     0.0000     4.0000 </r>
       <r>    -4.0246     0.0000     4.0000 </r>
       <r>    -3.9231     0.0000     4.0000 </r>
       <r>    -3.8217     0.0000     4.0000 </r>
       <r>    -3.7202     0.0000     4.0000 </r>
       <r>    -3.6187     0.0000     4.0000 </r>
       <r>    -3.5172     0.0000     4.0000 </r>
       <r>    -3.4157     0.0000     4.0000 </r>
       <r>    -3.3142     0.0000     4.0000 </r>
       <r>    -3.2127     0.0000     4.0000 </r>
       <r>    -3.1112     0.0000     4.0000 </r>
       <r>    -3.0097     0.0000     4.0000 </r>
       <r>    -2.9083     0.0000     4.0000 </r>
       <r>    -2.8068     0.0000     4.0000 </r>
       <r>    -2.7053     0.0000     4.0000 </r>
       <r>    -2.6038     0.0000     4.0000 </r>
       <r>    -2.5023     0.0000     4.0000 </r>
       <r>    -2.4008     0.0000     4.0000 </r>
       <r>    -2.2993     0.0000     4.0000 </r>
       <r>    -2.1978     0.0000     4.0000 </r>
       <r>    -2.0963     0.0000     4.0000 </r>
       <r>    -1.9949     0.0000     4.0000 </r>
       <r>    -1.8934    -0.0000     4.0000 </r>
       <r>    -1.7919    -0.0000     4.0000 </r>
       <r>    -1.6904    -0.0000     4.0000 </r>
       <r>    -1.5889    -0.0000     4.0000 </r>
       <r>    -1.4874    -0.0000     4.0000 </r>
       <r>    -1.3859    -0.0000     4.0000 </r>
       <r>    -1.2844    -0.0000     4.0000 </r>
       <r>    -1.1829    -0.0000     4.0000 </r>
       <r>    -1.0815    -0.0000     4.0000 </r>
       <r>    -0.9800    -0.0000     4.0000 </r>
       <r>    -0.8785    -0.0007     3.9999 </r>
       <r>    -0.7770    -0.0089     3.9990 </r>
       <r>    -0.6755    -0.0615     3.9928 </r>
       <r>    -0.5740    -0.1908     3.9734 </r>
       <r>    -0.4725    -0.0017     3.9733 </r>
       <r>    -0.3710     1.4953     4.1250 </r>
       <r>    -0.2695     3.6821     4.4987 </r>
       <r>    -0.1681     3.6913     4.8733 </r>
       <r>    -0.0666     1.5089     5.0265 </r>
       <r>     0.0349     0.0025     5.0267 </r>
       <r>     0.1364    -0.1914     5.0073 </r>
       <r>     0.2379    -0.0621     5.0010 </r>
       <r>     0.3394    -0.0090     5.0001 </r>
       <r>     0.4409    -0.0007     5.0000 </r>
       <r>     0.5424    -0.0004     5.0000 </r>
       <r>     0.6439    -0.0052     4.9994 </r>
       <r>     0.7453    -0.0475     4.9946 </r>
       <r>     0.8468    -0.2300     4.9713 </r>
       <r>     0.9483    -0.4494     4.9257 </r>
       <r>     1.0498     0.6261     4.9892 </r>
       <r>     1.1513     4.9687     5.4935 </r>
       <r>     1.2528    10.2958     6.5384 </r>
       <r>     1.3543    10.1858     7.5721 </r>
       <r>     1.4558     4.6356     8.0426 </r>
       <r>     1.5573     0.3360     8.0767 </r>
       <r>     1.6588    -0.5107     8.0249 </r>
       <r>     1.7602    -0.2065     8.0039 </r>
       <r>     1.8617    -0.0353     8.0003 </r>
       <r>     1.9632    -0.0032     8.0000 </r>
       <r>     2.0647    -0.0002     8.0000 </r>
       <r>     2.1662    -0.0000     8.0000 </r>
       <r>     2.2677    -0.0000     8.0000 </r>
       <r>     2.3692    -0.0000     8.0000 </r>
       <r>     2.4707    -0.0000     8.0000 </r>
       <r>     2.5722    -0.0000     8.0000 </r>
       <r>     2.6736     0.0000     8.0000 </r>
       <r>     2.7751     0.0000     8.0000 </r>
       <r>     2.8766     0.0000     8.0000 </r>
       <r>     2.9781     0.0000     8.0000 </r>
       <r>     3.0796     0.0000     8.0000 </r>
       <r>     3.1811     0.0000     8.0000 </r>
       <r>     3.2826     0.0000     8.0000 </r>
      </set>
     </set>
    </array>
   </total>
   <partial>
    <array>
     <dimension dim="1">gridpoints</dimension>
     <dimension dim="2">spin</dimension>
     <dimension dim="3">ion</dimension>
     <field>energy</field>
     <field>  s  </field>
     <field>  p  </field>
     <field>  d  </field>
     <set>
      <set comment="ion 1">
       <set comment="spin 1">
        <r>   -27.1641     0.0000     0.0000     0.0000 </r>
        <r>   -27.0626     0.0000     0.0000     0.0000 </r>
        <r>   -26.9611     0.0000     0.0000     0.0000 </r>
        <r>   -26.8597    -0.0000    -0.0000    -0.0000 </r>
        <r>   -26.7582    -0.0000    -0.0000    -0.0000 </r>
        <r>   -26.6567    -0.0000    -0.0000    -0.0000 </r>
        <r>   -26.5552    -0.0000    -0.0000    -0.0000 </r>
        <r>   -26.4537    -0.0000    -0.0000    -0.0000 </r>
        <r>   -26.3522    -0.0000    -0.0000    -0.0000 </r>
        <r>   -26.2507    -0.0000    -0.0000    -0.0000 </r>
        <r>   -26.1492    -0.0000    -0.0000    -0.0000 </r>
        <r>   -26.0477    -0.0000    -0.0000    -0.0000 </r>
        <r>   -25.9463    -0.0000    -0.0000    -0.0000 </r>
        <r>   -25.8448    -0.0001    -0.0000    -0.0000 </r>
        <r>   -25.7433    -0.0012    -0.0000    -0.0000 </r>
        <r>   -25.6418    -0.0129    -0.0000    -0.0000 </r>
        <r>   -25.5403    -0.0724    -0.0000    -0.0000 </r>
        <r>   -25.4388    -0.1590    -0.0000    -0.0000 </r>
        <r>   -25.3373     0.2075     0.0000     0.0000 </r>
        <r>   -25.2358     1.6679     0.0000     0.0000 </r>
        <r>   -25.1343     3.0582     0.0000     0.0000 </r>
        <r>   -25.0329     2.3966     0.0000     0.0000 </r>
        <r>   -24.9314     0.6842     0.0000     0.0000 </r>
        <r>   -24.8299    -0.1128    -0.0000    -0.0000 </r>
        <r>   -24.7284    -0.1165    -0.0000    -0.0000 </r>
        <r>   -24.6269    -0.0287    -0.0000    -0.0000 </r>
        <r>   -24.5254    -0.0034    -0.0000    -0.0000 </r>
        <r>   -24.4239    -0.0002    -0.0000    -0.0000 </r>
        <r>   -24.3224    -0.0000    -0.0000    -0.0000 </r>
        <r>   -24.2209    -0.0000    -0.0000    -0.0000 </r>
        <r>   -24.1195    -0.0000    -0.0000    -0.0000 </r>
        <r>   -24.0180    -0.0000    -0.0000    -0.0000 </r>
        <r>   -23.9165    -0.0000    -0.0000    -0.0000 </r>
        <r>   -23.8150     0.0000     0.0000     0.0000 </r>
        <r>   -23.7135     0.0000     0.0000     0.0000 </r>
        <r>   -23.6120     0.0000     0.0000     0.0000 </r>
        <r>   -23.5105     0.0000     0.0000     0.0000 </r>
        <r>   -23.4090     0.0000     0.0000     0.0000 </r>
        <r>   -23.3075     0.0000     0.0000     0.0000 </r>
        <r>   -23.2061     0.0000     0.0000     0.0000 </r>
        <r>   -23.1046     0.0000     0.0000     0.0000 </r>
        <r>   -23.0031     0.0000     0.0000     0.0000 </r>
        <r>   -22.9016     0.0000     0.0000     0.0000 </r>
        <r>   -22.8001     0.0000     0.0000     0.0000 </r>
        <r>   -22.6986     0.0000     0.0000     0.0000 </r>
        <r>   -22.5971     0.0000     0.0000     0.0000 </r>
        <r>   -22.4956     0.0000     0.0000     0.0000 </r>
        <r>   -22.3941     0.0000     0.0000     0.0000 </r>
        <r>   -22.2927     0.0000     0.0000     0.0000 </r>
        <r>   -22.1912     0.0000     0.0000     0.0000 </r>
        <r>   -22.0897     0.0000     0.0000     0.0000 </r>
        <r>   -21.9882     0.0000     0.0000     0.0000 </r>
        <r>   -21.8867     0.0000     0.0000     0.0000 </r>
        <r>   -21.7852     0.0000     0.0000     0.0000 </r>
        <r>   -21.6837     0.0000     0.0000     0.0000 </r>
        <r>   -21.5822     0.0000     0.0000     0.0000 </r>
        <r>   -21.4807     0.0000     0.0000     0.0000 </r>
        <r>   -21.3793     0.0000     0.0000     0.0000 </r>
        <r>   -21.2778     0.0000     0.0000     0.0000 </r>
        <r>   -21.1763     0.0000     0.0000     0.0000 </r>
        <r>   -21.0748     0.0000     0.0000     0.0000 </r>
        <r>   -20.9733     0.0000     0.0000     0.0000 </r>
        <r>   -20.8718     0.0000     0.0000     0.0000 </r>
        <r>   -20.7703     0.0000     0.0000     0.0000 </r>
        <r>   -20.6688     0.0000     0.0000     0.0000 </r>
        <r>   -20.5673     0.0000     0.0000     0.0000 </r>
        <r>   -20.4658     0.0000     0.0000     0.0000 </r>
        <r>   -20.3644     0.0000     0.0000     0.0000 </r>
        <r>   -20.2629     0.0000     0.0000     0.0000 </r>
        <r>   -20.1614     0.0000     0.0000     0.0000 </r>
        <r>   -20.0599     0.0000     0.0000     0.0000 </r>
        <r>   -19.9584     0.0000     0.0000     0.0000 </r>
        <r>   -19.8569     0.0000     0.0000     0.0000 </r>
        <r>   -19.7554     0.0000     0.0000     0.0000 </r>
        <r>   -19.6539     0.0000     0.0000     0.0000 </r>
        <r>   -19.5524     0.0000     0.0000     0.0000 </r>
        <r>   -19.4510     0.0000     0.0000     0.0000 </r>
        <r>   -19.3495     0.0000     0.0000     0.0000 </r>
        <r>   -19.2480     0.0000     0.0000     0.0000 </r>
        <r>   -19.1465     0.0000     0.0000     0.0000 </r>
        <r>   -19.0450     0.0000     0.0000     0.0000 </r>
        <r>   -18.9435     0.0000     0.0000     0.0000 </r>
        <r>   -18.8420     0.0000     0.0000     0.0000 </r>
        <r>   -18.7405     0.0000     0.0000     0.0000 </r>
        <r>   -18.6390     0.0000     0.0000     0.0000 </r>
        <r>   -18.5376     0.0000     0.0000     0.0000 </r>
        <r>   -18.4361     0.0000     0.0000     0.0000 </r>
        <r>   -18.3346     0.0000     0.0000     0.0000 </r>
        <r>   -18.2331     0.0000     0.0000     0.0000 </r>
        <r>   -18.1316     0.0000     0.0000     0.0000 </r>
        <r>   -18.0301     0.0000     0.0000     0.0000 </r>
        <r>   -17.9286     0.0000     0.0000     0.0000 </r>
        <r>   -17.8271     0.0000     0.0000     0.0000 </r>
        <r>   -17.7256     0.0000     0.0000     0.0000 </r>
        <r>   -17.6242     0.0000     0.0000     0.0000 </r>
        <r>   -17.5227     0.0000     0.0000     0.0000 </r>
        <r>   -17.4212     0.0000     0.0000     0.0000 </r>
        <r>   -17.3197     0.0000     0.0000     0.0000 </r>
        <r>   -17.2182     0.0000     0.0000     0.0000 </r>
        <r>   -17.1167     0.0000     0.0000     0.0000 </r>
        <r>   -17.0152     0.0000     0.0000     0.0000 </r>
        <r>   -16.9137     0.0000     0.0000     0.0000 </r>
        <r>   -16.8122     0.0000     0.0000     0.0000 </r>
        <r>   -16.7108     0.0000     0.0000     0.0000 </r>
        <r>   -16.6093     0.0000     0.0000     0.0000 </r>
        <r>   -16.5078     0.0000     0.0000     0.0000 </r>
        <r>   -16.4063     0.0000     0.0000     0.0000 </r>
        <r>   -16.3048     0.0000     0.0000     0.0000 </r>
        <r>   -16.2033     0.0000     0.0000     0.0000 </r>
        <r>   -16.1018     0.0000     0.0000     0.0000 </r>
        <r>   -16.0003     0.0000     0.0000     0.0000 </r>
        <r>   -15.8988     0.0000     0.0000     0.0000 </r>
        <r>   -15.7974     0.0000     0.0000     0.0000 </r>
        <r>   -15.6959     0.0000     0.0000     0.0000 </r>
        <r>   -15.5944     0.0000     0.0000     0.0000 </r>
        <r>   -15.4929     0.0000     0.0000     0.0000 </r>
        <r>   -15.3914     0.0000     0.0000     0.0000 </r>
        <r>   -15.2899     0.0000     0.0000     0.0000 </r>
        <r>   -15.1884     0.0000     0.0000     0.0000 </r>
        <r>   -15.0869     0.0000     0.0000     0.0000 </r>
        <r>   -14.9854     0.0000     0.0000     0.0000 </r>
        <r>   -14.8840     0.0000     0.0000     0.0000 </r>
        <r>   -14.7825     0.0000     0.0000     0.0000 </r>
        <r>   -14.6810     0.0000     0.0000     0.0000 </r>
        <r>   -14.5795     0.0000     0.0000     0.0000 </r>
        <r>   -14.4780     0.0000     0.0000     0.0000 </r>
        <r>   -14.3765     0.0000     0.0000     0.0000 </r>
        <r>   -14.2750     0.0000     0.0000     0.0000 </r>
        <r>   -14.1735     0.0000     0.0000     0.0000 </r>
        <r>   -14.0720     0.0000     0.0000     0.0000 </r>
        <r>   -13.9706     0.0000     0.0000     0.0000 </r>
        <r>   -13.8691     0.0000     0.0000     0.0000 </r>
        <r>   -13.7676     0.0000     0.0000     0.0000 </r>
        <r>   -13.6661     0.0000     0.0000     0.0000 </r>
        <r>   -13.5646     0.0000     0.0000     0.0000 </r>
        <r>   -13.4631     0.0000     0.0000     0.0000 </r>
        <r>   -13.3616     0.0000     0.0000     0.0000 </r>
        <r>   -13.2601     0.0000     0.0000     0.0000 </r>
        <r>   -13.1586     0.0000     0.0000     0.0000 </r>
        <r>   -13.0572     0.0000     0.0000     0.0000 </r>
        <r>   -12.9557     0.0000     0.0000     0.0000 </r>
        <r>   -12.8542     0.0000     0.0000     0.0000 </r>
        <r>   -12.7527     0.0000     0.0000     0.0000 </r>
        <r>   -12.6512     0.0000     0.0000     0.0000 </r>
        <r>   -12.5497     0.0000     0.0000     0.0000 </r>
        <r>   -12.4482     0.0000     0.0000     0.0000 </r>
        <r>   -12.3467     0.0000     0.0000     0.0000 </r>
        <r>   -12.2452     0.0000     0.0000     0.0000 </r>
        <r>   -12.1438     0.0000     0.0000     0.0000 </r>
        <r>   -12.0423     0.0000     0.0000     0.0000 </r>
        <r>   -11.9408     0.0000     0.0000     0.0000 </r>
        <r>   -11.8393    -0.0000    -0.0000    -0.0000 </r>
        <r>   -11.7378    -0.0000    -0.0000    -0.0000 </r>
        <r>   -11.6363    -0.0000    -0.0000    -0.0000 </r>
        <r>   -11.5348    -0.0000    -0.0000    -0.0000 </r>
        <r>   -11.4333    -0.0000    -0.0000    -0.0000 </r>
        <r>   -11.3318    -0.0000    -0.0000    -0.0000 </r>
        <r>   -11.2304    -0.0000    -0.0000    -0.0000 </r>
        <r>   -11.1289    -0.0000    -0.0000    -0.0000 </r>
        <r>   -11.0274    -0.0000    -0.0000    -0.0000 </r>
        <r>   -10.9259    -0.0000    -0.0000    -0.0000 </r>
        <r>   -10.8244    -0.0000    -0.0003    -0.0000 </r>
        <r>   -10.7229    -0.0000    -0.0048    -0.0000 </r>
        <r>   -10.6214    -0.0000    -0.0482    -0.0000 </r>
        <r>   -10.5199    -0.0000    -0.2427    -0.0000 </r>
        <r>   -10.4184    -0.0000    -0.4274    -0.0000 </r>
        <r>   -10.3170     0.0000     0.9783     0.0000 </r>
        <r>   -10.2155     0.0000     5.3788     0.0000 </r>
        <r>   -10.1140     0.0000     8.6292     0.0000 </r>
        <r>   -10.0125     0.0000     5.9656     0.0000 </r>
        <r>    -9.9110     0.0000     1.3586     0.0000 </r>
        <r>    -9.8095    -0.0000    -0.3928    -0.0000 </r>
        <r>    -9.7080    -0.0000    -0.2783    -0.0000 </r>
        <r>    -9.6065    -0.0000    -0.0606    -0.0000 </r>
        <r>    -9.5050    -0.0000    -0.0066    -0.0000 </r>
        <r>    -9.4035    -0.0000    -0.0004    -0.0000 </r>
        <r>    -9.3021    -0.0000    -0.0000    -0.0000 </r>
        <r>    -9.2006    -0.0000    -0.0000    -0.0000 </r>
        <r>    -9.0991    -0.0000    -0.0000    -0.0000 </r>
        <r>    -8.9976    -0.0000    -0.0000    -0.0000 </r>
        <r>    -8.8961    -0.0000    -0.0000    -0.0000 </r>
        <r>    -8.7946     0.0000     0.0000     0.0000 </r>
        <r>    -8.6931     0.0000     0.0000     0.0000 </r>
        <r>    -8.5916     0.0000     0.0000     0.0000 </r>
        <r>    -8.4901     0.0000     0.0000     0.0000 </r>
        <r>    -8.3887     0.0000     0.0000     0.0000 </r>
        <r>    -8.2872     0.0000     0.0000     0.0000 </r>
        <r>    -8.1857     0.0000     0.0000     0.0000 </r>
        <r>    -8.0842     0.0000     0.0000     0.0000 </r>
        <r>    -7.9827     0.0000     0.0000     0.0000 </r>
        <r>    -7.8812     0.0000     0.0000     0.0000 </r>
        <r>    -7.7797     0.0000     0.0000     0.0000 </r>
        <r>    -7.6782     0.0000     0.0000     0.0000 </r>
        <r>    -7.5767     0.0000     0.0000     0.0000 </r>
        <r>    -7.4753     0.0000     0.0000     0.0000 </r>
        <r>    -7.3738     0.0000     0.0000     0.0000 </r>
        <r>    -7.2723     0.0000     0.0000     0.0000 </r>
        <r>    -7.1708     0.0000     0.0000     0.0000 </r>
        <r>    -7.0693     0.0000     0.0000     0.0000 </r>
        <r>    -6.9678     0.0000     0.0000     0.0000 </r>
        <r>    -6.8663     0.0000     0.0000     0.0000 </r>
        <r>    -6.7648     0.0000     0.0000     0.0000 </r>
        <r>    -6.6633     0.0000     0.0000     0.0000 </r>
        <r>    -6.5619     0.0000     0.0000     0.0000 </r>
        <r>    -6.4604     0.0000     0.0000     0.0000 </r>
        <r>    -6.3589     0.0000     0.0000     0.0000 </r>
        <r>    -6.2574     0.0000     0.0000     0.0000 </r>
        <r>    -6.1559     0.0000     0.0000     0.0000 </r>
        <r>    -6.0544     0.0000     0.0000     0.0000 </r>
        <r>    -5.9529     0.0000     0.0000     0.0000 </r>
        <r>    -5.8514     0.0000     0.0000     0.0000 </r>
        <r>    -5.7499     0.0000     0.0000     0.0000 </r>
        <r>    -5.6485     0.0000     0.0000     0.0000 </r>
        <r>    -5.5470     0.0000     0.0000     0.0000 </r>
        <r>    -5.4455     0.0000     0.0000     0.0000 </r>
        <r>    -5.3440     0.0000     0.0000     0.0000 </r>
        <r>    -5.2425     0.0000     0.0000     0.0000 </r>
        <r>    -5.1410     0.0000     0.0000     0.0000 </r>
        <r>    -5.0395     0.0000     0.0000     0.0000 </r>
        <r>    -4.9380     0.0000     0.0000     0.0000 </r>
        <r>    -4.8365     0.0000     0.0000     0.0000 </r>
        <r>    -4.7351     0.0000     0.0000     0.0000 </r>
        <r>    -4.6336     0.0000     0.0000     0.0000 </r>
        <r>    -4.5321     0.0000     0.0000     0.0000 </r>
        <r>    -4.4306     0.0000     0.0000     0.0000 </r>
        <r>    -4.3291     0.0000     0.0000     0.0000 </r>
        <r>    -4.2276     0.0000     0.0000     0.0000 </r>
        <r>    -4.1261     0.0000     0.0000     0.0000 </r>
        <r>    -4.0246     0.0000     0.0000     0.0000 </r>
        <r>    -3.9231     0.0000     0.0000     0.0000 </r>
        <r>    -3.8217     0.0000     0.0000     0.0000 </r>
        <r>    -3.7202     0.0000     0.0000     0.0000 </r>
        <r>    -3.6187     0.0000     0.0000     0.0000 </r>
        <r>    -3.5172     0.0000     0.0000     0.0000 </r>
        <r>    -3.4157     0.0000     0.0000     0.0000 </r>
        <r>    -3.3142     0.0000     0.0000     0.0000 </r>
        <r>    -3.2127     0.0000     0.0000     0.0000 </r>
        <r>    -3.1112     0.0000     0.0000     0.0000 </r>
        <r>    -3.0097     0.0000     0.0000     0.0000 </r>
        <r>    -2.9083     0.0000     0.0000     0.0000 </r>
        <r>    -2.8068     0.0000     0.0000     0.0000 </r>
        <r>    -2.7053     0.0000     0.0000     0.0000 </r>
        <r>    -2.6038     0.0000     0.0000     0.0000 </r>
        <r>    -2.5023     0.0000     0.0000     0.0000 </r>
        <r>    -2.4008     0.0000     0.0000     0.0000 </r>
        <r>    -2.2993     0.0000     0.0000     0.0000 </r>
        <r>    -2.1978     0.0000     0.0000     0.0000 </r>
        <r>    -2.0963     0.0000     0.0000     0.0000 </r>
        <r>    -1.9949    -0.0000    -0.0000    -0.0000 </r>
        <r>    -1.8934    -0.0000    -0.0000    -0.0000 </r>
        <r>    -1.7919    -0.0000    -0.0000    -0.0000 </r>
        <r>    -1.6904    -0.0000    -0.0000    -0.0000 </r>
        <r>    -1.5889    -0.0000    -0.0000    -0.0000 </r>
        <r>    -1.4874    -0.0000    -0.0000    -0.0000 </r>
        <r>    -1.3859    -0.0000    -0.0000    -0.0000 </r>
        <r>    -1.2844    -0.0000    -0.0000    -0.0000 </r>
        <r>    -1.1829    -0.0000    -0.0000    -0.0000 </r>
        <r>    -1.0815    -0.0000    -0.0000    -0.0000 </r>
        <r>    -0.9800    -0.0000    -0.0000    -0.0000 </r>
        <r>    -0.8785    -0.0000    -0.0000    -0.0000 </r>
        <r>    -0.7770    -0.0002    -0.0000    -0.0000 </r>
        <r>    -0.6755    -0.0010    -0.0000    -0.0000 </r>
        <r>    -0.5740    -0.0017    -0.0000    -0.0000 </r>
        <r>    -0.4725     0.0045     0.0000     0.0000 </r>
        <r>    -0.3710     0.0225     0.0000     0.0000 </r>
        <r>    -0.2695     0.0347     0.0000     0.0000 </r>
        <r>    -0.1681     0.0230     0.0000     0.0000 </r>
        <r>    -0.0666     0.0048     0.0000     0.0000 </r>
        <r>     0.0349    -0.0016    -0.0000    -0.0000 </r>
        <r>     0.1364    -0.0011    -0.0000    -0.0000 </r>
        <r>     0.2379    -0.0002    -0.0000    -0.0000 </r>
        <r>     0.3394    -0.0000    -0.0000    -0.0000 </r>
        <r>     0.4409    -0.0001    -0.0000    -0.0000 </r>
        <r>     0.5424    -0.0007    -0.0000    -0.0000 </r>
        <r>     0.6439    -0.0020    -0.0000    -0.0000 </r>
        <r>     0.7453     0.0003    -0.0002    -0.0000 </r>
        <r>     0.8468     0.0163    -0.0014     0.0000 </r>
        <r>     0.9483     0.0383    -0.0044    -0.0000 </r>
        <r>     1.0498     0.0370    -0.0001     0.0000 </r>
        <r>     1.1513     0.0144     0.0341     0.0000 </r>
        <r>     1.2528    -0.0003     0.0841     0.0000 </r>
        <r>     1.3543    -0.0019     0.0844     0.0000 </r>
        <r>     1.4558    -0.0006     0.0346     0.0000 </r>
        <r>     1.5573    -0.0001     0.0001     0.0000 </r>
        <r>     1.6588    -0.0000    -0.0044    -0.0000 </r>
        <r>     1.7602    -0.0000    -0.0014    -0.0000 </r>
        <r>     1.8617    -0.0000    -0.0002    -0.0000 </r>
        <r>     1.9632    -0.0000    -0.0000    -0.0000 </r>
        <r>     2.0647    -0.0000    -0.0000    -0.0000 </r>
        <r>     2.1662    -0.0000    -0.0000    -0.0000 </r>
        <r>     2.2677    -0.0000    -0.0000    -0.0000 </r>
        <r>     2.3692    -0.0000    -0.0000    -0.0000 </r>
        <r>     2.4707    -0.0000    -0.0000    -0.0000 </r>
        <r>     2.5722    -0.0000    -0.0000    -0.0000 </r>
        <r>     2.6736     0.0000     0.0000     0.0000 </r>
        <r>     2.7751     0.0000     0.0000     0.0000 </r>
        <r>     2.8766     0.0000     0.0000     0.0000 </r>
        <r>     2.9781     0.0000     0.0000     0.0000 </r>
        <r>     3.0796     0.0000     0.0000     0.0000 </r>
        <r>     3.1811     0.0000     0.0000     0.0000 </r>
        <r>     3.2826     0.0000     0.0000     0.0000 </r>
       </set>
       <set comment="spin 2">
        <r>   -27.1641     0.0000     0.0000     0.0000 </r>
        <r>   -27.0626     0.0000     0.0000     0.0000 </r>
        <r>   -26.9611     0.0000     0.0000     0.0000 </r>
        <r>   -26.8597     0.0000     0.0000     0.0000 </r>
        <r>   -26.7582     0.0000     0.0000     0.0000 </r>
        <r>   -26.6567     0.0000     0.0000     0.0000 </r>
        <r>   -26.5552     0.0000     0.0000     0.0000 </r>
        <r>   -26.4537     0.0000     0.0000     0.0000 </r>
        <r>   -26.3522     0.0000     0.0000     0.0000 </r>
        <r>   -26.2507     0.0000     0.0000     0.0000 </r>
        <r>   -26.1492     0.0000     0.0000     0.0000 </r>
        <r>   -26.0477     0.0000     0.0000     0.0000 </r>
        <r>   -25.9463     0.0000     0.0000     0.0000 </r>
        <r>   -25.8448     0.0000     0.0000     0.0000 </r>
        <r>   -25.7433     0.0000     0.0000     0.0000 </r>
        <r>   -25.6418     0.0000     0.0000     0.0000 </r>
        <r>   -25.5403     0.0000     0.0000     0.0000 </r>
        <r>   -25.4388     0.0000     0.0000     0.0000 </r>
        <r>   -25.3373     0.0000     0.0000     0.0000 </r>
        <r>   -25.2358     0.0000     0.0000     0.0000 </r>
        <r>   -25.1343     0.0000     0.0000     0.0000 </r>
        <r>   -25.0329     0.0000     0.0000     0.0000 </r>
        <r>   -24.9314     0.0000     0.0000     0.0000 </r>
        <r>   -24.8299     0.0000     0.0000     0.0000 </r>
        <r>   -24.7284     0.0000     0.0000     0.0000 </r>
        <r>   -24.6269     0.0000     0.0000     0.0000 </r>
        <r>   -24.5254     0.0000     0.0000     0.0000 </r>
        <r>   -24.4239     0.0000     0.0000     0.0000 </r>
        <r>   -24.3224     0.0000     0.0000     0.0000 </r>
        <r>   -24.2209     0.0000     0.0000     0.0000 </r>
        <r>   -24.1195     0.0000     0.0000     0.0000 </r>
        <r>   -24.0180     0.0000     0.0000     0.0000 </r>
        <r>   -23.9165     0.0000     0.0000     0.0000 </r>
        <r>   -23.8150     0.0000     0.0000     0.0000 </r>
        <r>   -23.7135     0.0000     0.0000     0.0000 </r>
        <r>   -23.6120    -0.0000    -0.0000    -0.0000 </r>
        <r>   -23.5105    -0.0000    -0.0000    -0.0000 </r>
        <r>   -23.4090    -0.0000    -0.0000    -0.0000 </r>
        <r>   -23.3075    -0.0000    -0.0000    -0.0000 </r>
        <r>   -23.2061    -0.0000    -0.0000    -0.0000 </r>
        <r>   -23.1046    -0.0000    -0.0000    -0.0000 </r>
        <r>   -23.0031    -0.0000    -0.0000    -0.0000 </r>
        <r>   -22.9016    -0.0000    -0.0000    -0.0000 </r>
        <r>   -22.8001    -0.0000    -0.0000    -0.0000 </r>
        <r>   -22.6986    -0.0000    -0.0000    -0.0000 </r>
        <r>   -22.5971    -0.0001    -0.0000    -0.0000 </r>
        <r>   -22.4956    -0.0011    -0.0000    -0.0000 </r>
        <r>   -22.3941    -0.0124    -0.0000    -0.0000 </r>
        <r>   -22.2927    -0.0701    -0.0000    -0.0000 </r>
        <r>   -22.1912    -0.1551    -0.0000    -0.0000 </r>
        <r>   -22.0897     0.1978     0.0000     0.0000 </r>
        <r>   -21.9882     1.6177     0.0000     0.0000 </r>
        <r>   -21.8867     2.9809     0.0000     0.0000 </r>
        <r>   -21.7852     2.3465     0.0000     0.0000 </r>
        <r>   -21.6837     0.6749     0.0000     0.0000 </r>
        <r>   -21.5822    -0.1087    -0.0000    -0.0000 </r>
        <r>   -21.4807    -0.1142    -0.0000    -0.0000 </r>
        <r>   -21.3793    -0.0282    -0.0000    -0.0000 </r>
        <r>   -21.2778    -0.0034    -0.0000    -0.0000 </r>
        <r>   -21.1763    -0.0002    -0.0000    -0.0000 </r>
        <r>   -21.0748    -0.0000    -0.0000    -0.0000 </r>
        <r>   -20.9733    -0.0000    -0.0000    -0.0000 </r>
        <r>   -20.8718    -0.0000    -0.0000    -0.0000 </r>
        <r>   -20.7703    -0.0000    -0.0000    -0.0000 </r>
        <r>   -20.6688    -0.0000    -0.0000    -0.0000 </r>
        <r>   -20.5673     0.0000     0.0000     0.0000 </r>
        <r>   -20.4658     0.0000     0.0000     0.0000 </r>
        <r>   -20.3644     0.0000     0.0000     0.0000 </r>
        <r>   -20.2629     0.0000     0.0000     0.0000 </r>
        <r>   -20.1614     0.0000     0.0000     0.0000 </r>
        <r>   -20.0599     0.0000     0.0000     0.0000 </r>
        <r>   -19.9584     0.0000     0.0000     0.0000 </r>
        <r>   -19.8569     0.0000     0.0000     0.0000 </r>
        <r>   -19.7554     0.0000     0.0000     0.0000 </r>
        <r>   -19.6539     0.0000     0.0000     0.0000 </r>
        <r>   -19.5524     0.0000     0.0000     0.0000 </r>
        <r>   -19.4510     0.0000     0.0000     0.0000 </r>
        <r>   -19.3495     0.0000     0.0000     0.0000 </r>
        <r>   -19.2480     0.0000     0.0000     0.0000 </r>
        <r>   -19.1465     0.0000     0.0000     0.0000 </r>
        <r>   -19.0450     0.0000     0.0000     0.0000 </r>
        <r>   -18.9435     0.0000     0.0000     0.0000 </r>
        <r>   -18.8420     0.0000     0.0000     0.0000 </r>
        <r>   -18.7405     0.0000     0.0000     0.0000 </r>
        <r>   -18.6390     0.0000     0.0000     0.0000 </r>
        <r>   -18.5376     0.0000     0.0000     0.0000 </r>
        <r>   -18.4361     0.0000     0.0000     0.0000 </r>
        <r>   -18.3346     0.0000     0.0000     0.0000 </r>
        <r>   -18.2331     0.0000     0.0000     0.0000 </r>
        <r>   -18.1316     0.0000     0.0000     0.0000 </r>
        <r>   -18.0301     0.0000     0.0000     0.0000 </r>
        <r>   -17.9286     0.0000     0.0000     0.0000 </r>
        <r>   -17.8271     0.0000     0.0000     0.0000 </r>
        <r>   -17.7256     0.0000     0.0000     0.0000 </r>
        <r>   -17.6242     0.0000     0.0000     0.0000 </r>
        <r>   -17.5227     0.0000     0.0000     0.0000 </r>
        <r>   -17.4212     0.0000     0.0000     0.0000 </r>
        <r>   -17.3197     0.0000     0.0000     0.0000 </r>
        <r>   -17.2182     0.0000     0.0000     0.0000 </r>
        <r>   -17.1167     0.0000     0.0000     0.0000 </r>
        <r>   -17.0152     0.0000     0.0000     0.0000 </r>
        <r>   -16.9137     0.0000     0.0000     0.0000 </r>
        <r>   -16.8122     0.0000     0.0000     0.0000 </r>
        <r>   -16.7108     0.0000     0.0000     0.0000 </r>
        <r>   -16.6093     0.0000     0.0000     0.0000 </r>
        <r>   -16.5078     0.0000     0.0000     0.0000 </r>
        <r>   -16.4063     0.0000     0.0000     0.0000 </r>
        <r>   -16.3048     0.0000     0.0000     0.0000 </r>
        <r>   -16.2033     0.0000     0.0000     0.0000 </r>
        <r>   -16.1018     0.0000     0.0000     0.0000 </r>
        <r>   -16.0003     0.0000     0.0000     0.0000 </r>
        <r>   -15.8988     0.0000     0.0000     0.0000 </r>
        <r>   -15.7974     0.0000     0.0000     0.0000 </r>
        <r>   -15.6959     0.0000     0.0000     0.0000 </r>
        <r>   -15.5944     0.0000     0.0000     0.0000 </r>
        <r>   -15.4929     0.0000     0.0000     0.0000 </r>
        <r>   -15.3914     0.0000     0.0000     0.0000 </r>
        <r>   -15.2899     0.0000     0.0000     0.0000 </r>
        <r>   -15.1884     0.0000     0.0000     0.0000 </r>
        <r>   -15.0869     0.0000     0.0000     0.0000 </r>
        <r>   -14.9854     0.0000     0.0000     0.0000 </r>
        <r>   -14.8840     0.0000     0.0000     0.0000 </r>
        <r>   -14.7825     0.0000     0.0000     0.0000 </r>
        <r>   -14.6810     0.0000     0.0000     0.0000 </r>
        <r>   -14.5795     0.0000     0.0000     0.0000 </r>
        <r>   -14.4780     0.0000     0.0000     0.0000 </r>
        <r>   -14.3765     0.0000     0.0000     0.0000 </r>
        <r>   -14.2750     0.0000     0.0000     0.0000 </r>
        <r>   -14.1735     0.0000     0.0000     0.0000 </r>
        <r>   -14.0720     0.0000     0.0000     0.0000 </r>
        <r>   -13.9706     0.0000     0.0000     0.0000 </r>
        <r>   -13.8691     0.0000     0.0000     0.0000 </r>
        <r>   -13.7676     0.0000     0.0000     0.0000 </r>
        <r>   -13.6661     0.0000     0.0000     0.0000 </r>
        <r>   -13.5646     0.0000     0.0000     0.0000 </r>
        <r>   -13.4631     0.0000     0.0000     0.0000 </r>
        <r>   -13.3616     0.0000     0.0000     0.0000 </r>
        <r>   -13.2601     0.0000     0.0000     0.0000 </r>
        <r>   -13.1586     0.0000     0.0000     0.0000 </r>
        <r>   -13.0572     0.0000     0.0000     0.0000 </r>
        <r>   -12.9557     0.0000     0.0000     0.0000 </r>
        <r>   -12.8542     0.0000     0.0000     0.0000 </r>
        <r>   -12.7527     0.0000     0.0000     0.0000 </r>
        <r>   -12.6512     0.0000     0.0000     0.0000 </r>
        <r>   -12.5497     0.0000     0.0000     0.0000 </r>
        <r>   -12.4482     0.0000     0.0000     0.0000 </r>
        <r>   -12.3467     0.0000     0.0000     0.0000 </r>
        <r>   -12.2452     0.0000     0.0000     0.0000 </r>
        <r>   -12.1438     0.0000     0.0000     0.0000 </r>
        <r>   -12.0423     0.0000     0.0000     0.0000 </r>
        <r>   -11.9408     0.0000     0.0000     0.0000 </r>
        <r>   -11.8393     0.0000     0.0000     0.0000 </r>
        <r>   -11.7378     0.0000     0.0000     0.0000 </r>
        <r>   -11.6363     0.0000     0.0000     0.0000 </r>
        <r>   -11.5348     0.0000     0.0000     0.0000 </r>
        <r>   -11.4333     0.0000     0.0000     0.0000 </r>
        <r>   -11.3318     0.0000     0.0000     0.0000 </r>
        <r>   -11.2304     0.0000     0.0000     0.0000 </r>
        <r>   -11.1289     0.0000     0.0000     0.0000 </r>
        <r>   -11.0274     0.0000     0.0000     0.0000 </r>
        <r>   -10.9259     0.0000     0.0000     0.0000 </r>
        <r>   -10.8244     0.0000     0.0000     0.0000 </r>
        <r>   -10.7229     0.0000     0.0000     0.0000 </r>
        <r>   -10.6214     0.0000     0.0000     0.0000 </r>
        <r>   -10.5199     0.0000     0.0000     0.0000 </r>
        <r>   -10.4184     0.0000     0.0000     0.0000 </r>
        <r>   -10.3170     0.0000     0.0000     0.0000 </r>
        <r>   -10.2155     0.0000     0.0000     0.0000 </r>
        <r>   -10.1140     0.0000     0.0000     0.0000 </r>
        <r>   -10.0125     0.0000     0.0000     0.0000 </r>
        <r>    -9.9110     0.0000     0.0000     0.0000 </r>
        <r>    -9.8095     0.0000     0.0000     0.0000 </r>
        <r>    -9.7080     0.0000     0.0000     0.0000 </r>
        <r>    -9.6065     0.0000     0.0000     0.0000 </r>
        <r>    -9.5050     0.0000     0.0000     0.0000 </r>
        <r>    -9.4035     0.0000     0.0000     0.0000 </r>
        <r>    -9.3021     0.0000     0.0000     0.0000 </r>
        <r>    -9.2006     0.0000     0.0000     0.0000 </r>
        <r>    -9.0991     0.0000     0.0000     0.0000 </r>
        <r>    -8.9976     0.0000     0.0000     0.0000 </r>
        <r>    -8.8961     0.0000     0.0000     0.0000 </r>
        <r>    -8.7946    -0.0000    -0.0000    -0.0000 </r>
        <r>    -8.6931    -0.0000    -0.0000    -0.0000 </r>
        <r>    -8.5916    -0.0000    -0.0000    -0.0000 </r>
        <r>    -8.4901    -0.0000    -0.0000    -0.0000 </r>
        <r>    -8.3887    -0.0000    -0.0000    -0.0000 </r>
        <r>    -8.2872    -0.0000    -0.0000    -0.0000 </r>
        <r>    -8.1857    -0.0000    -0.0000    -0.0000 </r>
        <r>    -8.0842    -0.0000    -0.0000    -0.0000 </r>
        <r>    -7.9827    -0.0000    -0.0000    -0.0000 </r>
        <r>    -7.8812    -0.0000    -0.0000    -0.0000 </r>
        <r>    -7.7797    -0.0000    -0.0004    -0.0000 </r>
        <r>    -7.6782    -0.0000    -0.0068    -0.0000 </r>
        <r>    -7.5767    -0.0000    -0.0612    -0.0000 </r>
        <r>    -7.4753    -0.0000    -0.2713    -0.0000 </r>
        <r>    -7.3738    -0.0000    -0.3486    -0.0000 </r>
        <r>    -7.2723     0.0000     1.4038     0.0000 </r>
        <r>    -7.1708     0.0000     5.7467     0.0000 </r>
        <r>    -7.0693     0.0000     8.0145     0.0000 </r>
        <r>    -6.9678     0.0000     4.8098     0.0000 </r>
        <r>    -6.8663     0.0000     0.7956     0.0000 </r>
        <r>    -6.7648    -0.0000    -0.4046    -0.0000 </r>
        <r>    -6.6633    -0.0000    -0.2145    -0.0000 </r>
        <r>    -6.5619    -0.0000    -0.0412    -0.0000 </r>
        <r>    -6.4604    -0.0000    -0.0040    -0.0000 </r>
        <r>    -6.3589    -0.0000    -0.0002    -0.0000 </r>
        <r>    -6.2574    -0.0000    -0.0000    -0.0000 </r>
        <r>    -6.1559    -0.0000    -0.0000    -0.0000 </r>
        <r>    -6.0544    -0.0000    -0.0000    -0.0000 </r>
        <r>    -5.9529    -0.0000    -0.0000    -0.0000 </r>
        <r>    -5.8514    -0.0000    -0.0000    -0.0000 </r>
        <r>    -5.7499     0.0000     0.0000     0.0000 </r>
        <r>    -5.6485     0.0000     0.0000     0.0000 </r>
        <r>    -5.5470     0.0000     0.0000     0.0000 </r>
        <r>    -5.4455     0.0000     0.0000     0.0000 </r>
        <r>    -5.3440     0.0000     0.0000     0.0000 </r>
        <r>    -5.2425     0.0000     0.0000     0.0000 </r>
        <r>    -5.1410     0.0000     0.0000     0.0000 </r>
        <r>    -5.0395     0.0000     0.0000     0.0000 </r>
        <r>    -4.9380     0.0000     0.0000     0.0000 </r>
        <r>    -4.8365     0.0000     0.0000     0.0000 </r>
        <r>    -4.7351     0.0000     0.0000     0.0000 </r>
        <r>    -4.6336     0.0000     0.0000     0.0000 </r>
        <r>    -4.5321     0.0000     0.0000     0.0000 </r>
        <r>    -4.4306     0.0000     0.0000     0.0000 </r>
        <r>    -4.3291     0.0000     0.0000     0.0000 </r>
        <r>    -4.2276     0.0000     0.0000     0.0000 </r>
        <r>    -4.1261     0.0000     0.0000     0.0000 </r>
        <r>    -4.0246     0.0000     0.0000     0.0000 </r>
        <r>    -3.9231     0.0000     0.0000     0.0000 </r>
        <r>    -3.8217     0.0000     0.0000     0.0000 </r>
        <r>    -3.7202     0.0000     0.0000     0.0000 </r>
        <r>    -3.6187     0.0000     0.0000     0.0000 </r>
        <r>    -3.5172     0.0000     0.0000     0.0000 </r>
        <r>    -3.4157     0.0000     0.0000     0.0000 </r>
        <r>    -3.3142     0.0000     0.0000     0.0000 </r>
        <r>    -3.2127     0.0000     0.0000     0.0000 </r>
        <r>    -3.1112     0.0000     0.0000     0.0000 </r>
        <r>    -3.0097     0.0000     0.0000     0.0000 </r>
        <r>    -2.9083     0.0000     0.0000     0.0000 </r>
        <r>    -2.8068     0.0000     0.0000     0.0000 </r>
        <r>    -2.7053     0.0000     0.0000     0.0000 </r>
        <r>    -2.6038     0.0000     0.0000     0.0000 </r>
        <r>    -2.5023     0.0000     0.0000     0.0000 </r>
        <r>    -2.4008     0.0000     0.0000     0.0000 </r>
        <r>    -2.2993     0.0000     0.0000     0.0000 </r>
        <r>    -2.1978     0.0000     0.0000     0.0000 </r>
        <r>    -2.0963     0.0000     0.0000     0.0000 </r>
        <r>    -1.9949     0.0000     0.0000     0.0000 </r>
        <r>    -1.8934    -0.0000    -0.0000    -0.0000 </r>
        <r>    -1.7919    -0.0000    -0.0000    -0.0000 </r>
        <r>    -1.6904    -0.0000    -0.0000    -0.0000 </r>
        <r>    -1.5889    -0.0000    -0.0000    -0.0000 </r>
        <r>    -1.4874    -0.0000    -0.0000    -0.0000 </r>
        <r>    -1.3859    -0.0000    -0.0000    -0.0000 </r>
        <r>    -1.2844    -0.0000    -0.0000    -0.0000 </r>
        <r>    -1.1829    -0.0000    -0.0000    -0.0000 </r>
        <r>    -1.0815    -0.0000    -0.0000    -0.0000 </r>
        <r>    -0.9800    -0.0000    -0.0000    -0.0000 </r>
        <r>    -0.8785    -0.0000    -0.0000    -0.0000 </r>
        <r>    -0.7770    -0.0001    -0.0000    -0.0000 </r>
        <r>    -0.6755    -0.0004    -0.0000    -0.0000 </r>
        <r>    -0.5740    -0.0013    -0.0000    -0.0000 </r>
        <r>    -0.4725    -0.0000    -0.0000    -0.0000 </r>
        <r>    -0.3710     0.0100     0.0000     0.0000 </r>
        <r>    -0.2695     0.0246     0.0000     0.0000 </r>
        <r>    -0.1681     0.0247     0.0000     0.0000 </r>
        <r>    -0.0666     0.0101     0.0000     0.0000 </r>
        <r>     0.0349     0.0000     0.0000     0.0000 </r>
        <r>     0.1364    -0.0013    -0.0000    -0.0000 </r>
        <r>     0.2379    -0.0004    -0.0000    -0.0000 </r>
        <r>     0.3394    -0.0001    -0.0000    -0.0000 </r>
        <r>     0.4409    -0.0000    -0.0000    -0.0000 </r>
        <r>     0.5424    -0.0000    -0.0000    -0.0000 </r>
        <r>     0.6439    -0.0001    -0.0000    -0.0000 </r>
        <r>     0.7453    -0.0004    -0.0001    -0.0000 </r>
        <r>     0.8468    -0.0017    -0.0010    -0.0000 </r>
        <r>     0.9483    -0.0016    -0.0040    -0.0000 </r>
        <r>     1.0498     0.0103    -0.0039    -0.0000 </r>
        <r>     1.1513     0.0353     0.0235     0.0000 </r>
        <r>     1.2528     0.0446     0.0824     0.0000 </r>
        <r>     1.3543     0.0240     0.1051     0.0000 </r>
        <r>     1.4558     0.0029     0.0573     0.0000 </r>
        <r>     1.5573    -0.0023     0.0071     0.0000 </r>
        <r>     1.6588    -0.0010    -0.0055    -0.0000 </r>
        <r>     1.7602    -0.0002    -0.0025    -0.0000 </r>
        <r>     1.8617    -0.0000    -0.0004    -0.0000 </r>
        <r>     1.9632    -0.0000    -0.0000    -0.0000 </r>
        <r>     2.0647    -0.0000    -0.0000    -0.0000 </r>
        <r>     2.1662    -0.0000    -0.0000    -0.0000 </r>
        <r>     2.2677    -0.0000    -0.0000    -0.0000 </r>
        <r>     2.3692    -0.0000    -0.0000    -0.0000 </r>
        <r>     2.4707    -0.0000    -0.0000    -0.0000 </r>
        <r>     2.5722    -0.0000    -0.0000    -0.0000 </r>
        <r>     2.6736     0.0000     0.0000     0.0000 </r>
        <r>     2.7751     0.0000     0.0000     0.0000 </r>
        <r>     2.8766     0.0000     0.0000     0.0000 </r>
        <r>     2.9781     0.0000     0.0000     0.0000 </r>
        <r>     3.0796     0.0000     0.0000     0.0000 </r>
        <r>     3.1811     0.0000     0.0000     0.0000 </r>
        <r>     3.2826     0.0000     0.0000     0.0000 </r>
       </set>
      </set>
     </set>
    </array>
   </partial>
  </dos>
  <projected>
   <eigenvalues>
    <array>
     <dimension dim="1">band</dimension>
     <dimension dim="2">kpoint</dimension>
     <dimension dim="3">spin</dimension>
     <field>eigene</field>
     <field>occ</field>
     <set>
      <set comment="spin 1">
       <set comment="kpoint 1">
        <r>  -25.1641    1.0000 </r>
        <r>  -10.1587    1.0000 </r>
        <r>  -10.1587    1.0000 </r>
        <r>  -10.1587    1.0000 </r>
        <r>   -0.3189    0.0000 </r>
        <r>    0.9440    0.0000 </r>
        <r>    1.2532    0.0000 </r>
        <r>    1.2532    0.0000 </r>
       </set>
      </set>
      <set comment="spin 2">
       <set comment="kpoint 1">
        <r>  -21.9159    1.0000 </r>
        <r>   -7.1304    0.3333 </r>
        <r>   -7.1304    0.3333 </r>
        <r>   -7.1304    0.3333 </r>
        <r>   -0.2692    0.0000 </r>
        <r>    1.1798    0.0000 </r>
        <r>    1.2826    0.0000 </r>
        <r>    1.2826    0.0000 </r>
       </set>
      </set>
     </set>
    </array>
   </eigenvalues>
   <array>
    <dimension dim="1">ion</dimension>
    <dimension dim="2">band</dimension>
    <dimension dim="3">kpoint</dimension>
    <dimension dim="4">spin</dimension>
    <field>  s  </field>
    <field>  p  </field>
    <field>  d  </field>
    <set>
     <set comment="spin1">
      <set comment="kpoint 1">
       <set comment="band 1">
        <r>  0.7619  0.0000  0.0000 </r>
       </set>
       <set comment="band 2">
        <r>  0.0000  0.7053  0.0000 </r>
       </set>
       <set comment="band 3">
        <r>  0.0000  0.7053  0.0000 </r>
       </set>
       <set comment="band 4">
        <r>  0.0000  0.7053  0.0000 </r>
       </set>
       <set comment="band 5">
        <r>  0.0085  0.0000  0.0000 </r>
       </set>
       <set comment="band 6">
        <r>  0.0102  0.0000  0.0000 </r>
       </set>
       <set comment="band 7">
        <r>  0.0000  0.0114  0.0000 </r>
       </set>
       <set comment="band 8">
        <r>  0.0000  0.0114  0.0000 </r>
       </set>
      </set>
     </set>
     <set comment="spin2">
      <set comment="kpoint 1">
       <set comment="band 1">
        <r>  0.7433  0.0000  0.0000 </r>
       </set>
       <set comment="band 2">
        <r>  0.0000  0.6569  0.0000 </r>
       </set>
       <set comment="band 3">
        <r>  0.0000  0.6569  0.0000 </r>
       </set>
       <set comment="band 4">
        <r>  0.0000  0.6569  0.0000 </r>
       </set>
       <set comment="band 5">
        <r>  0.0067  0.0000  0.0000 </r>
       </set>
       <set comment="band 6">
        <r>  0.0111  0.0000  0.0000 </r>
       </set>
       <set comment="band 7">
        <r>  0.0000  0.0131  0.0000 </r>
       </set>
       <set comment="band 8">
        <r>  0.0000  0.0131  0.0000 </r>
       </set>
      </set>
     </set>
    </set>
   </array>
  </projected>
 </calculation>
 <structure name="finalpos" >
  <crystal>
   <varray name="basis" >
    <v>      10.00000000       0.00000000       0.00000000 </v>
    <v>       0.00000000      10.00000000       0.00000000 </v>
    <v>       0.00000000       0.00000000      10.00000000 </v>
   </varray>
   <i name="volume">   1000.00000000 </i>
   <varray name="rec_basis" >
    <v>       0.10000000       0.00000000       0.00000000 </v>
    <v>       0.00000000       0.10000000       0.00000000 </v>
    <v>       0.00000000       0.00000000       0.10000000 </v>
   </varray>
  </crystal>
  <varray name="positions" >
   <v>       0.00000000       0.00000000       0.00000000 </v>
  </varray>
 </structure>
</modeling>
