O-Spin                                  
           1
    10.000000    0.000000    0.000000
     0.000000   10.000000    0.000000
     0.000000    0.000000   10.000000
   O 
   1
Direct configuration=     1
   0.00000000  0.00000000  0.00000000
