fcc Au                                  
   3.90000000000000     
     0.000000    0.500000    0.500000
     0.500000    0.000000    0.500000
     0.500000    0.500000    0.000000
   Au
     1
Direct
  0.000000  0.000000  0.000000
 
   20   20   20
  71.096      67.735      59.266      48.903      38.686      28.906      19.757      12.380      7.8718      5.9030    
  5.3544      5.9030      7.8718      12.380      19.757      28.906      38.686      48.903      59.266      67.735    
  67.735      61.893      52.653      42.646      32.896      23.537      15.315      9.5098      6.5261      5.3914    
  5.3965      6.5331      9.5085      15.314      23.550      32.911      42.622      52.570      61.790      67.687    
  59.266      52.653      44.084      35.029      26.009      17.646      11.120      7.2436      5.5155      5.0232    
  5.5195      7.2434      11.118      17.655      26.032      35.037      44.040      52.565      59.191      61.790    
  48.903      42.646      35.029      26.865      18.917      12.287      7.9123      5.6999      4.7920      4.7921    
  5.6982      7.9074      12.284      18.922      26.879      35.042      42.647      48.896      52.565      52.570    
  38.686      32.896      26.009      18.917      12.715      8.3251      5.8683      4.6727      4.3272      4.6744    
  5.8680      8.3182      12.701      18.904      26.009      32.916      38.719      42.647      44.040      42.622    
  28.906      23.537      17.646      12.287      8.3251      5.9398      4.6305      4.0703      4.0710      4.6342    
  5.9461      8.3257      12.272      17.616      23.510      28.896      32.916      35.042      35.037      32.911    
  19.757      15.315      11.120      7.9123      5.8683      4.6305      3.9899      3.7977      3.9883      4.6367    
  5.8858      7.9292      11.118      15.287      19.713      23.510      26.009      26.879      26.032      23.550    
  12.380      9.5098      7.2436      5.6999      4.6727      4.0703      3.7977      3.7948      4.0649      4.6735    
  5.7157      7.2734      9.5375      12.384      15.287      17.616      18.904      18.922      17.655      15.314    
  7.8718      6.5261      5.5155      4.7920      4.3272      4.0710      3.9883      4.0649      4.3120      4.7748    
  5.5158      6.5557      7.9160      9.5375      11.118      12.272      12.701      12.284      11.118      9.5085    
  5.9030      5.3914      5.0232      4.7921      4.6744      4.6342      4.6367      4.6735      4.7748      4.9920    
  5.3662      5.9020      6.5557      7.2734      7.9292      8.3257      8.3182      7.9074      7.2434      6.5331    
  5.3544      5.3965      5.5195      5.6982      5.8680      5.9461      5.8858      5.7157      5.5158      5.3662    
  5.3121      5.3662      5.5158      5.7157      5.8858      5.9461      5.8680      5.6982      5.5195      5.3965    
  5.9030      6.5331      7.2434      7.9074      8.3182      8.3257      7.9292      7.2734      6.5557      5.9020    
  5.3662      4.9920      4.7748      4.6735      4.6367      4.6342      4.6744      4.7921      5.0232      5.3914    
  7.8718      9.5085      11.118      12.284      12.701      12.272      11.118      9.5375      7.9160      6.5557    
  5.5158      4.7748      4.3120      4.0649      3.9883      4.0710      4.3272      4.7920      5.5155      6.5261    
  12.380      15.314      17.655      18.922      18.904      17.616      15.287      12.384      9.5375      7.2734    
  5.7157      4.6735      4.0649      3.7948      3.7977      4.0703      4.6727      5.6999      7.2436      9.5098    
  19.757      23.550      26.032      26.879      26.009      23.510      19.713      15.287      11.118      7.9292    
  5.8858      4.6367      3.9883      3.7977      3.9899      4.6305      5.8683      7.9123      11.120      15.315    
  28.906      32.911      35.037      35.042      32.916      28.896      23.510      17.616      12.272      8.3257    
  5.9461      4.6342      4.0710      4.0703      4.6305      5.9398      8.3251      12.287      17.646      23.537    
  38.686      42.622      44.040      42.647      38.719      32.916      26.009      18.904      12.701      8.3182    
  5.8680      4.6744      4.3272      4.6727      5.8683      8.3251      12.715      18.917      26.009      32.896    
  48.903      52.570      52.565      48.896      42.647      35.042      26.879      18.922      12.284      7.9074    
  5.6982      4.7921      4.7920      5.6999      7.9123      12.287      18.917      26.865      35.029      42.646    
  59.266      61.790      59.191      52.565      44.040      35.037      26.032      17.655      11.118      7.2434    
  5.5195      5.0232      5.5155      7.2436      11.120      17.646      26.009      35.029      44.084      52.653    
  67.735      67.687      61.790      52.570      42.622      32.911      23.550      15.314      9.5085      6.5331    
  5.3965      5.3914      6.5261      9.5098      15.315      23.537      32.896      42.646      52.653      61.893    
  67.735      61.893      52.653      42.646      32.896      23.537      15.315      9.5098      6.5261      5.3914    
  5.3965      6.5331      9.5085      15.314      23.550      32.911      42.622      52.570      61.790      67.687    
  61.893      54.676      45.507      36.076      26.842      18.274      11.510      7.4455      5.6435      5.1344    
  5.6488      7.4447      11.507      18.290      26.878      36.082      45.429      54.527      61.771      64.659    
  52.653      45.507      37.187      28.576      20.242      13.168      8.3862      5.9604      4.9856      4.9867    
  5.9590      8.3802      13.171      20.269      28.610      37.186      45.448      52.569      56.918      56.958    
  42.646      36.076      28.576      20.930      14.103      9.1063      6.2653      4.9272      4.5427      4.9311    
  6.2638      9.0960      14.096      20.939      28.603      36.106      42.665      47.339      49.064      47.333    
  32.896      26.842      20.242      14.103      9.3813      6.4691      4.9275      4.2731      4.2764      4.9328    
  6.4672      9.3672      14.083      20.232      26.856      32.932      37.596      40.141      40.125      37.557    
  23.537      18.274      13.168      9.1063      6.4691      4.9401      4.1533      3.9226      4.1529      4.9451    
  6.4786      9.1075      13.150      18.244      23.515      27.999      30.962      31.989      30.957      28.004    
  15.315      11.510      8.3862      6.2653      4.9275      4.1533      3.8143      3.8112      4.1513      4.9390    
  6.2895      8.4060      11.508      15.288      19.029      21.964      23.559      23.570      21.995      19.067    
  9.5098      7.4455      5.9604      4.9272      4.2731      3.9226      3.8112      3.9175      4.2667      4.9287    
  5.9793      7.4789      9.5390      11.950      14.220      15.828      16.415      15.850      14.241      11.946    
  6.5261      5.6435      4.9856      4.5427      4.2764      4.1529      4.1513      4.2667      4.5211      4.9649    
  5.6457      6.5574      7.6851      8.9353      10.040      10.693      10.696      10.037      8.9115      7.6448    
  5.3914      5.1344      4.9867      4.9311      4.9328      4.9451      4.9390      4.9287      4.9649      5.1013    
  5.3674      5.7580      6.2289      6.7109      7.0925      7.2353      7.0783      6.6884      6.2110      5.7592    
  5.3965      5.6488      5.9590      6.2638      6.4672      6.4786      6.2895      5.9793      5.6457      5.3674    
  5.1891      5.1240      5.1568      5.2385      5.2995      5.2920      5.2260      5.1592      5.1506      5.2284    
  6.5331      7.4447      8.3802      9.0960      9.3672      9.1075      8.4060      7.4789      6.5574      5.7580    
  5.1240      4.6897      4.4327      4.3041      4.2643      4.3040      4.4430      4.7135      5.1465      5.7592    
  9.5085      11.507      13.171      14.096      14.083      13.150      11.508      9.5390      7.6851      6.2289    
  5.1568      4.4327      4.0081      3.8150      3.8180      4.0174      4.4442      5.1568      6.2052      7.6448    
  15.314      18.290      20.269      20.939      20.232      18.244      15.288      11.950      8.9353      6.7109    
  5.2385      4.3041      3.8150      3.6678      3.8183      4.3046      5.2286      6.6891      8.9124      11.946    
  23.550      26.878      28.610      28.603      26.856      23.515      19.029      14.220      10.040      7.0925    
  5.2995      4.2643      3.8180      3.8183      4.2613      5.2894      7.0815      10.042      14.244      19.067    
  32.911      36.082      37.186      36.106      32.932      27.999      21.964      15.828      10.693      7.2353    
  5.2920      4.3040      4.0174      4.3046      5.2894      7.2325      10.701      15.852      21.990      28.004    
  42.622      45.429      45.448      42.665      37.596      30.962      23.559      16.415      10.696      7.0783    
  5.2260      4.4430      4.4442      5.2286      7.0815      10.701      16.424      23.561      30.945      37.557    
  52.570      54.527      52.569      47.339      40.141      31.989      23.570      15.850      10.037      6.6884    
  5.1592      4.7135      5.1568      6.6891      10.042      15.852      23.561      31.970      40.125      47.333    
  61.790      61.771      56.918      49.064      40.125      30.957      21.995      14.241      8.9115      6.2110    
  5.1506      5.1465      6.2052      8.9124      14.244      21.990      30.945      40.125      49.091      56.958    
  67.687      64.659      56.958      47.333      37.557      28.004      19.067      11.946      7.6448      5.7592    
  5.2284      5.7592      7.6448      11.946      19.067      28.004      37.557      47.333      56.958      64.659    
  59.266      52.653      44.084      35.029      26.009      17.646      11.120      7.2436      5.5155      5.0232    
  5.5195      7.2434      11.118      17.655      26.032      35.037      44.040      52.565      59.191      61.790    
  52.653      45.507      37.187      28.576      20.242      13.168      8.3862      5.9604      4.9856      4.9867    
  5.9590      8.3802      13.171      20.269      28.610      37.186      45.448      52.569      56.918      56.958    
  44.084      37.187      29.450      21.618      14.590      9.3879      6.4086      5.0188      4.6197      5.0228    
  6.4061      9.3783      14.591      21.643      29.490      37.213      44.083      49.078      50.951      49.091    
  35.029      28.576      21.618      15.095      9.9775      6.7679      5.0943      4.3877      4.3915      5.0994    
  6.7631      9.9613      15.082      21.627      28.618      35.094      40.183      43.025      43.002      40.125    
  26.009      20.242      14.590      9.9775      6.9096      5.1620      4.2710      4.0137      4.2723      5.1645    
  6.9075      9.9626      14.566      20.230      26.031      30.996      34.324      35.479      34.281      30.945    
  17.646      13.168      9.3879      6.7679      5.1620      4.2391      3.8427      3.8399      4.2375      5.1704    
  6.7806      9.3878      13.147      17.617      21.973      25.373      27.215      27.212      25.374      21.990    
  11.120      8.3862      6.4086      5.0943      4.2710      3.8427      3.7096      3.8377      4.2713      5.1085    
  6.4328      8.4050      11.119      14.222      17.076      19.060      19.775      19.082      17.107      14.244    
  7.2436      5.9604      5.0188      4.3877      4.0137      3.8399      3.8377      4.0066      4.3791      5.0192    
  5.9795      7.2762      8.9385      10.747      12.296      13.192      13.200      12.308      10.743      8.9124    
  5.5155      4.9856      4.6197      4.3915      4.2723      4.2375      4.2713      4.3791      4.5943      4.9645    
  5.5186      6.2325      7.0522      7.8838      8.5236      8.7656      8.5194      7.8663      7.0208      6.2052    
  5.0232      4.9867      5.0228      5.0994      5.1645      5.1704      5.1085      5.0192      4.9645      4.9932    
  5.1263      5.3565      5.6450      5.9180      6.0862      6.0801      5.9035      5.6324      5.3580      5.1465    
  5.5195      5.9590      6.4061      6.7631      6.9075      6.7806      6.4328      5.9795      5.5186      5.1263    
  4.8479      4.6934      4.6395      4.6370      4.6381      4.6292      4.6392      4.7128      4.8801      5.1506    
  7.2434      8.3802      9.3783      9.9613      9.9626      9.3878      8.4050      7.2762      6.2325      5.3565    
  4.6934      4.2560      4.0032      3.8883      3.8880      4.0072      4.2698      4.7097      5.3580      6.2110    
  11.118      13.171      14.591      15.082      14.566      13.147      11.119      8.9385      7.0522      5.6450    
  4.6395      4.0032      3.6642      3.5600      3.6692      4.0098      4.6389      5.6280      7.0208      8.9115    
  17.655      20.269      21.643      21.627      20.230      17.617      14.222      10.747      7.8838      5.9180    
  4.6370      3.8883      3.5600      3.5615      3.8896      4.6318      5.9042      7.8682      10.743      14.241    
  26.032      28.610      29.490      28.618      26.031      21.973      17.076      12.296      8.5236      6.0862    
  4.6381      3.8880      3.6692      3.8896      4.6344      6.0776      8.5234      12.315      17.107      21.995    
  35.037      37.186      37.213      35.094      30.996      25.373      19.060      13.192      8.7656      6.0801    
  4.6292      4.0072      4.0098      4.6318      6.0776      8.7661      13.207      19.083      25.374      30.957    
  44.040      45.448      44.083      40.183      34.324      27.215      19.775      13.200      8.5194      5.9035    
  4.6392      4.2698      4.6389      5.9042      8.5234      13.207      19.778      27.198      34.281      40.125    
  52.565      52.569      49.078      43.025      35.479      27.212      19.082      12.308      7.8663      5.6324    
  4.7128      4.7097      5.6280      7.8682      12.315      19.083      27.198      35.455      43.002      49.064    
  59.191      56.918      50.951      43.002      34.281      25.374      17.107      10.743      7.0208      5.3580    
  4.8801      5.3580      7.0208      10.743      17.107      25.374      34.281      43.002      50.951      56.918    
  61.790      56.958      49.091      40.125      30.945      21.990      14.244      8.9124      6.2052      5.1465    
  5.1506      6.2110      8.9115      14.241      21.995      30.957      40.125      49.064      56.918      61.771    
  48.903      42.646      35.029      26.865      18.917      12.287      7.9123      5.6999      4.7920      4.7921    
  5.6982      7.9074      12.284      18.922      26.879      35.042      42.647      48.896      52.565      52.570    
  42.646      36.076      28.576      20.930      14.103      9.1063      6.2653      4.9272      4.5427      4.9311    
  6.2638      9.0960      14.096      20.939      28.603      36.106      42.665      47.339      49.064      47.333    
  35.029      28.576      21.618      15.095      9.9775      6.7679      5.0943      4.3877      4.3915      5.0994    
  6.7631      9.9613      15.082      21.627      28.618      35.094      40.183      43.025      43.002      40.125    
  26.865      20.930      15.095      10.292      7.0690      5.2418      4.3149      4.0477      4.3158      5.2438    
  7.0655      10.274      15.068      20.923      26.907      32.051      35.521      36.723      35.455      31.970    
  18.917      14.103      9.9775      7.0690      5.2995      4.2917      3.8639      3.8616      4.2908      5.3055    
  7.0705      9.9573      14.067      18.896      23.581      27.243      29.225      29.201      27.198      23.561    
  12.287      9.1063      6.7679      5.2418      4.2917      3.8057      3.6583      3.8016      4.2936      5.2537    
  6.7786      9.1004      12.264      15.825      19.066      21.304      22.100      21.310      19.083      15.852    
  7.9123      6.2653      5.0943      4.3149      3.8639      3.6583      3.6549      3.8581      4.3162      5.1082    
  6.2865      7.9275      10.039      12.295      14.188      15.267      15.278      14.213      12.315      10.042    
  5.6999      4.9272      4.3877      4.0477      3.8616      3.8016      3.8581      4.0389      4.3777      4.9270    
  5.7164      6.7145      7.8860      9.0534      9.9272      10.255      9.9326      9.0514      7.8682      6.6891    
  4.7920      4.5427      4.3915      4.3158      4.2908      4.2936      4.3162      4.3777      4.5174      4.7734    
  5.1595      5.6477      6.1676      6.6311      6.9132      6.9104      6.6199      6.1469      5.6280      5.1568    
  4.7921      4.9311      5.0994      5.2438      5.3055      5.2537      5.1082      4.9270      4.7734      4.6901    
  4.6943      4.7794      4.9110      5.0292      5.0738      5.0214      4.9029      4.7809      4.7097      4.7135    
  5.6982      6.2638      6.7631      7.0655      7.0705      6.7786      6.2865      5.7164      5.1595      4.6943    
  4.3610      4.1585      4.0562      4.0147      4.0114      4.0537      4.1689      4.3834      4.7128      5.1592    
  7.9074      9.0960      9.9613      10.274      9.9573      9.1004      7.9275      6.7145      5.6477      4.7794    
  4.1585      3.7672      3.5558      3.4884      3.5563      3.7727      4.1675      4.7809      5.6324      6.6884    
  12.284      14.096      15.082      15.068      14.067      12.264      10.039      7.8860      6.1676      4.9110    
  4.0562      3.5558      3.3304      3.3320      3.5590      4.0556      4.9004      6.1469      7.8663      10.037    
  18.922      20.939      21.627      20.923      18.896      15.825      12.295      9.0534      6.6311      5.0292    
  4.0147      3.4884      3.3320      3.4913      4.0139      5.0207      6.6202      9.0514      12.308      15.850    
  26.879      28.603      28.618      26.907      23.581      19.066      14.188      9.9272      6.9132      5.0738    
  4.0114      3.5563      3.5590      4.0139      5.0695      6.9092      9.9378      14.213      19.082      23.570    
  35.042      36.106      35.094      32.051      27.243      21.304      15.267      10.255      6.9104      5.0214    
  4.0537      3.7727      4.0556      5.0207      6.9092      10.263      15.285      21.310      27.212      31.989    
  42.647      42.665      40.183      35.521      29.225      22.100      15.278      9.9326      6.6199      4.9029    
  4.1689      4.1675      4.9004      6.6202      9.9378      15.285      22.097      29.201      35.479      40.141    
  48.896      47.339      43.025      36.723      29.201      21.310      14.213      9.0514      6.1469      4.7809    
  4.3834      4.7809      6.1469      9.0514      14.213      21.310      29.201      36.723      43.025      47.339    
  52.565      49.064      43.002      35.455      27.198      19.083      12.315      7.8682      5.6280      4.7097    
  4.7128      5.6324      7.8663      12.308      19.082      27.212      35.479      43.025      49.078      52.569    
  52.570      47.333      40.125      31.970      23.561      15.852      10.042      6.6891      5.1568      4.7135    
  5.1592      6.6884      10.037      15.850      23.570      31.989      40.141      47.339      52.569      54.527    
  38.686      32.896      26.009      18.917      12.715      8.3251      5.8683      4.6727      4.3272      4.6744    
  5.8680      8.3182      12.701      18.904      26.009      32.916      38.719      42.647      44.040      42.622    
  32.896      26.842      20.242      14.103      9.3813      6.4691      4.9275      4.2731      4.2764      4.9328    
  6.4672      9.3672      14.083      20.232      26.856      32.932      37.596      40.141      40.125      37.557    
  26.009      20.242      14.590      9.9775      6.9096      5.1620      4.2710      4.0137      4.2723      5.1645    
  6.9075      9.9626      14.566      20.230      26.031      30.996      34.324      35.479      34.281      30.945    
  18.917      14.103      9.9775      7.0690      5.2995      4.2917      3.8639      3.8616      4.2908      5.3055    
  7.0705      9.9573      14.067      18.896      23.581      27.243      29.225      29.201      27.198      23.561    
  12.715      9.3813      6.9096      5.2995      4.3008      3.7947      3.6437      3.7923      4.3046      5.3094    
  6.9098      9.3586      12.679      16.400      19.778      22.108      22.928      22.097      19.778      16.424    
  8.3251      6.4691      5.1620      4.2917      3.7947      3.5740      3.5719      3.7925      4.2964      5.1731    
  6.4767      8.3194      10.682      13.182      15.265      16.444      16.451      15.285      13.207      10.701    
  5.8683      4.9275      4.2710      3.8639      3.6437      3.5719      3.6392      3.8594      4.2729      4.9389    
  5.8846      7.0923      8.5201      9.9228      10.956      11.342      10.970      9.9378      8.5234      7.0815    
  4.6727      4.2731      4.0137      3.8616      3.7923      3.7925      3.8594      4.0060      4.2641      4.6716    
  5.2397      5.9203      6.6308      7.2558      7.6291      7.6297      7.2535      6.6202      5.9042      5.2286    
  4.3272      4.2764      4.2723      4.2908      4.3046      4.2964      4.2729      4.2641      4.3075      4.4306    
  4.6395      4.9113      5.1917      5.4054      5.4839      5.3989      5.1799      4.9004      4.6389      4.4442    
  4.6744      4.9328      5.1645      5.3055      5.3094      5.1731      4.9389      4.6716      4.4306      4.2540    
  4.1570      4.1324      4.1512      4.1732      4.1704      4.1465      4.1335      4.1675      4.2698      4.4430    
  5.8680      6.4672      6.9075      7.0705      6.9098      6.4767      5.8846      5.2397      4.6395      4.1570    
  3.8170      3.6058      3.4934      3.4567      3.4915      3.6096      3.8293      4.1689      4.6392      5.2260    
  8.3182      9.3672      9.9626      9.9573      9.3586      8.3194      7.0923      5.9203      4.9113      4.1324    
  3.6058      3.2918      3.1455      3.1452      3.2928      3.6092      4.1335      4.9029      5.9035      7.0783    
  12.701      14.083      14.566      14.067      12.679      10.682      8.5201      6.6308      5.1917      4.1512    
  3.4934      3.1455      3.0389      3.1475      3.4935      4.1453      5.1799      6.6199      8.5194      10.696    
  18.904      20.232      20.230      18.896      16.400      13.182      9.9228      7.2558      5.4054      4.1732    
  3.4567      3.1452      3.1475      3.4594      4.1700      5.3979      7.2535      9.9326      13.200      16.415    
  26.009      26.856      26.031      23.581      19.778      15.265      10.956      7.6291      5.4839      4.1704    
  3.4915      3.2928      3.4935      4.1700      5.4818      7.6330      10.970      15.278      19.775      23.559    
  32.916      32.932      30.996      27.243      22.108      16.444      11.342      7.6297      5.3989      4.1465    
  3.6096      3.6092      4.1453      5.3979      7.6330      11.351      16.451      22.100      27.215      30.962    
  38.719      37.596      34.324      29.225      22.928      16.451      10.970      7.2535      5.1799      4.1335    
  3.8293      4.1335      5.1799      7.2535      10.970      16.451      22.928      29.225      34.324      37.596    
  42.647      40.141      35.479      29.201      22.097      15.285      9.9378      6.6202      4.9004      4.1675    
  4.1689      4.9029      6.6199      9.9326      15.278      22.100      29.225      35.521      40.183      42.665    
  44.040      40.125      34.281      27.198      19.778      13.207      8.5234      5.9042      4.6389      4.2698    
  4.6392      5.9035      8.5194      13.200      19.775      27.215      34.324      40.183      44.083      45.448    
  42.622      37.557      30.945      23.561      16.424      10.701      7.0815      5.2286      4.4442      4.4430    
  5.2260      7.0783      10.696      16.415      23.559      30.962      37.596      42.665      45.448      45.429    
  28.906      23.537      17.646      12.287      8.3251      5.9398      4.6305      4.0703      4.0710      4.6342    
  5.9461      8.3257      12.272      17.616      23.510      28.896      32.916      35.042      35.037      32.911    
  23.537      18.274      13.168      9.1063      6.4691      4.9401      4.1533      3.9226      4.1529      4.9451    
  6.4786      9.1075      13.150      18.244      23.515      27.999      30.962      31.989      30.957      28.004    
  17.646      13.168      9.3879      6.7679      5.1620      4.2391      3.8427      3.8399      4.2375      5.1704    
  6.7806      9.3878      13.147      17.617      21.973      25.373      27.215      27.212      25.374      21.990    
  12.287      9.1063      6.7679      5.2418      4.2917      3.8057      3.6583      3.8016      4.2936      5.2537    
  6.7786      9.1004      12.264      15.825      19.066      21.304      22.100      21.310      19.083      15.852    
  8.3251      6.4691      5.1620      4.2917      3.7947      3.5740      3.5719      3.7925      4.2964      5.1731    
  6.4767      8.3194      10.682      13.182      15.265      16.444      16.451      15.285      13.207      10.701    
  5.9398      4.9401      4.2391      3.8057      3.5740      3.5000      3.5718      3.8043      4.2426      4.9498    
  5.9512      7.2368      8.7568      10.244      11.335      11.741      11.351      10.263      8.7661      7.2325    
  4.6305      4.1533      3.8427      3.6583      3.5719      3.5718      3.6572      3.8401      4.1534      4.6383    
  5.3034      6.0883      6.9086      7.6244      8.0495      8.0545      7.6330      6.9092      6.0776      5.2894    
  4.0703      3.9226      3.8399      3.8016      3.7925      3.8043      3.8401      3.9173      4.0637      4.3038    
  4.6384      5.0296      5.4036      5.6756      5.7762      5.6738      5.3979      5.0207      4.6318      4.3046    
  4.0710      4.1529      4.2375      4.2936      4.2964      4.2426      4.1534      4.0637      4.0060      4.0011    
  4.0540      4.1499      4.2530      4.3186      4.3159      4.2469      4.1453      4.0556      4.0098      4.0174    
  4.6342      4.9451      5.1704      5.2537      5.1731      4.9498      4.6383      4.3038      4.0011      3.7639    
  3.6034      3.5117      3.4690      3.4561      3.4671      3.5121      3.6092      3.7727      4.0072      4.3040    
  5.9461      6.4786      6.7806      6.7786      6.4767      5.9512      5.3034      4.6384      4.0540      3.6034    
  3.2923      3.1011      3.0095      3.0089      3.1020      3.2975      3.6096      4.0537      4.6292      5.2920    
  8.3257      9.1075      9.3878      9.1004      8.3194      7.2368      6.0883      5.0296      4.1499      3.5117    
  3.1011      2.8752      2.8030      2.8753      3.1020      3.5121      4.1465      5.0214      6.0801      7.2353    
  12.272      13.150      13.147      12.264      10.682      8.7568      6.9086      5.4036      4.2530      3.4690    
  3.0095      2.8030      2.8043      3.0111      3.4668      4.2469      5.3989      6.9104      8.7656      10.693    
  17.616      18.244      17.617      15.825      13.182      10.244      7.6244      5.6756      4.3186      3.4561    
  3.0089      2.8753      3.0111      3.4564      4.3154      5.6738      7.6297      10.255      13.192      15.828    
  23.510      23.515      21.973      19.066      15.265      11.335      8.0495      5.7762      4.3159      3.4671    
  3.1020      3.1020      3.4668      4.3154      5.7775      8.0545      11.342      15.267      19.060      21.964    
  28.896      27.999      25.373      21.304      16.444      11.741      8.0545      5.6738      4.2469      3.5121    
  3.2975      3.5121      4.2469      5.6738      8.0545      11.741      16.444      21.304      25.373      27.999    
  32.916      30.962      27.215      22.100      16.451      11.351      7.6330      5.3979      4.1453      3.6092    
  3.6096      4.1465      5.3989      7.6297      11.342      16.444      22.108      27.243      30.996      32.932    
  35.042      31.989      27.212      21.310      15.285      10.263      6.9092      5.0207      4.0556      3.7727    
  4.0537      5.0214      6.9104      10.255      15.267      21.304      27.243      32.051      35.094      36.106    
  35.037      30.957      25.374      19.083      13.207      8.7661      6.0776      4.6318      4.0098      4.0072    
  4.6292      6.0801      8.7656      13.192      19.060      25.373      30.996      35.094      37.213      37.186    
  32.911      28.004      21.990      15.852      10.701      7.2325      5.2894      4.3046      4.0174      4.3040    
  5.2920      7.2353      10.693      15.828      21.964      27.999      32.932      36.106      37.186      36.082    
  19.757      15.315      11.120      7.9123      5.8683      4.6305      3.9899      3.7977      3.9883      4.6367    
  5.8858      7.9292      11.118      15.287      19.713      23.510      26.009      26.879      26.032      23.550    
  15.315      11.510      8.3862      6.2653      4.9275      4.1533      3.8143      3.8112      4.1513      4.9390    
  6.2895      8.4060      11.508      15.288      19.029      21.964      23.559      23.570      21.995      19.067    
  11.120      8.3862      6.4086      5.0943      4.2710      3.8427      3.7096      3.8377      4.2713      5.1085    