fcc Au                                  
   3.90000000000000     
     0.000000    0.500000    0.500000
     0.500000    0.000000    0.500000
     0.500000    0.500000    0.000000
   Au
     1
Direct
  0.000000  0.000000  0.000000
 
   20   20   20
 0.71096064534E+02 0.67734502469E+02 0.59265580028E+02 0.48903385977E+02 0.38686289953E+02
 0.28905943977E+02 0.19756901820E+02 0.12380003856E+02 0.78717682742E+01 0.59029572055E+01
 0.53544251268E+01 0.59029572055E+01 0.78717682742E+01 0.12380003856E+02 0.19756901820E+02
 0.28905943977E+02 0.38686289953E+02 0.48903385977E+02 0.59265580028E+02 0.67734502469E+02
 0.67734502469E+02 0.61893480070E+02 0.52653319224E+02 0.42645694943E+02 0.32895785073E+02
 0.23537160200E+02 0.15315343751E+02 0.95098230046E+01 0.65261257460E+01 0.53913575591E+01
 0.53965297376E+01 0.65331185671E+01 0.95084663283E+01 0.15314055213E+02 0.23550340844E+02
 0.32910859169E+02 0.42622050205E+02 0.52569697477E+02 0.61789722222E+02 0.67686939397E+02
 0.59265580028E+02 0.52653319224E+02 0.44084173500E+02 0.35029419239E+02 0.26008794208E+02
 0.17645542441E+02 0.11120336422E+02 0.72435885803E+01 0.55155490564E+01 0.50231549132E+01
 0.55194694484E+01 0.72433517043E+01 0.11117714499E+02 0.17654909314E+02 0.26031918361E+02
 0.35036919599E+02 0.44040417212E+02 0.52564834416E+02 0.59191403649E+02 0.61789722222E+02
 0.48903385977E+02 0.42645694943E+02 0.35029419239E+02 0.26865052984E+02 0.18916590240E+02
 0.12287453552E+02 0.79122856265E+01 0.56998995816E+01 0.47920396237E+01 0.47920888402E+01
 0.56981790235E+01 0.79073587915E+01 0.12283913056E+02 0.18921694352E+02 0.26878793559E+02
 0.35041714949E+02 0.42646794822E+02 0.48895580112E+02 0.52564834416E+02 0.52569697477E+02
 0.38686289953E+02 0.32895785073E+02 0.26008794208E+02 0.18916590240E+02 0.12714637498E+02
 0.83251216963E+01 0.58682509185E+01 0.46726645886E+01 0.43272235023E+01 0.46744326452E+01
 0.58679961369E+01 0.83182083745E+01 0.12700798251E+02 0.18903591807E+02 0.26009135166E+02
 0.32916214420E+02 0.38718813039E+02 0.42646794822E+02 0.44040417212E+02 0.42622050205E+02
 0.28905943977E+02 0.23537160200E+02 0.17645542441E+02 0.12287453552E+02 0.83251216963E+01
 0.59397949375E+01 0.46305093362E+01 0.40702851307E+01 0.40709814033E+01 0.46341977408E+01
 0.59461346289E+01 0.83257303351E+01 0.12272169973E+02 0.17616229339E+02 0.23510104648E+02
 0.28896216771E+02 0.32916214420E+02 0.35041714949E+02 0.35036919599E+02 0.32910859169E+02
 0.19756901820E+02 0.15315343751E+02 0.11120336422E+02 0.79122856265E+01 0.58682509185E+01
 0.46305093362E+01 0.39899218381E+01 0.37977169872E+01 0.39882730140E+01 0.46366525721E+01
 0.58858440552E+01 0.79292457283E+01 0.11118073533E+02 0.15286800426E+02 0.19713051809E+02
 0.23510104648E+02 0.26009135166E+02 0.26878793559E+02 0.26031918361E+02 0.23550340844E+02
 0.12380003856E+02 0.95098230046E+01 0.72435885803E+01 0.56998995816E+01 0.46726645886E+01
 0.40702851307E+01 0.37977169872E+01 0.37948470014E+01 0.40649304997E+01 0.46734921588E+01
 0.57156766009E+01 0.72733822020E+01 0.95374928723E+01 0.12383667549E+02 0.15286800426E+02
 0.17616229339E+02 0.18903591807E+02 0.18921694352E+02 0.17654909314E+02 0.15314055213E+02
 0.78717682742E+01 0.65261257460E+01 0.55155490564E+01 0.47920396237E+01 0.43272235023E+01
 0.40709814033E+01 0.39882730140E+01 0.40649304997E+01 0.43119786320E+01 0.47747869526E+01
 0.55158445257E+01 0.65557017771E+01 0.79160019497E+01 0.95374928723E+01 0.11118073533E+02
 0.12272169973E+02 0.12700798251E+02 0.12283913056E+02 0.11117714499E+02 0.95084663283E+01
 0.59029572055E+01 0.53913575591E+01 0.50231549132E+01 0.47920888402E+01 0.46744326452E+01
 0.46341977408E+01 0.46366525721E+01 0.46734921588E+01 0.47747869526E+01 0.49919800141E+01
 0.53661855395E+01 0.59019712036E+01 0.65557017771E+01 0.72733822020E+01 0.79292457283E+01
 0.83257303351E+01 0.83182083745E+01 0.79073587915E+01 0.72433517043E+01 0.65331185671E+01
 0.53544251268E+01 0.53965297376E+01 0.55194694484E+01 0.56981790235E+01 0.58679961369E+01
 0.59461346289E+01 0.58858440552E+01 0.57156766009E+01 0.55158445257E+01 0.53661855395E+01
 0.53121104164E+01 0.53661855395E+01 0.55158445257E+01 0.57156766009E+01 0.58858440552E+01
 0.59461346289E+01 0.58679961369E+01 0.56981790235E+01 0.55194694484E+01 0.53965297376E+01
 0.59029572055E+01 0.65331185671E+01 0.72433517043E+01 0.79073587915E+01 0.83182083745E+01
 0.83257303351E+01 0.79292457283E+01 0.72733822020E+01 0.65557017771E+01 0.59019712036E+01
 0.53661855395E+01 0.49919800141E+01 0.47747869526E+01 0.46734921588E+01 0.46366525721E+01
 0.46341977408E+01 0.46744326452E+01 0.47920888402E+01 0.50231549132E+01 0.53913575591E+01
 0.78717682742E+01 0.95084663283E+01 0.11117714499E+02 0.12283913056E+02 0.12700798251E+02
 0.12272169973E+02 0.11118073533E+02 0.95374928723E+01 0.79160019497E+01 0.65557017771E+01
 0.55158445257E+01 0.47747869526E+01 0.43119786320E+01 0.40649304997E+01 0.39882730140E+01
 0.40709814033E+01 0.43272235023E+01 0.47920396237E+01 0.55155490564E+01 0.65261257460E+01
 0.12380003856E+02 0.15314055213E+02 0.17654909314E+02 0.18921694352E+02 0.18903591807E+02
 0.17616229339E+02 0.15286800426E+02 0.12383667549E+02 0.95374928723E+01 0.72733822020E+01
 0.57156766009E+01 0.46734921588E+01 0.40649304997E+01 0.37948470014E+01 0.37977169872E+01
 0.40702851307E+01 0.46726645886E+01 0.56998995816E+01 0.72435885803E+01 0.95098230046E+01
 0.19756901820E+02 0.23550340844E+02 0.26031918361E+02 0.26878793559E+02 0.26009135166E+02
 0.23510104648E+02 0.19713051809E+02 0.15286800426E+02 0.11118073533E+02 0.79292457283E+01
 0.58858440552E+01 0.46366525721E+01 0.39882730140E+01 0.37977169872E+01 0.39899218381E+01
 0.46305093362E+01 0.58682509185E+01 0.79122856265E+01 0.11120336422E+02 0.15315343751E+02
 0.28905943977E+02 0.32910859169E+02 0.35036919599E+02 0.35041714949E+02 0.32916214420E+02
 0.28896216771E+02 0.23510104648E+02 0.17616229339E+02 0.12272169973E+02 0.83257303351E+01
 0.59461346289E+01 0.46341977408E+01 0.40709814033E+01 0.40702851307E+01 0.46305093362E+01
 0.59397949375E+01 0.83251216963E+01 0.12287453552E+02 0.17645542441E+02 0.23537160200E+02
 0.38686289953E+02 0.42622050205E+02 0.44040417212E+02 0.42646794822E+02 0.38718813039E+02
 0.32916214420E+02 0.26009135166E+02 0.18903591807E+02 0.12700798251E+02 0.83182083745E+01
 0.58679961369E+01 0.46744326452E+01 0.43272235023E+01 0.46726645886E+01 0.58682509185E+01
 0.83251216963E+01 0.12714637498E+02 0.18916590240E+02 0.26008794208E+02 0.32895785073E+02
 0.48903385977E+02 0.52569697477E+02 0.52564834416E+02 0.48895580112E+02 0.42646794822E+02
 0.35041714949E+02 0.26878793559E+02 0.18921694352E+02 0.12283913056E+02 0.79073587915E+01
 0.56981790235E+01 0.47920888402E+01 0.47920396237E+01 0.56998995816E+01 0.79122856265E+01
 0.12287453552E+02 0.18916590240E+02 0.26865052984E+02 0.35029419239E+02 0.42645694943E+02
 0.59265580028E+02 0.61789722222E+02 0.59191403649E+02 0.52564834416E+02 0.44040417212E+02
 0.35036919599E+02 0.26031918361E+02 0.17654909314E+02 0.11117714499E+02 0.72433517043E+01
 0.55194694484E+01 0.50231549132E+01 0.55155490564E+01 0.72435885803E+01 0.11120336422E+02
 0.17645542441E+02 0.26008794208E+02 0.35029419239E+02 0.44084173500E+02 0.52653319224E+02
 0.67734502469E+02 0.67686939397E+02 0.61789722222E+02 0.52569697477E+02 0.42622050205E+02
 0.32910859169E+02 0.23550340844E+02 0.15314055213E+02 0.95084663283E+01 0.65331185671E+01
 0.53965297376E+01 0.53913575591E+01 0.65261257460E+01 0.95098230046E+01 0.15315343751E+02
 0.23537160200E+02 0.32895785073E+02 0.42645694943E+02 0.52653319224E+02 0.61893480070E+02
 0.67734502469E+02 0.61893480070E+02 0.52653319224E+02 0.42645694943E+02 0.32895785073E+02
 0.23537160200E+02 0.15315343751E+02 0.95098230046E+01 0.65261257460E+01 0.53913575591E+01
 0.53965297376E+01 0.65331185671E+01 0.95084663283E+01 0.15314055213E+02 0.23550340844E+02
 0.32910859169E+02 0.42622050205E+02 0.52569697477E+02 0.61789722222E+02 0.67686939397E+02
 0.61893480070E+02 0.54676143730E+02 0.45506978773E+02 0.36075547484E+02 0.26842287840E+02
 0.18273810802E+02 0.11510366124E+02 0.74454789070E+01 0.56434930540E+01 0.51343810242E+01
 0.56487717853E+01 0.74447418969E+01 0.11507432963E+02 0.18290256429E+02 0.26878119649E+02
 0.36082318238E+02 0.45429107731E+02 0.54527186990E+02 0.61770514361E+02 0.64659338127E+02
 0.52653319224E+02 0.45506978773E+02 0.37186570104E+02 0.28575881792E+02 0.20242222777E+02
 0.13167845420E+02 0.83861621364E+01 0.59604030068E+01 0.49855933270E+01 0.49866619099E+01
 0.59590041006E+01 0.83801541514E+01 0.13170883976E+02 0.20268517936E+02 0.28610183906E+02
 0.37186112095E+02 0.45447733433E+02 0.52569276681E+02 0.56918297745E+02 0.56958138964E+02
 0.42645694943E+02 0.36075547484E+02 0.28575881792E+02 0.20929562474E+02 0.14103458356E+02
 0.91062724448E+01 0.62652595289E+01 0.49272120233E+01 0.45426975020E+01 0.49311193936E+01
 0.62637651675E+01 0.90960089040E+01 0.14095716500E+02 0.20939029726E+02 0.28603099510E+02
 0.36105647249E+02 0.42664539683E+02 0.47339096355E+02 0.49063924261E+02 0.47332630964E+02
 0.32895785073E+02 0.26842287840E+02 0.20242222777E+02 0.14103458356E+02 0.93812861922E+01
 0.64691426295E+01 0.49275218564E+01 0.42731477742E+01 0.42763608767E+01 0.49327641488E+01
 0.64671979631E+01 0.93671698460E+01 0.14083451462E+02 0.20232091818E+02 0.26855831118E+02
 0.32931633174E+02 0.37595585568E+02 0.40141329915E+02 0.40124635056E+02 0.37556852440E+02
 0.23537160200E+02 0.18273810802E+02 0.13167845420E+02 0.91062724448E+01 0.64691426295E+01
 0.49401108822E+01 0.41533257299E+01 0.39226141796E+01 0.41529154876E+01 0.49451058120E+01
 0.64785628354E+01 0.91075095637E+01 0.13150216637E+02 0.18244032006E+02 0.23514629161E+02
 0.27999271660E+02 0.30962235546E+02 0.31988935374E+02 0.30957194419E+02 0.28003690099E+02
 0.15315343751E+02 0.11510366124E+02 0.83861621364E+01 0.62652595289E+01 0.49275218564E+01
 0.41533257299E+01 0.38143382018E+01 0.38111831562E+01 0.41513486362E+01 0.49390099394E+01
 0.62894736269E+01 0.84060129824E+01 0.11507848227E+02 0.15288083918E+02 0.19029055708E+02
 0.21964352183E+02 0.23558964296E+02 0.23570307146E+02 0.21994854657E+02 0.19067010388E+02
 0.95098230046E+01 0.74454789070E+01 0.59604030068E+01 0.49272120233E+01 0.42731477742E+01
 0.39226141796E+01 0.38111831562E+01 0.39174616144E+01 0.42667046859E+01 0.49287477177E+01
 0.59792580919E+01 0.74789449300E+01 0.95390154587E+01 0.11950205004E+02 0.14220191791E+02
 0.15827951147E+02 0.16415242847E+02 0.15850147738E+02 0.14240522033E+02 0.11945630726E+02
 0.65261257460E+01 0.56434930540E+01 0.49855933270E+01 0.45426975020E+01 0.42763608767E+01
 0.41529154876E+01 0.41513486362E+01 0.42667046859E+01 0.45211483241E+01 0.49648939452E+01
 0.56456796186E+01 0.65573681009E+01 0.76851266279E+01 0.89353308930E+01 0.10039530524E+02
 0.10692993834E+02 0.10695581946E+02 0.10036822332E+02 0.89115226256E+01 0.76447984174E+01
 0.53913575591E+01 0.51343810242E+01 0.49866619099E+01 0.49311193936E+01 0.49327641488E+01
 0.49451058120E+01 0.49390099394E+01 0.49287477177E+01 0.49648939452E+01 0.51013148181E+01
 0.53674240165E+01 0.57579520646E+01 0.62289131101E+01 0.67109155050E+01 0.70925422097E+01
 0.72353123660E+01 0.70782502057E+01 0.66883623094E+01 0.62110433510E+01 0.57591654628E+01
 0.53965297376E+01 0.56487717853E+01 0.59590041006E+01 0.62637651675E+01 0.64671979631E+01
 0.64785628354E+01 0.62894736269E+01 0.59792580919E+01 0.56456796186E+01 0.53674240165E+01
 0.51890945045E+01 0.51239845156E+01 0.51568164274E+01 0.52385333569E+01 0.52995462122E+01
 0.52920061709E+01 0.52260197407E+01 0.51592331462E+01 0.51505614788E+01 0.52283843244E+01
 0.65331185671E+01 0.74447418969E+01 0.83801541514E+01 0.90960089040E+01 0.93671698460E+01
 0.91075095637E+01 0.84060129824E+01 0.74789449300E+01 0.65573681009E+01 0.57579520646E+01
 0.51239845156E+01 0.46897278074E+01 0.44327433885E+01 0.43041357764E+01 0.42642759498E+01
 0.43040164225E+01 0.44430027849E+01 0.47135226476E+01 0.51465228597E+01 0.57591654628E+01
 0.95084663283E+01 0.11507432963E+02 0.13170883976E+02 0.14095716500E+02 0.14083451462E+02
 0.13150216637E+02 0.11507848227E+02 0.95390154587E+01 0.76851266279E+01 0.62289131101E+01
 0.51568164274E+01 0.44327433885E+01 0.40080941432E+01 0.38150126379E+01 0.38179992761E+01
 0.40174193786E+01 0.44442145673E+01 0.51568407074E+01 0.62052081633E+01 0.76447984174E+01
 0.15314055213E+02 0.18290256429E+02 0.20268517936E+02 0.20939029726E+02 0.20232091818E+02
 0.18244032006E+02 0.15288083918E+02 0.11950205004E+02 0.89353308930E+01 0.67109155050E+01
 0.52385333569E+01 0.43041357764E+01 0.38150126379E+01 0.36677700742E+01 0.38182524440E+01
 0.43046279478E+01 0.52286164799E+01 0.66890842910E+01 0.89124336742E+01 0.11945630726E+02
 0.23550340844E+02 0.26878119649E+02 0.28610183906E+02 0.28603099510E+02 0.26855831118E+02
 0.23514629161E+02 0.19029055708E+02 0.14220191791E+02 0.10039530524E+02 0.70925422097E+01
 0.52995462122E+01 0.42642759498E+01 0.38179992761E+01 0.38182524440E+01 0.42613486869E+01
 0.52894217750E+01 0.70815487665E+01 0.10042046908E+02 0.14244204744E+02 0.19067010388E+02
 0.32910859169E+02 0.36082318238E+02 0.37186112095E+02 0.36105647249E+02 0.32931633174E+02
 0.27999271660E+02 0.21964352183E+02 0.15827951147E+02 0.10692993834E+02 0.72353123660E+01
 0.52920061709E+01 0.43040164225E+01 0.40174193786E+01 0.43046279478E+01 0.52894217750E+01
 0.72325240999E+01 0.10701440542E+02 0.15852303087E+02 0.21989952617E+02 0.28003690099E+02
 0.42622050205E+02 0.45429107731E+02 0.45447733433E+02 0.42664539683E+02 0.37595585568E+02
 0.30962235546E+02 0.23558964296E+02 0.16415242847E+02 0.10695581946E+02 0.70782502057E+01
 0.52260197407E+01 0.44430027849E+01 0.44442145673E+01 0.52286164799E+01 0.70815487665E+01
 0.10701440542E+02 0.16423504371E+02 0.23561086488E+02 0.30945171854E+02 0.37556852440E+02
 0.52569697477E+02 0.54527186990E+02 0.52569276681E+02 0.47339096355E+02 0.40141329915E+02
 0.31988935374E+02 0.23570307146E+02 0.15850147738E+02 0.10036822332E+02 0.66883623094E+01
 0.51592331462E+01 0.47135226476E+01 0.51568407074E+01 0.66890842910E+01 0.10042046908E+02
 0.15852303087E+02 0.23561086488E+02 0.31970427696E+02 0.40124859541E+02 0.47332630964E+02
 0.61789722222E+02 0.61770514361E+02 0.56918297745E+02 0.49063924261E+02 0.40124635056E+02
 0.30957194419E+02 0.21994854657E+02 0.14240522033E+02 0.89115226256E+01 0.62110433510E+01
 0.51505614788E+01 0.51465228597E+01 0.62052081633E+01 0.89124336742E+01 0.14244204744E+02
 0.21989952617E+02 0.30945171854E+02 0.40124859541E+02 0.49090927536E+02 0.56958138964E+02
 0.67686939397E+02 0.64659338127E+02 0.56958138964E+02 0.47332630964E+02 0.37556852440E+02
 0.28003690099E+02 0.19067010388E+02 0.11945630726E+02 0.76447984174E+01 0.57591654628E+01
 0.52283843244E+01 0.57591654628E+01 0.76447984174E+01 0.11945630726E+02 0.19067010388E+02
 0.28003690099E+02 0.37556852440E+02 0.47332630964E+02 0.56958138964E+02 0.64659338127E+02
 0.59265580028E+02 0.52653319224E+02 0.44084173500E+02 0.35029419239E+02 0.26008794208E+02
 0.17645542441E+02 0.11120336422E+02 0.72435885803E+01 0.55155490564E+01 0.50231549132E+01
 0.55194694484E+01 0.72433517043E+01 0.11117714499E+02 0.17654909314E+02 0.26031918361E+02
 0.35036919599E+02 0.44040417212E+02 0.52564834416E+02 0.59191403649E+02 0.61789722222E+02
 0.52653319224E+02 0.45506978773E+02 0.37186570104E+02 0.28575881792E+02 0.20242222777E+02
 0.13167845420E+02 0.83861621364E+01 0.59604030068E+01 0.49855933270E+01 0.49866619099E+01
 0.59590041006E+01 0.83801541514E+01 0.13170883976E+02 0.20268517936E+02 0.28610183906E+02
 0.37186112095E+02 0.45447733433E+02 0.52569276681E+02 0.56918297745E+02 0.56958138964E+02
 0.44084173500E+02 0.37186570104E+02 0.29449785015E+02 0.21617523261E+02 0.14589985026E+02
 0.93879362945E+01 0.64085588428E+01 0.50188343249E+01 0.46196564092E+01 0.50227774960E+01
 0.64060568660E+01 0.93783178949E+01 0.14590549059E+02 0.21643304088E+02 0.29490269108E+02
 0.37213313671E+02 0.44083143926E+02 0.49078334121E+02 0.50951275339E+02 0.49090927536E+02
 0.35029419239E+02 0.28575881792E+02 0.21617523261E+02 0.15095326844E+02 0.99774524222E+01
 0.67679076793E+01 0.50942672681E+01 0.43877429988E+01 0.43915218119E+01 0.50993545483E+01
 0.67631432786E+01 0.99613211184E+01 0.15081888237E+02 0.21627111856E+02 0.28618381054E+02
 0.35093815325E+02 0.40183220284E+02 0.43025136525E+02 0.43001641373E+02 0.40124859541E+02
 0.26008794208E+02 0.20242222777E+02 0.14589985026E+02 0.99774524222E+01 0.69096252719E+01
 0.51619963316E+01 0.42709551712E+01 0.40136626107E+01 0.42723195334E+01 0.51644822166E+01
 0.69075190736E+01 0.99625765918E+01 0.14565765572E+02 0.20230198841E+02 0.26031000552E+02
 0.30996314601E+02 0.34324434089E+02 0.35479008920E+02 0.34280825427E+02 0.30945171854E+02
 0.17645542441E+02 0.13167845420E+02 0.93879362945E+01 0.67679076793E+01 0.51619963316E+01
 0.42390643496E+01 0.38426589007E+01 0.38399461852E+01 0.42374869726E+01 0.51703777845E+01
 0.67806436710E+01 0.93878410840E+01 0.13147124556E+02 0.17617229316E+02 0.21973499174E+02
 0.25373275175E+02 0.27214669311E+02 0.27212104727E+02 0.25373986685E+02 0.21989952617E+02
 0.11120336422E+02 0.83861621364E+01 0.64085588428E+01 0.50942672681E+01 0.42709551712E+01
 0.38426589007E+01 0.37095683548E+01 0.38376885578E+01 0.42712789747E+01 0.51085477961E+01
 0.64327943531E+01 0.84050088114E+01 0.11119480625E+02 0.14222035777E+02 0.17075570570E+02
 0.19060437546E+02 0.19774805644E+02 0.19082201249E+02 0.17106567740E+02 0.14244204744E+02
 0.72435885803E+01 0.59604030068E+01 0.50188343249E+01 0.43877429988E+01 0.40136626107E+01
 0.38399461852E+01 0.38376885578E+01 0.40065835764E+01 0.43790926040E+01 0.50192224225E+01
 0.59794901439E+01 0.72761763023E+01 0.89385260005E+01 0.10747024573E+02 0.12295856017E+02
 0.13191900080E+02 0.13199942325E+02 0.12308438571E+02 0.10743190226E+02 0.89124336742E+01
 0.55155490564E+01 0.49855933270E+01 0.46196564092E+01 0.43915218119E+01 0.42723195334E+01
 0.42374869726E+01 0.42712789747E+01 0.43790926040E+01 0.45942834641E+01 0.49644588365E+01
 0.55186375341E+01 0.62325170882E+01 0.70521676481E+01 0.78838325947E+01 0.85235784237E+01
 0.87655891120E+01 0.85194473381E+01 0.78662585079E+01 0.70207959210E+01 0.62052081633E+01
 0.50231549132E+01 0.49866619099E+01 0.50227774960E+01 0.50993545483E+01 0.51644822166E+01
 0.51703777845E+01 0.51085477961E+01 0.50192224225E+01 0.49644588365E+01 0.49932239789E+01
 0.51263239387E+01 0.53564964942E+01 0.56449831329E+01 0.59180288497E+01 0.60861932765E+01
 0.60800745725E+01 0.59034950722E+01 0.56324255059E+01 0.53579722476E+01 0.51465228597E+01
 0.55194694484E+01 0.59590041006E+01 0.64060568660E+01 0.67631432786E+01 0.69075190736E+01
 0.67806436710E+01 0.64327943531E+01 0.59794901439E+01 0.55186375341E+01 0.51263239387E+01
 0.48479359685E+01 0.46934409869E+01 0.46394511594E+01 0.46370134922E+01 0.46381093828E+01
 0.46292008464E+01 0.46392192302E+01 0.47128440754E+01 0.48801101238E+01 0.51505614788E+01
 0.72433517043E+01 0.83801541514E+01 0.93783178949E+01 0.99613211184E+01 0.99625765918E+01
 0.93878410840E+01 0.84050088114E+01 0.72761763023E+01 0.62325170882E+01 0.53564964942E+01
 0.46934409869E+01 0.42559665498E+01 0.40032220585E+01 0.38882601289E+01 0.38879640934E+01
 0.40072047263E+01 0.42697925599E+01 0.47097001308E+01 0.53579722476E+01 0.62110433510E+01
 0.11117714499E+02 0.13170883976E+02 0.14590549059E+02 0.15081888237E+02 0.14565765572E+02
 0.13147124556E+02 0.11119480625E+02 0.89385260005E+01 0.70521676481E+01 0.56449831329E+01
 0.46394511594E+01 0.40032220585E+01 0.36642318953E+01 0.35600321667E+01 0.36691584111E+01
 0.40097784049E+01 0.46389343259E+01 0.56279748357E+01 0.70207959210E+01 0.89115226256E+01
 0.17654909314E+02 0.20268517936E+02 0.21643304088E+02 0.21627111856E+02 0.20230198841E+02
 0.17617229316E+02 0.14222035777E+02 0.10747024573E+02 0.78838325947E+01 0.59180288497E+01
 0.46370134922E+01 0.38882601289E+01 0.35600321667E+01 0.35615312526E+01 0.38895558254E+01
 0.46318129348E+01 0.59041563604E+01 0.78681898043E+01 0.10743190226E+02 0.14240522033E+02
 0.26031918361E+02 0.28610183906E+02 0.29490269108E+02 0.28618381054E+02 0.26031000552E+02
 0.21973499174E+02 0.17075570570E+02 0.12295856017E+02 0.85235784237E+01 0.60861932765E+01
 0.46381093828E+01 0.38879640934E+01 0.36691584111E+01 0.38895558254E+01 0.46344004637E+01
 0.60776256262E+01 0.85234344763E+01 0.12315252546E+02 0.17106567740E+02 0.21994854657E+02
 0.35036919599E+02 0.37186112095E+02 0.37213313671E+02 0.35093815325E+02 0.30996314601E+02
 0.25373275175E+02 0.19060437546E+02 0.13191900080E+02 0.87655891120E+01 0.60800745725E+01
 0.46292008464E+01 0.40072047263E+01 0.40097784049E+01 0.46318129348E+01 0.60776256262E+01
 0.87661278907E+01 0.13207263135E+02 0.19082912008E+02 0.25373986685E+02 0.30957194419E+02
 0.44040417212E+02 0.45447733433E+02 0.44083143926E+02 0.40183220284E+02 0.34324434089E+02
 0.27214669311E+02 0.19774805644E+02 0.13199942325E+02 0.85194473381E+01 0.59034950722E+01
 0.46392192302E+01 0.42697925599E+01 0.46389343259E+01 0.59041563604E+01 0.85234344763E+01
 0.13207263135E+02 0.19777594127E+02 0.27198398476E+02 0.34280825427E+02 0.40124635056E+02
 0.52564834416E+02 0.52569276681E+02 0.49078334121E+02 0.43025136525E+02 0.35479008920E+02
 0.27212104727E+02 0.19082201249E+02 0.12308438571E+02 0.78662585079E+01 0.56324255059E+01
 0.47128440754E+01 0.47097001308E+01 0.56279748357E+01 0.78681898043E+01 0.12315252546E+02
 0.19082912008E+02 0.27198398476E+02 0.35454640306E+02 0.43001641373E+02 0.49063924261E+02
 0.59191403649E+02 0.56918297745E+02 0.50951275339E+02 0.43001641373E+02 0.34280825427E+02
 0.25373986685E+02 0.17106567740E+02 0.10743190226E+02 0.70207959210E+01 0.53579722476E+01
 0.48801101238E+01 0.53579722476E+01 0.70207959210E+01 0.10743190226E+02 0.17106567740E+02
 0.25373986685E+02 0.34280825427E+02 0.43001641373E+02 0.50951275339E+02 0.56918297745E+02
 0.61789722222E+02 0.56958138964E+02 0.49090927536E+02 0.40124859541E+02 0.30945171854E+02
 0.21989952617E+02 0.14244204744E+02 0.89124336742E+01 0.62052081633E+01 0.51465228597E+01
 0.51505614788E+01 0.62110433510E+01 0.89115226256E+01 0.14240522033E+02 0.21994854657E+02
 0.30957194419E+02 0.40124635056E+02 0.49063924261E+02 0.56918297745E+02 0.61770514361E+02
 0.48903385977E+02 0.42645694943E+02 0.35029419239E+02 0.26865052984E+02 0.18916590240E+02
 0.12287453552E+02 0.79122856265E+01 0.56998995816E+01 0.47920396237E+01 0.47920888402E+01
 0.56981790235E+01 0.79073587915E+01 0.12283913056E+02 0.18921694352E+02 0.26878793559E+02
 0.35041714949E+02 0.42646794822E+02 0.48895580112E+02 0.52564834416E+02 0.52569697477E+02
 0.42645694943E+02 0.36075547484E+02 0.28575881792E+02 0.20929562474E+02 0.14103458356E+02
 0.91062724448E+01 0.62652595289E+01 0.49272120233E+01 0.45426975020E+01 0.49311193936E+01
 0.62637651675E+01 0.90960089040E+01 0.14095716500E+02 0.20939029726E+02 0.28603099510E+02
 0.36105647249E+02 0.42664539683E+02 0.47339096355E+02 0.49063924261E+02 0.47332630964E+02
 0.35029419239E+02 0.28575881792E+02 0.21617523261E+02 0.15095326844E+02 0.99774524222E+01
 0.67679076793E+01 0.50942672681E+01 0.43877429988E+01 0.43915218119E+01 0.50993545483E+01
 0.67631432786E+01 0.99613211184E+01 0.15081888237E+02 0.21627111856E+02 0.28618381054E+02
 0.35093815325E+02 0.40183220284E+02 0.43025136525E+02 0.43001641373E+02 0.40124859541E+02
 0.26865052984E+02 0.20929562474E+02 0.15095326844E+02 0.10292260562E+02 0.70689941278E+01
 0.52417817805E+01 0.43148598849E+01 0.40477137200E+01 0.43157506760E+01 0.52437739652E+01
 0.70655334017E+01 0.10273947438E+02 0.15068268266E+02 0.20923160690E+02 0.26907464851E+02
 0.32051165675E+02 0.35520635877E+02 0.36722725651E+02 0.35454640306E+02 0.31970427696E+02
 0.18916590240E+02 0.14103458356E+02 0.99774524222E+01 0.70689941278E+01 0.52995012628E+01
 0.42916543636E+01 0.38638629945E+01 0.38616121484E+01 0.42908110993E+01 0.53054780787E+01
 0.70705394021E+01 0.99572709792E+01 0.14066712191E+02 0.18895706958E+02 0.23581219038E+02
 0.27242888960E+02 0.29224562419E+02 0.29201499086E+02 0.27198398476E+02 0.23561086488E+02
 0.12287453552E+02 0.91062724448E+01 0.67679076793E+01 0.52417817805E+01 0.42916543636E+01
 0.38056673244E+01 0.36583470607E+01 0.38016287967E+01 0.42935751466E+01 0.52537271103E+01
 0.67786179539E+01 0.91003925687E+01 0.12263591010E+02 0.15824780090E+02 0.19065728560E+02
 0.21304188503E+02 0.22099667994E+02 0.21309853332E+02 0.19082912008E+02 0.15852303087E+02
 0.79122856265E+01 0.62652595289E+01 0.50942672681E+01 0.43148598849E+01 0.38638629945E+01
 0.36583470607E+01 0.36548908558E+01 0.38580685950E+01 0.43162368881E+01 0.51081603754E+01
 0.62865173999E+01 0.79274736902E+01 0.10039377982E+02 0.12294807844E+02 0.14188187852E+02
 0.15267338769E+02 0.15278214287E+02 0.14212731045E+02 0.12315252546E+02 0.10042046908E+02
 0.56998995816E+01 0.49272120233E+01 0.43877429988E+01 0.40477137200E+01 0.38616121484E+01
 0.38016287967E+01 0.38580685950E+01 0.40389257712E+01 0.43777442234E+01 0.49270087598E+01
 0.57163948863E+01 0.67145489288E+01 0.78859763007E+01 0.90533900151E+01 0.99272161739E+01
 0.10254911951E+02 0.99325775024E+01 0.90513780004E+01 0.78681898043E+01 0.66890842910E+01
 0.47920396237E+01 0.45426975020E+01 0.43915218119E+01 0.43157506760E+01 0.42908110993E+01
 0.42935751466E+01 0.43162368881E+01 0.43777442234E+01 0.45173918099E+01 0.47734281077E+01
 0.51594884984E+01 0.56477137541E+01 0.61675706131E+01 0.66311048209E+01 0.69132193284E+01
 0.69104268628E+01 0.66199281800E+01 0.61469008875E+01 0.56279748357E+01 0.51568407074E+01
 0.47920888402E+01 0.49311193936E+01 0.50993545483E+01 0.52437739652E+01 0.53054780787E+01
 0.52537271103E+01 0.51081603754E+01 0.49270087598E+01 0.47734281077E+01 0.46901128568E+01
 0.46943131602E+01 0.47793812484E+01 0.49109711359E+01 0.50292483825E+01 0.50738086744E+01
 0.50214157473E+01 0.49028991614E+01 0.47808921017E+01 0.47097001308E+01 0.47135226476E+01
 0.56981790235E+01 0.62637651675E+01 0.67631432786E+01 0.70655334017E+01 0.70705394021E+01
 0.67786179539E+01 0.62865173999E+01 0.57163948863E+01 0.51594884984E+01 0.46943131602E+01
 0.43609560415E+01 0.41584747069E+01 0.40561814116E+01 0.40146855756E+01 0.40114023108E+01
 0.40537495466E+01 0.41689100457E+01 0.43833939425E+01 0.47128440754E+01 0.51592331462E+01
 0.79073587915E+01 0.90960089040E+01 0.99613211184E+01 0.10273947438E+02 0.99572709792E+01
 0.91003925687E+01 0.79274736902E+01 0.67145489288E+01 0.56477137541E+01 0.47793812484E+01
 0.41584747069E+01 0.37672242644E+01 0.35558370363E+01 0.34883773967E+01 0.35563037255E+01
 0.37726811563E+01 0.41675309780E+01 0.47808921017E+01 0.56324255059E+01 0.66883623094E+01
 0.12283913056E+02 0.14095716500E+02 0.15081888237E+02 0.15068268266E+02 0.14066712191E+02
 0.12263591010E+02 0.10039377982E+02 0.78859763007E+01 0.61675706131E+01 0.49109711359E+01
 0.40561814116E+01 0.35558370363E+01 0.33303503428E+01 0.33320113099E+01 0.35590355129E+01
 0.40556163881E+01 0.49004233118E+01 0.61469008875E+01 0.78662585079E+01 0.10036822332E+02
 0.18921694352E+02 0.20939029726E+02 0.21627111856E+02 0.20923160690E+02 0.18895706958E+02
 0.15824780090E+02 0.12294807844E+02 0.90533900151E+01 0.66311048209E+01 0.50292483825E+01
 0.40146855756E+01 0.34883773967E+01 0.33320113099E+01 0.34913055221E+01 0.40139155770E+01
 0.50206642117E+01 0.66201565052E+01 0.90513780004E+01 0.12308438571E+02 0.15850147738E+02
 0.26878793559E+02 0.28603099510E+02 0.28618381054E+02 0.26907464851E+02 0.23581219038E+02
 0.19065728560E+02 0.14188187852E+02 0.99272161739E+01 0.69132193284E+01 0.50738086744E+01
 0.40114023108E+01 0.35563037255E+01 0.35590355129E+01 0.40139155770E+01 0.50694928539E+01
 0.69091805114E+01 0.99378230170E+01 0.14212731045E+02 0.19082201249E+02 0.23570307146E+02
 0.35041714949E+02 0.36105647249E+02 0.35093815325E+02 0.32051165675E+02 0.27242888960E+02
 0.21304188503E+02 0.15267338769E+02 0.10254911951E+02 0.69104268628E+01 0.50214157473E+01
 0.40537495466E+01 0.37726811563E+01 0.40556163881E+01 0.50206642117E+01 0.69091805114E+01
 0.10262859675E+02 0.15284701376E+02 0.21309853332E+02 0.27212104727E+02 0.31988935374E+02
 0.42646794822E+02 0.42664539683E+02 0.40183220284E+02 0.35520635877E+02 0.29224562419E+02
 0.22099667994E+02 0.15278214287E+02 0.99325775024E+01 0.66199281800E+01 0.49028991614E+01
 0.41689100457E+01 0.41675309780E+01 0.49004233118E+01 0.66201565052E+01 0.99378230170E+01
 0.15284701376E+02 0.22096652792E+02 0.29201499086E+02 0.35479008920E+02 0.40141329915E+02
 0.48895580112E+02 0.47339096355E+02 0.43025136525E+02 0.36722725651E+02 0.29201499086E+02
 0.21309853332E+02 0.14212731045E+02 0.90513780004E+01 0.61469008875E+01 0.47808921017E+01
 0.43833939425E+01 0.47808921017E+01 0.61469008875E+01 0.90513780004E+01 0.14212731045E+02
 0.21309853332E+02 0.29201499086E+02 0.36722725651E+02 0.43025136525E+02 0.47339096355E+02
 0.52564834416E+02 0.49063924261E+02 0.43001641373E+02 0.35454640306E+02 0.27198398476E+02
 0.19082912008E+02 0.12315252546E+02 0.78681898043E+01 0.56279748357E+01 0.47097001308E+01
 0.47128440754E+01 0.56324255059E+01 0.78662585079E+01 0.12308438571E+02 0.19082201249E+02
 0.27212104727E+02 0.35479008920E+02 0.43025136525E+02 0.49078334121E+02 0.52569276681E+02
 0.52569697477E+02 0.47332630964E+02 0.40124859541E+02 0.31970427696E+02 0.23561086488E+02
 0.15852303087E+02 0.10042046908E+02 0.66890842910E+01 0.51568407074E+01 0.47135226476E+01
 0.51592331462E+01 0.66883623094E+01 0.10036822332E+02 0.15850147738E+02 0.23570307146E+02
 0.31988935374E+02 0.40141329915E+02 0.47339096355E+02 0.52569276681E+02 0.54527186990E+02
 0.38686289953E+02 0.32895785073E+02 0.26008794208E+02 0.18916590240E+02 0.12714637498E+02
 0.83251216963E+01 0.58682509185E+01 0.46726645886E+01 0.43272235023E+01 0.46744326452E+01
 0.58679961369E+01 0.83182083745E+01 0.12700798251E+02 0.18903591807E+02 0.26009135166E+02
 0.32916214420E+02 0.38718813039E+02 0.42646794822E+02 0.44040417212E+02 0.42622050205E+02
 0.32895785073E+02 0.26842287840E+02 0.20242222777E+02 0.14103458356E+02 0.93812861922E+01
 0.64691426295E+01 0.49275218564E+01 0.42731477742E+01 0.42763608767E+01 0.49327641488E+01