   1   1   1   0
  0.1482975E+02  0.2757716E-09  0.2757716E-09  0.2757716E-09  0.5000000E-15
  1.000000000000000E-004
  CAR 
 fcc Au                                  
     40.91210512     -5.99887359  301      7.62561694      1.00000000
     -5.999  0.0000E+00  0.0000E+00
     -5.843  0.0000E+00  0.0000E+00
     -5.686  0.0000E+00  0.0000E+00
     -5.530 -0.5546E-31 -0.8672E-32
     -5.373 -0.1211E-25 -0.1893E-26
     -5.217 -0.7700E-21 -0.1204E-21
     -5.061 -0.1423E-16 -0.2225E-17
     -4.904 -0.7329E-13 -0.1146E-13
     -4.748 -0.1111E-09 -0.1739E-10
     -4.592 -0.4751E-07 -0.7446E-08
     -4.435 -0.5546E-05 -0.8747E-06
     -4.279 -0.1621E-03 -0.2622E-04
     -4.122 -0.7865E-03 -0.1492E-03
     -3.966  0.3232E-02  0.3562E-03
     -3.810  0.1405E-01  0.2553E-02
     -3.653  0.3076E-01  0.7363E-02
     -3.497  0.4844E-01  0.1494E-01
     -3.341  0.4730E-01  0.2233E-01
     -3.184  0.5107E-01  0.3032E-01
     -3.028  0.6658E-01  0.4073E-01
     -2.871  0.9239E-01  0.5518E-01
     -2.715  0.9400E-01  0.6988E-01
     -2.559  0.5592E-01  0.7862E-01
     -2.402  0.8288E-01  0.9158E-01
     -2.246  0.1501E+00  0.1151E+00
     -2.090  0.1503E+00  0.1386E+00
     -1.933  0.9169E-01  0.1529E+00
     -1.777  0.1347E+00  0.1740E+00
     -1.621  0.1981E+00  0.2049E+00
     -1.464  0.1636E+00  0.2305E+00
     -1.308  0.2454E+00  0.2689E+00
     -1.151  0.4303E+00  0.3362E+00
     -0.995  0.6050E+00  0.4308E+00
     -0.839  0.6323E+00  0.5296E+00
     -0.682  0.9088E+00  0.6718E+00
     -0.526  0.1155E+01  0.8523E+00
     -0.370  0.1440E+01  0.1077E+01
     -0.213  0.1550E+01  0.1320E+01
     -0.057  0.1515E+01  0.1557E+01
      0.100  0.1585E+01  0.1805E+01
      0.256  0.1247E+01  0.2000E+01
      0.412  0.1336E+01  0.2209E+01
      0.569  0.1282E+01  0.2409E+01
      0.725  0.8598E+00  0.2544E+01
      0.881  0.1097E+01  0.2715E+01
      1.038  0.1451E+01  0.2942E+01
      1.194  0.1475E+01  0.3173E+01
      1.351  0.1535E+01  0.3413E+01
      1.507  0.1365E+01  0.3626E+01
      1.663  0.1583E+01  0.3873E+01
      1.820  0.1826E+01  0.4159E+01
      1.976  0.1700E+01  0.4425E+01
      2.132  0.1813E+01  0.4708E+01
      2.289  0.2238E+01  0.5058E+01
      2.445  0.2774E+01  0.5492E+01
      2.601  0.2080E+01  0.5817E+01
      2.758  0.1455E+01  0.6045E+01
      2.914  0.1228E+01  0.6237E+01
      3.071  0.1212E+01  0.6426E+01
      3.227  0.1313E+01  0.6632E+01
      3.383  0.1278E+01  0.6832E+01
      3.540  0.1620E+01  0.7085E+01
      3.696  0.1705E+01  0.7351E+01
      3.852  0.1587E+01  0.7600E+01
      4.009  0.1254E+01  0.7796E+01
      4.165  0.1596E+01  0.8045E+01
      4.322  0.1560E+01  0.8289E+01
      4.478  0.8521E+00  0.8422E+01
      4.634  0.1159E+01  0.8604E+01
      4.791  0.1564E+01  0.8848E+01
      4.947  0.1131E+01  0.9025E+01
      5.103  0.1321E+01  0.9232E+01
      5.260  0.1966E+01  0.9539E+01
      5.416  0.2025E+01  0.9856E+01
      5.573  0.1916E+01  0.1016E+02
      5.729  0.1454E+01  0.1038E+02
      5.885  0.1094E+01  0.1055E+02
      6.042  0.5105E+00  0.1063E+02
      6.198  0.1520E-01  0.1064E+02
      6.354  0.3659E-01  0.1064E+02
      6.511  0.2518E+00  0.1068E+02
      6.667  0.4848E+00  0.1076E+02
      6.823  0.4135E+00  0.1082E+02
      6.980  0.1913E+00  0.1085E+02
      7.136  0.1404E+00  0.1087E+02
      7.293  0.2262E+00  0.1091E+02
      7.449  0.2782E+00  0.1095E+02
      7.605  0.2700E+00  0.1099E+02
      7.762  0.2727E+00  0.1104E+02
      7.918  0.1989E+00  0.1107E+02
      8.074  0.1607E+00  0.1109E+02
      8.231  0.3588E+00  0.1115E+02
      8.387  0.4112E+00  0.1121E+02
      8.544  0.3006E+00  0.1126E+02
      8.700  0.1778E+00  0.1129E+02
      8.856  0.1776E+00  0.1132E+02
      9.013  0.1164E+00  0.1133E+02
      9.169  0.1911E+00  0.1136E+02
      9.325  0.3998E+00  0.1143E+02
      9.482  0.3460E+00  0.1148E+02
      9.638  0.1991E+00  0.1151E+02
      9.794  0.2082E+00  0.1154E+02
      9.951  0.1899E+00  0.1157E+02
     10.107  0.1580E+00  0.1160E+02
     10.264  0.2640E+00  0.1164E+02
     10.420  0.2549E+00  0.1168E+02
     10.576  0.1833E+00  0.1171E+02
     10.733  0.2800E+00  0.1175E+02
     10.889  0.1273E+00  0.1177E+02
     11.045  0.8991E-01  0.1179E+02
     11.202  0.2161E+00  0.1182E+02
     11.358  0.3580E+00  0.1188E+02
     11.515  0.5898E+00  0.1197E+02
     11.671  0.4089E+00  0.1203E+02
     11.827  0.1813E+00  0.1206E+02
     11.984  0.1586E+00  0.1209E+02
     12.140  0.3071E+00  0.1213E+02
     12.296  0.4442E+00  0.1220E+02
     12.453  0.3853E+00  0.1226E+02
     12.609  0.2523E+00  0.1230E+02
     12.766  0.1221E+00  0.1232E+02
     12.922  0.1718E+00  0.1235E+02
     13.078  0.3706E+00  0.1241E+02
     13.235  0.3394E+00  0.1246E+02
     13.391  0.3058E+00  0.1251E+02
     13.547  0.2598E+00  0.1255E+02
     13.704  0.2226E+00  0.1258E+02
     13.860  0.4737E+00  0.1266E+02
     14.016  0.4483E+00  0.1273E+02
     14.173  0.1342E+00  0.1275E+02
     14.329  0.3003E+00  0.1280E+02
     14.486  0.3175E+00  0.1284E+02
     14.642  0.2623E+00  0.1289E+02
     14.798  0.2264E+00  0.1292E+02
     14.955  0.4542E+00  0.1299E+02
     15.111  0.4289E+00  0.1306E+02
     15.267  0.1183E+00  0.1308E+02
     15.424  0.8162E-01  0.1309E+02
     15.580  0.1441E+00  0.1311E+02
     15.737  0.3057E+00  0.1316E+02
     15.893  0.3040E+00  0.1321E+02
     16.049  0.2631E+00  0.1325E+02
     16.206  0.5203E+00  0.1333E+02
     16.362  0.5925E+00  0.1342E+02
     16.518  0.5030E+00  0.1350E+02
     16.675  0.3773E+00  0.1356E+02
     16.831  0.5518E-01  0.1357E+02
     16.988  0.9834E-01  0.1359E+02
     17.144  0.3204E+00  0.1364E+02
     17.300  0.3712E+00  0.1369E+02
     17.457  0.3124E+00  0.1374E+02
     17.613  0.3945E+00  0.1380E+02
     17.769  0.3845E+00  0.1386E+02
     17.926  0.3422E+00  0.1392E+02
     18.082  0.3679E+00  0.1398E+02
     18.238  0.4433E+00  0.1404E+02
     18.395  0.5965E+00  0.1414E+02
     18.551  0.5177E+00  0.1422E+02
     18.708  0.4023E+00  0.1428E+02
     18.864  0.3608E+00  0.1434E+02
     19.020  0.3887E+00  0.1440E+02
     19.177  0.5185E+00  0.1448E+02
     19.333  0.5354E+00  0.1456E+02
     19.489  0.4714E+00  0.1464E+02
     19.646  0.2220E+00  0.1467E+02
     19.802  0.2516E+00  0.1471E+02
     19.959  0.5756E+00  0.1480E+02
     20.115  0.6441E+00  0.1490E+02
     20.271  0.6154E+00  0.1500E+02
     20.428  0.5848E+00  0.1509E+02
     20.584  0.4936E+00  0.1517E+02
     20.740  0.3179E+00  0.1522E+02
     20.897  0.2004E+00  0.1525E+02
     21.053  0.4061E+00  0.1531E+02
     21.209  0.6975E+00  0.1542E+02
     21.366  0.5265E+00  0.1550E+02
     21.522  0.2498E+00  0.1554E+02
     21.679  0.3553E+00  0.1560E+02
     21.835  0.5323E+00  0.1568E+02
     21.991  0.5363E+00  0.1576E+02
     22.148  0.5958E+00  0.1586E+02
     22.304  0.6248E+00  0.1596E+02
     22.460  0.8376E+00  0.1609E+02
     22.617  0.8609E+00  0.1622E+02
     22.773  0.5014E+00  0.1630E+02
     22.930  0.4961E+00  0.1638E+02
     23.086  0.6690E+00  0.1648E+02
     23.242  0.5253E+00  0.1656E+02
     23.399  0.2647E+00  0.1661E+02
     23.555  0.3717E+00  0.1666E+02
     23.711  0.5642E+00  0.1675E+02
     23.868  0.5453E+00  0.1684E+02
     24.024  0.7241E+00  0.1695E+02
     24.181  0.1022E+01  0.1711E+02
     24.337  0.7609E+00  0.1723E+02
     24.493  0.3663E+00  0.1729E+02
     24.650  0.3635E+00  0.1734E+02
     24.806  0.4687E+00  0.1742E+02
     24.962  0.2807E+00  0.1746E+02
     25.119  0.2250E+00  0.1750E+02
     25.275  0.3519E+00  0.1755E+02
     25.431  0.2565E+00  0.1759E+02
     25.588  0.3078E+00  0.1764E+02
     25.744  0.5651E+00  0.1773E+02
     25.901  0.6709E+00  0.1783E+02
     26.057  0.6189E+00  0.1793E+02
     26.213  0.6231E+00  0.1803E+02
     26.370  0.6635E+00  0.1813E+02
     26.526  0.7263E+00  0.1824E+02
     26.682  0.6880E+00  0.1835E+02
     26.839  0.6470E+00  0.1845E+02
     26.995  0.8082E+00  0.1858E+02
     27.152  0.9445E+00  0.1873E+02
     27.308  0.8113E+00  0.1885E+02
     27.464  0.6212E+00  0.1895E+02
     27.621  0.4977E+00  0.1903E+02
     27.777  0.4568E+00  0.1910E+02
     27.933  0.7386E+00  0.1921E+02
     28.090  0.8382E+00  0.1935E+02
     28.246  0.6001E+00  0.1944E+02
     28.403  0.3319E+00  0.1949E+02
     28.559  0.2630E+00  0.1953E+02
     28.715  0.5988E+00  0.1963E+02
     28.872  0.6875E+00  0.1973E+02
     29.028  0.5598E+00  0.1982E+02
     29.184  0.4849E+00  0.1990E+02
     29.341  0.3362E+00  0.1995E+02
     29.497  0.2882E+00  0.2000E+02
     29.653  0.3510E+00  0.2005E+02
     29.810  0.3274E+00  0.2010E+02
     29.966  0.2665E+00  0.2014E+02
     30.123  0.3601E+00  0.2020E+02
     30.279  0.4518E+00  0.2027E+02
     30.435  0.5737E+00  0.2036E+02
     30.592  0.3687E+00  0.2042E+02
     30.748  0.2836E+00  0.2046E+02
     30.904  0.2651E+00  0.2050E+02
     31.061  0.2649E+00  0.2054E+02
     31.217  0.3558E+00  0.2060E+02
     31.374  0.2806E+00  0.2064E+02
     31.530  0.4104E+00  0.2071E+02
     31.686  0.4314E+00  0.2078E+02
     31.843  0.4565E+00  0.2085E+02
     31.999  0.9619E+00  0.2100E+02
     32.155  0.8122E+00  0.2112E+02
     32.312  0.9185E-01  0.2114E+02
     32.468  0.9746E-01  0.2115E+02
     32.624  0.3798E+00  0.2121E+02
     32.781  0.4714E+00  0.2129E+02
     32.937  0.5957E+00  0.2138E+02
     33.094  0.5430E+00  0.2147E+02
     33.250  0.3364E+00  0.2152E+02
     33.406  0.4837E+00  0.2159E+02
     33.563  0.5532E+00  0.2168E+02
     33.719  0.5528E+00  0.2177E+02
     33.875  0.7919E+00  0.2189E+02
     34.032  0.5728E+00  0.2198E+02
     34.188  0.4786E+00  0.2205E+02
     34.345  0.5629E+00  0.2214E+02
     34.501  0.7156E+00  0.2225E+02
     34.657  0.7202E+00  0.2237E+02
     34.814  0.6219E+00  0.2246E+02
     34.970  0.7055E+00  0.2257E+02
     35.126  0.6158E+00  0.2267E+02
     35.283  0.6614E+00  0.2277E+02
     35.439  0.7404E+00  0.2289E+02
     35.596  0.5817E+00  0.2298E+02
     35.752  0.5196E+00  0.2306E+02
     35.908  0.6836E+00  0.2317E+02
     36.065  0.9446E+00  0.2332E+02
     36.221  0.8753E+00  0.2345E+02
     36.377  0.6671E+00  0.2356E+02
     36.534  0.5178E+00  0.2364E+02
     36.690  0.2105E+00  0.2367E+02
     36.846  0.1533E+00  0.2370E+02
     37.003  0.2673E+00  0.2374E+02
     37.159  0.1246E+00  0.2376E+02
     37.316  0.1571E+00  0.2378E+02
     37.472  0.2734E+00  0.2382E+02
     37.628  0.3152E+00  0.2387E+02
     37.785  0.4180E+00  0.2394E+02
     37.941  0.1786E+00  0.2397E+02
     38.097 -0.1410E-01  0.2396E+02
     38.254 -0.1515E-02  0.2396E+02
     38.410  0.3924E-01  0.2397E+02
     38.567  0.4907E-01  0.2398E+02
     38.723  0.7004E-01  0.2399E+02
     38.879  0.6043E-01  0.2400E+02
     39.036  0.1057E-01  0.2400E+02
     39.192 -0.2791E-02  0.2400E+02
     39.348 -0.5076E-03  0.2400E+02
     39.505 -0.1686E-04  0.2400E+02
     39.661 -0.1431E-06  0.2400E+02
     39.818 -0.3338E-09  0.2400E+02
     39.974 -0.2200E-12  0.2400E+02
     40.130 -0.5112E-16  0.2400E+02
     40.287  0.0000E+00  0.2400E+02
     40.443  0.0000E+00  0.2400E+02
     40.599  0.0000E+00  0.2400E+02
     40.756  0.0000E+00  0.2400E+02
     40.912  0.0000E+00  0.2400E+02
     40.91210512     -5.99887359  301      7.62561694      1.00000000
     -5.999  0.0000E+00  0.0000E+00  0.0000E+00
     -5.843  0.0000E+00  0.0000E+00  0.0000E+00
     -5.686  0.0000E+00  0.0000E+00  0.0000E+00
     -5.530 -0.4296E-31 -0.3451E-33 -0.6797E-35
     -5.373 -0.9380E-26 -0.7535E-28 -0.1484E-29
     -5.217 -0.5965E-21 -0.4792E-23 -0.9438E-25
     -5.061 -0.1102E-16 -0.8854E-19 -0.1744E-20
     -4.904 -0.5678E-13 -0.4561E-15 -0.8983E-17
     -4.748 -0.8609E-10 -0.6916E-12 -0.1362E-13
     -4.592 -0.3680E-07 -0.2957E-09 -0.5826E-11
     -4.435 -0.4297E-05 -0.3456E-07 -0.6827E-09
     -4.279 -0.1256E-03 -0.1021E-05 -0.2071E-07
     -4.122 -0.6084E-03 -0.5820E-05 -0.1602E-06
     -3.966  0.2521E-02  0.3581E-05 -0.7549E-06
     -3.810  0.1091E-01  0.6384E-04 -0.4130E-06
     -3.653  0.2349E-01  0.5351E-03  0.2271E-04
     -3.497  0.3668E-01  0.1129E-02  0.6933E-04
     -3.341  0.3530E-01  0.1544E-02  0.1722E-03
     -3.184  0.3756E-01  0.2150E-02  0.2957E-03
     -3.028  0.4817E-01  0.3471E-02  0.5470E-03
     -2.871  0.6569E-01  0.5660E-02  0.1166E-02
     -2.715  0.6603E-01  0.6167E-02  0.1702E-02
     -2.559  0.3851E-01  0.3998E-02  0.1576E-02
     -2.402  0.5549E-01  0.7176E-02  0.2711E-02
     -2.246  0.9858E-01  0.1374E-01  0.6340E-02
     -2.090  0.9702E-01  0.1440E-01  0.7583E-02
     -1.933  0.5751E-01  0.9073E-02  0.6383E-02
     -1.777  0.8079E-01  0.1439E-01  0.1268E-01
     -1.621  0.1153E+00  0.2112E-01  0.2285E-01
     -1.464  0.9119E-01  0.1827E-01  0.2232E-01
     -1.308  0.1243E+00  0.2578E-01  0.5087E-01
     -1.151  0.1811E+00  0.3324E-01  0.1499E+00
     -0.995  0.2153E+00  0.3780E-01  0.2678E+00
     -0.839  0.1769E+00  0.3257E-01  0.3399E+00
     -0.682  0.2176E+00  0.4999E-01  0.5219E+00
     -0.526  0.2494E+00  0.6586E-01  0.6919E+00
     -0.370  0.2277E+00  0.6921E-01  0.9780E+00
     -0.213  0.1959E+00  0.6485E-01  0.1127E+01
     -0.057  0.1645E+00  0.6963E-01  0.1129E+01
      0.100  0.1342E+00  0.6928E-01  0.1231E+01
      0.256  0.8809E-01  0.6241E-01  0.9785E+00
      0.412  0.7621E-01  0.7485E-01  0.1058E+01
      0.569  0.4454E-01  0.7215E-01  0.1049E+01
      0.725  0.1921E-01  0.5929E-01  0.7023E+00
      0.881  0.1622E-01  0.8119E-01  0.8969E+00
      1.038  0.1984E-01  0.1130E+00  0.1183E+01
      1.194  0.1739E-01  0.1025E+00  0.1220E+01
      1.351  0.1901E-01  0.9396E-01  0.1289E+01
      1.507  0.2289E-01  0.7239E-01  0.1160E+01
      1.663  0.3063E-01  0.9013E-01  0.1337E+01
      1.820  0.3883E-01  0.1283E+00  0.1517E+01
      1.976  0.4373E-01  0.1112E+00  0.1417E+01
      2.132  0.4555E-01  0.1038E+00  0.1533E+01
      2.289  0.4143E-01  0.1382E+00  0.1904E+01
      2.445  0.4851E-01  0.1770E+00  0.2363E+01
      2.601  0.4566E-01  0.1359E+00  0.1757E+01
      2.758  0.3293E-01  0.8639E-01  0.1239E+01
      2.914  0.2050E-01  0.7809E-01  0.1047E+01
      3.071  0.2069E-01  0.1039E+00  0.9973E+00
      3.227  0.2111E-01  0.8767E-01  0.1115E+01
      3.383  0.2122E-01  0.7947E-01  0.1093E+01
      3.540  0.2825E-01  0.1002E+00  0.1386E+01
      3.696  0.1969E-01  0.6350E-01  0.1526E+01
      3.852  0.1694E-01  0.4896E-01  0.1434E+01
      4.009  0.1212E-01  0.6437E-01  0.1102E+01
      4.165  0.1989E-01  0.7635E-01  0.1412E+01
      4.322  0.2310E-01  0.6215E-01  0.1394E+01
      4.478  0.9829E-02  0.2393E-01  0.7800E+00
      4.634  0.4764E-02  0.3297E-01  0.1072E+01
      4.791  0.1358E-01  0.5419E-01  0.1427E+01
      4.947  0.1586E-01  0.3439E-01  0.1033E+01
      5.103  0.1080E-01  0.2406E-01  0.1238E+01
      5.260  0.1534E-01  0.3489E-01  0.1848E+01
      5.416  0.1173E-01  0.2953E-01  0.1919E+01
      5.573  0.4837E-02  0.1605E-01  0.1842E+01
      5.729  0.1862E-01  0.2679E-01  0.1365E+01
      5.885  0.4280E-01  0.5134E-01  0.9554E+00
      6.042  0.2612E-01  0.3184E-01  0.4287E+00
      6.198  0.3094E-02  0.3970E-02  0.6151E-02
      6.354  0.3784E-02  0.6374E-02  0.2303E-01
      6.511  0.2315E-01  0.3827E-01  0.1697E+00
      6.667  0.4942E-01  0.7183E-01  0.3251E+00
      6.823  0.4872E-01  0.6559E-01  0.2654E+00
      6.980  0.1974E-01  0.4685E-01  0.1035E+00
      7.136  0.1278E-01  0.4747E-01  0.6047E-01
      7.293  0.2931E-01  0.5262E-01  0.1200E+00
      7.449  0.4267E-01  0.4164E-01  0.1705E+00
      7.605  0.4223E-01  0.4163E-01  0.1629E+00
      7.762  0.3768E-01  0.6009E-01  0.1463E+00
      7.918  0.2841E-01  0.4711E-01  0.1019E+00
      8.074  0.2154E-01  0.4733E-01  0.7230E-01
      8.231  0.4834E-01  0.1100E+00  0.1542E+00
      8.387  0.5634E-01  0.1243E+00  0.1755E+00
      8.544  0.4755E-01  0.7827E-01  0.1366E+00
      8.700  0.3000E-01  0.4419E-01  0.8241E-01
      8.856  0.3261E-01  0.4627E-01  0.7856E-01
      9.013  0.2387E-01  0.2731E-01  0.5252E-01
      9.169  0.4440E-01  0.4391E-01  0.7891E-01
      9.325  0.6864E-01  0.1287E+00  0.1442E+00
      9.482  0.4805E-01  0.1246E+00  0.1211E+00
      9.638  0.3984E-01  0.5562E-01  0.7715E-01
      9.794  0.4072E-01  0.6011E-01  0.7987E-01
      9.951  0.3691E-01  0.5648E-01  0.6973E-01
     10.107  0.3073E-01  0.5122E-01  0.5117E-01
     10.264  0.4906E-01  0.8924E-01  0.8385E-01
     10.420  0.7029E-01  0.6584E-01  0.7899E-01
     10.576  0.4276E-01  0.5619E-01  0.5696E-01
     10.733  0.5583E-01  0.9541E-01  0.8705E-01
     10.889  0.3006E-01  0.3846E-01  0.3974E-01
     11.045  0.3969E-01  0.1526E-01  0.1835E-01
     11.202  0.7282E-01  0.5515E-01  0.5079E-01
     11.358  0.1294E+00  0.6981E-01  0.1104E+00
     11.515  0.2563E+00  0.6824E-01  0.1896E+00
     11.671  0.1661E+00  0.6494E-01  0.1161E+00
     11.827  0.6085E-01  0.5033E-01  0.3631E-01
     11.984  0.5241E-01  0.4498E-01  0.3420E-01
     12.140  0.1195E+00  0.5594E-01  0.8612E-01
     12.296  0.1547E+00  0.9172E-01  0.1302E+00
     12.453  0.1123E+00  0.1064E+00  0.1001E+00
     12.609  0.7443E-01  0.7769E-01  0.5182E-01
     12.766  0.3102E-01  0.4490E-01  0.2093E-01
     12.922  0.3124E-01  0.6879E-01  0.3843E-01
     13.078  0.1184E+00  0.1050E+00  0.7419E-01
     13.235  0.1165E+00  0.8568E-01  0.7245E-01
     13.391  0.8091E-01  0.8912E-01  0.8339E-01
     13.547  0.7396E-01  0.7843E-01  0.5958E-01
     13.704  0.6849E-01  0.7094E-01  0.3967E-01
     13.860  0.1485E+00  0.1465E+00  0.8322E-01
     14.016  0.1441E+00  0.1354E+00  0.7441E-01
     14.173  0.3321E-01  0.4620E-01  0.2823E-01
     14.329  0.8104E-01  0.9404E-01  0.7249E-01
     14.486  0.1007E+00  0.8518E-01  0.7305E-01
     14.642  0.9170E-01  0.6544E-01  0.5245E-01
     14.798  0.8134E-01  0.5852E-01  0.4005E-01
     14.955  0.1260E+00  0.1453E+00  0.8119E-01
     15.111  0.1235E+00  0.1377E+00  0.7000E-01
     15.267  0.3573E-01  0.4154E-01  0.1435E-01
     15.424  0.5867E-02  0.4341E-01  0.1564E-01
     15.580  0.3264E-01  0.5458E-01  0.2243E-01
     15.737  0.9098E-01  0.9119E-01  0.5144E-01
     15.893  0.9183E-01  0.8789E-01  0.5630E-01
     16.049  0.5806E-01  0.8893E-01  0.5803E-01
     16.206  0.9336E-01  0.1922E+00  0.1177E+00
     16.362  0.1062E+00  0.2290E+00  0.1267E+00
     16.518  0.9834E-01  0.1878E+00  0.1012E+00
     16.675  0.7369E-01  0.1325E+00  0.7944E-01
     16.831  0.1144E-01  0.1782E-01  0.1143E-01
     16.988  0.5899E-03  0.4946E-01  0.2135E-01
     17.144  0.2374E-01  0.1467E+00  0.7012E-01
     17.300  0.4214E-01  0.1555E+00  0.8664E-01
     17.457  0.5470E-01  0.1177E+00  0.5930E-01
     17.613  0.7461E-01  0.1526E+00  0.5152E-01
     17.769  0.6746E-01  0.1525E+00  0.5194E-01
     17.926  0.4078E-01  0.1496E+00  0.6566E-01
     18.082  0.3202E-01  0.1604E+00  0.8872E-01
     18.238  0.2412E-01  0.1953E+00  0.1171E+00
     18.395  0.2187E-01  0.2589E+00  0.1532E+00
     18.551  0.2751E-01  0.2222E+00  0.1070E+00
     18.708  0.4008E-01  0.1656E+00  0.6928E-01
     18.864  0.4863E-01  0.1346E+00  0.6792E-01
     19.020  0.4400E-01  0.1638E+00  0.5744E-01
     19.177  0.3643E-01  0.2268E+00  0.9319E-01
     19.333  0.2150E-01  0.2296E+00  0.1348E+00
     19.489  0.1651E-01  0.2083E+00  0.1223E+00
     19.646  0.5565E-02  0.9903E-01  0.5314E-01
     19.802  0.1036E-01  0.1132E+00  0.4972E-01
     19.959  0.3060E-01  0.2500E+00  0.1060E+00
     20.115  0.3940E-01  0.2526E+00  0.1380E+00
     20.271  0.3585E-01  0.2412E+00  0.1365E+00
     20.428  0.2624E-01  0.2475E+00  0.1248E+00
     20.584  0.2758E-01  0.1991E+00  0.1181E+00
     20.740  0.1568E-01  0.1221E+00  0.8399E-01
     20.897  0.7100E-02  0.7781E-01  0.4920E-01
     21.053  0.1300E-01  0.1646E+00  0.9087E-01
     21.209  0.2178E-01  0.2745E+00  0.1531E+00
     21.366  0.2342E-01  0.1919E+00  0.1057E+00
     21.522  0.1075E-01  0.9247E-01  0.4544E-01
     21.679  0.8778E-02  0.1430E+00  0.8172E-01
     21.835  0.1505E-01  0.2097E+00  0.1241E+00
     21.991  0.1489E-01  0.2166E+00  0.1113E+00
     22.148  0.1685E-01  0.2233E+00  0.1215E+00
     22.304  0.1888E-01  0.1817E+00  0.1292E+00
     22.460  0.2019E-01  0.1739E+00  0.1485E+00
     22.617  0.1657E-01  0.1737E+00  0.1439E+00
     22.773  0.1214E-01  0.1075E+00  0.8816E-01
     22.930  0.7990E-02  0.1268E+00  0.9509E-01
     23.086  0.8358E-02  0.1841E+00  0.1276E+00
     23.242  0.5740E-02  0.1341E+00  0.8817E-01
     23.399  0.3579E-02  0.4821E-01  0.3167E-01
     23.555  0.6538E-02  0.6994E-01  0.4856E-01
     23.711  0.7107E-02  0.1451E+00  0.9908E-01
     23.868  0.3408E-02  0.1420E+00  0.1090E+00
     24.024  0.1151E-01  0.1655E+00  0.1211E+00
     24.181  0.2281E-01  0.2026E+00  0.1537E+00
     24.337  0.1552E-01  0.1287E+00  0.1162E+00
     24.493  0.4593E-02  0.9016E-01  0.5785E-01
     24.650  0.3110E-02  0.9305E-01  0.5086E-01
     24.806  0.8696E-02  0.9370E-01  0.5459E-01
     24.962  0.7594E-02  0.6447E-01  0.2456E-01
     25.119  0.5186E-02  0.7092E-01  0.1872E-01
     25.275  0.5532E-02  0.1009E+00  0.4117E-01
     25.431  0.3830E-02  0.6834E-01  0.3251E-01
     25.588  0.5304E-02  0.9615E-01  0.3144E-01
     25.744  0.8916E-02  0.1639E+00  0.6464E-01
     25.901  0.1643E-01  0.1819E+00  0.8556E-01
     26.057  0.1838E-01  0.2102E+00  0.6950E-01
     26.213  0.1492E-01  0.2268E+00  0.7506E-01
     26.370  0.2609E-01  0.2026E+00  0.1061E+00
     26.526  0.3213E-01  0.1889E+00  0.1165E+00
     26.682  0.2410E-01  0.1654E+00  0.1164E+00
     26.839  0.1669E-01  0.1576E+00  0.1235E+00
     26.995  0.2714E-01  0.2002E+00  0.1352E+00
     27.152  0.4110E-01  0.2285E+00  0.1550E+00
     27.308  0.3647E-01  0.1823E+00  0.1452E+00
     27.464  0.3103E-01  0.1285E+00  0.1205E+00
     27.621  0.1664E-01  0.1185E+00  0.8449E-01
     27.777  0.3180E-02  0.1116E+00  0.5722E-01
     27.933  0.6196E-02  0.1688E+00  0.1154E+00
     28.090  0.1236E-01  0.2124E+00  0.1396E+00
     28.246  0.1191E-01  0.1589E+00  0.9338E-01
     28.403  0.9070E-02  0.7919E-01  0.6007E-01
     28.559  0.1080E-01  0.4446E-01  0.6551E-01
     28.715  0.2854E-01  0.1169E+00  0.1219E+00
     28.872  0.2709E-01  0.1541E+00  0.1010E+00
     29.028  0.8331E-02  0.1172E+00  0.9602E-01
     29.184  0.4579E-02  0.8919E-01  0.1208E+00
     29.341  0.3836E-02  0.5405E-01  0.9010E-01
     29.497  0.1775E-02  0.3744E-01  0.1063E+00
     29.653  0.4194E-02  0.6282E-01  0.1172E+00
     29.810  0.5614E-02  0.6057E-01  0.8192E-01
     29.966  0.1105E-01  0.5172E-01  0.4285E-01
     30.123  0.2106E-01  0.8314E-01  0.6852E-01
     30.279  0.1964E-01  0.1001E+00  0.8306E-01
     30.435  0.2189E-01  0.1171E+00  0.1181E+00
     30.592  0.1253E-01  0.5367E-01  0.1042E+00
     30.748  0.3696E-02  0.4863E-01  0.6481E-01
     30.904  0.3629E-02  0.6027E-01  0.3284E-01
     31.061  0.4130E-02  0.4553E-01  0.3670E-01
     31.217  0.2271E-02  0.6808E-01  0.6210E-01
     31.374  0.5371E-02  0.7226E-01  0.3681E-01
     31.530  0.1835E-01  0.1121E+00  0.4467E-01
     31.686  0.1761E-01  0.1442E+00  0.5347E-01
     31.843  0.8859E-02  0.1222E+00  0.7536E-01
     31.999  0.2757E-01  0.1680E+00  0.1659E+00
     32.155  0.2910E-01  0.1228E+00  0.1517E+00
     32.312  0.4274E-02  0.1172E-01  0.2035E-01
     32.468 -0.3736E-03  0.7611E-02  0.1886E-01
     32.624  0.1536E-02  0.3441E-01  0.7766E-01
     32.781  0.1428E-02  0.5163E-01  0.9414E-01
     32.937  0.1440E-02  0.5228E-01  0.1310E+00
     33.094  0.1289E-02  0.2855E-01  0.1267E+00
     33.250  0.3366E-02  0.1278E-01  0.7860E-01
     33.406  0.6503E-02  0.5728E-01  0.1141E+00
     33.563  0.4894E-02  0.9060E-01  0.1223E+00
     33.719  0.7173E-02  0.5442E-01  0.1445E+00
     33.875  0.1702E-01  0.7281E-01  0.2185E+00
     34.032  0.1230E-01  0.8176E-01  0.1445E+00
     34.188  0.5142E-02  0.5308E-01  0.1280E+00
     34.345  0.3583E-02  0.2552E-01  0.1869E+00
     34.501  0.6382E-02  0.3037E-01  0.2335E+00
     34.657  0.6183E-02  0.3599E-01  0.2084E+00
     34.814  0.4168E-02  0.3450E-01  0.1706E+00
     34.970  0.3269E-02  0.6251E-01  0.2219E+00
     35.126  0.2440E-02  0.6057E-01  0.2079E+00
     35.283  0.8660E-02  0.2759E-01  0.1946E+00
     35.439  0.1505E-01  0.1619E-01  0.2119E+00
     35.596  0.1466E-01  0.2092E-01  0.1861E+00
     35.752  0.1891E-01  0.2679E-01  0.1667E+00
     35.908  0.2892E-01  0.3389E-01  0.1936E+00
     36.065  0.2675E-01  0.5369E-01  0.2478E+00
     36.221  0.1920E-01  0.4606E-01  0.2014E+00
     36.377  0.8714E-02  0.1320E-01  0.1046E+00
     36.534  0.5071E-02  0.9069E-02  0.8100E-01
     36.690  0.4817E-02  0.8740E-02  0.4199E-01
     36.846  0.3764E-02  0.1102E-01  0.3522E-01
     37.003  0.4924E-02  0.1787E-01  0.6012E-01
     37.159  0.2268E-02  0.8552E-02  0.2811E-01
     37.316  0.6558E-02  0.1170E-01  0.3353E-01
     37.472  0.5439E-02  0.9617E-02  0.4270E-01
     37.628  0.3099E-02  0.6839E-02  0.3511E-01
     37.785  0.6719E-02  0.1446E-01  0.4147E-01
     37.941  0.2676E-02  0.6232E-02  0.1710E-01
     38.097 -0.2535E-03 -0.4602E-03 -0.1259E-02
     38.254 -0.1071E-03 -0.2561E-03 -0.6884E-03
     38.410 -0.5411E-05 -0.2305E-04  0.3290E-03
     38.567 -0.7168E-07  0.6405E-05  0.8573E-03
     38.723  0.7266E-09  0.2823E-03  0.2529E-02
     38.879  0.1998E-08  0.4875E-03  0.2725E-02
     39.036  0.5546E-09  0.1291E-03  0.5669E-03
     39.192 -0.9510E-10 -0.2306E-04 -0.1259E-03
     39.348 -0.2104E-10 -0.4996E-05 -0.2461E-04
     39.505 -0.7229E-12 -0.1711E-06 -0.8280E-06
     39.661 -0.6195E-14 -0.1465E-08 -0.7055E-08
     39.818 -0.1449E-16 -0.3426E-11 -0.1648E-10
     39.974 -0.9557E-20 -0.2259E-14 -0.1086E-13
     40.130 -0.2222E-23 -0.5252E-18 -0.2525E-17
     40.287  0.0000E+00  0.0000E+00  0.0000E+00
     40.443  0.0000E+00  0.0000E+00  0.0000E+00
     40.599  0.0000E+00  0.0000E+00  0.0000E+00
     40.756  0.0000E+00  0.0000E+00  0.0000E+00
     40.912  0.0000E+00  0.0000E+00  0.0000E+00
