    1    1    1    1
  0.1482975E+02  0.2757716E-09  0.2757716E-09  0.2757716E-09  0.5000000E-15
  1.000000000000000E-004
  CAR 
 fcc Au                                  
     11    110     12
 
  0.5000000E-01  0.5000000E-01  0.5000000E-01  0.2000000E-02
    1       -3.866556   1.000000
    2        1.952224   1.000000
    3        2.031425   1.000000
    4        2.031425   1.000000
    5        3.934337   1.000000
    6        3.934337   1.000000
    7       22.937090   0.000000
    8       26.803287   0.000000
    9       27.629849   0.000000
   10       27.629849   0.000000
   11       32.770560   0.000000
   12       37.058799   0.000000
 
  0.1500000E+00  0.5000000E-01  0.5000000E-01  0.6000000E-02
    1       -3.350977   1.000000
    2        1.753057   1.000000
    3        2.203398   1.000000
    4        2.241691   1.000000
    5        3.737789   1.000000
    6        3.993887   1.000000
    7       23.530479   0.000000
    8       24.764853   0.000000
    9       27.458752   0.000000
   10       28.707366   0.000000
   11       32.863046   0.000000
   12       35.690590   0.000000
 
  0.2500000E+00  0.5000000E-01  0.5000000E-01  0.6000000E-02
    1       -2.254194   1.000000
    2        1.594596   1.000000
    3        2.385708   1.000000
    4        2.415844   1.000000
    5        3.741930   1.000000
    6        4.257704   1.000000
    7       21.150817   0.000000
    8       24.262666   0.000000
    9       28.037261   0.000000
   10       30.300662   0.000000
   11       30.479987   0.000000
   12       33.386787   0.000000
 
  0.3500000E+00  0.5000000E-01  0.5000000E-01  0.6000000E-02
    1       -1.330450   1.000000
    2        2.154267   1.000000
    3        2.267625   1.000000
    4        2.375796   1.000000
    5        4.363095   1.000000
    6        4.972686   1.000000
    7       17.104804   0.000000
    8       23.447947   0.000000
    9       27.180120   0.000000
   10       29.631655   0.000000
   11       31.508406   0.000000
   12       32.953061   0.000000
 
  0.4500000E+00  0.5000000E-01  0.5000000E-01  0.6000000E-02
    1       -1.140731   1.000000
    2        1.966483   1.000000
    3        2.054618   1.000000
    4        4.114464   1.000000
    5        5.131451   1.000000
    6        5.915153   1.000000
    7       13.156871   0.000000
    8       22.482134   0.000000
    9       26.012388   0.000000
   10       27.196450   0.000000
   11       33.827174   0.000000
   12       34.343041   0.000000
 
 -0.4500000E+00  0.5000000E-01  0.5000000E-01  0.6000000E-02
    1       -1.147640   1.000000
    2        1.882881   1.000000
    3        2.006713   1.000000
    4        4.709524   1.000000
    5        5.500210   1.000000
    6        6.613575   1.000000
    7       11.494270  -0.000000
    8       22.219570   0.000000
    9       26.020975   0.000000
   10       26.120169   0.000000
   11       34.599823   0.000000
   12       34.706509   0.000000
 
 -0.3500000E+00  0.5000000E-01  0.5000000E-01  0.6000000E-02
    1       -1.157300   1.000000
    2        2.004473   1.000000
    3        2.145243   1.000000
    4        3.450256   1.000000
    5        5.240138   1.000000
    6        5.293596   1.000000
    7       14.379058   0.000000
    8       22.753108   0.000000
    9       26.575733   0.000000
   10       27.495305   0.000000
   11       33.800214   0.000000
   12       33.818756   0.000000
 
 -0.2500000E+00  0.5000000E-01  0.5000000E-01  0.6000000E-02
    1       -1.553732   1.000000
    2        1.887753   1.000000
    3        2.280871   1.000000
    4        2.364544   1.000000
    5        4.240635   1.000000
    6        4.595700   1.000000
    7       18.490989   0.000000
    8       23.866289   0.000000
    9       27.782359   0.000000
   10       29.703052   0.000000
   11       31.306564   0.000000
   12       33.039396   0.000000
 
 -0.1500000E+00  0.5000000E-01  0.5000000E-01  0.6000000E-02
    1       -2.653214   1.000000
    2        1.585100   1.000000
    3        2.379063   1.000000
    4        2.394991   1.000000
    5        3.687670   1.000000
    6        4.103914   1.000000
    7       22.403026   0.000000
    8       24.249595   0.000000
    9       27.981738   0.000000
   10       29.300161   0.000000
   11       31.437699   0.000000
   12       33.983324   0.000000
 
 -0.5000000E-01  0.5000000E-01  0.5000000E-01  0.6000000E-02
    1       -3.603850   1.000000
    2        1.813268   1.000000
    3        2.147284   1.000000
    4        2.153983   1.000000
    5        3.769356   1.000000
    6        4.005923   1.000000
    7       23.276456   0.000000
    8       25.860800   0.000000
    9       27.501262   0.000000
   10       27.828710   0.000000
   11       33.804573   0.000000
   12       36.100049   0.000000
 
  0.1500000E+00  0.1500000E+00  0.5000000E-01  0.6000000E-02
    1       -3.095582   1.000000
    2        1.538568   1.000000
    3        2.395112   1.000000
    4        2.400688   1.000000
    5        3.484676   1.000000
    6        4.145026   1.000000
    7       23.893718   0.000000
    8       24.966781   0.000000
    9       27.050663   0.000000
   10       27.553242   0.000000
   11       33.569519   0.000000
   12       34.902026   0.000000
 
  0.2500000E+00  0.1500000E+00  0.5000000E-01  0.1200000E-01
    1       -2.179702   1.000000
    2        1.224412   1.000000
    3        2.509166   1.000000
    4        2.745772   1.000000
    5        3.413702   1.000000
    6        4.420736   1.000000
    7       22.685545   0.000000
    8       24.413714   0.000000
    9       26.489633   0.000000
   10       27.826053   0.000000
   11       31.498576   0.000000
   12       34.045969   0.000000
 
  0.3500000E+00  0.1500000E+00  0.5000000E-01  0.1200000E-01
    1       -1.092214   1.000000
    2        1.323106   1.000000
    3        2.122044   1.000000
    4        2.754903   1.000000
    5        4.232610   1.000000
    6        5.139677   1.000000
    7       18.736454   0.000000
    8       23.894439   0.000000
    9       25.482976   0.000000
   10       28.028741   0.000000
   11       31.973094   0.000000
   12       33.493822   0.000000
 
  0.4500000E+00  0.1500000E+00  0.5000000E-01  0.1200000E-01
    1       -0.723428   1.000000
    2        1.738109   1.000000
    3        2.387222   1.000000
    4        2.593484   1.000000
    5        5.201148   1.000000
    6        6.456100   1.000000
    7       14.536224   0.000000
    8       23.039099   0.000000
    9       24.371175   0.000000
   10       26.727989   0.000000
   11       33.576149   0.000000
   12       35.059508   0.000000
 
 -0.4500000E+00  0.1500000E+00  0.5000000E-01  0.1200000E-01
    1       -0.717916   1.000000
    2        1.577678   1.000000
    3        2.375580   1.000000
    4        3.433667   1.000000
    5        5.437521   1.000000
    6        8.331053  -0.000004
    7       11.419621  -0.000000
    8       22.514669   0.000000
    9       24.050381   0.000000
   10       25.661536   0.000000
   11       34.433515   0.000000
   12       35.401161   0.000000
 
 -0.3500000E+00  0.1500000E+00  0.5000000E-01  0.1200000E-01
    1       -0.687401   1.000000
    2        1.680962   1.000000
    3        2.406287   1.000000
    4        3.025093   1.000000
    5        5.018510   1.000000
    6        7.242740   1.010438
    7       13.342840   0.000000
    8       22.503146   0.000000
    9       24.098618   0.000000
   10       26.859830   0.000000
   11       33.258560   0.000000
   12       35.152360   0.000000
 
 -0.2500000E+00  0.1500000E+00  0.5000000E-01  0.1200000E-01
    1       -0.839952   1.000000
    2        1.670759   1.000000
    3        2.044872   1.000000
    4        2.645313   1.000000
    5        4.131715   1.000000
    6        5.791554   1.000000
    7       17.347573   0.000000
    8       23.004310   0.000000
    9       25.164455   0.000000
   10       29.014589   0.000000
   11       31.177970   0.000000
   12       34.169843   0.000000
 
 -0.1500000E+00  0.1500000E+00  0.5000000E-01  0.1200000E-01
    1       -1.785886   1.000000
    2        1.276968   1.000000
    3        2.371995   1.000000
    4        2.775311   1.000000
    5        3.405928   1.000000
    6        4.746931   1.000000
    7       21.290457   0.000000
    8       23.719509   0.000000
    9       26.949219   0.000000
   10       28.036384   0.000000
   11       32.033281   0.000000
   12       33.465162   0.000000
 
 -0.5000000E-01  0.1500000E+00  0.5000000E-01  0.1200000E-01
    1       -2.862136   1.000000
    2        1.541048   1.000000
    3        2.396255   1.000000
    4        2.412092   1.000000
    5        3.535838   1.000000
    6        4.153736   1.000000
    7       23.558241   0.000000
    8       24.130552   0.000000
    9       27.091454   0.000000
   10       28.940424   0.000000
   11       31.823941   0.000000
   12       35.017705   0.000000
 
  0.2500000E+00  0.2500000E+00  0.5000000E-01  0.6000000E-02
    1       -1.581718   1.000000
    2        0.779285   1.000000
    3        2.688645   1.000000
    4        3.221660   1.000000
    5        3.455657   1.000000
    6        4.576964   1.000000
    7       23.296297   0.000000
    8       24.607686   0.000000
    9       25.239493   0.000000
   10       26.185870   0.000000
   11       28.759645   0.000000
   12       35.093478   0.000000
 
  0.3500000E+00  0.2500000E+00  0.5000000E-01  0.1200000E-01
    1       -0.730650   1.000000
    2        0.501363   1.000000
    3        2.360310   1.000000
    4        3.655514   1.000000
    5        4.268258   1.000000
    6        5.170125   1.000000
    7       20.532415   0.000000
    8       22.598596   0.000000
    9       24.157780   0.000000
   10       27.069915   0.000000
   11       28.669396   0.000000
   12       35.238163   0.000000
 
  0.4500000E+00  0.2500000E+00  0.5000000E-01  0.1200000E-01
    1       -0.260798   1.000000
    2        0.808286   1.000000
    3        2.055678   1.000000
    4        3.485631   1.000000
    5        5.318639   1.000000
    6        6.783139   1.000000
    7       16.180211   0.000000
    8       21.905331   0.000000
    9       22.351860   0.000000
   10       26.585735   0.000000
   11       31.961673   0.000000
   12       35.448395   0.000000
 
 -0.4500000E+00  0.2500000E+00  0.5000000E-01  0.1200000E-01
    1       -0.130674   1.000000
    2        1.116074   1.000000
    3        2.286274   1.000000
    4        3.232079   1.000000
    5        5.482245   1.000000
    6        9.507708  -0.000000
    7       12.330499  -0.000000
    8       20.567945   0.000000
    9       22.446983   0.000000
   10       25.921560   0.000000
   11       34.541476   0.000000
   12       36.556734   0.000000
 
 -0.3500000E+00  0.2500000E+00  0.5000000E-01  0.1200000E-01
    1        0.086977   1.000000
    2        1.201398   1.000000
    3        2.293845   1.000000
    4        3.099806   1.000000
    5        4.963917   1.000000
    6        9.337317  -0.000000
    7       12.991013  -0.000000
    8       19.401318   0.000000
    9       23.676972   0.000000
   10       26.121295   0.000000
   11       33.475957   0.000000
   12       36.050960   0.000000
 
 -0.2500000E+00  0.2500000E+00  0.5000000E-01  0.1200000E-01
    1        0.217831   1.000000
    2        1.320661   1.000000
    3        1.603448   1.000000
    4        3.198252   1.000000
    5        4.083174   1.000000
    6        7.437578   1.017756
    7       16.575914   0.000000
    8       19.385794   0.000000
    9       24.668168   0.000000
   10       28.093834   0.000000
   11       30.854914   0.000000
   12       36.011638   0.000000
 
 -0.1500000E+00  0.2500000E+00  0.5000000E-01  0.1200000E-01
    1       -0.633884   1.000000
    2        1.176903   1.000000
    3        2.013839   1.000000
    4        3.053647   1.000000
    5        3.577873   1.000000
    6        5.908424   1.000000
    7       18.816516   0.000000
    8       21.762139   0.000000
    9       25.591216   0.000000
   10       28.813271   0.000000
   11       30.762762   0.000000
   12       34.823882   0.000000
 
 -0.5000000E-01  0.2500000E+00  0.5000000E-01  0.1200000E-01
    1       -1.707531   1.000000
    2        1.495146   1.000000
    3        2.339285   1.000000
    4        2.535069   1.000000
    5        3.815298   1.000000
    6        4.654619   1.000000
    7       19.941343   0.000000
    8       24.170821   0.000000
    9       27.004560   0.000000
   10       29.215999   0.000000
   11       31.688793   0.000000
   12       32.740871   0.000000
 
  0.3500000E+00  0.3500000E+00  0.5000000E-01  0.6000000E-02
    1       -0.637723   1.000000
    2        0.034190   1.000000
    3        3.403200   1.000000
    4        4.329788   1.000000
    5        4.812412   1.000000
    6        5.108932   1.000000
    7       20.486138   0.000000
    8       21.367768   0.000000
    9       21.942921   0.000000
   10       25.952986   0.000000
   11       27.911809   0.000000
   12       37.719534   0.000000
 
  0.4500000E+00  0.3500000E+00  0.5000000E-01  0.1200000E-01
    1       -0.510372   1.000000
    2       -0.097869   1.000000
    3        3.479769   1.000000
    4        4.701877   1.000000
    5        5.335353   1.000000
    6        6.785863   1.000000
    7       17.503353   0.000000
    8       19.644831   0.000000
    9       20.289875   0.000000
   10       27.065820   0.000000
   11       29.081297   0.000000
   12       37.364123   0.000000
 
 -0.4500000E+00  0.3500000E+00  0.5000000E-01  0.1200000E-01
    1       -0.321677   1.000000
    2        0.278954   1.000000
    3        3.043168   1.000000
    4        4.317415   1.000000
    5        5.609735   1.000000
    6        9.755419  -0.000000
    7       13.910384   0.000000
    8       18.016189   0.000000
    9       20.320352   0.000000
   10       27.223652   0.000000
   11       32.024331   0.000000
   12       36.349871   0.000000
 
 -0.3500000E+00  0.3500000E+00  0.5000000E-01  0.1200000E-01
    1        0.038170   1.000000
    2        0.889946   1.000000
    3        2.373989   1.000000
    4        3.892742   1.000000
    5        5.186517   1.000000
    6       11.084931  -0.000000
    7       13.368938   0.000000
    8       16.225913   0.000000
    9       21.873829   0.000000
   10       26.774587   0.000000
   11       34.825290   0.000000
   12       35.793894   0.000000
 
 -0.2500000E+00  0.3500000E+00  0.5000000E-01  0.1200000E-01
    1        0.412111   1.000000
    2        1.246376   1.000000
    3        1.762627   1.000000
    4        3.439593   1.000000
    5        4.655183   1.000000
    6        9.185199  -0.000000
    7       14.975060   0.000000
    8       17.228088   0.000000
    9       23.774884   0.000000
   10       26.566512   0.000000
   11       32.907081   0.000000
   12       36.241654   0.000000
 
 -0.1500000E+00  0.3500000E+00  0.5000000E-01  0.1200000E-01
    1       -0.255226   1.000000
    2        1.552118   1.000000
    3        2.129688   1.000000
    4        2.816755   1.000000
    5        4.540928   1.000000
    6        7.384325   1.035405
    7       14.925278   0.000000
    8       21.123149   0.000000
    9       24.263272   0.000000
   10       27.500020   0.000000
   11       31.939632   0.000000
   12       35.557098   0.000000
 
 -0.5000000E-01  0.3500000E+00  0.5000000E-01  0.1200000E-01
    1       -1.047334   1.000000
    2        2.005406   1.000000
    3        2.316809   1.000000
    4        2.545934   1.000000
    5        4.701705   1.000000
    6        5.563577   1.000000
    7       15.789190   0.000000
    8       23.188824   0.000000
    9       25.777149   0.000000
   10       28.317299   0.000000
   11       32.483106   0.000000
   12       33.895933   0.000000
 
  0.4500000E+00  0.4500000E+00  0.5000000E-01  0.6000000E-02
    1       -0.842784   1.000000
    2       -0.452778   1.000000
    3        5.137677   1.000000
    4        5.216059   1.000000
    5        5.647102   1.000000
    6        7.118690   1.000991
    7       16.331107   0.000000
    8       18.639305   0.000000
    9       18.933660   0.000000
   10       26.399446   0.000000
   11       29.100994   0.000000
   12       38.636850   0.000000
 
 -0.4500000E+00  0.4500000E+00  0.5000000E-01  0.1200000E-01
    1       -0.764436   1.000000
    2       -0.389143   1.000000
    3        4.640484   1.000000
    4        5.145759   1.000000
    5        5.837940   1.000000
    6        9.344465  -0.000000
    7       14.317722   0.000000
    8       17.575168   0.000000
    9       18.538876   0.000000
   10       27.449042   0.000000
   11       29.653488   0.000000
   12       37.705978   0.000000
 
 -0.3500000E+00  0.4500000E+00  0.5000000E-01  0.1200000E-01
    1       -0.395147   1.000000
    2        0.169962   1.000000
    3        3.397653   1.000000
    4        4.538340   1.000000
    5        5.602550   1.000000
    6       11.243802  -0.000000
    7       13.064152  -0.000000
    8       16.541210   0.000000
    9       19.928611   0.000000
   10       27.505062   0.000000
   11       32.068879   0.000000
   12       36.419064   0.000000
 
 -0.2500000E+00  0.4500000E+00  0.5000000E-01  0.1200000E-01
    1        0.009263   1.000000
    2        0.944587   1.000000
    3        2.321574   1.000000
    4        3.614589   1.000000
    5        5.349322   1.000000
    6       11.362470  -0.000000
    7       11.591674  -0.000000
    8       18.349097   0.000000
    9       22.065180   0.000000
   10       26.396921   0.000000
   11       34.678848   0.000000
   12       36.201454   0.000000
 
 -0.1500000E+00  0.4500000E+00  0.5000000E-01  0.1200000E-01
    1       -0.340793   1.000000
    2        1.351585   1.000000
    3        2.705264   1.000000
    4        2.874482   1.000000
    5        5.271762   1.000000
    6        9.319269  -0.000000
    7       11.522271  -0.000000
    8       21.431634   0.000000
    9       23.548207   0.000000
   10       25.677031   0.000000
   11       34.126826   0.000000
   12       35.749974   0.000000
 
 -0.5000000E-01  0.4500000E+00  0.5000000E-01  0.1200000E-01
    1       -0.991705   1.000000
    2        1.802345   1.000000
    3        2.151060   1.000000
    4        3.927511   1.000000
    5        5.376631   1.000000
    6        6.964765   1.000015
    7       12.140801  -0.000000
    8       22.475544   0.000000
    9       25.159142   0.000000
   10       26.347408   0.000000
   11       34.268769   0.000000
   12       34.897526   0.000000
 
 -0.4500000E+00 -0.4500000E+00  0.5000000E-01  0.6000000E-02
    1       -0.942199   1.000000
    2       -0.555865   1.000000
    3        5.368726   1.000000
    4        5.532750   1.000000
    5        5.854248   1.000000
    6        8.310899  -0.000007
    7       14.683004   0.000000
    8       18.012848   0.000000
    9       18.367461   0.000000
   10       26.590138   0.000000
   11       29.350466   0.000000
   12       38.383350   0.000000
 
 -0.3500000E+00 -0.4500000E+00  0.5000000E-01  0.1200000E-01
    1       -0.662266   1.000000
    2       -0.290028   1.000000
    3        4.179696   1.000000
    4        5.052004   1.000000
    5        5.637163   1.000000
    6        8.124675  -0.001183
    7       15.776395   0.000000
    8       18.315338   0.000000
    9       19.107118   0.000000
   10       27.280869   0.000000
   11       29.459801   0.000000
   12       37.700756   0.000000
 
 -0.2500000E+00 -0.4500000E+00  0.5000000E-01  0.1200000E-01
    1       -0.236158   1.000000
    2        0.500593   1.000000
    3        2.518585   1.000000
    4        3.928383   1.000000
    5        5.544759   1.000000
    6        8.166321  -0.000445
    7       14.960600   0.000000
    8       20.037781   0.000000
    9       21.093549   0.000000
   10       26.820620   0.000000
   11       31.971877   0.000000
   12       36.056462   0.000000
 
 -0.1500000E+00 -0.4500000E+00  0.5000000E-01  0.1200000E-01
    1       -0.396850   1.000000
    2        1.408520   1.000000
    3        2.317284   1.000000
    4        2.863220   1.000000
    5        5.459068   1.000000
    6        7.816191  -0.019520
    7       13.361520   0.000000
    8       22.469508   0.000000
    9       23.038347   0.000000
   10       25.835141   0.000000
   11       34.245729   0.000000
   12       36.129948   0.000000
 
 -0.3500000E+00 -0.3500000E+00  0.5000000E-01  0.6000000E-02
    1       -0.695575   1.000000
    2       -0.252107   1.000000
    3        4.364393   1.000000
    4        4.853676   1.000000
    5        5.373432   1.000000
    6        5.804773   1.000000
    7       18.537540   0.000000
    8       19.891924   0.000000
    9       19.977001   0.000000
   10       26.112953   0.000000
   11       28.614321   0.000000
   12       38.779788   0.000000
 
 -0.2500000E+00 -0.3500000E+00  0.5000000E-01  0.1200000E-01
    1       -0.449539   1.000000
    2        0.173261   1.000000
    3        2.756718   1.000000
    4        4.191745   1.000000
    5        4.895804   1.000000
    6        5.772504   1.000000
    7       19.102493   0.000000
    8       21.112901   0.000000
    9       22.163678   0.000000
   10       27.019618   0.000000
   11       28.630692   0.000000
   12       36.442498   0.000000
 
 -0.1500000E+00 -0.3500000E+00  0.5000000E-01  0.1200000E-01
    1       -0.549972   1.000000
    2        1.106113   1.000000
    3        1.917818   1.000000
    4        3.078790   1.000000
    5        4.850149   1.000000
    6        5.775053   1.000000
    7       17.470455   0.000000
    8       23.156939   0.000000
    9       23.986989   0.000000
   10       26.941378   0.000000
   11       31.983167   0.000000
   12       34.560918   0.000000
 
 -0.2500000E+00 -0.2500000E+00  0.5000000E-01  0.6000000E-02
    1       -0.910397   1.000000
    2        0.386766   1.000000
    3        2.774214   1.000000
    4        3.757860   1.000000
    5        4.052524   1.000000
    6        4.838129   1.000000
    7       22.060568   0.000000
    8       22.963719   0.000000
    9       24.164134   0.000000
   10       26.376524   0.000000
   11       27.153075   0.000000
   12       36.204984   0.000000
 
 -0.1500000E+00 -0.2500000E+00  0.5000000E-01  0.1200000E-01
    1       -1.399112   1.000000
    2        0.863266   1.000000
    3        2.395735   1.000000
    4        3.166775   1.000000
    5        3.692276   1.000000
    6        4.757424   1.000000
    7       21.718960   0.000000
    8       23.907221   0.000000
    9       25.752900   0.000000
   10       26.883910   0.000000
   11       30.047929   0.000000
   12       34.177856   0.000000
 
 -0.1500000E+00 -0.1500000E+00  0.5000000E-01  0.6000000E-02
    1       -2.386551   1.000000
    2        1.177692   1.000000
    3        2.691540   1.000000
    4        2.760233   1.000000
    5        3.222525   1.000000
    6        4.340488   1.000000
    7       24.097048   0.000000
    8       24.808256   0.000000
    9       26.060748   0.000000
   10       26.769559   0.000000
   11       31.530870   0.000000
   12       34.561475   0.000000
 
  0.1500000E+00  0.1500000E+00  0.1500000E+00  0.2000000E-02
    1       -3.112607   1.000000
    2        1.729600   1.000000
    3        2.262415   1.000000
    4        2.262415   1.000000
    5        3.865613   1.000000
    6        3.865613   1.000000
    7       23.376300   0.000000
    8       24.062369   0.000000
    9       28.551532   0.000000
   10       28.551532   0.000000
   11       32.275158   0.000000
   12       35.113385   0.000000
 
  0.2500000E+00  0.1500000E+00  0.1500000E+00  0.6000000E-02
    1       -2.412302   1.000000
    2        1.468567   1.000000
    3        2.415120   1.000000
    4        2.521390   1.000000
    5        3.464242   1.000000
    6        4.352583   1.000000
    7       22.399665   0.000000
    8       24.069221   0.000000
    9       27.046265   0.000000
   10       29.658685   0.000000
   11       30.673752   0.000000
   12       34.997290   0.000000
 
  0.3500000E+00  0.1500000E+00  0.1500000E+00  0.6000000E-02
    1       -1.247631   1.000000
    2        1.269783   1.000000
    3        2.263001   1.000000
    4        2.869823   1.000000
    5        3.346071   1.000000
    6        5.275133   1.000000
    7       20.012665   0.000000
    8       22.836637   0.000000
    9       26.583703   0.000000
   10       28.265059   0.000000
   11       31.789406   0.000000
   12       33.885872   0.000000
 
  0.4500000E+00  0.1500000E+00  0.1500000E+00  0.6000000E-02
    1       -0.557885   1.000000
    2        1.748661   1.000000
    3        2.151989   1.000000
    4        2.609802   1.000000
    5        4.199421   1.000000
    6        6.526131   1.000000
    7       16.080768   0.000000
    8       22.071299   0.000000
    9       24.775837   0.000000
   10       28.733846   0.000000
   11       31.016027   0.000000
   12       34.946794   0.000000
 
 -0.4500000E+00  0.1500000E+00  0.1500000E+00  0.6000000E-02
    1       -0.560451   1.000000
    2        1.557974   1.000000
    3        2.470284   1.000000
    4        3.154648   1.000000
    5        5.084859   1.000000
    6        8.171879  -0.000387
    7       12.333465  -0.000000
    8       21.919462   0.000000
    9       24.158297   0.000000
   10       26.051917   0.000000
   11       33.800785   0.000000
   12       35.170141   0.000000
 
 -0.3500000E+00  0.1500000E+00  0.1500000E+00  0.6000000E-02
    1       -0.610183   1.000000
    2        1.520812   1.000000
    3        2.533010   1.000000
    4        2.962742   1.000000
    5        5.541979   1.000000
    6        8.087224  -0.002614
    7       12.130803  -0.000000
    8       22.448251   0.000000
    9       24.605421   0.000000
   10       24.781696   0.000000
   11       34.943346   0.000000
   12       35.396072   0.000000
 
 -0.2500000E+00  0.1500000E+00  0.1500000E+00  0.6000000E-02
    1       -0.673047   1.000000
    2        1.627142   1.000000
    3        1.946304   1.000000
    4        2.738784   1.000000
    5        5.354438   1.000000
    6        5.808683   1.000000
    7       15.922514   0.000000
    8       23.456498   0.000000
    9       24.500122   0.000000
   10       26.278204   0.000000
   11       33.879252   0.000000
   12       34.542382   0.000000
 
 -0.1500000E+00  0.1500000E+00  0.1500000E+00  0.6000000E-02
    1       -1.289389   1.000000
    2        1.021941   1.000000
    3        2.278638   1.000000
    4        2.909558   1.000000
    5        4.126783   1.000000
    6        4.769967   1.000000
    7       20.243059   0.000000
    8       24.707027   0.000000
    9       25.205356   0.000000
   10       27.333494   0.000000
   11       30.894009   0.000000
   12       34.343617   0.000000
 
  0.2500000E+00  0.2500000E+00  0.1500000E+00  0.6000000E-02
    1       -2.015289   1.000000
    2        1.328777   1.000000
    3        2.436128   1.000000
    4        2.610773   1.000000
    5        3.692107   1.000000
    6        4.416509   1.000000
    7       21.347674   0.000000
    8       24.588329   0.000000
    9       26.790919   0.000000
   10       28.617203   0.000000
   11       31.309667   0.000000
   12       33.789564   0.000000
 
  0.3500000E+00  0.2500000E+00  0.1500000E+00  0.1200000E-01
    1       -1.063151   1.000000
    2        1.010209   1.000000
    3        2.149270   1.000000
    4        3.128361   1.000000
    5        3.662057   1.000000
    6        5.249407   1.000000
    7       20.188714   0.000000
    8       22.876946   0.000000
    9       25.803596   0.000000
   10       27.770742   0.000000
   11       31.653933   0.000000
   12       33.308431   0.000000
 
  0.4500000E+00  0.2500000E+00  0.1500000E+00  0.1200000E-01
    1       -0.050607   1.000000
    2        1.038077   1.000000
    3        1.646545   1.000000
    4        3.399631   1.000000
    5        4.055760   1.000000
    6        6.645965   1.000000
    7       17.665942   0.000000
    8       20.562463   0.000000
    9       24.317622   0.000000
   10       28.906255   0.000000
   11       30.372761   0.000000
   12       35.498460   0.000000
 
 -0.4500000E+00  0.2500000E+00  0.1500000E+00  0.1200000E-01
    1        0.062496   1.000000
    2        1.231749   1.000000
    3        2.012743   1.000000
    4        3.151301   1.000000
    5        4.947971   1.000000
    6        8.482467  -0.000000
    7       13.887015   0.000000
    8       20.229506   0.000000
    9       23.002418   0.000000
   10       27.196746   0.000000
   11       32.586451   0.000000
   12       36.506557   0.000000
 
 -0.3500000E+00  0.2500000E+00  0.1500000E+00  0.1200000E-01
    1       -0.029122   1.000000
    2        1.115871   1.000000
    3        2.418076   1.000000
    4        3.069546   1.000000
    5        5.329168   1.000000
    6       10.181243  -0.000000
    7       11.459614  -0.000000
    8       20.929616   0.000000
    9       21.921074   0.000000
   10       26.534826   0.000000
   11       33.719082   0.000000
   12       36.907276   0.000000
 
 -0.2500000E+00  0.2500000E+00  0.1500000E+00  0.1200000E-01
    1       -0.082822   1.000000
    2        1.225192   1.000000
    3        1.750582   1.000000
    4        3.313331   1.000000
    5        5.104759   1.000000
    6        7.644424   0.420809
    7       14.930501   0.000000
    8       21.155737   0.000000
    9       22.561234   0.000000
   10       27.225915   0.000000
   11       32.572561   0.000000
   12       35.953203   0.000000
 
 -0.1500000E+00  0.2500000E+00  0.1500000E+00  0.1200000E-01
    1       -0.411860   1.000000
    2        0.725264   1.000000
    3        1.931421   1.000000
    4        3.564724   1.000000
    5        4.174654   1.000000
    6        5.863524   1.000000
    7       18.998582   0.000000
    8       21.675720   0.000000
    9       24.177585   0.000000
   10       28.028506   0.000000
   11       30.324170   0.000000