       N       E                     dE             d eps       ncg     rms          rms(c)
DAV:   1     0.307472325785E+02    0.30747E+02   -0.35481E+03  3248   0.436E+02
DAV:   2    -0.423152076403E+01   -0.34979E+02   -0.33065E+02  3052   0.146E+02
DAV:   3    -0.452739705346E+01   -0.29588E+00   -0.29579E+00  3176   0.138E+01
DAV:   4    -0.452818102357E+01   -0.78397E-03   -0.78395E-03  3192   0.750E-01
DAV:   5    -0.452818605937E+01   -0.50358E-05   -0.50354E-05  2928   0.576E-02    0.317E+00
DAV:   6    -0.426173477735E+01    0.26645E+00   -0.57055E-01  3088   0.769E+00    0.960E-01
DAV:   7    -0.422620747690E+01    0.35527E-01   -0.65975E-02  3168   0.227E+00    0.241E-01
DAV:   8    -0.422025265575E+01    0.59548E-02   -0.20465E-03  2928   0.516E-01    0.113E-02
DAV:   9    -0.422023697296E+01    0.15683E-04   -0.12666E-05  2008   0.232E-02
   1 F= -.42202370E+01 E0= -.42201601E+01  d E =-.230726E-03
