 vasp.5.4.4.18Apr17-6-g9f103f2a35 (build May 18 2018 14:42:58) complex          
  
 executed on             LinuxIFC date 2020.06.30  13:40:42
 running on    4 total cores
 distrk:  each k-point on    4 cores,    1 groups
 distr:  one band on NCORES_PER_BAND=   1 cores,    4 groups


--------------------------------------------------------------------------------------------------------


 INCAR:
 POTCAR:   PAW Au 04Feb1998                       
 POTCAR:   PAW Au 04Feb1998                       
   VRHFIN =Au: s1d10                                                            
   LEXCH  = CA                                                                  
   EATOM  =   929.4667 eV,   68.3139 Ry                                         
                                                                                
   TITEL  = PAW Au 04Feb1998                                                    
   LULTRA =        F    use ultrasoft PP ?                                      
   IUNSCR =        1    unscreen: 0-lin 1-nonlin 2-no                           
   RPACOR =    2.330    partial core radius                                     
   POMASS =  196.966; ZVAL   =   11.000    mass and valenz                      
   RCORE  =    2.500    outmost cutoff radius                                   
   RWIGS  =    2.840; RWIGS  =    1.503    wigner-seitz radius (au A)           
   ENMAX  =  229.869; ENMIN  =  172.402 eV                                      
   RCLOC  =    1.964    cutoff for local pot                                    
   LCOR   =        T    correct aug charges                                     
   LPAW   =        T    paw PP                                                  
   EAUG   =  356.670                                                            
   DEXC   =    -.020                                                            
   RMAX   =    3.041    core radius for proj-oper                               
   RDEP   =    2.598    core radius for depl-charge                             
   QCUT   =   -4.110; QGAM   =    8.221    optimization parameters              
                                                                                
   Description                                                                  
     l     E      TYP  RCUT    TYP  RCUT                                        
     2   .000     23  2.500                                                     
     2   .000     23  2.500                                                     
     0   .000     23  2.500                                                     
     0   .000     23  2.500                                                     
     1  -.200     23  2.500                                                     
     1   .000     23  2.500                                                     
     3   .000      7   .000                                                     
  local pseudopotential read in
  partial core-charges read in
  atomic valenz-charges read in
  non local Contribution for L=           2  read in
    real space projection operators read in
  non local Contribution for L=           2  read in
    real space projection operators read in
  non local Contribution for L=           0  read in
    real space projection operators read in
  non local Contribution for L=           0  read in
    real space projection operators read in
  non local Contribution for L=           1  read in
    real space projection operators read in
  non local Contribution for L=           1  read in
    real space projection operators read in
    PAW grid and wavefunctions read in
 
   number of l-projection  operators is LMAX  =           6
   number of lm-projection operators is LMMAX =          18
 
 PAW Au 04Feb1998                       :
 energy of atom  1       EATOM= -929.4667
 kinetic energy error for atom=    0.0706 (will be added to EATOM!!)
 
 
 POSCAR: FCC Au Bulk                             
  positions in direct lattice
  No initial velocities read in
 exchange correlation table for  LEXCH =        2
   RHO(1)=    0.500       N(1)  =     2000
   RHO(2)=  100.500       N(2)  =     4000
 


--------------------------------------------------------------------------------------------------------


 ion  position               nearest neighbor table
   1  0.000  0.000  0.000-
 
  LATTYP: Found a face centered cubic cell.
 ALAT       =     3.9000000000
  
  Lattice vectors:
  
 A1 = (   0.0000000000,   1.9500000000,   1.9500000000)
 A2 = (   1.9500000000,   0.0000000000,   1.9500000000)
 A3 = (   1.9500000000,   1.9500000000,   0.0000000000)


Analysis of symmetry for initial positions (statically):
=====================================================================
 Subroutine PRICEL returns:
 Original cell was already a primitive cell.
 

 Routine SETGRP: Setting up the symmetry group for a 
 face centered cubic supercell.


 Subroutine GETGRP returns: Found 48 space group operations
 (whereof 48 operations were pure point group operations)
 out of a pool of 48 trial point group operations.


The static configuration has the point symmetry O_h .


Analysis of symmetry for dynamics (positions and initial velocities):
=====================================================================
 Subroutine PRICEL returns:
 Original cell was already a primitive cell.
 

 Routine SETGRP: Setting up the symmetry group for a 
 face centered cubic supercell.


 Subroutine GETGRP returns: Found 48 space group operations
 (whereof 48 operations were pure point group operations)
 out of a pool of 48 trial point group operations.


The dynamic configuration has the point symmetry O_h .


 Subroutine INISYM returns: Found 48 space group operations
 (whereof 48 operations are pure point group operations),
 and found     1 'primitive' translations

 
 
 KPOINTS: 10x10x10                                

Automatic generation of k-mesh.
Space group operators:
 irot       det(A)        alpha          n_x          n_y          n_z        tau_x        tau_y        tau_z
    1     1.000000     0.000000     1.000000     0.000000     0.000000     0.000000     0.000000     0.000000
    2    -1.000000     0.000000     1.000000     0.000000     0.000000     0.000000     0.000000     0.000000
    3     1.000000   120.000000    -0.577350    -0.577350    -0.577350     0.000000     0.000000     0.000000
    4    -1.000000   120.000000    -0.577350    -0.577350    -0.577350     0.000000     0.000000     0.000000
    5     1.000000   120.000000     0.577350     0.577350     0.577350     0.000000     0.000000     0.000000
    6    -1.000000   120.000000     0.577350     0.577350     0.577350     0.000000     0.000000     0.000000
    7     1.000000    90.000000     0.000000     0.000000    -1.000000     0.000000     0.000000     0.000000
    8    -1.000000    90.000000     0.000000     0.000000    -1.000000     0.000000     0.000000     0.000000
    9     1.000000   180.000000     0.000000     0.707107     0.707107     0.000000     0.000000     0.000000
   10    -1.000000   180.000000     0.000000     0.707107     0.707107     0.000000     0.000000     0.000000
   11     1.000000    90.000000     0.000000     1.000000     0.000000     0.000000     0.000000     0.000000
   12    -1.000000    90.000000     0.000000     1.000000     0.000000     0.000000     0.000000     0.000000
   13     1.000000   179.999999     0.000000     0.000000     1.000000     0.000000     0.000000     0.000000
   14    -1.000000   179.999999     0.000000     0.000000     1.000000     0.000000     0.000000     0.000000
   15     1.000000   120.000000    -0.577350     0.577350     0.577350     0.000000     0.000000     0.000000
   16    -1.000000   120.000000    -0.577350     0.577350     0.577350     0.000000     0.000000     0.000000
   17     1.000000   120.000000    -0.577350     0.577350    -0.577350     0.000000     0.000000     0.000000
   18    -1.000000   120.000000    -0.577350     0.577350    -0.577350     0.000000     0.000000     0.000000
   19     1.000000    90.000000     0.000000     0.000000     1.000000     0.000000     0.000000     0.000000
   20    -1.000000    90.000000     0.000000     0.000000     1.000000     0.000000     0.000000     0.000000
   21     1.000000    90.000000    -1.000000     0.000000     0.000000     0.000000     0.000000     0.000000
   22    -1.000000    90.000000    -1.000000     0.000000     0.000000     0.000000     0.000000     0.000000
   23     1.000000   180.000000     0.707107     0.000000     0.707107     0.000000     0.000000     0.000000
   24    -1.000000   180.000000     0.707107     0.000000     0.707107     0.000000     0.000000     0.000000
   25     1.000000   120.000000     0.577350    -0.577350     0.577350     0.000000     0.000000     0.000000
   26    -1.000000   120.000000     0.577350    -0.577350     0.577350     0.000000     0.000000     0.000000
   27     1.000000   120.000000    -0.577350    -0.577350     0.577350     0.000000     0.000000     0.000000
   28    -1.000000   120.000000    -0.577350    -0.577350     0.577350     0.000000     0.000000     0.000000
   29     1.000000   180.000000     1.000000     0.000000     0.000000     0.000000     0.000000     0.000000
   30    -1.000000   180.000000     1.000000     0.000000     0.000000     0.000000     0.000000     0.000000
   31     1.000000    90.000000     0.000000    -1.000000     0.000000     0.000000     0.000000     0.000000
   32    -1.000000    90.000000     0.000000    -1.000000     0.000000     0.000000     0.000000     0.000000
   33     1.000000   180.000000     0.707107     0.707107     0.000000     0.000000     0.000000     0.000000
   34    -1.000000   180.000000     0.707107     0.707107     0.000000     0.000000     0.000000     0.000000
   35     1.000000    90.000000     1.000000     0.000000     0.000000     0.000000     0.000000     0.000000
   36    -1.000000    90.000000     1.000000     0.000000     0.000000     0.000000     0.000000     0.000000
   37     1.000000   120.000000     0.577350    -0.577350    -0.577350     0.000000     0.000000     0.000000
   38    -1.000000   120.000000     0.577350    -0.577350    -0.577350     0.000000     0.000000     0.000000
   39     1.000000   180.000000     0.000000     1.000000     0.000000     0.000000     0.000000     0.000000
   40    -1.000000   180.000000     0.000000     1.000000     0.000000     0.000000     0.000000     0.000000
   41     1.000000   120.000000     0.577350     0.577350    -0.577350     0.000000     0.000000     0.000000
   42    -1.000000   120.000000     0.577350     0.577350    -0.577350     0.000000     0.000000     0.000000
   43     1.000000   180.000000     0.000000    -0.707107     0.707107     0.000000     0.000000     0.000000
   44    -1.000000   180.000000     0.000000    -0.707107     0.707107     0.000000     0.000000     0.000000
   45     1.000000   180.000000     0.707107    -0.707107     0.000000     0.000000     0.000000     0.000000
   46    -1.000000   180.000000     0.707107    -0.707107     0.000000     0.000000     0.000000     0.000000
   47     1.000000   180.000000     0.707107     0.000000    -0.707107     0.000000     0.000000     0.000000
   48    -1.000000   180.000000     0.707107     0.000000    -0.707107     0.000000     0.000000     0.000000
 
 Subroutine IBZKPT returns following result:
 ===========================================
 
 Found    110 irreducible k-points:
 
 Following reciprocal coordinates:
            Coordinates               Weight
  0.050000  0.050000  0.050000     96.000000
  0.150000  0.050000  0.050000    288.000000
  0.250000  0.050000  0.050000    288.000000
  0.350000  0.050000  0.050000    288.000000
  0.450000  0.050000  0.050000    288.000000
 -0.450000  0.050000  0.050000    288.000000
 -0.350000  0.050000  0.050000    288.000000
 -0.250000  0.050000  0.050000    288.000000
 -0.150000  0.050000  0.050000    288.000000
 -0.050000  0.050000  0.050000    288.000000
  0.150000  0.150000  0.050000    288.000000
  0.250000  0.150000  0.050000    576.000000
  0.350000  0.150000  0.050000    576.000000
  0.450000  0.150000  0.050000    576.000000
 -0.450000  0.150000  0.050000    576.000000
 -0.350000  0.150000  0.050000    576.000000
 -0.250000  0.150000  0.050000    576.000000
 -0.150000  0.150000  0.050000    576.000000
 -0.050000  0.150000  0.050000    576.000000
  0.250000  0.250000  0.050000    288.000000
  0.350000  0.250000  0.050000    576.000000
  0.450000  0.250000  0.050000    576.000000
 -0.450000  0.250000  0.050000    576.000000
 -0.350000  0.250000  0.050000    576.000000
 -0.250000  0.250000  0.050000    576.000000
 -0.150000  0.250000  0.050000    576.000000
 -0.050000  0.250000  0.050000    576.000000
  0.350000  0.350000  0.050000    288.000000
  0.450000  0.350000  0.050000    576.000000
 -0.450000  0.350000  0.050000    576.000000
 -0.350000  0.350000  0.050000    576.000000
 -0.250000  0.350000  0.050000    576.000000
 -0.150000  0.350000  0.050000    576.000000
 -0.050000  0.350000  0.050000    576.000000
  0.450000  0.450000  0.050000    288.000000
 -0.450000  0.450000  0.050000    576.000000
 -0.350000  0.450000  0.050000    576.000000
 -0.250000  0.450000  0.050000    576.000000
 -0.150000  0.450000  0.050000    576.000000
 -0.050000  0.450000  0.050000    576.000000
 -0.450000 -0.450000  0.050000    288.000000
 -0.350000 -0.450000  0.050000    576.000000
 -0.250000 -0.450000  0.050000    576.000000
 -0.150000 -0.450000  0.050000    576.000000
 -0.350000 -0.350000  0.050000    288.000000
 -0.250000 -0.350000  0.050000    576.000000
 -0.150000 -0.350000  0.050000    576.000000
 -0.250000 -0.250000  0.050000    288.000000
 -0.150000 -0.250000  0.050000    576.000000
 -0.150000 -0.150000  0.050000    288.000000
  0.150000  0.150000  0.150000     96.000000
  0.250000  0.150000  0.150000    288.000000
  0.350000  0.150000  0.150000    288.000000
  0.450000  0.150000  0.150000    288.000000
 -0.450000  0.150000  0.150000    288.000000
 -0.350000  0.150000  0.150000    288.000000
 -0.250000  0.150000  0.150000    288.000000
 -0.150000  0.150000  0.150000    288.000000
  0.250000  0.250000  0.150000    288.000000
  0.350000  0.250000  0.150000    576.000000
  0.450000  0.250000  0.150000    576.000000
 -0.450000  0.250000  0.150000    576.000000
 -0.350000  0.250000  0.150000    576.000000
 -0.250000  0.250000  0.150000    576.000000
 -0.150000  0.250000  0.150000    576.000000
  0.350000  0.350000  0.150000    288.000000
  0.450000  0.350000  0.150000    576.000000
 -0.450000  0.350000  0.150000    576.000000
 -0.350000  0.350000  0.150000    576.000000
 -0.250000  0.350000  0.150000    576.000000
 -0.150000  0.350000  0.150000    576.000000
  0.450000  0.450000  0.150000    288.000000
 -0.450000  0.450000  0.150000    576.000000
 -0.350000  0.450000  0.150000    576.000000
 -0.250000  0.450000  0.150000    576.000000
 -0.150000  0.450000  0.150000    576.000000
 -0.450000 -0.450000  0.150000    288.000000
 -0.350000 -0.450000  0.150000    576.000000
 -0.250000 -0.450000  0.150000    576.000000
 -0.350000 -0.350000  0.150000    288.000000
 -0.250000 -0.350000  0.150000    576.000000
 -0.250000 -0.250000  0.150000    288.000000
  0.250000  0.250000  0.250000     96.000000
  0.350000  0.250000  0.250000    288.000000
  0.450000  0.250000  0.250000    288.000000
 -0.450000  0.250000  0.250000    288.000000
 -0.350000  0.250000  0.250000    288.000000
 -0.250000  0.250000  0.250000    288.000000
  0.350000  0.350000  0.250000    288.000000
  0.450000  0.350000  0.250000    576.000000
 -0.450000  0.350000  0.250000    576.000000
 -0.350000  0.350000  0.250000    576.000000
 -0.250000  0.350000  0.250000    576.000000
  0.450000  0.450000  0.250000    288.000000
 -0.450000  0.450000  0.250000    576.000000
 -0.350000  0.450000  0.250000    576.000000
 -0.250000  0.450000  0.250000    576.000000
 -0.450000 -0.450000  0.250000    288.000000
 -0.350000 -0.450000  0.250000    576.000000
 -0.350000 -0.350000  0.250000    288.000000
  0.350000  0.350000  0.350000     96.000000
  0.450000  0.350000  0.350000    288.000000
 -0.450000  0.350000  0.350000    288.000000
 -0.350000  0.350000  0.350000    288.000000
  0.450000  0.450000  0.350000    288.000000
 -0.450000  0.450000  0.350000    576.000000
 -0.350000  0.450000  0.350000    576.000000
 -0.450000 -0.450000  0.350000    288.000000
  0.450000  0.450000  0.450000     96.000000
 -0.450000  0.450000  0.450000    288.000000
 
 Following cartesian coordinates:
            Coordinates               Weight
  0.050000  0.050000  0.050000     96.000000
 -0.050000  0.150000  0.150000    288.000000
 -0.150000  0.250000  0.250000    288.000000
 -0.250000  0.350000  0.350000    288.000000
 -0.350000  0.450000  0.450000    288.000000
  0.550000 -0.450000 -0.450000    288.000000
  0.450000 -0.350000 -0.350000    288.000000
  0.350000 -0.250000 -0.250000    288.000000
  0.250000 -0.150000 -0.150000    288.000000
  0.150000 -0.050000 -0.050000    288.000000
  0.050000  0.050000  0.250000    288.000000
 -0.050000  0.150000  0.350000    576.000000
 -0.150000  0.250000  0.450000    576.000000
 -0.250000  0.350000  0.550000    576.000000
  0.650000 -0.550000 -0.350000    576.000000
  0.550000 -0.450000 -0.250000    576.000000
  0.450000 -0.350000 -0.150000    576.000000
  0.350000 -0.250000 -0.050000    576.000000
  0.250000 -0.150000  0.050000    576.000000
  0.050000  0.050000  0.450000    288.000000
 -0.050000  0.150000  0.550000    576.000000
 -0.150000  0.250000  0.650000    576.000000
  0.750000 -0.650000 -0.250000    576.000000
  0.650000 -0.550000 -0.150000    576.000000
  0.550000 -0.450000 -0.050000    576.000000
  0.450000 -0.350000  0.050000    576.000000
  0.350000 -0.250000  0.150000    576.000000
  0.050000  0.050000  0.650000    288.000000
 -0.050000  0.150000  0.750000    576.000000
  0.850000 -0.750000 -0.150000    576.000000
  0.750000 -0.650000 -0.050000    576.000000
  0.650000 -0.550000  0.050000    576.000000
  0.550000 -0.450000  0.150000    576.000000
  0.450000 -0.350000  0.250000    576.000000
  0.050000  0.050000  0.850000    288.000000
  0.950000 -0.850000 -0.050000    576.000000
  0.850000 -0.750000  0.050000    576.000000
  0.750000 -0.650000  0.150000    576.000000
  0.650000 -0.550000  0.250000    576.000000
  0.550000 -0.450000  0.350000    576.000000
  0.050000  0.050000 -0.950000    288.000000
 -0.050000  0.150000 -0.850000    576.000000
 -0.150000  0.250000 -0.750000    576.000000
 -0.250000  0.350000 -0.650000    576.000000
  0.050000  0.050000 -0.750000    288.000000
 -0.050000  0.150000 -0.650000    576.000000
 -0.150000  0.250000 -0.550000    576.000000
  0.050000  0.050000 -0.550000    288.000000
 -0.050000  0.150000 -0.450000    576.000000
  0.050000  0.050000 -0.350000    288.000000
  0.150000  0.150000  0.150000     96.000000
  0.050000  0.250000  0.250000    288.000000
 -0.050000  0.350000  0.350000    288.000000
 -0.150000  0.450000  0.450000    288.000000
  0.750000 -0.450000 -0.450000    288.000000
  0.650000 -0.350000 -0.350000    288.000000
  0.550000 -0.250000 -0.250000    288.000000
  0.450000 -0.150000 -0.150000    288.000000
  0.150000  0.150000  0.350000    288.000000
  0.050000  0.250000  0.450000    576.000000
 -0.050000  0.350000  0.550000    576.000000
  0.850000 -0.550000 -0.350000    576.000000
  0.750000 -0.450000 -0.250000    576.000000
  0.650000 -0.350000 -0.150000    576.000000
  0.550000 -0.250000 -0.050000    576.000000
  0.150000  0.150000  0.550000    288.000000
  0.050000  0.250000  0.650000    576.000000
  0.950000 -0.650000 -0.250000    576.000000
  0.850000 -0.550000 -0.150000    576.000000
  0.750000 -0.450000 -0.050000    576.000000
  0.650000 -0.350000  0.050000    576.000000
  0.150000  0.150000  0.750000    288.000000
  1.050000 -0.750000 -0.150000    576.000000
  0.950000 -0.650000 -0.050000    576.000000
  0.850000 -0.550000  0.050000    576.000000
  0.750000 -0.450000  0.150000    576.000000
  0.150000  0.150000 -1.050000    288.000000
  0.050000  0.250000 -0.950000    576.000000
 -0.050000  0.350000 -0.850000    576.000000
  0.150000  0.150000 -0.850000    288.000000
  0.050000  0.250000 -0.750000    576.000000
  0.150000  0.150000 -0.650000    288.000000
  0.250000  0.250000  0.250000     96.000000
  0.150000  0.350000  0.350000    288.000000
  0.050000  0.450000  0.450000    288.000000
  0.950000 -0.450000 -0.450000    288.000000
  0.850000 -0.350000 -0.350000    288.000000
  0.750000 -0.250000 -0.250000    288.000000
  0.250000  0.250000  0.450000    288.000000
  0.150000  0.350000  0.550000    576.000000
  1.050000 -0.550000 -0.350000    576.000000
  0.950000 -0.450000 -0.250000    576.000000
  0.850000 -0.350000 -0.150000    576.000000
  0.250000  0.250000  0.650000    288.000000
  1.150000 -0.650000 -0.250000    576.000000
  1.050000 -0.550000 -0.150000    576.000000
  0.950000 -0.450000 -0.050000    576.000000
  0.250000  0.250000 -1.150000    288.000000
  0.150000  0.350000 -1.050000    576.000000
  0.250000  0.250000 -0.950000    288.000000
  0.350000  0.350000  0.350000     96.000000
  0.250000  0.450000  0.450000    288.000000
  1.150000 -0.450000 -0.450000    288.000000
  1.050000 -0.350000 -0.350000    288.000000
  0.350000  0.350000  0.550000    288.000000
  1.250000 -0.550000 -0.350000    576.000000
  1.150000 -0.450000 -0.250000    576.000000
  0.350000  0.350000 -1.250000    288.000000
  0.450000  0.450000  0.450000     96.000000
  1.350000 -0.450000 -0.450000    288.000000
 


--------------------------------------------------------------------------------------------------------




 Dimension of arrays:
   k-points           NKPTS =    110   k-points in BZ     NKDIM =    110   number of bands    NBANDS=     12
   number of dos      NEDOS =    301   number of ions     NIONS =      1
   non local maximal  LDIM  =      6   non local SUM 2l+1 LMDIM =     18
   total plane-waves  NPLWV =   1000
   max r-space proj   IRMAX =      1   max aug-charges    IRDMAX=   4323
   dimension x,y,z NGX =    10 NGY =   10 NGZ =   10
   dimension x,y,z NGXF=    20 NGYF=   20 NGZF=   20
   support grid    NGXF=    20 NGYF=   20 NGZF=   20
   ions per type =               1
   NGX,Y,Z   is equivalent  to a cutoff of   6.03,  6.03,  6.03 a.u.
   NGXF,Y,Z  is equivalent  to a cutoff of  12.06, 12.06, 12.06 a.u.

 SYSTEM =  fcc Au                                  
 POSCAR =  FCC Au Bulk                             

 Startparameter for this run:
   NWRITE =      2    write-flag & timer
   PREC   = normal    normal or accurate (medium, high low for compatibility)
   ISTART =      0    job   : 0-new  1-cont  2-samecut
   ICHARG =      2    charge: 1-file 2-atom 10-const
   ISPIN  =      1    spin polarized calculation?
   LNONCOLLINEAR =      F non collinear calculations
   LSORBIT =      F    spin-orbit coupling
   INIWAV =      1    electr: 0-lowe 1-rand  2-diag
   LASPH  =      F    aspherical Exc in radial PAW
   METAGGA=      F    non-selfconsistent MetaGGA calc.

 Electronic Relaxation 1
   ENCUT  =  229.9 eV  16.89 Ry    4.11 a.u.   3.41  3.41  3.41*2*pi/ulx,y,z
   ENINI  =  229.9     initial cutoff
   ENAUG  =  356.7 eV  augmentation charge cutoff
   NELM   =     60;   NELMIN=  2; NELMDL= -5     # of ELM steps 
   EDIFF  = 0.1E-03   stopping-criterion for ELM
   LREAL  =      F    real-space projection
   NLSPLINE    = F    spline interpolate recip. space projectors
   LCOMPAT=      F    compatible to vasp.4.4
   GGA_COMPAT  = T    GGA compatible to vasp.4.4-vasp.4.6
   LMAXPAW     = -100 max onsite density
   LMAXMIX     =    2 max onsite mixed and CHGCAR
   VOSKOWN=      0    Vosko Wilk Nusair interpolation
   ROPT   =    0.00000
 Ionic relaxation
   EDIFFG = 0.1E-02   stopping-criterion for IOM
   NSW    =      0    number of steps for IOM
   NBLOCK =      1;   KBLOCK =      1    inner block; outer block 
   IBRION =     -1    ionic relax: 0-MD 1-quasi-New 2-CG
   NFREE  =      0    steps in history (QN), initial steepest desc. (CG)
   ISIF   =      2    stress and relaxation
   IWAVPR =     10    prediction:  0-non 1-charg 2-wave 3-comb
   ISYM   =      2    0-nonsym 1-usesym 2-fastsym
   LCORR  =      T    Harris-Foulkes like correction to forces

   POTIM  = 0.5000    time-step for ionic-motion
   TEIN   =    0.0    initial temperature
   TEBEG  =    0.0;   TEEND  =   0.0 temperature during run
   SMASS  =  -3.00    Nose mass-parameter (am)
   estimated Nose-frequenzy (Omega)   =  0.10E-29 period in steps =****** mass=  -0.174E-27a.u.
   SCALEE = 1.0000    scale energy and forces
   NPACO  =    256;   APACO  = 16.0  distance and # of slots for P.C.
   PSTRESS=    0.0 pullay stress

  Mass of Ions in am
   POMASS = 196.97
  Ionic Valenz
   ZVAL   =  11.00
  Atomic Wigner-Seitz radii
   RWIGS  =   1.50
  virtual crystal weights 
   VCA    =   1.00
   NELECT =      11.0000    total number of electrons
   NUPDOWN=      -1.0000    fix difference up-down

 DOS related values:
   EMIN   =  10.00;   EMAX   =-10.00  energy-range for DOS
   EFERMI =   0.00
   ISMEAR =     1;   SIGMA  =   0.20  broadening in eV -4-tet -1-fermi 0-gaus

 Electronic relaxation 2 (details)
   IALGO  =     38    algorithm
   LDIAG  =      T    sub-space diagonalisation (order eigenvalues)
   LSUBROT=      F    optimize rotation matrix (better conditioning)
   TURBO    =      0    0=normal 1=particle mesh
   IRESTART =      0    0=no restart 2=restart with 2 vectors
   NREBOOT  =      0    no. of reboots
   NMIN     =      0    reboot dimension
   EREF     =   0.00    reference energy to select bands
   IMIX   =      4    mixing-type and parameters
     AMIX     =   0.40;   BMIX     =  1.00
     AMIX_MAG =   1.60;   BMIX_MAG =  1.00
     AMIN     =   0.10
     WC   =   100.;   INIMIX=   1;  MIXPRE=   1;  MAXMIX= -45

 Intra band minimization:
   WEIMIN = 0.0000     energy-eigenvalue tresh-hold
   EBREAK =  0.21E-05  absolut break condition
   DEPER  =   0.30     relativ break condition  

   TIME   =   0.40     timestep for ELM

  volume/ion in A,a.u.               =      14.83       100.08
  Fermi-wavevector in a.u.,A,eV,Ry     =   1.481930  2.800442 29.879992  2.196117
  Thomas-Fermi vector in A             =   2.595779
 
 Write flags
   LWAVE        =      T    write WAVECAR
   LDOWNSAMPLE  =      F    k-point downsampling of WAVECAR
   LCHARG       =      T    write CHGCAR
   LVTOT        =      F    write LOCPOT, total local potential
   LVHAR        =      F    write LOCPOT, Hartree potential only
   LELF         =      F    write electronic localiz. function (ELF)
   LORBIT       =      0    0 simple, 1 ext, 2 COOP (PROOUT), +10 PAW based schemes


 Dipole corrections
   LMONO  =      F    monopole corrections only (constant potential shift)
   LDIPOL =      F    correct potential (dipole corrections)
   IDIPOL =      0    1-x, 2-y, 3-z, 4-all directions 
   EPSILON=  1.0000000 bulk dielectric constant

 Exchange correlation treatment:
   GGA     =    --    GGA type
   LEXCH   =     2    internal setting for exchange type
   VOSKOWN=      0    Vosko Wilk Nusair interpolation
   LHFCALC =     F    Hartree Fock is set to
   LHFONE  =     F    Hartree Fock one center treatment
   AEXX    =    0.0000 exact exchange contribution

 Linear response parameters
   LEPSILON=     F    determine dielectric tensor
   LRPA    =     F    only Hartree local field effects (RPA)
   LNABLA  =     F    use nabla operator in PAW spheres
   LVEL    =     F    velocity operator in full k-point grid
   LINTERFAST=   F  fast interpolation
   KINTER  =     0    interpolate to denser k-point grid
   CSHIFT  =0.1000    complex shift for real part using Kramers Kronig
   OMEGAMAX=  -1.0    maximum frequency
   DEG_THRESHOLD= 0.2000000E-02 threshold for treating states as degnerate
   RTIME   =   -0.100 relaxation time in fs
  (WPLASMAI=    0.000 imaginary part of plasma frequency in eV, 0.658/RTIME)
   DFIELD  = 0.0000000 0.0000000 0.0000000 field for delta impulse in time
 
 Orbital magnetization related:
   ORBITALMAG=     F  switch on orbital magnetization
   LCHIMAG   =     F  perturbation theory with respect to B field
   DQ        =  0.001000  dq finite difference perturbation B field
   LLRAUG    =     F  two centre corrections for induced B field



--------------------------------------------------------------------------------------------------------


 Static calculation
 charge density and potential will be updated during run
 non-spin polarized calculation
 Variant of blocked Davidson
 Davidson routine will perform the subspace rotation
 perform sub-space diagonalisation
    after iterative eigenvector-optimisation
 modified Broyden-mixing scheme, WC =      100.0
 initial mixing is a Kerker type mixing with AMIX =  0.4000 and BMIX =      1.0000
 Hartree-type preconditioning will be used
 using additional bands            6
 reciprocal scheme for non local part
 use partial core corrections
 calculate Harris-corrections to forces 
   (improved forces if not selfconsistent)
 use of overlap-Matrix (Vanderbilt PP)
 Methfessel and Paxton  Order N= 1 SIGMA  =   0.20


--------------------------------------------------------------------------------------------------------


  energy-cutoff  :      229.87
  volume of cell :       14.83
      direct lattice vectors                 reciprocal lattice vectors
     0.000000000  1.950000000  1.950000000    -0.256410256  0.256410256  0.256410256
     1.950000000  0.000000000  1.950000000     0.256410256 -0.256410256  0.256410256
     1.950000000  1.950000000  0.000000000     0.256410256  0.256410256 -0.256410256

  length of vectors
     2.757716447  2.757716447  2.757716447     0.444115592  0.444115592  0.444115592


 
 k-points in units of 2pi/SCALE and weight: 10x10x10                                
   0.05000000  0.05000000  0.05000000       0.002
  -0.05000000  0.15000000  0.15000000       0.006
  -0.15000000  0.25000000  0.25000000       0.006
  -0.25000000  0.35000000  0.35000000       0.006
  -0.35000000  0.45000000  0.45000000       0.006
   0.55000000 -0.45000000 -0.45000000       0.006
   0.45000000 -0.35000000 -0.35000000       0.006
   0.35000000 -0.25000000 -0.25000000       0.006
   0.25000000 -0.15000000 -0.15000000       0.006
   0.15000000 -0.05000000 -0.05000000       0.006
   0.05000000  0.05000000  0.25000000       0.006
  -0.05000000  0.15000000  0.35000000       0.012
  -0.15000000  0.25000000  0.45000000       0.012
  -0.25000000  0.35000000  0.55000000       0.012
   0.65000000 -0.55000000 -0.35000000       0.012
   0.55000000 -0.45000000 -0.25000000       0.012
   0.45000000 -0.35000000 -0.15000000       0.012
   0.35000000 -0.25000000 -0.05000000       0.012
   0.25000000 -0.15000000  0.05000000       0.012
   0.05000000  0.05000000  0.45000000       0.006
  -0.05000000  0.15000000  0.55000000       0.012
  -0.15000000  0.25000000  0.65000000       0.012
   0.75000000 -0.65000000 -0.25000000       0.012
   0.65000000 -0.55000000 -0.15000000       0.012
   0.55000000 -0.45000000 -0.05000000       0.012
   0.45000000 -0.35000000  0.05000000       0.012
   0.35000000 -0.25000000  0.15000000       0.012
   0.05000000  0.05000000  0.65000000       0.006
  -0.05000000  0.15000000  0.75000000       0.012
   0.85000000 -0.75000000 -0.15000000       0.012
   0.75000000 -0.65000000 -0.05000000       0.012
   0.65000000 -0.55000000  0.05000000       0.012
   0.55000000 -0.45000000  0.15000000       0.012
   0.45000000 -0.35000000  0.25000000       0.012
   0.05000000  0.05000000  0.85000000       0.006
   0.95000000 -0.85000000 -0.05000000       0.012
   0.85000000 -0.75000000  0.05000000       0.012
   0.75000000 -0.65000000  0.15000000       0.012
   0.65000000 -0.55000000  0.25000000       0.012
   0.55000000 -0.45000000  0.35000000       0.012
   0.05000000  0.05000000 -0.95000000       0.006
  -0.05000000  0.15000000 -0.85000000       0.012
  -0.15000000  0.25000000 -0.75000000       0.012
  -0.25000000  0.35000000 -0.65000000       0.012
   0.05000000  0.05000000 -0.75000000       0.006
  -0.05000000  0.15000000 -0.65000000       0.012
  -0.15000000  0.25000000 -0.55000000       0.012
   0.05000000  0.05000000 -0.55000000       0.006
  -0.05000000  0.15000000 -0.45000000       0.012
   0.05000000  0.05000000 -0.35000000       0.006
   0.15000000  0.15000000  0.15000000       0.002
   0.05000000  0.25000000  0.25000000       0.006
  -0.05000000  0.35000000  0.35000000       0.006
  -0.15000000  0.45000000  0.45000000       0.006
   0.75000000 -0.45000000 -0.45000000       0.006
   0.65000000 -0.35000000 -0.35000000       0.006
   0.55000000 -0.25000000 -0.25000000       0.006
   0.45000000 -0.15000000 -0.15000000       0.006
   0.15000000  0.15000000  0.35000000       0.006
   0.05000000  0.25000000  0.45000000       0.012
  -0.05000000  0.35000000  0.55000000       0.012
   0.85000000 -0.55000000 -0.35000000       0.012
   0.75000000 -0.45000000 -0.25000000       0.012
   0.65000000 -0.35000000 -0.15000000       0.012
   0.55000000 -0.25000000 -0.05000000       0.012
   0.15000000  0.15000000  0.55000000       0.006
   0.05000000  0.25000000  0.65000000       0.012
   0.95000000 -0.65000000 -0.25000000       0.012
   0.85000000 -0.55000000 -0.15000000       0.012
   0.75000000 -0.45000000 -0.05000000       0.012
   0.65000000 -0.35000000  0.05000000       0.012
   0.15000000  0.15000000  0.75000000       0.006
   1.05000000 -0.75000000 -0.15000000       0.012
   0.95000000 -0.65000000 -0.05000000       0.012
   0.85000000 -0.55000000  0.05000000       0.012
   0.75000000 -0.45000000  0.15000000       0.012
   0.15000000  0.15000000 -1.05000000       0.006
   0.05000000  0.25000000 -0.95000000       0.012
  -0.05000000  0.35000000 -0.85000000       0.012
   0.15000000  0.15000000 -0.85000000       0.006
   0.05000000  0.25000000 -0.75000000       0.012
   0.15000000  0.15000000 -0.65000000       0.006
   0.25000000  0.25000000  0.25000000       0.002
   0.15000000  0.35000000  0.35000000       0.006
   0.05000000  0.45000000  0.45000000       0.006
   0.95000000 -0.45000000 -0.45000000       0.006
   0.85000000 -0.35000000 -0.35000000       0.006
   0.75000000 -0.25000000 -0.25000000       0.006
   0.25000000  0.25000000  0.45000000       0.006
   0.15000000  0.35000000  0.55000000       0.012
   1.05000000 -0.55000000 -0.35000000       0.012
   0.95000000 -0.45000000 -0.25000000       0.012
   0.85000000 -0.35000000 -0.15000000       0.012
   0.25000000  0.25000000  0.65000000       0.006
   1.15000000 -0.65000000 -0.25000000       0.012
   1.05000000 -0.55000000 -0.15000000       0.012
   0.95000000 -0.45000000 -0.05000000       0.012
   0.25000000  0.25000000 -1.15000000       0.006
   0.15000000  0.35000000 -1.05000000       0.012
   0.25000000  0.25000000 -0.95000000       0.006
   0.35000000  0.35000000  0.35000000       0.002
   0.25000000  0.45000000  0.45000000       0.006
   1.15000000 -0.45000000 -0.45000000       0.006
   1.05000000 -0.35000000 -0.35000000       0.006
   0.35000000  0.35000000  0.55000000       0.006
   1.25000000 -0.55000000 -0.35000000       0.012
   1.15000000 -0.45000000 -0.25000000       0.012
   0.35000000  0.35000000 -1.25000000       0.006
   0.45000000  0.45000000  0.45000000       0.002
   1.35000000 -0.45000000 -0.45000000       0.006
 
 k-points in reciprocal lattice and weights: 10x10x10                                
   0.05000000  0.05000000  0.05000000       0.002
   0.15000000  0.05000000  0.05000000       0.006
   0.25000000  0.05000000  0.05000000       0.006
   0.35000000  0.05000000  0.05000000       0.006
   0.45000000  0.05000000  0.05000000       0.006
  -0.45000000  0.05000000  0.05000000       0.006
  -0.35000000  0.05000000  0.05000000       0.006
  -0.25000000  0.05000000  0.05000000       0.006
  -0.15000000  0.05000000  0.05000000       0.006
  -0.05000000  0.05000000  0.05000000       0.006
   0.15000000  0.15000000  0.05000000       0.006
   0.25000000  0.15000000  0.05000000       0.012
   0.35000000  0.15000000  0.05000000       0.012
   0.45000000  0.15000000  0.05000000       0.012
  -0.45000000  0.15000000  0.05000000       0.012
  -0.35000000  0.15000000  0.05000000       0.012
  -0.25000000  0.15000000  0.05000000       0.012
  -0.15000000  0.15000000  0.05000000       0.012
  -0.05000000  0.15000000  0.05000000       0.012
   0.25000000  0.25000000  0.05000000       0.006
   0.35000000  0.25000000  0.05000000       0.012
   0.45000000  0.25000000  0.05000000       0.012
  -0.45000000  0.25000000  0.05000000       0.012
  -0.35000000  0.25000000  0.05000000       0.012
  -0.25000000  0.25000000  0.05000000       0.012
  -0.15000000  0.25000000  0.05000000       0.012
  -0.05000000  0.25000000  0.05000000       0.012
   0.35000000  0.35000000  0.05000000       0.006
   0.45000000  0.35000000  0.05000000       0.012
  -0.45000000  0.35000000  0.05000000       0.012
  -0.35000000  0.35000000  0.05000000       0.012
  -0.25000000  0.35000000  0.05000000       0.012
  -0.15000000  0.35000000  0.05000000       0.012
  -0.05000000  0.35000000  0.05000000       0.012
   0.45000000  0.45000000  0.05000000       0.006
  -0.45000000  0.45000000  0.05000000       0.012
  -0.35000000  0.45000000  0.05000000       0.012
  -0.25000000  0.45000000  0.05000000       0.012
  -0.15000000  0.45000000  0.05000000       0.012
  -0.05000000  0.45000000  0.05000000       0.012
  -0.45000000 -0.45000000  0.05000000       0.006
  -0.35000000 -0.45000000  0.05000000       0.012
  -0.25000000 -0.45000000  0.05000000       0.012
  -0.15000000 -0.45000000  0.05000000       0.012
  -0.35000000 -0.35000000  0.05000000       0.006
  -0.25000000 -0.35000000  0.05000000       0.012
  -0.15000000 -0.35000000  0.05000000       0.012
  -0.25000000 -0.25000000  0.05000000       0.006
  -0.15000000 -0.25000000  0.05000000       0.012
  -0.15000000 -0.15000000  0.05000000       0.006
   0.15000000  0.15000000  0.15000000       0.002
   0.25000000  0.15000000  0.15000000       0.006
   0.35000000  0.15000000  0.15000000       0.006
   0.45000000  0.15000000  0.15000000       0.006
  -0.45000000  0.15000000  0.15000000       0.006
  -0.35000000  0.15000000  0.15000000       0.006
  -0.25000000  0.15000000  0.15000000       0.006
  -0.15000000  0.15000000  0.15000000       0.006
   0.25000000  0.25000000  0.15000000       0.006
   0.35000000  0.25000000  0.15000000       0.012
   0.45000000  0.25000000  0.15000000       0.012
  -0.45000000  0.25000000  0.15000000       0.012
  -0.35000000  0.25000000  0.15000000       0.012
  -0.25000000  0.25000000  0.15000000       0.012
  -0.15000000  0.25000000  0.15000000       0.012
   0.35000000  0.35000000  0.15000000       0.006
   0.45000000  0.35000000  0.15000000       0.012
  -0.45000000  0.35000000  0.15000000       0.012
  -0.35000000  0.35000000  0.15000000       0.012
  -0.25000000  0.35000000  0.15000000       0.012
  -0.15000000  0.35000000  0.15000000       0.012
   0.45000000  0.45000000  0.15000000       0.006
  -0.45000000  0.45000000  0.15000000       0.012
  -0.35000000  0.45000000  0.15000000       0.012
  -0.25000000  0.45000000  0.15000000       0.012
  -0.15000000  0.45000000  0.15000000       0.012
  -0.45000000 -0.45000000  0.15000000       0.006
  -0.35000000 -0.45000000  0.15000000       0.012
  -0.25000000 -0.45000000  0.15000000       0.012
  -0.35000000 -0.35000000  0.15000000       0.006
  -0.25000000 -0.35000000  0.15000000       0.012
  -0.25000000 -0.25000000  0.15000000       0.006
   0.25000000  0.25000000  0.25000000       0.002
   0.35000000  0.25000000  0.25000000       0.006
   0.45000000  0.25000000  0.25000000       0.006
  -0.45000000  0.25000000  0.25000000       0.006
  -0.35000000  0.25000000  0.25000000       0.006
  -0.25000000  0.25000000  0.25000000       0.006
   0.35000000  0.35000000  0.25000000       0.006
   0.45000000  0.35000000  0.25000000       0.012
  -0.45000000  0.35000000  0.25000000       0.012
  -0.35000000  0.35000000  0.25000000       0.012
  -0.25000000  0.35000000  0.25000000       0.012
   0.45000000  0.45000000  0.25000000       0.006
  -0.45000000  0.45000000  0.25000000       0.012
  -0.35000000  0.45000000  0.25000000       0.012
  -0.25000000  0.45000000  0.25000000       0.012
  -0.45000000 -0.45000000  0.25000000       0.006
  -0.35000000 -0.45000000  0.25000000       0.012
  -0.35000000 -0.35000000  0.25000000       0.006
   0.35000000  0.35000000  0.35000000       0.002
   0.45000000  0.35000000  0.35000000       0.006
  -0.45000000  0.35000000  0.35000000       0.006
  -0.35000000  0.35000000  0.35000000       0.006
   0.45000000  0.45000000  0.35000000       0.006
  -0.45000000  0.45000000  0.35000000       0.012
  -0.35000000  0.45000000  0.35000000       0.012
  -0.45000000 -0.45000000  0.35000000       0.006
   0.45000000  0.45000000  0.45000000       0.002
  -0.45000000  0.45000000  0.45000000       0.006
 
 position of ions in fractional coordinates (direct lattice) 
   0.00000000  0.00000000  0.00000000
 
 position of ions in cartesian coordinates  (Angst):
   0.00000000  0.00000000  0.00000000
 


--------------------------------------------------------------------------------------------------------


 k-point  1 :   0.0500 0.0500 0.0500  plane waves:     116
 k-point  2 :   0.1500 0.0500 0.0500  plane waves:     118
 k-point  3 :   0.2500 0.0500 0.0500  plane waves:     122
 k-point  4 :   0.3500 0.0500 0.0500  plane waves:     116
 k-point  5 :   0.4500 0.0500 0.0500  plane waves:     118
 k-point  6 :  -0.4500 0.0500 0.0500  plane waves:     116
 k-point  7 :  -0.3500 0.0500 0.0500  plane waves:     117
 k-point  8 :  -0.2500 0.0500 0.0500  plane waves:     116
 k-point  9 :  -0.1500 0.0500 0.0500  plane waves:     120
 k-point 10 :  -0.0500 0.0500 0.0500  plane waves:     121
 k-point 11 :   0.1500 0.1500 0.0500  plane waves:     121
 k-point 12 :   0.2500 0.1500 0.0500  plane waves:     121
 k-point 13 :   0.3500 0.1500 0.0500  plane waves:     119
 k-point 14 :   0.4500 0.1500 0.0500  plane waves:     117
 k-point 15 :  -0.4500 0.1500 0.0500  plane waves:     118
 k-point 16 :  -0.3500 0.1500 0.0500  plane waves:     120
 k-point 17 :  -0.2500 0.1500 0.0500  plane waves:     117
 k-point 18 :  -0.1500 0.1500 0.0500  plane waves:     120
 k-point 19 :  -0.0500 0.1500 0.0500  plane waves:     121
 k-point 20 :   0.2500 0.2500 0.0500  plane waves:     125
 k-point 21 :   0.3500 0.2500 0.0500  plane waves:     122
 k-point 22 :   0.4500 0.2500 0.0500  plane waves:     118
 k-point 23 :  -0.4500 0.2500 0.0500  plane waves:     116
 k-point 24 :  -0.3500 0.2500 0.0500  plane waves:     116
 k-point 25 :  -0.2500 0.2500 0.0500  plane waves:     119
 k-point 26 :  -0.1500 0.2500 0.0500  plane waves:     121
 k-point 27 :  -0.0500 0.2500 0.0500  plane waves:     122
 k-point 28 :   0.3500 0.3500 0.0500  plane waves:     120
 k-point 29 :   0.4500 0.3500 0.0500  plane waves:     118
 k-point 30 :  -0.4500 0.3500 0.0500  plane waves:     113
 k-point 31 :  -0.3500 0.3500 0.0500  plane waves:     117
 k-point 32 :  -0.2500 0.3500 0.0500  plane waves:     117
 k-point 33 :  -0.1500 0.3500 0.0500  plane waves:     119
 k-point 34 :  -0.0500 0.3500 0.0500  plane waves:     119
 k-point 35 :   0.4500 0.4500 0.0500  plane waves:     116
 k-point 36 :  -0.4500 0.4500 0.0500  plane waves:     115
 k-point 37 :  -0.3500 0.4500 0.0500  plane waves:     112
 k-point 38 :  -0.2500 0.4500 0.0500  plane waves:     115
 k-point 39 :  -0.1500 0.4500 0.0500  plane waves:     119
 k-point 40 :  -0.0500 0.4500 0.0500  plane waves:     116
 k-point 41 :  -0.4500-0.4500 0.0500  plane waves:     116
 k-point 42 :  -0.3500-0.4500 0.0500  plane waves:     115
 k-point 43 :  -0.2500-0.4500 0.0500  plane waves:     116
 k-point 44 :  -0.1500-0.4500 0.0500  plane waves:     117
 k-point 45 :  -0.3500-0.3500 0.0500  plane waves:     118
 k-point 46 :  -0.2500-0.3500 0.0500  plane waves:     119
 k-point 47 :  -0.1500-0.3500 0.0500  plane waves:     118
 k-point 48 :  -0.2500-0.2500 0.0500  plane waves:     125
 k-point 49 :  -0.1500-0.2500 0.0500  plane waves:     123
 k-point 50 :  -0.1500-0.1500 0.0500  plane waves:     123
 k-point 51 :   0.1500 0.1500 0.1500  plane waves:     122
 k-point 52 :   0.2500 0.1500 0.1500  plane waves:     121
 k-point 53 :   0.3500 0.1500 0.1500  plane waves:     122
 k-point 54 :   0.4500 0.1500 0.1500  plane waves:     119
 k-point 55 :  -0.4500 0.1500 0.1500  plane waves:     118
 k-point 56 :  -0.3500 0.1500 0.1500  plane waves:     117
 k-point 57 :  -0.2500 0.1500 0.1500  plane waves:     115
 k-point 58 :  -0.1500 0.1500 0.1500  plane waves:     121
 k-point 59 :   0.2500 0.2500 0.1500  plane waves:     120
 k-point 60 :   0.3500 0.2500 0.1500  plane waves:     120
 k-point 61 :   0.4500 0.2500 0.1500  plane waves:     121
 k-point 62 :  -0.4500 0.2500 0.1500  plane waves:     116
 k-point 63 :  -0.3500 0.2500 0.1500  plane waves:     118
 k-point 64 :  -0.2500 0.2500 0.1500  plane waves:     117
 k-point 65 :  -0.1500 0.2500 0.1500  plane waves:     120
 k-point 66 :   0.3500 0.3500 0.1500  plane waves:     118
 k-point 67 :   0.4500 0.3500 0.1500  plane waves:     118
 k-point 68 :  -0.4500 0.3500 0.1500  plane waves:     115
 k-point 69 :  -0.3500 0.3500 0.1500  plane waves:     113
 k-point 70 :  -0.2500 0.3500 0.1500  plane waves:     115
 k-point 71 :  -0.1500 0.3500 0.1500  plane waves:     118
 k-point 72 :   0.4500 0.4500 0.1500  plane waves:     118
 k-point 73 :  -0.4500 0.4500 0.1500  plane waves:     113
 k-point 74 :  -0.3500 0.4500 0.1500  plane waves:     112
 k-point 75 :  -0.2500 0.4500 0.1500  plane waves:     111
 k-point 76 :  -0.1500 0.4500 0.1500  plane waves:     116
 k-point 77 :  -0.4500-0.4500 0.1500  plane waves:     114
 k-point 78 :  -0.3500-0.4500 0.1500  plane waves:     113
 k-point 79 :  -0.2500-0.4500 0.1500  plane waves:     112
 k-point 80 :  -0.3500-0.3500 0.1500  plane waves:     116
 k-point 81 :  -0.2500-0.3500 0.1500  plane waves:     117
 k-point 82 :  -0.2500-0.2500 0.1500  plane waves:     118
 k-point 83 :   0.2500 0.2500 0.2500  plane waves:     123
 k-point 84 :   0.3500 0.2500 0.2500  plane waves:     121
 k-point 85 :   0.4500 0.2500 0.2500  plane waves:     119
 k-point 86 :  -0.4500 0.2500 0.2500  plane waves:     119
 k-point 87 :  -0.3500 0.2500 0.2500  plane waves:     116
 k-point 88 :  -0.2500 0.2500 0.2500  plane waves:     119
 k-point 89 :   0.3500 0.3500 0.2500  plane waves:     119
 k-point 90 :   0.4500 0.3500 0.2500  plane waves:     119
 k-point 91 :  -0.4500 0.3500 0.2500  plane waves:     115
 k-point 92 :  -0.3500 0.3500 0.2500  plane waves:     113
 k-point 93 :  -0.2500 0.3500 0.2500  plane waves:     114
 k-point 94 :   0.4500 0.4500 0.2500  plane waves:     115
 k-point 95 :  -0.4500 0.4500 0.2500  plane waves:     116
 k-point 96 :  -0.3500 0.4500 0.2500  plane waves:     113
 k-point 97 :  -0.2500 0.4500 0.2500  plane waves:     112
 k-point 98 :  -0.4500-0.4500 0.2500  plane waves:     116
 k-point 99 :  -0.3500-0.4500 0.2500  plane waves:     111
 k-point ** :  -0.3500-0.3500 0.2500  plane waves:     114
 k-point ** :   0.3500 0.3500 0.3500  plane waves:     117
 k-point ** :   0.4500 0.3500 0.3500  plane waves:     119
 k-point ** :  -0.4500 0.3500 0.3500  plane waves:     119
 k-point ** :  -0.3500 0.3500 0.3500  plane waves:     118
 k-point ** :   0.4500 0.4500 0.3500  plane waves:     116
 k-point ** :  -0.4500 0.4500 0.3500  plane waves:     118
 k-point ** :  -0.3500 0.4500 0.3500  plane waves:     116
 k-point ** :  -0.4500-0.4500 0.3500  plane waves:     117
 k-point ** :   0.4500 0.4500 0.4500  plane waves:     120
 k-point ** :  -0.4500 0.4500 0.4500  plane waves:     118

 maximum and minimum number of plane-waves per node :       125      111

 maximum number of plane-waves:       125
 maximum index in each direction: 
   IXMAX=    3   IYMAX=    3   IZMAX=    3
   IXMIN=   -3   IYMIN=   -3   IZMIN=   -3


 serial   3D FFT for wavefunctions
 parallel 3D FFT for charge:
    minimum data exchange during FFTs selected (reduces bandwidth)


 total amount of memory used by VASP MPI-rank0    33159. kBytes
=======================================================================

   base      :      30000. kBytes
   nonl-proj :       2029. kBytes
   fftplans  :        142. kBytes
   grid      :        192. kBytes
   one-center:         15. kBytes
   wavefun   :        781. kBytes
 
     INWAV:  cpu time    0.0000: real time    0.0000
 Broyden mixing: mesh for mixing (old mesh)
   NGX =  7   NGY =  7   NGZ =  7
  (NGX  = 20   NGY  = 20   NGZ  = 20)
  gives a total of    343 points

 initial charge density was supplied:
 charge density of overlapping atoms calculated
 number of electron      11.0000000 magnetization 
 keeping initial charge density in first step


--------------------------------------------------------------------------------------------------------


 Maximum index for augmentation-charges         1009 (set IRDMAX)


--------------------------------------------------------------------------------------------------------


 First call to EWALD:  gamma=   0.721
 Maximum number of real-space cells 3x 3x 3
 Maximum number of reciprocal cells 3x 3x 3

    FEWALD:  cpu time    0.0012: real time    0.0012


--------------------------------------- Iteration      1(   1)  ---------------------------------------


    POTLOK:  cpu time    0.0015: real time    0.0031
    SETDIJ:  cpu time    0.0016: real time    0.0015
     EDDAV:  cpu time    0.2618: real time    0.2685
       DOS:  cpu time    0.0017: real time    0.0016
    --------------------------------------------
      LOOP:  cpu time    0.2666: real time    0.2747

 eigenvalue-minimisations  :  3248
 total energy-change (2. order) : 0.3074723E+02  (-0.3548078E+03)
 number of electron      11.0000000 magnetization 
 augmentation part       11.0000000 magnetization 

 Free energy of the ion-electron system (eV)
  ---------------------------------------------------
  alpha Z        PSCENC =       123.93191659
  Ewald energy   TEWEN  =     -1024.17251330
  -Hartree energ DENC   =      -105.59397540
  -exchange      EXHF   =         0.00000000
  -V(xc)+E(xc)   XCENC  =        16.77548007
  PAW double counting   =       746.10209728     -725.46159323
  entropy T*S    EENTRO =        -0.00136767
  eigenvalues    EBANDS =        69.77103844
  atomic energy  EATOM  =       929.39614979
  Solvation  Ediel_sol  =         0.00000000
  ---------------------------------------------------
  free energy    TOTEN  =        30.74723258 eV

  energy without entropy =       30.74860024  energy(sigma->0) =       30.74768847


--------------------------------------------------------------------------------------------------------




--------------------------------------- Iteration      1(   2)  ---------------------------------------


     EDDAV:  cpu time    0.2398: real time    0.2460
       DOS:  cpu time    0.0015: real time    0.0015
    --------------------------------------------
      LOOP:  cpu time    0.2413: real time    0.2475

 eigenvalue-minimisations  :  3052
 total energy-change (2. order) :-0.3497875E+02  (-0.3306500E+02)
 number of electron      11.0000000 magnetization 
 augmentation part       11.0000000 magnetization 

 Free energy of the ion-electron system (eV)
  ---------------------------------------------------
  alpha Z        PSCENC =       123.93191659
  Ewald energy   TEWEN  =     -1024.17251330
  -Hartree energ DENC   =      -105.59397540
  -exchange      EXHF   =         0.00000000
  -V(xc)+E(xc)   XCENC  =        16.77548007
  PAW double counting   =       746.10209728     -725.46159323
  entropy T*S    EENTRO =        -0.00063202
  eigenvalues    EBANDS =        34.79154945
  atomic energy  EATOM  =       929.39614979
  Solvation  Ediel_sol  =         0.00000000
  ---------------------------------------------------
  free energy    TOTEN  =        -4.23152076 eV

  energy without entropy =       -4.23088875  energy(sigma->0) =       -4.23131009


--------------------------------------------------------------------------------------------------------




--------------------------------------- Iteration      1(   3)  ---------------------------------------


     EDDAV:  cpu time    0.2675: real time    0.2747
       DOS:  cpu time    0.0016: real time    0.0016
    --------------------------------------------
      LOOP:  cpu time    0.2691: real time    0.2763

 eigenvalue-minimisations  :  3176
 total energy-change (2. order) :-0.2958763E+00  (-0.2957872E+00)
 number of electron      11.0000000 magnetization 
 augmentation part       11.0000000 magnetization 

 Free energy of the ion-electron system (eV)
  ---------------------------------------------------
  alpha Z        PSCENC =       123.93191659
  Ewald energy   TEWEN  =     -1024.17251330
  -Hartree energ DENC   =      -105.59397540
  -exchange      EXHF   =         0.00000000
  -V(xc)+E(xc)   XCENC  =        16.77548007
  PAW double counting   =       746.10209728     -725.46159323
  entropy T*S    EENTRO =        -0.00057716
  eigenvalues    EBANDS =        34.49561830
  atomic energy  EATOM  =       929.39614979
  Solvation  Ediel_sol  =         0.00000000
  ---------------------------------------------------
  free energy    TOTEN  =        -4.52739705 eV

  energy without entropy =       -4.52681989  energy(sigma->0) =       -4.52720467


--------------------------------------------------------------------------------------------------------




--------------------------------------- Iteration      1(   4)  ---------------------------------------


     EDDAV:  cpu time    0.2660: real time    0.2727
       DOS:  cpu time    0.0016: real time    0.0016
    --------------------------------------------
      LOOP:  cpu time    0.2676: real time    0.2744

 eigenvalue-minimisations  :  3192
 total energy-change (2. order) :-0.7839701E-03  (-0.7839499E-03)
 number of electron      11.0000000 magnetization 
 augmentation part       11.0000000 magnetization 

 Free energy of the ion-electron system (eV)
  ---------------------------------------------------
  alpha Z        PSCENC =       123.93191659
  Ewald energy   TEWEN  =     -1024.17251330
  -Hartree energ DENC   =      -105.59397540
  -exchange      EXHF   =         0.00000000
  -V(xc)+E(xc)   XCENC  =        16.77548007
  PAW double counting   =       746.10209728     -725.46159323
  entropy T*S    EENTRO =        -0.00057660
  eigenvalues    EBANDS =        34.49483378
  atomic energy  EATOM  =       929.39614979
  Solvation  Ediel_sol  =         0.00000000
  ---------------------------------------------------
  free energy    TOTEN  =        -4.52818102 eV

  energy without entropy =       -4.52760442  energy(sigma->0) =       -4.52798882


--------------------------------------------------------------------------------------------------------




--------------------------------------- Iteration      1(   5)  ---------------------------------------


     EDDAV:  cpu time    0.2506: real time    0.2572
       DOS:  cpu time    0.0016: real time    0.0016
    CHARGE:  cpu time    0.0033: real time    0.0034
    MIXING:  cpu time    0.0009: real time    0.0004
    --------------------------------------------
      LOOP:  cpu time    0.2564: real time    0.2625

 eigenvalue-minimisations  :  2928
 total energy-change (2. order) :-0.5035793E-05  (-0.5035424E-05)
 number of electron      10.9999928 magnetization 
 augmentation part        3.8184534 magnetization 

 Broyden mixing:
  rms(total) = 0.31660E+00    rms(broyden)= 0.31622E+00
  rms(prec ) = 0.13119E+01
  weight for this iteration     100.00

 Free energy of the ion-electron system (eV)
  ---------------------------------------------------
  alpha Z        PSCENC =       123.93191659
  Ewald energy   TEWEN  =     -1024.17251330
  -Hartree energ DENC   =      -105.59397540
  -exchange      EXHF   =         0.00000000
  -V(xc)+E(xc)   XCENC  =        16.77548007
  PAW double counting   =       746.10209728     -725.46159323
  entropy T*S    EENTRO =        -0.00057660
  eigenvalues    EBANDS =        34.49482874
  atomic energy  EATOM  =       929.39614979
  Solvation  Ediel_sol  =         0.00000000
  ---------------------------------------------------
  free energy    TOTEN  =        -4.52818606 eV

  energy without entropy =       -4.52760946  energy(sigma->0) =       -4.52799386


--------------------------------------------------------------------------------------------------------




--------------------------------------- Iteration      1(   6)  ---------------------------------------


    POTLOK:  cpu time    0.0008: real time    0.0015
    SETDIJ:  cpu time    0.0013: real time    0.0013
     EDDAV:  cpu time    0.2587: real time    0.2659
       DOS:  cpu time    0.0015: real time    0.0015
    CHARGE:  cpu time    0.0029: real time    0.0030
    MIXING:  cpu time    0.0004: real time    0.0004
    --------------------------------------------
      LOOP:  cpu time    0.2658: real time    0.2737

 eigenvalue-minimisations  :  3088
 total energy-change (2. order) : 0.2664513E+00  (-0.5705532E-01)
 number of electron      10.9999925 magnetization 
 augmentation part        3.9360127 magnetization 

 Broyden mixing:
  rms(total) = 0.95956E-01    rms(broyden)= 0.95930E-01
  rms(prec ) = 0.39725E+00
  weight for this iteration     100.00

 eigenvalues of (default mixing * dielectric matrix)
  average eigenvalue GAMMA=   1.3660
  1.3660

 Free energy of the ion-electron system (eV)
  ---------------------------------------------------
  alpha Z        PSCENC =       123.93191659
  Ewald energy   TEWEN  =     -1024.17251330
  -Hartree energ DENC   =       -98.43287953
  -exchange      EXHF   =         0.00000000
  -V(xc)+E(xc)   XCENC  =        16.40941113
  PAW double counting   =       753.02876640     -734.00863982
  entropy T*S    EENTRO =        -0.00048846
  eigenvalues    EBANDS =        29.58654241
  atomic energy  EATOM  =       929.39614979
  Solvation  Ediel_sol  =         0.00000000
  ---------------------------------------------------
  free energy    TOTEN  =        -4.26173478 eV

  energy without entropy =       -4.26124632  energy(sigma->0) =       -4.26157196


--------------------------------------------------------------------------------------------------------




--------------------------------------- Iteration      1(   7)  ---------------------------------------


    POTLOK:  cpu time    0.0014: real time    0.0015
    SETDIJ:  cpu time    0.0013: real time    0.0013
     EDDAV:  cpu time    0.2368: real time    0.2426
       DOS:  cpu time    0.0015: real time    0.0015
    CHARGE:  cpu time    0.0036: real time    0.0036
    MIXING:  cpu time    0.0004: real time    0.0004
    --------------------------------------------
      LOOP:  cpu time    0.2450: real time    0.2510

 eigenvalue-minimisations  :  3168
 total energy-change (2. order) : 0.3552730E-01  (-0.6597526E-02)
 number of electron      10.9999924 magnetization 
 augmentation part        3.9739879 magnetization 

 Broyden mixing:
  rms(total) = 0.24064E-01    rms(broyden)= 0.24056E-01
  rms(prec ) = 0.59694E-01
  weight for this iteration     100.00

 eigenvalues of (default mixing * dielectric matrix)
  average eigenvalue GAMMA=   1.8160
  1.2762  2.3559

 Free energy of the ion-electron system (eV)
  ---------------------------------------------------
  alpha Z        PSCENC =       123.93191659
  Ewald energy   TEWEN  =     -1024.17251330
  -Hartree energ DENC   =       -95.45919056
  -exchange      EXHF   =         0.00000000
  -V(xc)+E(xc)   XCENC  =        16.25589782
  PAW double counting   =       765.45094770     -747.63873392
  entropy T*S    EENTRO =        -0.00025506
  eigenvalues    EBANDS =        28.00957346
  atomic energy  EATOM  =       929.39614979
  Solvation  Ediel_sol  =         0.00000000
  ---------------------------------------------------
  free energy    TOTEN  =        -4.22620748 eV

  energy without entropy =       -4.22595242  energy(sigma->0) =       -4.22612246


--------------------------------------------------------------------------------------------------------




--------------------------------------- Iteration      1(   8)  ---------------------------------------


    POTLOK:  cpu time    0.0020: real time    0.0016
    SETDIJ:  cpu time    0.0008: real time    0.0013
     EDDAV:  cpu time    0.2170: real time    0.2221
       DOS:  cpu time    0.0015: real time    0.0015
    CHARGE:  cpu time    0.0032: real time    0.0032
    MIXING:  cpu time    0.0004: real time    0.0004
    --------------------------------------------
      LOOP:  cpu time    0.2249: real time    0.2301

 eigenvalue-minimisations  :  2928
 total energy-change (2. order) : 0.5954821E-02  (-0.2046470E-03)
 number of electron      10.9999924 magnetization 
 augmentation part        3.9719775 magnetization 

 Broyden mixing:
  rms(total) = 0.11258E-02    rms(broyden)= 0.11211E-02
  rms(prec ) = 0.37901E-02
  weight for this iteration     100.00

 eigenvalues of (default mixing * dielectric matrix)
  average eigenvalue GAMMA=   1.6766
  1.2981  1.2981  2.4336

 Free energy of the ion-electron system (eV)
  ---------------------------------------------------
  alpha Z        PSCENC =       123.93191659
  Ewald energy   TEWEN  =     -1024.17251330
  -Hartree energ DENC   =       -94.76588725
  -exchange      EXHF   =         0.00000000
  -V(xc)+E(xc)   XCENC  =        16.21725784
  PAW double counting   =       778.13326855     -761.11022316
  entropy T*S    EENTRO =        -0.00023438
  eigenvalues    EBANDS =        28.15001265
  atomic energy  EATOM  =       929.39614979
  Solvation  Ediel_sol  =         0.00000000
  ---------------------------------------------------
  free energy    TOTEN  =        -4.22025266 eV

  energy without entropy =       -4.22001828  energy(sigma->0) =       -4.22017453


--------------------------------------------------------------------------------------------------------




--------------------------------------- Iteration      1(   9)  ---------------------------------------


    POTLOK:  cpu time    0.0014: real time    0.0015
    SETDIJ:  cpu time    0.0012: real time    0.0012
     EDDAV:  cpu time    0.1698: real time    0.1749
       DOS:  cpu time    0.0016: real time    0.0016
    --------------------------------------------
      LOOP:  cpu time    0.1748: real time    0.1792

 eigenvalue-minimisations  :  2008
 total energy-change (2. order) : 0.1568279E-04  (-0.1266560E-05)
 number of electron      10.9999924 magnetization 
 augmentation part        3.9719775 magnetization 

 Free energy of the ion-electron system (eV)
  ---------------------------------------------------
  alpha Z        PSCENC =       123.93191659
  Ewald energy   TEWEN  =     -1024.17251330
  -Hartree energ DENC   =       -94.72721777
  -exchange      EXHF   =         0.00000000
  -V(xc)+E(xc)   XCENC  =        16.21516418
  PAW double counting   =       779.12416232     -762.12808510
  entropy T*S    EENTRO =        -0.00023073
  eigenvalues    EBANDS =        28.14041705
  atomic energy  EATOM  =       929.39614979
  Solvation  Ediel_sol  =         0.00000000
  ---------------------------------------------------
  free energy    TOTEN  =        -4.22023697 eV

  energy without entropy =       -4.22000625  energy(sigma->0) =       -4.22016006


--------------------------------------------------------------------------------------------------------




 average (electrostatic) potential at core
  the test charge radii are     1.2098
  (the norm of the test charge is              1.0000)
       1 -44.3558
 
 
 
 E-fermi :   7.6256     XC(G=0): -13.8001     alpha+bet :-11.8263


 k-point     1 :       0.0500    0.0500    0.0500
  band No.  band energies     occupation 
      1      -3.8666      2.00000
      2       1.9522      2.00000
      3       2.0314      2.00000
      4       2.0314      2.00000
      5       3.9343      2.00000
      6       3.9343      2.00000
      7      22.9371      0.00000
      8      26.8033      0.00000
      9      27.6298      0.00000
     10      27.6298      0.00000
     11      32.7706      0.00000
     12      37.0588      0.00000

 k-point     2 :       0.1500    0.0500    0.0500
  band No.  band energies     occupation 
      1      -3.3510      2.00000
      2       1.7531      2.00000
      3       2.2034      2.00000
      4       2.2417      2.00000
      5       3.7378      2.00000
      6       3.9939      2.00000
      7      23.5305      0.00000
      8      24.7649      0.00000
      9      27.4588      0.00000
     10      28.7074      0.00000
     11      32.8630      0.00000
     12      35.6906      0.00000

 k-point     3 :       0.2500    0.0500    0.0500
  band No.  band energies     occupation 
      1      -2.2542      2.00000
      2       1.5946      2.00000
      3       2.3857      2.00000
      4       2.4158      2.00000
      5       3.7419      2.00000
      6       4.2577      2.00000
      7      21.1508      0.00000
      8      24.2627      0.00000
      9      28.0373      0.00000
     10      30.3007      0.00000
     11      30.4800      0.00000
     12      33.3868      0.00000

 k-point     4 :       0.3500    0.0500    0.0500
  band No.  band energies     occupation 
      1      -1.3304      2.00000
      2       2.1543      2.00000
      3       2.2676      2.00000
      4       2.3758      2.00000
      5       4.3631      2.00000
      6       4.9727      2.00000
      7      17.1048      0.00000
      8      23.4479      0.00000
      9      27.1801      0.00000
     10      29.6317      0.00000
     11      31.5084      0.00000
     12      32.9531      0.00000

 k-point     5 :       0.4500    0.0500    0.0500
  band No.  band energies     occupation 
      1      -1.1407      2.00000
      2       1.9665      2.00000
      3       2.0546      2.00000
      4       4.1145      2.00000
      5       5.1315      2.00000
      6       5.9152      2.00000
      7      13.1569      0.00000
      8      22.4821      0.00000
      9      26.0124      0.00000
     10      27.1964      0.00000
     11      33.8272      0.00000
     12      34.3430      0.00000

 k-point     6 :      -0.4500    0.0500    0.0500
  band No.  band energies     occupation 
      1      -1.1476      2.00000
      2       1.8829      2.00000
      3       2.0067      2.00000
      4       4.7095      2.00000
      5       5.5002      2.00000
      6       6.6136      2.00000
      7      11.4943     -0.00000
      8      22.2196      0.00000
      9      26.0210      0.00000
     10      26.1202      0.00000
     11      34.5998      0.00000
     12      34.7065      0.00000

 k-point     7 :      -0.3500    0.0500    0.0500
  band No.  band energies     occupation 
      1      -1.1573      2.00000
      2       2.0045      2.00000
      3       2.1452      2.00000
      4       3.4503      2.00000
      5       5.2401      2.00000
      6       5.2936      2.00000
      7      14.3791      0.00000
      8      22.7531      0.00000
      9      26.5757      0.00000
     10      27.4953      0.00000
     11      33.8002      0.00000
     12      33.8188      0.00000

 k-point     8 :      -0.2500    0.0500    0.0500
  band No.  band energies     occupation 
      1      -1.5537      2.00000
      2       1.8878      2.00000
      3       2.2809      2.00000
      4       2.3645      2.00000
      5       4.2406      2.00000
      6       4.5957      2.00000
      7      18.4910      0.00000
      8      23.8663      0.00000
      9      27.7824      0.00000
     10      29.7031      0.00000
     11      31.3066      0.00000
     12      33.0394      0.00000

 k-point     9 :      -0.1500    0.0500    0.0500
  band No.  band energies     occupation 
      1      -2.6532      2.00000
      2       1.5851      2.00000
      3       2.3791      2.00000
      4       2.3950      2.00000
      5       3.6877      2.00000
      6       4.1039      2.00000
      7      22.4030      0.00000
      8      24.2496      0.00000
      9      27.9817      0.00000
     10      29.3002      0.00000
     11      31.4377      0.00000
     12      33.9833      0.00000

 k-point    10 :      -0.0500    0.0500    0.0500
  band No.  band energies     occupation 
      1      -3.6038      2.00000
      2       1.8133      2.00000
      3       2.1473      2.00000
      4       2.1540      2.00000
      5       3.7694      2.00000
      6       4.0059      2.00000
      7      23.2765      0.00000
      8      25.8608      0.00000
      9      27.5013      0.00000
     10      27.8287      0.00000
     11      33.8046      0.00000
     12      36.1000      0.00000

 k-point    11 :       0.1500    0.1500    0.0500
  band No.  band energies     occupation 
      1      -3.0956      2.00000
      2       1.5386      2.00000
      3       2.3951      2.00000
      4       2.4007      2.00000
      5       3.4847      2.00000
      6       4.1450      2.00000
      7      23.8937      0.00000
      8      24.9668      0.00000
      9      27.0507      0.00000
     10      27.5532      0.00000
     11      33.5695      0.00000
     12      34.9020      0.00000

 k-point    12 :       0.2500    0.1500    0.0500
  band No.  band energies     occupation 
      1      -2.1797      2.00000
      2       1.2244      2.00000
      3       2.5092      2.00000
      4       2.7458      2.00000
      5       3.4137      2.00000
      6       4.4207      2.00000
      7      22.6855      0.00000
      8      24.4137      0.00000
      9      26.4896      0.00000
     10      27.8261      0.00000
     11      31.4986      0.00000
     12      34.0460      0.00000

 k-point    13 :       0.3500    0.1500    0.0500
  band No.  band energies     occupation 
      1      -1.0922      2.00000
      2       1.3231      2.00000
      3       2.1220      2.00000
      4       2.7549      2.00000
      5       4.2326      2.00000
      6       5.1397      2.00000
      7      18.7365      0.00000
      8      23.8944      0.00000
      9      25.4830      0.00000
     10      28.0287      0.00000
     11      31.9731      0.00000
     12      33.4938      0.00000

 k-point    14 :       0.4500    0.1500    0.0500
  band No.  band energies     occupation 
      1      -0.7234      2.00000
      2       1.7381      2.00000
      3       2.3872      2.00000
      4       2.5935      2.00000
      5       5.2011      2.00000
      6       6.4561      2.00000
      7      14.5362      0.00000
      8      23.0391      0.00000
      9      24.3712      0.00000
     10      26.7280      0.00000
     11      33.5761      0.00000
     12      35.0595      0.00000

 k-point    15 :      -0.4500    0.1500    0.0500
  band No.  band energies     occupation 
      1      -0.7179      2.00000
      2       1.5777      2.00000
      3       2.3756      2.00000
      4       3.4337      2.00000
      5       5.4375      2.00000
      6       8.3311     -0.00001
      7      11.4196     -0.00000
      8      22.5147      0.00000
      9      24.0504      0.00000
     10      25.6615      0.00000
     11      34.4335      0.00000
     12      35.4012      0.00000

 k-point    16 :      -0.3500    0.1500    0.0500
  band No.  band energies     occupation 
      1      -0.6874      2.00000
      2       1.6810      2.00000
      3       2.4063      2.00000
      4       3.0251      2.00000
      5       5.0185      2.00000
      6       7.2427      2.02088
      7      13.3428      0.00000
      8      22.5031      0.00000
      9      24.0986      0.00000
     10      26.8598      0.00000
     11      33.2586      0.00000
     12      35.1524      0.00000

 k-point    17 :      -0.2500    0.1500    0.0500
  band No.  band energies     occupation 
      1      -0.8400      2.00000
      2       1.6708      2.00000
      3       2.0449      2.00000
      4       2.6453      2.00000
      5       4.1317      2.00000
      6       5.7916      2.00000
      7      17.3476      0.00000
      8      23.0043      0.00000
      9      25.1645      0.00000
     10      29.0146      0.00000
     11      31.1780      0.00000
     12      34.1698      0.00000

 k-point    18 :      -0.1500    0.1500    0.0500
  band No.  band energies     occupation 
      1      -1.7859      2.00000
      2       1.2770      2.00000
      3       2.3720      2.00000
      4       2.7753      2.00000
      5       3.4059      2.00000
      6       4.7469      2.00000
      7      21.2905      0.00000
      8      23.7195      0.00000
      9      26.9492      0.00000
     10      28.0364      0.00000
     11      32.0333      0.00000
     12      33.4652      0.00000

 k-point    19 :      -0.0500    0.1500    0.0500
  band No.  band energies     occupation 
      1      -2.8621      2.00000
      2       1.5410      2.00000
      3       2.3963      2.00000
      4       2.4121      2.00000
      5       3.5358      2.00000
      6       4.1537      2.00000
      7      23.5582      0.00000
      8      24.1306      0.00000
      9      27.0915      0.00000
     10      28.9404      0.00000
     11      31.8239      0.00000
     12      35.0177      0.00000

 k-point    20 :       0.2500    0.2500    0.0500
  band No.  band energies     occupation 
      1      -1.5817      2.00000
      2       0.7793      2.00000
      3       2.6886      2.00000
      4       3.2217      2.00000
      5       3.4557      2.00000
      6       4.5770      2.00000
      7      23.2963      0.00000
      8      24.6077      0.00000
      9      25.2395      0.00000
     10      26.1859      0.00000
     11      28.7596      0.00000
     12      35.0935      0.00000

 k-point    21 :       0.3500    0.2500    0.0500
  band No.  band energies     occupation 
      1      -0.7306      2.00000
      2       0.5014      2.00000
      3       2.3603      2.00000
      4       3.6555      2.00000
      5       4.2683      2.00000
      6       5.1701      2.00000
      7      20.5324      0.00000
      8      22.5986      0.00000
      9      24.1578      0.00000
     10      27.0699      0.00000
     11      28.6694      0.00000
     12      35.2382      0.00000

 k-point    22 :       0.4500    0.2500    0.0500
  band No.  band energies     occupation 
      1      -0.2608      2.00000
      2       0.8083      2.00000
      3       2.0557      2.00000
      4       3.4856      2.00000
      5       5.3186      2.00000
      6       6.7831      2.00000
      7      16.1802      0.00000
      8      21.9053      0.00000
      9      22.3519      0.00000
     10      26.5857      0.00000
     11      31.9617      0.00000
     12      35.4484      0.00000

 k-point    23 :      -0.4500    0.2500    0.0500
  band No.  band energies     occupation 
      1      -0.1307      2.00000
      2       1.1161      2.00000
      3       2.2863      2.00000
      4       3.2321      2.00000
      5       5.4822      2.00000
      6       9.5077     -0.00000
      7      12.3305     -0.00000
      8      20.5679      0.00000
      9      22.4470      0.00000
     10      25.9216      0.00000
     11      34.5415      0.00000
     12      36.5567      0.00000

 k-point    24 :      -0.3500    0.2500    0.0500
  band No.  band energies     occupation 
      1       0.0870      2.00000
      2       1.2014      2.00000
      3       2.2938      2.00000
      4       3.0998      2.00000
      5       4.9639      2.00000
      6       9.3373     -0.00000
      7      12.9910     -0.00000
      8      19.4013      0.00000
      9      23.6770      0.00000
     10      26.1213      0.00000
     11      33.4760      0.00000
     12      36.0510      0.00000

 k-point    25 :      -0.2500    0.2500    0.0500
  band No.  band energies     occupation 
      1       0.2178      2.00000
      2       1.3207      2.00000
      3       1.6034      2.00000
      4       3.1983      2.00000
      5       4.0832      2.00000
      6       7.4376      2.03551
      7      16.5759      0.00000
      8      19.3858      0.00000
      9      24.6682      0.00000
     10      28.0938      0.00000
     11      30.8549      0.00000
     12      36.0116      0.00000

 k-point    26 :      -0.1500    0.2500    0.0500
  band No.  band energies     occupation 
      1      -0.6339      2.00000
      2       1.1769      2.00000
      3       2.0138      2.00000
      4       3.0536      2.00000
      5       3.5779      2.00000
      6       5.9084      2.00000
      7      18.8165      0.00000
      8      21.7621      0.00000
      9      25.5912      0.00000
     10      28.8133      0.00000
     11      30.7628      0.00000
     12      34.8239      0.00000

 k-point    27 :      -0.0500    0.2500    0.0500
  band No.  band energies     occupation 
      1      -1.7075      2.00000
      2       1.4951      2.00000
      3       2.3393      2.00000
      4       2.5351      2.00000
      5       3.8153      2.00000
      6       4.6546      2.00000
      7      19.9413      0.00000
      8      24.1708      0.00000
      9      27.0046      0.00000
     10      29.2160      0.00000
     11      31.6888      0.00000
     12      32.7409      0.00000

 k-point    28 :       0.3500    0.3500    0.0500
  band No.  band energies     occupation 
      1      -0.6377      2.00000
      2       0.0342      2.00000
      3       3.4032      2.00000
      4       4.3298      2.00000
      5       4.8124      2.00000
      6       5.1089      2.00000
      7      20.4861      0.00000
      8      21.3678      0.00000
      9      21.9429      0.00000
     10      25.9530      0.00000
     11      27.9118      0.00000
     12      37.7195      0.00000

 k-point    29 :       0.4500    0.3500    0.0500
  band No.  band energies     occupation 
      1      -0.5104      2.00000
      2      -0.0979      2.00000
      3       3.4798      2.00000
      4       4.7019      2.00000
      5       5.3354      2.00000
      6       6.7859      2.00000
      7      17.5034      0.00000
      8      19.6448      0.00000
      9      20.2899      0.00000
     10      27.0658      0.00000
     11      29.0813      0.00000
     12      37.3641      0.00000

 k-point    30 :      -0.4500    0.3500    0.0500
  band No.  band energies     occupation 
      1      -0.3217      2.00000
      2       0.2790      2.00000
      3       3.0432      2.00000
      4       4.3174      2.00000
      5       5.6097      2.00000
      6       9.7554     -0.00000
      7      13.9104      0.00000
      8      18.0162      0.00000
      9      20.3204      0.00000
     10      27.2237      0.00000
     11      32.0243      0.00000
     12      36.3499      0.00000

 k-point    31 :      -0.3500    0.3500    0.0500
  band No.  band energies     occupation 
      1       0.0382      2.00000
      2       0.8899      2.00000
      3       2.3740      2.00000
      4       3.8927      2.00000
      5       5.1865      2.00000
      6      11.0849     -0.00000
      7      13.3689      0.00000
      8      16.2259      0.00000
      9      21.8738      0.00000
     10      26.7746      0.00000
     11      34.8253      0.00000
     12      35.7939      0.00000

 k-point    32 :      -0.2500    0.3500    0.0500
  band No.  band energies     occupation 
      1       0.4121      2.00000
      2       1.2464      2.00000
      3       1.7626      2.00000
      4       3.4396      2.00000
      5       4.6552      2.00000
      6       9.1852     -0.00000
      7      14.9751      0.00000
      8      17.2281      0.00000
      9      23.7749      0.00000
     10      26.5665      0.00000
     11      32.9071      0.00000
     12      36.2417      0.00000

 k-point    33 :      -0.1500    0.3500    0.0500
  band No.  band energies     occupation 
      1      -0.2552      2.00000
      2       1.5521      2.00000
[...]
      1       0.0369      2.00000
      2       0.6801      2.00000
      3       2.2939      2.00000
      4       3.9898      2.00000
      5       5.4891      2.00000
      6      10.6972     -0.00000
      7      13.0803     -0.00000
      8      17.9450      0.00000
      9      20.2496      0.00000
     10      27.9489      0.00000
     11      33.3293      0.00000
     12      35.4587      0.00000

 k-point    94 :       0.4500    0.4500    0.2500
  band No.  band energies     occupation 
      1      -0.3619      2.00000
      2       1.2182      2.00000
      3       2.0805      2.00000
      4       3.0789      2.00000
      5       5.5628      2.00000
      6       7.1654      2.00538
      7      14.6646      0.00000
      8      22.3288      0.00000
      9      23.2160      0.00000
     10      25.5683      0.00000
     11      34.1385      0.00000
     12      35.3505      0.00000

 k-point    95 :      -0.4500    0.4500    0.2500
  band No.  band energies     occupation 
      1       0.0565      2.00000
      2       0.8848      2.00000
      3       1.9743      2.00000
      4       3.7063      2.00000
      5       5.3647      2.00000
      6       9.0590     -0.00000
      7      13.8836      0.00000
      8      19.8438      0.00000
      9      21.0503      0.00000
     10      27.4526      0.00000
     11      32.9612      0.00000
     12      35.8920      0.00000

 k-point    96 :      -0.3500    0.4500    0.2500
  band No.  band energies     occupation 
      1       0.4704      2.00000
      2       0.9891      2.00000
      3       1.5502      2.00000
      4       3.8433      2.00000
      5       5.5461      2.00000
      6      11.0866     -0.00000
      7      14.2878      0.00000
      8      16.3294      0.00000
      9      19.3658      0.00000
     10      30.2338      0.00000
     11      32.0053      0.00000
     12      36.0643      0.00000

 k-point    97 :      -0.2500    0.4500    0.2500
  band No.  band energies     occupation 
      1       0.3186      2.00000
      2       0.9965      2.00000
      3       1.7407      2.00000
      4       3.7860      2.00000
      5       5.8311      2.00000
      6      12.5444     -0.00000
      7      13.8647      0.00000
      8      15.3516      0.00000
      9      18.3252      0.00000
     10      31.1336      0.00000
     11      32.6482      0.00000
     12      34.5030      0.00000

 k-point    98 :      -0.4500   -0.4500    0.2500
  band No.  band energies     occupation 
      1      -0.2135      2.00000
      2       0.6346      2.00000
      3       2.7263      2.00000
      4       3.9099      2.00000
      5       5.5125      2.00000
      6      10.5340     -0.00000
      7      12.6377     -0.00000
      8      18.1305      0.00000
      9      21.6034      0.00000
     10      26.3113      0.00000
     11      33.8426      0.00000
     12      36.3791      0.00000

 k-point    99 :      -0.3500   -0.4500    0.2500
  band No.  band energies     occupation 
      1      -0.0203      2.00000
      2       0.5963      2.00000
      3       2.5422      2.00000
      4       4.0949      2.00000
      5       5.5595      2.00000
      6      12.0647     -0.00000
      7      12.8075     -0.00000
      8      16.1791      0.00000
      9      19.9188      0.00000
     10      28.3252      0.00000
     11      33.7875      0.00000
     12      34.8596      0.00000

 k-point   100 :      -0.3500   -0.3500    0.2500
  band No.  band energies     occupation 
      1      -0.2436      2.00000
      2       0.5263      2.00000
      3       2.9658      2.00000
      4       4.2359      2.00000
      5       5.3543      2.00000
      6      11.8481     -0.00000
      7      12.4278     -0.00000
      8      16.2902      0.00000
      9      21.2881      0.00000
     10      26.6504      0.00000
     11      33.8144      0.00000
     12      36.5392      0.00000

 k-point   101 :       0.3500    0.3500    0.3500
  band No.  band energies     occupation 
      1      -1.2924      2.00000
      2       2.1418      2.00000
      3       2.1418      2.00000
      4       3.0790      2.00000
      5       4.8455      2.00000
      6       4.8455      2.00000
      7      15.6825      0.00000
      8      22.9988      0.00000
      9      28.0048      0.00000
     10      28.0048      0.00000
     11      33.1650      0.00000
     12      33.3159      0.00000

 k-point   102 :       0.4500    0.3500    0.3500
  band No.  band energies     occupation 
      1      -0.9109      2.00000
      2       1.9043      2.00000
      3       2.2770      2.00000
      4       3.0105      2.00000
      5       4.7028      2.00000
      6       6.2928      2.00000
      7      14.5051      0.00000
      8      22.8083      0.00000
      9      24.9436      0.00000
     10      27.9951      0.00000
     11      32.5025      0.00000
     12      34.4937      0.00000

 k-point   103 :      -0.4500    0.3500    0.3500
  band No.  band energies     occupation 
      1      -0.0966      2.00000
      2       1.4141      2.00000
      3       2.3778      2.00000
      4       2.8433      2.00000
      5       4.6719      2.00000
      6       8.2663     -0.00006
      7      13.8968      0.00000
      8      20.1785      0.00000
      9      24.6317      0.00000
     10      26.2169      0.00000
     11      32.7912      0.00000
     12      35.5059      0.00000

 k-point   104 :      -0.3500    0.3500    0.3500
  band No.  band energies     occupation 
      1       0.1840      2.00000
      2       1.1759      2.00000
      3       2.0960      2.00000
      4       3.6213      2.00000
      5       4.8620      2.00000
      6      10.0459     -0.00000
      7      14.2278      0.00000
      8      16.5247      0.00000
      9      23.6666      0.00000
     10      25.7322      0.00000
     11      34.4722      0.00000
     12      35.9329      0.00000

 k-point   105 :       0.4500    0.4500    0.3500
  band No.  band energies     occupation 
      1      -0.9239      2.00000
      2       1.7884      2.00000
      3       2.2801      2.00000
      4       3.2761      2.00000
      5       5.4824      2.00000
      6       6.5068      2.00000
      7      13.1882      0.00000
      8      22.7315      0.00000
      9      25.4333      0.00000
     10      26.0638      0.00000
     11      34.3891      0.00000
     12      34.9718      0.00000

 k-point   106 :      -0.4500    0.4500    0.3500
  band No.  band energies     occupation 
      1      -0.3848      2.00000
      2       1.3923      2.00000
      3       2.6157      2.00000
      4       2.8402      2.00000
      5       5.2826      2.00000
      6       8.5553     -0.00000
      7      12.3090     -0.00000
      8      22.1569      0.00000
      9      22.8887      0.00000
     10      26.2264      0.00000
     11      33.7266      0.00000
     12      36.0313      0.00000

 k-point   107 :      -0.3500    0.4500    0.3500
  band No.  band energies     occupation 
      1       0.3032      2.00000
      2       0.9573      2.00000
      3       2.0837      2.00000
      4       3.4224      2.00000
      5       5.2262      2.00000
      6      10.6881     -0.00000
      7      12.2043     -0.00000
      8      18.7543      0.00000
      9      21.7149      0.00000
     10      27.2561      0.00000
     11      33.4384      0.00000
     12      37.4971      0.00000

 k-point   108 :      -0.4500   -0.4500    0.3500
  band No.  band energies     occupation 
      1      -0.2608      2.00000
      2       1.2769      2.00000
      3       2.6393      2.00000
      4       2.8834      2.00000
      5       5.4129      2.00000
      6       9.8091     -0.00000
      7      11.3379     -0.00000
      8      20.9201      0.00000
      9      24.0769      0.00000
     10      24.7629      0.00000
     11      35.2103      0.00000
     12      35.4123      0.00000

 k-point   109 :       0.4500    0.4500    0.4500
  band No.  band energies     occupation 
      1      -1.2218      2.00000
      2       1.9631      2.00000
      3       1.9631      2.00000
      4       5.3166      2.00000
      5       5.4102      2.00000
      6       5.4102      2.00000
      7      12.1238     -0.00000
      8      22.2039      0.00000
      9      26.5321      0.00000
     10      26.5321      0.00000
     11      34.3972      0.00000
     12      34.3972      0.00000

 k-point   110 :      -0.4500    0.4500    0.4500
  band No.  band energies     occupation 
      1      -0.9226      2.00000
      2       1.7333      2.00000
      3       2.1808      2.00000
      4       3.9500      2.00000
      5       5.3808      2.00000
      6       7.6621      0.69691
      7      11.4704     -0.00000
      8      22.4207      0.00000
      9      24.8296      0.00000
     10      25.9800      0.00000
     11      34.5612      0.00000
     12      34.8568      0.00000


--------------------------------------------------------------------------------------------------------


 soft charge-density along one line, spin component           1
         0         1         2         3         4         5         6         7         8         9
 total charge-density along one line
 
 pseudopotential strength for first ion, spin component:           1
 -9.163   0.000   0.000   0.000   0.000   0.000   0.000   0.000   0.000   0.000  -0.188   0.000  -0.000   0.000  -0.000   0.000
  0.000   0.000  -9.163   0.000  -0.000   0.000   0.000   0.000   0.000   0.000  -0.000   0.000  -0.188   0.000   0.000   0.000
  0.000   0.000  -0.000   0.000  -9.142   0.000  -0.000   0.000  -0.000   0.000  -0.000   0.000   0.000   0.000  -0.191   0.000
  0.000   0.000   0.000   0.000  -0.000   0.000  -9.163   0.000  -0.000   0.000  -0.000   0.000  -0.000   0.000   0.000   0.000
  0.000   0.000   0.000   0.000  -0.000   0.000  -0.000   0.000  -9.142   0.000  -0.000   0.000  -0.000   0.000   0.000   0.000
 -0.188   0.000  -0.000   0.000  -0.000   0.000  -0.000   0.000  -0.000   0.000   0.296   0.000   0.000   0.000   0.000   0.000
 -0.000   0.000  -0.188   0.000   0.000   0.000  -0.000   0.000  -0.000   0.000   0.000   0.000   0.296   0.000  -0.000   0.000
 -0.000   0.000   0.000   0.000  -0.191   0.000   0.000   0.000   0.000   0.000   0.000   0.000  -0.000   0.000   0.297   0.000
 -0.000   0.000  -0.000   0.000   0.000   0.000  -0.188   0.000   0.000   0.000   0.000   0.000   0.000   0.000  -0.000   0.000
 -0.000   0.000  -0.000   0.000   0.000   0.000   0.000   0.000  -0.191   0.000   0.000   0.000   0.000   0.000  -0.000   0.000
  0.000   0.000   0.000   0.000  -0.000   0.000   0.000   0.000  -0.000   0.000   0.000   0.000   0.000   0.000  -0.000   0.000
 -0.000   0.000  -0.000   0.000   0.000   0.000  -0.000   0.000   0.000   0.000   0.000   0.000   0.000   0.000   0.000   0.000
 -0.000   0.000  -0.000   0.000   0.000   0.000   0.000   0.000   0.000   0.000   0.000   0.000   0.000   0.000  -0.000   0.000
  0.000   0.000  -0.000   0.000  -0.000   0.000  -0.000   0.000  -0.000   0.000  -0.000   0.000   0.000   0.000   0.000   0.000
 -0.000   0.000   0.000   0.000   0.000   0.000  -0.000   0.000  -0.000   0.000   0.000   0.000  -0.000   0.000  -0.000   0.000
  0.000   0.000   0.000   0.000  -0.000   0.000  -0.000   0.000  -0.000   0.000  -0.000   0.000  -0.000   0.000   0.000   0.000
 -0.000   0.000   0.000   0.000   0.000   0.000   0.000   0.000   0.000   0.000   0.000   0.000  -0.000   0.000  -0.000   0.000
  0.000   0.000  -0.000   0.000  -0.000   0.000   0.000   0.000   0.000   0.000  -0.000   0.000   0.000   0.000   0.000   0.000
 total augmentation occupancy for first ion, spin component:           1
  1.908   0.000  -0.000   0.000  -0.000   0.015  -0.000  -0.000  -0.000  -0.000   0.000  -0.000   0.000   0.000   0.000   0.000
  0.000   1.908  -0.000   0.000   0.000  -0.000   0.015   0.000  -0.000  -0.000  -0.000   0.000   0.000   0.000   0.000   0.000
 -0.000  -0.000   1.958   0.000   0.000  -0.000  -0.000  -0.042   0.000  -0.000   0.000   0.000   0.000   0.000   0.000   0.000
  0.000   0.000   0.000   1.908  -0.000  -0.000  -0.000   0.000   0.015   0.000   0.000  -0.000   0.000   0.000   0.000   0.000
 -0.000   0.000   0.000  -0.000   1.958  -0.000   0.000   0.000   0.000  -0.042  -0.000  -0.000   0.000   0.000   0.000   0.000
  0.015  -0.000  -0.000  -0.000  -0.000   0.335  -0.000   0.000   0.000   0.000   0.000  -0.000   0.000   0.000   0.000   0.000
 -0.000   0.015  -0.000  -0.000  -0.000   0.000   0.335   0.000  -0.000   0.000  -0.000   0.000   0.000   0.000   0.000   0.000
 -0.000  -0.000  -0.042   0.000   0.000   0.000   0.000   0.264   0.000   0.000   0.000  -0.000   0.000   0.000   0.000   0.000
 -0.000  -0.000   0.000   0.015   0.000   0.000  -0.000  -0.000   0.335  -0.000  -0.000  -0.000   0.000   0.000   0.000   0.000
  0.000   0.000  -0.000   0.000  -0.042   0.000   0.000   0.000  -0.000   0.264  -0.000   0.000   0.000   0.000   0.000   0.000
  0.000  -0.000   0.000   0.000  -0.000   0.000  -0.000   0.000  -0.000  -0.000   1.163  -0.495   0.000   0.000   0.000   0.000
 -0.000   0.000   0.000  -0.000   0.000   0.000   0.000  -0.000   0.000  -0.000  -0.495   0.375   0.000   0.000   0.000   0.000
  0.000   0.000   0.000   0.000   0.000   0.000   0.000   0.000   0.000   0.000   0.000   0.000   0.225   0.000   0.000  -0.017
  0.000   0.000   0.000   0.000   0.000   0.000   0.000   0.000   0.000   0.000   0.000   0.000   0.000   0.225  -0.000   0.000
  0.000   0.000   0.000   0.000   0.000   0.000   0.000   0.000   0.000   0.000   0.000   0.000   0.000  -0.000   0.225   0.000
  0.000   0.000   0.000   0.000   0.000   0.000   0.000   0.000   0.000   0.000   0.000   0.000  -0.017   0.000   0.000   0.002
  0.000   0.000   0.000   0.000   0.000   0.000   0.000   0.000   0.000   0.000   0.000   0.000   0.000  -0.017   0.000   0.000
  0.000   0.000   0.000   0.000   0.000   0.000   0.000   0.000   0.000   0.000   0.000   0.000   0.000   0.000  -0.017   0.000


------------------------ aborting loop because EDIFF is reached ----------------------------------------


    CHARGE:  cpu time    0.0032: real time    0.0032
    FORLOC:  cpu time    0.0001: real time    0.0001
    FORNL :  cpu time    0.0078: real time    0.0077
    STRESS:  cpu time    0.0506: real time    0.0508
    FORCOR:  cpu time    0.0007: real time    0.0007
    FORHAR:  cpu time    0.0004: real time    0.0004
    MIXING:  cpu time    0.0004: real time    0.0003
    OFIELD:  cpu time    0.0000: real time    0.0000

  FORCE on cell =-STRESS in cart. coord.  units (eV):
  Direction    XX          YY          ZZ          XY          YZ          ZX
  --------------------------------------------------------------------------------------
  Alpha Z   123.93192   123.93192   123.93192
  Ewald    -341.39085  -341.39085  -341.39085    -0.00000    -0.00000     0.00000
  Hartree    31.57846    31.57846    31.57846     0.00001     0.00001     0.00001
  E(xc)     -49.75374   -49.75374   -49.75374    -0.00000    -0.00000    -0.00000
  Local      86.74927    86.74927    86.74927    -0.00015    -0.00015    -0.00015
  n-local   -46.22011   -42.98864   -46.90901     0.63518    -0.63150     0.03007
  augment    42.15404    42.15404    42.15404    -0.00038    -0.00038    -0.00038
  Kinetic   154.76553   153.78496   155.91356    -0.22379     0.08535     0.02957
  Fock        0.00000     0.00000     0.00000     0.00000     0.00000     0.00000
  -------------------------------------------------------------------------------------
  Total       2.71786     2.71786     2.71786     0.00000     0.00000     0.00000
  in kB     293.63227   293.63227   293.63227     0.00000     0.00000     0.00000
  external pressure =      293.63 kB  Pullay stress =        0.00 kB


 VOLUME and BASIS-vectors are now :
 -----------------------------------------------------------------------------
  energy-cutoff  :      229.87
  volume of cell :       14.83
      direct lattice vectors                 reciprocal lattice vectors
     0.000000000  1.950000000  1.950000000    -0.256410256  0.256410256  0.256410256
     1.950000000  0.000000000  1.950000000     0.256410256 -0.256410256  0.256410256
     1.950000000  1.950000000  0.000000000     0.256410256  0.256410256 -0.256410256

  length of vectors
     2.757716447  2.757716447  2.757716447     0.444115592  0.444115592  0.444115592


 FORCES acting on ions
    electron-ion (+dipol)            ewald-force                    non-local-force                 convergence-correction
 -----------------------------------------------------------------------------------------------
   0.930E-14 0.148E-13 0.128E-13   -.429E-15 -.541E-15 -.121E-14   -.331E-23 0.993E-23 0.000E+00   0.242E-13 -.680E-14 0.602E-14
 -----------------------------------------------------------------------------------------------
   0.930E-14 0.148E-13 0.128E-13   -.429E-15 -.541E-15 -.121E-14   -.331E-23 0.993E-23 0.000E+00   0.242E-13 -.680E-14 0.602E-14
 
 
 POSITION                                       TOTAL-FORCE (eV/Angst)
 -----------------------------------------------------------------------------------
      0.00000      0.00000      0.00000         0.000000      0.000000      0.000000
 -----------------------------------------------------------------------------------
    total drift:                                0.000000      0.000000      0.000000


--------------------------------------------------------------------------------------------------------



  FREE ENERGIE OF THE ION-ELECTRON SYSTEM (eV)
  ---------------------------------------------------
  free  energy   TOTEN  =        -4.22023697 eV

  energy  without entropy=       -4.22000625  energy(sigma->0) =       -4.22016006
 


--------------------------------------------------------------------------------------------------------


    POTLOK:  cpu time    0.0030: real time    0.0030


--------------------------------------------------------------------------------------------------------


 writing wavefunctions
     LOOP+:  cpu time    2.3569: real time    2.4203
    4ORBIT:  cpu time    0.0000: real time    0.0000

volume of typ            1:    95.9 %
 
total charge     
 
# of ion       s       p       d       tot
------------------------------------------
    1        0.650   0.609   8.916  10.174
 
orbital moment (x)
 
# of ion     s             p             d             tot
-----------------------------------------------------------------
    1     0.000000E+00  0.182592E-08 -0.105206E-07 -0.869464E-08
 
orbital moment (y)
 
# of ion     s             p             d             tot
-----------------------------------------------------------------
    1     0.000000E+00  0.422567E-08 -0.261290E-10  0.419954E-08
 
orbital moment (z)
 
# of ion     s             p             d             tot
-----------------------------------------------------------------
    1     0.000000E+00  0.330840E-08 -0.494887E-08 -0.164048E-08
 

 total amount of memory used by VASP MPI-rank0    33159. kBytes
=======================================================================

   base      :      30000. kBytes
   nonl-proj :       2029. kBytes
   fftplans  :        142. kBytes
   grid      :        192. kBytes
   one-center:         15. kBytes
   wavefun   :        781. kBytes
 
  
  
 General timing and accounting informations for this job:
 ========================================================
  
                  Total CPU time used (sec):        2.983
                            User time (sec):        2.402
                          System time (sec):        0.580
                         Elapsed time (sec):        3.106
  
                   Maximum memory used (kb):       54620.
                   Average memory used (kb):           0.
  
                          Minor page faults:        21227
                          Major page faults:            0
                 Voluntary context switches:         1788
