PROCAR new format
# of k-points:  110         # of bands:   12         # of ions:    1

 k-point     1 :    0.05000000 0.05000000 0.05000000     weight = 0.00200000

band     1 # energy   -3.86655638 # occ.  2.00000000
 
ion      s      p      d    tot
    1  0.775  0.006  0.000  0.781
 
band     2 # energy    1.95222359 # occ.  2.00000000
 
ion      s      p      d    tot
    1  0.000  0.002  0.962  0.963
 
band     3 # energy    2.03142500 # occ.  2.00000000
 
ion      s      p      d    tot
    1  0.000  0.000  0.964  0.965
 
band     4 # energy    2.03142500 # occ.  2.00000000
 
ion      s      p      d    tot
    1  0.000  0.000  0.964  0.965
 
band     5 # energy    3.93433689 # occ.  2.00000000
 
ion      s      p      d    tot
    1  0.000  0.000  0.974  0.974
 
band     6 # energy    3.93433689 # occ.  2.00000000
 
ion      s      p      d    tot
    1  0.000  0.000  0.974  0.974
 
band     7 # energy   22.93708970 # occ.  0.00000000
 
ion      s      p      d    tot
    1  0.000  0.000  0.011  0.011
 
band     8 # energy   26.80328650 # occ.  0.00000000
 
ion      s      p      d    tot
    1  0.012  0.170  0.012  0.194
 
band     9 # energy   27.62984917 # occ.  0.00000000
 
ion      s      p      d    tot
    1  0.000  0.186  0.009  0.194
 
band    10 # energy   27.62984917 # occ.  0.00000000
 
ion      s      p      d    tot
    1  0.000  0.186  0.009  0.194
 
band    11 # energy   32.77055969 # occ.  0.00000000
 
ion      s      p      d    tot
    1  0.041  0.044  0.008  0.093
 
band    12 # energy   37.05879900 # occ.  0.00000000
 
ion      s      p      d    tot
    1  0.008  0.177  0.473  0.658
 

 k-point     2 :    0.15000000 0.05000000 0.05000000     weight = 0.00600000

band     1 # energy   -3.35097739 # occ.  2.00000000
 
ion      s      p      d    tot
    1  0.741  0.037  0.005  0.783
 
band     2 # energy    1.75305747 # occ.  2.00000000
 
ion      s      p      d    tot
    1  0.001  0.008  0.946  0.955
 
band     3 # energy    2.20339750 # occ.  2.00000000
 
ion      s      p      d    tot
    1  0.000  0.000  0.963  0.963
 
band     4 # energy    2.24169061 # occ.  2.00000000
 
ion      s      p      d    tot
    1  0.001  0.006  0.955  0.962
 
band     5 # energy    3.73778867 # occ.  2.00000000
 
ion      s      p      d    tot
    1  0.000  0.000  0.967  0.967
 
band     6 # energy    3.99388672 # occ.  2.00000000
 
ion      s      p      d    tot
    1  0.001  0.000  0.970  0.971
 
band     7 # energy   23.53047855 # occ.  0.00000000
 
ion      s      p      d    tot
    1  0.001  0.013  0.080  0.094
 
band     8 # energy   24.76485266 # occ.  0.00000000
 
ion      s      p      d    tot
    1  0.041  0.160  0.041  0.242
 
band     9 # energy   27.45875181 # occ.  0.00000000
 
ion      s      p      d    tot
    1  0.000  0.248  0.057  0.306
 
band    10 # energy   28.70736595 # occ.  0.00000000
 
ion      s      p      d    tot
    1  0.000  0.173  0.047  0.220
 
band    11 # energy   32.86304592 # occ.  0.00000000
 
ion      s      p      d    tot
    1  0.002  0.313  0.178  0.493
 
band    12 # energy   35.69059021 # occ.  0.00000000
 
ion      s      p      d    tot
    1  0.002  0.198  0.296  0.496
 

 k-point     3 :    0.25000000 0.05000000 0.05000000     weight = 0.00600000

band     1 # energy   -2.25419409 # occ.  2.00000000
 
ion      s      p      d    tot
    1  0.642  0.085  0.070  0.797
 
band     2 # energy    1.59459641 # occ.  2.00000000
 
ion      s      p      d    tot
    1  0.020  0.051  0.860  0.931
 
band     3 # energy    2.38570832 # occ.  2.00000000
 
ion      s      p      d    tot
    1  0.002  0.011  0.944  0.956
 
band     4 # energy    2.41584423 # occ.  2.00000000
 
ion      s      p      d    tot
    1  0.000  0.001  0.959  0.959
 
band     5 # energy    3.74192976 # occ.  2.00000000
 
ion      s      p      d    tot
    1  0.000  0.002  0.957  0.959
 
band     6 # energy    4.25770430 # occ.  2.00000000
 
ion      s      p      d    tot
    1  0.004  0.005  0.956  0.965
 
band     7 # energy   21.15081687 # occ.  0.00000000
 
ion      s      p      d    tot
    1  0.099  0.257  0.168  0.524
 
band     8 # energy   24.26266592 # occ.  0.00000000
 
ion      s      p      d    tot
    1  0.001  0.022  0.125  0.148
 
band     9 # energy   28.03726064 # occ.  0.00000000
 
ion      s      p      d    tot
    1  0.002  0.359  0.139  0.501
 
band    10 # energy   30.30066176 # occ.  0.00000000
 
ion      s      p      d    tot
    1  0.025  0.237  0.053  0.315
 
band    11 # energy   30.47998695 # occ.  0.00000000
 
ion      s      p      d    tot
    1  0.000  0.224  0.148  0.373
 
band    12 # energy   33.38678728 # occ.  0.00000000
 
ion      s      p      d    tot
    1  0.000  0.296  0.253  0.549
 

 k-point     4 :    0.35000000 0.05000000 0.05000000     weight = 0.00600000

band     1 # energy   -1.33044967 # occ.  2.00000000
 
ion      s      p      d    tot
    1  0.421  0.060  0.371  0.852
 
band     2 # energy    2.15426714 # occ.  2.00000000
 
ion      s      p      d    tot
    1  0.022  0.036  0.885  0.942
 
band     3 # energy    2.26762465 # occ.  2.00000000
 
ion      s      p      d    tot
    1  0.000  0.000  0.955  0.955
 
band     4 # energy    2.37579628 # occ.  2.00000000
 
ion      s      p      d    tot
    1  0.092  0.185  0.596  0.873
 
band     5 # energy    4.36309456 # occ.  2.00000000
 
ion      s      p      d    tot
    1  0.000  0.004  0.957  0.960
 
band     6 # energy    4.97268565 # occ.  2.00000000
 
ion      s      p      d    tot
    1  0.015  0.020  0.927  0.962
 
band     7 # energy   17.10480369 # occ.  0.00000000
 
ion      s      p      d    tot
    1  0.204  0.291  0.234  0.729
 
band     8 # energy   23.44794704 # occ.  0.00000000
 
ion      s      p      d    tot
    1  0.000  0.040  0.079  0.120
 
band     9 # energy   27.18011974 # occ.  0.00000000
 
ion      s      p      d    tot
    1  0.010  0.484  0.129  0.623
 
band    10 # energy   29.63165492 # occ.  0.00000000
 
ion      s      p      d    tot
    1  0.000  0.502  0.112  0.614
 
band    11 # energy   31.50840584 # occ.  0.00000000
 
ion      s      p      d    tot
    1  0.022  0.079  0.137  0.238
 
band    12 # energy   32.95306145 # occ.  0.00000000
 
ion      s      p      d    tot
    1  0.000  0.011  0.383  0.394
 

 k-point     5 :    0.45000000 0.05000000 0.05000000     weight = 0.00600000

band     1 # energy   -1.14073121 # occ.  2.00000000
 
ion      s      p      d    tot
    1  0.260  0.014  0.623  0.897
 
band     2 # energy    1.96648306 # occ.  2.00000000
 
ion      s      p      d    tot
    1  0.000  0.002  0.948  0.951
 
band     3 # energy    2.05461773 # occ.  2.00000000
 
ion      s      p      d    tot
    1  0.000  0.000  0.953  0.953
 
band     4 # energy    4.11446390 # occ.  2.00000000
 
ion      s      p      d    tot
    1  0.073  0.352  0.405  0.829
 
band     5 # energy    5.13145071 # occ.  2.00000000
 
ion      s      p      d    tot
    1  0.000  0.002  0.968  0.970
 
band     6 # energy    5.91515300 # occ.  2.00000000
 
ion      s      p      d    tot
    1  0.047  0.149  0.722  0.919
 
band     7 # energy   13.15687105 # occ.  0.00000000
 
ion      s      p      d    tot
    1  0.364  0.175  0.313  0.852
 
band     8 # energy   22.48213385 # occ.  0.00000000
 
ion      s      p      d    tot
    1  0.000  0.030  0.027  0.057
 
band     9 # energy   26.01238799 # occ.  0.00000000
 
ion      s      p      d    tot
    1  0.008  0.497  0.054  0.558
 
band    10 # energy   27.19644976 # occ.  0.00000000
 
ion      s      p      d    tot
    1  0.000  0.493  0.039  0.531
 
band    11 # energy   33.82717402 # occ.  0.00000000
 
ion      s      p      d    tot
    1  0.012  0.014  0.423  0.449
 
band    12 # energy   34.34304121 # occ.  0.00000000
 
ion      s      p      d    tot
    1  0.000  0.007  0.586  0.593
 

 k-point     6 :   -0.45000000 0.05000000 0.05000000     weight = 0.00600000

band     1 # energy   -1.14764028 # occ.  2.00000000
 
ion      s      p      d    tot
    1  0.230  0.005  0.671  0.906
 
band     2 # energy    1.88288087 # occ.  2.00000000
 
ion      s      p      d    tot
    1  0.000  0.001  0.948  0.949
 
band     3 # energy    2.00671255 # occ.  2.00000000
 
ion      s      p      d    tot
    1  0.000  0.001  0.951  0.952
 
band     4 # energy    4.70952365 # occ.  2.00000000
 
ion      s      p      d    tot
    1  0.003  0.258  0.615  0.876
 
band     5 # energy    5.50020957 # occ.  2.00000000
 
ion      s      p      d    tot
    1  0.000  0.000  0.977  0.977
 
band     6 # energy    6.61357507 # occ.  2.00000000
 
ion      s      p      d    tot
    1  0.007  0.438  0.374  0.819
 
band     7 # energy   11.49427019 # occ. -0.00000000
 
ion      s      p      d    tot
    1  0.501  0.014  0.399  0.914
 
band     8 # energy   22.21956998 # occ.  0.00000000
 
ion      s      p      d    tot
    1  0.000  0.027  0.015  0.042
 
band     9 # energy   26.02097528 # occ.  0.00000000
 
ion      s      p      d    tot
    1  0.008  0.490  0.032  0.529
 
band    10 # energy   26.12016919 # occ.  0.00000000
 
ion      s      p      d    tot
    1  0.000  0.503  0.016  0.519
 
band    11 # energy   34.59982312 # occ.  0.00000000
 
ion      s      p      d    tot
    1  0.000  0.000  0.592  0.592
 
band    12 # energy   34.70650923 # occ.  0.00000000
 
ion      s      p      d    tot
    1  0.001  0.001  0.607  0.609
 

 k-point     7 :   -0.35000000 0.05000000 0.05000000     weight = 0.00600000

band     1 # energy   -1.15729997 # occ.  2.00000000
 
ion      s      p      d    tot
    1  0.295  0.024  0.569  0.887
 
band     2 # energy    2.00447259 # occ.  2.00000000
 
ion      s      p      d    tot
    1  0.000  0.000  0.950  0.951
 
band     3 # energy    2.14524282 # occ.  2.00000000
 
ion      s      p      d    tot
    1  0.000  0.002  0.951  0.954
 
band     4 # energy    3.45025624 # occ.  2.00000000
 
ion      s      p      d    tot
    1  0.108  0.314  0.412  0.834
 
band     5 # energy    5.24013753 # occ.  2.00000000
 
ion      s      p      d    tot
    1  0.000  0.002  0.971  0.973
 
band     6 # energy    5.29359605 # occ.  2.00000000
 
ion      s      p      d    tot
    1  0.042  0.094  0.797  0.933
 
band     7 # energy   14.37905755 # occ.  0.00000000
 
ion      s      p      d    tot
    1  0.302  0.235  0.279  0.816
 
band     8 # energy   22.75310825 # occ.  0.00000000
 
ion      s      p      d    tot
    1  0.000  0.031  0.035  0.067
 
band     9 # energy   26.57573262 # occ.  0.00000000
 
ion      s      p      d    tot
    1  0.000  0.508  0.072  0.579
 
band    10 # energy   27.49530454 # occ.  0.00000000
 
ion      s      p      d    tot
    1  0.011  0.469  0.082  0.562
 
band    11 # energy   33.80021423 # occ.  0.00000000
 
ion      s      p      d    tot
    1  0.009  0.055  0.394  0.457
 
band    12 # energy   33.81875616 # occ.  0.00000000
 
ion      s      p      d    tot
    1  0.000  0.000  0.403  0.403
 

 k-point     8 :   -0.25000000 0.05000000 0.05000000     weight = 0.00600000

band     1 # energy   -1.55373238 # occ.  2.00000000
 
ion      s      p      d    tot
    1  0.503  0.079  0.247  0.829
 
band     2 # energy    1.88775315 # occ.  2.00000000
 
ion      s      p      d    tot
    1  0.075  0.133  0.688  0.896
 
band     3 # energy    2.28087070 # occ.  2.00000000
 
ion      s      p      d    tot
    1  0.003  0.013  0.931  0.948
 
band     4 # energy    2.36454366 # occ.  2.00000000
 
ion      s      p      d    tot
    1  0.000  0.004  0.953  0.957
 
band     5 # energy    4.24063459 # occ.  2.00000000
 
ion      s      p      d    tot
    1  0.012  0.017  0.926  0.955
 
band     6 # energy    4.59569973 # occ.  2.00000000
 
ion      s      p      d    tot
    1  0.000  0.003  0.963  0.966
 
band     7 # energy   18.49098942 # occ.  0.00000000
 
ion      s      p      d    tot
    1  0.164  0.294  0.214  0.672
 
band     8 # energy   23.86628890 # occ.  0.00000000
 
ion      s      p      d    tot
    1  0.000  0.034  0.097  0.131
 
band     9 # energy   27.78235855 # occ.  0.00000000
 
ion      s      p      d    tot
    1  0.000  0.474  0.171  0.646
 
band    10 # energy   29.70305250 # occ.  0.00000000
 
ion      s      p      d    tot
    1  0.029  0.365  0.129  0.523
 
band    11 # energy   31.30656441 # occ.  0.00000000
 
ion      s      p      d    tot
    1  0.002  0.229  0.138  0.369
 
band    12 # energy   33.03939614 # occ.  0.00000000
 
ion      s      p      d    tot
    1  0.000  0.026  0.191  0.217
 

 k-point     9 :   -0.15000000 0.05000000 0.05000000     weight = 0.00600000

band     1 # energy   -2.65321385 # occ.  2.00000000
 
ion      s      p      d    tot
    1  0.685  0.072  0.032  0.789
 
band     2 # energy    1.58509976 # occ.  2.00000000
 
ion      s      p      d    tot
    1  0.008  0.028  0.907  0.942
 
band     3 # energy    2.37906333 # occ.  2.00000000
 
ion      s      p      d    tot
    1  0.001  0.006  0.952  0.958
 
band     4 # energy    2.39499077 # occ.  2.00000000
 
ion      s      p      d    tot
    1  0.000  0.006  0.955  0.961
 
band     5 # energy    3.68766995 # occ.  2.00000000
 
ion      s      p      d    tot
    1  0.003  0.003  0.954  0.960
 
band     6 # energy    4.10391388 # occ.  2.00000000
 
ion      s      p      d    tot
    1  0.000  0.001  0.967  0.968
 
band     7 # energy   22.40302611 # occ.  0.00000000
 
ion      s      p      d    tot
    1  0.072  0.228  0.150  0.450
 
band     8 # energy   24.24959486 # occ.  0.00000000
 
ion      s      p      d    tot
    1  0.003  0.002  0.086  0.091
 
band     9 # energy   27.98173770 # occ.  0.00000000
 
ion      s      p      d    tot
    1  0.000  0.320  0.134  0.454
 
band    10 # energy   29.30016093 # occ.  0.00000000
 
ion      s      p      d    tot
    1  0.000  0.183  0.099  0.282
 
band    11 # energy   31.43769907 # occ.  0.00000000
 
ion      s      p      d    tot
    1  0.026  0.337  0.081  0.444
 
band    12 # energy   33.98332380 # occ.  0.00000000
 
ion      s      p      d    tot
    1  0.000  0.155  0.213  0.368
 

 k-point    10 :   -0.05000000 0.05000000 0.05000000     weight = 0.00600000

band     1 # energy   -3.60384990 # occ.  2.00000000
 
ion      s      p      d    tot
    1  0.758  0.022  0.001  0.782
 
band     2 # energy    1.81326832 # occ.  2.00000000
 
ion      s      p      d    tot
    1  0.000  0.002  0.957  0.959
 
band     3 # energy    2.14728449 # occ.  2.00000000
 
ion      s      p      d    tot
    1  0.000  0.003  0.960  0.963
 
band     4 # energy    2.15398336 # occ.  2.00000000
 
ion      s      p      d    tot
    1  0.000  0.003  0.960  0.963
 
band     5 # energy    3.76935610 # occ.  2.00000000
 
ion      s      p      d    tot
    1  0.000  0.000  0.968  0.969
 
band     6 # energy    4.00592343 # occ.  2.00000000
 
ion      s      p      d    tot
    1  0.000  0.000  0.974  0.974
 
band     7 # energy   23.27645605 # occ.  0.00000000
 
ion      s      p      d    tot
    1  0.000  0.001  0.040  0.041
 
band     8 # energy   25.86080024 # occ.  0.00000000
 
ion      s      p      d    tot
    1  0.028  0.153  0.031  0.213
 
band     9 # energy   27.50126210 # occ.  0.00000000
 
ion      s      p      d    tot
    1  0.000  0.223  0.039  0.262
 
band    10 # energy   27.82870977 # occ.  0.00000000
 
ion      s      p      d    tot
    1  0.001  0.190  0.033  0.225
 
band    11 # energy   33.80457291 # occ.  0.00000000
 
ion      s      p      d    tot
    1  0.009  0.188  0.079  0.275
 
band    12 # energy   36.10004924 # occ.  0.00000000
 
ion      s      p      d    tot
    1  0.026  0.140  0.288  0.454
 

 k-point    11 :    0.15000000 0.15000000 0.05000000     weight = 0.00600000

band     1 # energy   -3.09558236 # occ.  2.00000000
 
ion      s      p      d    tot
    1  0.724  0.053  0.007  0.783
 
band     2 # energy    1.53856772 # occ.  2.00000000
 
ion      s      p      d    tot
    1  0.000  0.002  0.951  0.953
 
band     3 # energy    2.39511192 # occ.  2.00000000
 
ion      s      p      d    tot
    1  0.000  0.008  0.952  0.960
 
band     4 # energy    2.40068787 # occ.  2.00000000
 
ion      s      p      d    tot
    1  0.000  0.008  0.953  0.961
 
band     5 # energy    3.48467580 # occ.  2.00000000
 
ion      s      p      d    tot
    1  0.004  0.002  0.954  0.959
 
band     6 # energy    4.14502603 # occ.  2.00000000
 
ion      s      p      d    tot
    1  0.000  0.000  0.973  0.973
 
band     7 # energy   23.89371805 # occ.  0.00000000
 
ion      s      p      d    tot
    1  0.001  0.010  0.102  0.113
 
band     8 # energy   24.96678139 # occ.  0.00000000
 
ion      s      p      d    tot
    1  0.043  0.136  0.062  0.241
 
band     9 # energy   27.05066341 # occ.  0.00000000
 
ion      s      p      d    tot
    1  0.000  0.299  0.099  0.398
 
band    10 # energy   27.55324185 # occ.  0.00000000
 
ion      s      p      d    tot
    1  0.002  0.227  0.089  0.318
 
band    11 # energy   33.56951910 # occ.  0.00000000
 
ion      s      p      d    tot
    1  0.030  0.398  0.116  0.544
 
band    12 # energy   34.90202562 # occ.  0.00000000
 
ion      s      p      d    tot
    1  0.000  0.158  0.253  0.412
 

 k-point    12 :    0.25000000 0.15000000 0.05000000     weight = 0.01200000

band     1 # energy   -2.17970179 # occ.  2.00000000
 
ion      s      p      d    tot
    1  0.649  0.100  0.041  0.790
 
band     2 # energy    1.22441236 # occ.  2.00000000
 
ion      s      p      d    tot
    1  0.001  0.012  0.930  0.944
 
band     3 # energy    2.50916605 # occ.  2.00000000
 
ion      s      p      d    tot
    1  0.000  0.011  0.940  0.952
 
band     4 # energy    2.74577155 # occ.  2.00000000
 
ion      s      p      d    tot
    1  0.000  0.010  0.948  0.958
 
band     5 # energy    3.41370226 # occ.  2.00000000
 
ion      s      p      d    tot
    1  0.015  0.014  0.921  0.951
 
band     6 # energy    4.42073639 # occ.  2.00000000
 
ion      s      p      d    tot
    1  0.003  0.003  0.964  0.970
 
band     7 # energy   22.68554466 # occ.  0.00000000
 
ion      s      p      d    tot
    1  0.077  0.229  0.142  0.447
 
band     8 # energy   24.41371430 # occ.  0.00000000
 
ion      s      p      d    tot
    1  0.003  0.113  0.223  0.339
 
band     9 # energy   26.48963276 # occ.  0.00000000
 
ion      s      p      d    tot
    1  0.000  0.292  0.097  0.390
 
band    10 # energy   27.82605296 # occ.  0.00000000
 
ion      s      p      d    tot
    1  0.005  0.197  0.155  0.358
 
band    11 # energy   31.49857601 # occ.  0.00000000
 
ion      s      p      d    tot
    1  0.083  0.435  0.017  0.535
 
band    12 # energy   34.04596902 # occ.  0.00000000
 
ion      s      p      d    tot
    1  0.014  0.232  0.197  0.443
 

 k-point    13 :    0.35000000 0.15000000 0.05000000     weight = 0.01200000

band     1 # energy   -1.09221373 # occ.  2.00000000
 
ion      s      p      d    tot
    1  0.468  0.108  0.251  0.827
 
band     2 # energy    1.32310588 # occ.  2.00000000
 
ion      s      p      d    tot
    1  0.046  0.084  0.781  0.912
 
band     3 # energy    2.12204392 # occ.  2.00000000
 
ion      s      p      d    tot
    1  0.001  0.008  0.930  0.940
 
band     4 # energy    2.75490322 # occ.  2.00000000
 
ion      s      p      d    tot
    1  0.002  0.011  0.942  0.954
 
band     5 # energy    4.23260992 # occ.  2.00000000
 
ion      s      p      d    tot
    1  0.027  0.038  0.882  0.947
 
band     6 # energy    5.13967743 # occ.  2.00000000
 
ion      s      p      d    tot
    1  0.026  0.026  0.911  0.963
 
band     7 # energy   18.73645406 # occ.  0.00000000
 
ion      s      p      d    tot
    1  0.162  0.318  0.202  0.682
 
band     8 # energy   23.89443858 # occ.  0.00000000
 
ion      s      p      d    tot
    1  0.001  0.153  0.208  0.363
 
band     9 # energy   25.48297551 # occ.  0.00000000
 
ion      s      p      d    tot
    1  0.017  0.368  0.118  0.502
 
band    10 # energy   28.02874102 # occ.  0.00000000
 
ion      s      p      d    tot
    1  0.033  0.223  0.193  0.448
 
band    11 # energy   31.97309389 # occ.  0.00000000
 
ion      s      p      d    tot
    1  0.025  0.445  0.021  0.491
 
band    12 # energy   33.49382226 # occ.  0.00000000
 
ion      s      p      d    tot
    1  0.010  0.017  0.242  0.270
 

 k-point    14 :    0.45000000 0.15000000 0.05000000     weight = 0.01200000

band     1 # energy   -0.72342776 # occ.  2.00000000
 
ion      s      p      d    tot
    1  0.254  0.045  0.589  0.888
 
band     2 # energy    1.73810928 # occ.  2.00000000
 
ion      s      p      d    tot
    1  0.000  0.014  0.917  0.931
 
band     3 # energy    2.38722213 # occ.  2.00000000
 
ion      s      p      d    tot
    1  0.048  0.133  0.720  0.901
 
band     4 # energy    2.59348382 # occ.  2.00000000
 
ion      s      p      d    tot
    1  0.029  0.074  0.821  0.925
 
band     5 # energy    5.20114815 # occ.  2.00000000
 
ion      s      p      d    tot
    1  0.005  0.021  0.938  0.965
 
band     6 # energy    6.45609995 # occ.  2.00000000
 
ion      s      p      d    tot
    1  0.097  0.155  0.664  0.916
 
band     7 # energy   14.53622417 # occ.  0.00000000
 
ion      s      p      d    tot
    1  0.289  0.266  0.246  0.801
 
band     8 # energy   23.03909877 # occ.  0.00000000
 
ion      s      p      d    tot
    1  0.000  0.081  0.135  0.216
 
band     9 # energy   24.37117466 # occ.  0.00000000
 
ion      s      p      d    tot
    1  0.025  0.469  0.116  0.610
 
band    10 # energy   26.72798916 # occ.  0.00000000
 
ion      s      p      d    tot
    1  0.022  0.414  0.143  0.579
 
band    11 # energy   33.57614893 # occ.  0.00000000
 
ion      s      p      d    tot
    1  0.002  0.070  0.229  0.300
 
band    12 # energy   35.05950808 # occ.  0.00000000
 
ion      s      p      d    tot
    1  0.008  0.049  0.416  0.473
 

 k-point    15 :   -0.45000000 0.15000000 0.05000000     weight = 0.01200000

band     1 # energy   -0.71791649 # occ.  2.00000000
 
ion      s      p      d    tot
    1  0.197  0.026  0.684  0.906
 
band     2 # energy    1.57767830 # occ.  2.00000000
 
ion      s      p      d    tot
    1  0.000  0.012  0.918  0.931
 
band     3 # energy    2.37557999 # occ.  2.00000000
 
ion      s      p      d    tot
    1  0.000  0.006  0.943  0.950
 
band     4 # energy    3.43366745 # occ.  2.00000000
 
ion      s      p      d    tot
    1  0.004  0.235  0.642  0.880
 
band     5 # energy    5.43752101 # occ.  2.00000000
 
ion      s      p      d    tot
    1  0.001  0.001  0.973  0.975
 
band     6 # energy    8.33105316 # occ. -0.00000726
 
ion      s      p      d    tot
    1  0.012  0.439  0.376  0.827
 
band     7 # energy   11.41962080 # occ. -0.00000000
 
ion      s      p      d    tot
    1  0.505  0.028  0.363  0.896
 
band     8 # energy   22.51466904 # occ.  0.00000000
 
ion      s      p      d    tot
    1  0.003  0.088  0.123  0.213
 
band     9 # energy   24.05038123 # occ.  0.00000000
 
ion      s      p      d    tot
    1  0.035  0.464  0.123  0.622
 
band    10 # energy   25.66153642 # occ.  0.00000000
 
ion      s      p      d    tot
    1  0.002  0.462  0.043  0.506
 
band    11 # energy   34.43351526 # occ.  0.00000000
 
ion      s      p      d    tot
    1  0.007  0.005  0.489  0.500
 
band    12 # energy   35.40116138 # occ.  0.00000000
 
ion      s      p      d    tot
    1  0.001  0.004  0.424  0.429
 

 k-point    16 :   -0.35000000 0.15000000 0.05000000     weight = 0.01200000

band     1 # energy   -0.68740078 # occ.  2.00000000
 
ion      s      p      d    tot
    1  0.226  0.037  0.635  0.898
 
band     2 # energy    1.68096167 # occ.  2.00000000
 
ion      s      p      d    tot
    1  0.000  0.010  0.925  0.935
 
band     3 # energy    2.40628730 # occ.  2.00000000
 
ion      s      p      d    tot
    1  0.000  0.008  0.940  0.949
 
band     4 # energy    3.02509325 # occ.  2.00000000
 
ion      s      p      d    tot
    1  0.046  0.242  0.579  0.867
 
band     5 # energy    5.01850966 # occ.  2.00000000
 
ion      s      p      d    tot
    1  0.001  0.011  0.953  0.965
 
band     6 # energy    7.24274023 # occ.  2.02087585
 
ion      s      p      d    tot
    1  0.112  0.202  0.585  0.899
 
band     7 # energy   13.34284006 # occ.  0.00000000
 
ion      s      p      d    tot
    1  0.338  0.215  0.281  0.834
 
band     8 # energy   22.50314635 # occ.  0.00000000
 
ion      s      p      d    tot
    1  0.007  0.178  0.169  0.354
 
band     9 # energy   24.09861842 # occ.  0.00000000
 
ion      s      p      d    tot
    1  0.029  0.357  0.063  0.449
 
band    10 # energy   26.85983046 # occ.  0.00000000
 
ion      s      p      d    tot
    1  0.003  0.469  0.095  0.566
 
band    11 # energy   33.25856007 # occ.  0.00000000
 
ion      s      p      d    tot
    1  0.008  0.033  0.298  0.339
 
band    12 # energy   35.15236032 # occ.  0.00000000
 
ion      s      p      d    tot
    1  0.000  0.014  0.490  0.505
 

 k-point    17 :   -0.25000000 0.15000000 0.05000000     weight = 0.01200000

band     1 # energy   -0.83995186 # occ.  2.00000000
 
ion      s      p      d    tot
    1  0.391  0.090  0.368  0.850
 
band     2 # energy    1.67075861 # occ.  2.00000000
 
ion      s      p      d    tot
    1  0.062  0.110  0.736  0.908
 
band     3 # energy    2.04487230 # occ.  2.00000000
 
ion      s      p      d    tot
    1  0.009  0.045  0.868  0.921
 
band     4 # energy    2.64531328 # occ.  2.00000000
 
ion      s      p      d    tot
    1  0.004  0.009  0.938  0.950
 
band     5 # energy    4.13171461 # occ.  2.00000000
 
ion      s      p      d    tot
    1  0.007  0.016  0.931  0.953
 
band     6 # energy    5.79155441 # occ.  2.00000000
 
ion      s      p      d    tot
    1  0.061  0.054  0.840  0.955
 
band     7 # energy   17.34757250 # occ.  0.00000000
 
ion      s      p      d    tot
    1  0.203  0.309  0.214  0.726
 
band     8 # energy   23.00430962 # occ.  0.00000000
 
ion      s      p      d    tot
    1  0.008  0.241  0.240  0.489
 
band     9 # energy   25.16445530 # occ.  0.00000000
 
ion      s      p      d    tot
    1  0.026  0.287  0.047  0.359
 
band    10 # energy   29.01458920 # occ.  0.00000000
 
ion      s      p      d    tot
    1  0.012  0.296  0.171  0.479
 
band    11 # energy   31.17797034 # occ.  0.00000000
 
ion      s      p      d    tot
    1  0.000  0.229  0.108  0.337
 
band    12 # energy   34.16984305 # occ.  0.00000000
 
ion      s      p      d    tot
    1  0.007  0.099  0.352  0.458
 

 k-point    18 :   -0.15000000 0.15000000 0.05000000     weight = 0.01200000

band     1 # energy   -1.78588572 # occ.  2.00000000
 
ion      s      p      d    tot
    1  0.611  0.114  0.072  0.796
 
band     2 # energy    1.27696755 # occ.  2.00000000
 
ion      s      p      d    tot
    1  0.004  0.030  0.905  0.939
 
band     3 # energy    2.37199536 # occ.  2.00000000
 
ion      s      p      d    tot
    1  0.002  0.018  0.926  0.946
 
band     4 # energy    2.77531100 # occ.  2.00000000
 
ion      s      p      d    tot
    1  0.000  0.004  0.954  0.957
 
band     5 # energy    3.40592793 # occ.  2.00000000
 
ion      s      p      d    tot
    1  0.006  0.008  0.938  0.952
 
band     6 # energy    4.74693052 # occ.  2.00000000
 
ion      s      p      d    tot
    1  0.017  0.015  0.933  0.965
 
band     7 # energy   21.29045718 # occ.  0.00000000
 
ion      s      p      d    tot
    1  0.114  0.253  0.149  0.515
 
band     8 # energy   23.71950898 # occ.  0.00000000
 
ion      s      p      d    tot
    1  0.003  0.226  0.291  0.520
 
band     9 # energy   26.94921913 # occ.  0.00000000
 
ion      s      p      d    tot
    1  0.008  0.237  0.047  0.292
 
band    10 # energy   28.03638359 # occ.  0.00000000
 
ion      s      p      d    tot
    1  0.020  0.182  0.078  0.280
 
band    11 # energy   32.03328134 # occ.  0.00000000
 
ion      s      p      d    tot
    1  0.012  0.092  0.172  0.276
 
band    12 # energy   33.46516198 # occ.  0.00000000
 
ion      s      p      d    tot
    1  0.016  0.585  0.150  0.751
 

 k-point    19 :   -0.05000000 0.15000000 0.05000000     weight = 0.01200000

band     1 # energy   -2.86213635 # occ.  2.00000000
 
ion      s      p      d    tot
    1  0.706  0.064  0.015  0.785
 
band     2 # energy    1.54104803 # occ.  2.00000000
 
ion      s      p      d    tot
    1  0.001  0.011  0.937  0.949
 
band     3 # energy    2.39625523 # occ.  2.00000000
 
ion      s      p      d    tot
    1  0.001  0.010  0.947  0.958
 
band     4 # energy    2.41209154 # occ.  2.00000000
 
ion      s      p      d    tot
    1  0.000  0.004  0.957  0.961
 
band     5 # energy    3.53583796 # occ.  2.00000000
 
ion      s      p      d    tot
    1  0.003  0.002  0.955  0.960
 
band     6 # energy    4.15373622 # occ.  2.00000000
 
ion      s      p      d    tot
    1  0.001  0.001  0.967  0.970
 
band     7 # energy   23.55824106 # occ.  0.00000000
 
ion      s      p      d    tot
    1  0.048  0.171  0.132  0.351
 
band     8 # energy   24.13055190 # occ.  0.00000000
 
ion      s      p      d    tot
    1  0.013  0.036  0.090  0.138
 
band     9 # energy   27.09145423 # occ.  0.00000000
 
ion      s      p      d    tot
    1  0.000  0.298  0.084  0.383
 
band    10 # energy   28.94042441 # occ.  0.00000000
 
ion      s      p      d    tot
    1  0.000  0.190  0.110  0.300
 
band    11 # energy   31.82394069 # occ.  0.00000000
 
ion      s      p      d    tot
    1  0.024  0.316  0.107  0.448
 
band    12 # energy   35.01770531 # occ.  0.00000000
 
ion      s      p      d    tot
    1  0.001  0.184  0.209  0.395
 

 k-point    20 :    0.25000000 0.25000000 0.05000000     weight = 0.00600000

band     1 # energy   -1.58171828 # occ.  2.00000000
 
ion      s      p      d    tot
    1  0.572  0.128  0.095  0.794
 
band     2 # energy    0.77928508 # occ.  2.00000000
 
ion      s      p      d    tot
    1  0.000  0.003  0.940  0.943
 