<?xml version="1.0" encoding="ISO-8859-1"?>
<modeling>
 <generator>
  <i name="program" type="string">vasp </i>
  <i name="version" type="string">5.4.4.18Apr17-6-g9f103f2a35  </i>
  <i name="subversion" type="string">(build May 18 2018 14:42:58) complex            parallel </i>
  <i name="platform" type="string">LinuxIFC </i>
  <i name="date" type="string">2020 06 30 </i>
  <i name="time" type="string">13:40:42 </i>
 </generator>
 <incar>
  <i type="string" name="SYSTEM"> fcc Au</i>
  <i type="string" name="PREC">normal</i>
  <v name="RWIGS">      1.50300000</v>
  <v type="int" name="KPOINT_BSE">    -1     0     0     0</v>
 </incar>
 <structure name="primitive_cell" >
  <crystal>
   <varray name="basis" >
    <v>       0.00000000       1.95000000       1.95000000 </v>
    <v>       1.95000000       0.00000000       1.95000000 </v>
    <v>       1.95000000       1.95000000       0.00000000 </v>
   </varray>
   <i name="volume">     14.82975000 </i>
   <varray name="rec_basis" >
    <v>      -0.25641026       0.25641026       0.25641026 </v>
    <v>       0.25641026      -0.25641026       0.25641026 </v>
    <v>       0.25641026       0.25641026      -0.25641026 </v>
   </varray>
  </crystal>
  <varray name="positions" >
   <v>       0.00000000       0.00000000       0.00000000 </v>
  </varray>
 </structure>
 <varray name="primitive_index" >
  <v type="int" >        1 </v>
 </varray>
 <kpoints>
  <generation param="Monkhorst-Pack">
   <v type="int" name="divisions">      10       10       10 </v>
   <v name="usershift">      0.00000000       0.00000000       0.00000000 </v>
   <v name="genvec1">      0.10000000       0.00000000       0.00000000 </v>
   <v name="genvec2">      0.00000000       0.10000000       0.00000000 </v>
   <v name="genvec3">      0.00000000       0.00000000       0.10000000 </v>
   <v name="shift">      0.50000000       0.50000000       0.50000000 </v>
  </generation>
  <varray name="kpointlist" >
   <v>       0.05000000       0.05000000       0.05000000 </v>
   <v>       0.15000000       0.05000000       0.05000000 </v>
   <v>       0.25000000       0.05000000       0.05000000 </v>
   <v>       0.35000000       0.05000000       0.05000000 </v>
   <v>       0.45000000       0.05000000       0.05000000 </v>
   <v>      -0.45000000       0.05000000       0.05000000 </v>
   <v>      -0.35000000       0.05000000       0.05000000 </v>
   <v>      -0.25000000       0.05000000       0.05000000 </v>
   <v>      -0.15000000       0.05000000       0.05000000 </v>
   <v>      -0.05000000       0.05000000       0.05000000 </v>
   <v>       0.15000000       0.15000000       0.05000000 </v>
   <v>       0.25000000       0.15000000       0.05000000 </v>
   <v>       0.35000000       0.15000000       0.05000000 </v>
   <v>       0.45000000       0.15000000       0.05000000 </v>
   <v>      -0.45000000       0.15000000       0.05000000 </v>
   <v>      -0.35000000       0.15000000       0.05000000 </v>
   <v>      -0.25000000       0.15000000       0.05000000 </v>
   <v>      -0.15000000       0.15000000       0.05000000 </v>
   <v>      -0.05000000       0.15000000       0.05000000 </v>
   <v>       0.25000000       0.25000000       0.05000000 </v>
   <v>       0.35000000       0.25000000       0.05000000 </v>
   <v>       0.45000000       0.25000000       0.05000000 </v>
   <v>      -0.45000000       0.25000000       0.05000000 </v>
   <v>      -0.35000000       0.25000000       0.05000000 </v>
   <v>      -0.25000000       0.25000000       0.05000000 </v>
   <v>      -0.15000000       0.25000000       0.05000000 </v>
   <v>      -0.05000000       0.25000000       0.05000000 </v>
   <v>       0.35000000       0.35000000       0.05000000 </v>
   <v>       0.45000000       0.35000000       0.05000000 </v>
   <v>      -0.45000000       0.35000000       0.05000000 </v>
   <v>      -0.35000000       0.35000000       0.05000000 </v>
   <v>      -0.25000000       0.35000000       0.05000000 </v>
   <v>      -0.15000000       0.35000000       0.05000000 </v>
   <v>      -0.05000000       0.35000000       0.05000000 </v>
   <v>       0.45000000       0.45000000       0.05000000 </v>
   <v>      -0.45000000       0.45000000       0.05000000 </v>
   <v>      -0.35000000       0.45000000       0.05000000 </v>
   <v>      -0.25000000       0.45000000       0.05000000 </v>
   <v>      -0.15000000       0.45000000       0.05000000 </v>
   <v>      -0.05000000       0.45000000       0.05000000 </v>
   <v>      -0.45000000      -0.45000000       0.05000000 </v>
   <v>      -0.35000000      -0.45000000       0.05000000 </v>
   <v>      -0.25000000      -0.45000000       0.05000000 </v>
   <v>      -0.15000000      -0.45000000       0.05000000 </v>
   <v>      -0.35000000      -0.35000000       0.05000000 </v>
   <v>      -0.25000000      -0.35000000       0.05000000 </v>
   <v>      -0.15000000      -0.35000000       0.05000000 </v>
   <v>      -0.25000000      -0.25000000       0.05000000 </v>
   <v>      -0.15000000      -0.25000000       0.05000000 </v>
   <v>      -0.15000000      -0.15000000       0.05000000 </v>
   <v>       0.15000000       0.15000000       0.15000000 </v>
   <v>       0.25000000       0.15000000       0.15000000 </v>
   <v>       0.35000000       0.15000000       0.15000000 </v>
   <v>       0.45000000       0.15000000       0.15000000 </v>
   <v>      -0.45000000       0.15000000       0.15000000 </v>
   <v>      -0.35000000       0.15000000       0.15000000 </v>
   <v>      -0.25000000       0.15000000       0.15000000 </v>
   <v>      -0.15000000       0.15000000       0.15000000 </v>
   <v>       0.25000000       0.25000000       0.15000000 </v>
   <v>       0.35000000       0.25000000       0.15000000 </v>
   <v>       0.45000000       0.25000000       0.15000000 </v>
   <v>      -0.45000000       0.25000000       0.15000000 </v>
   <v>      -0.35000000       0.25000000       0.15000000 </v>
   <v>      -0.25000000       0.25000000       0.15000000 </v>
   <v>      -0.15000000       0.25000000       0.15000000 </v>
   <v>       0.35000000       0.35000000       0.15000000 </v>
   <v>       0.45000000       0.35000000       0.15000000 </v>
   <v>      -0.45000000       0.35000000       0.15000000 </v>
   <v>      -0.35000000       0.35000000       0.15000000 </v>
   <v>      -0.25000000       0.35000000       0.15000000 </v>
   <v>      -0.15000000       0.35000000       0.15000000 </v>
   <v>       0.45000000       0.45000000       0.15000000 </v>
   <v>      -0.45000000       0.45000000       0.15000000 </v>
   <v>      -0.35000000       0.45000000       0.15000000 </v>
   <v>      -0.25000000       0.45000000       0.15000000 </v>
   <v>      -0.15000000       0.45000000       0.15000000 </v>
   <v>      -0.45000000      -0.45000000       0.15000000 </v>
   <v>      -0.35000000      -0.45000000       0.15000000 </v>
   <v>      -0.25000000      -0.45000000       0.15000000 </v>
   <v>      -0.35000000      -0.35000000       0.15000000 </v>
   <v>      -0.25000000      -0.35000000       0.15000000 </v>
   <v>      -0.25000000      -0.25000000       0.15000000 </v>
   <v>       0.25000000       0.25000000       0.25000000 </v>
   <v>       0.35000000       0.25000000       0.25000000 </v>
   <v>       0.45000000       0.25000000       0.25000000 </v>
   <v>      -0.45000000       0.25000000       0.25000000 </v>
   <v>      -0.35000000       0.25000000       0.25000000 </v>
   <v>      -0.25000000       0.25000000       0.25000000 </v>
   <v>       0.35000000       0.35000000       0.25000000 </v>
   <v>       0.45000000       0.35000000       0.25000000 </v>
   <v>      -0.45000000       0.35000000       0.25000000 </v>
   <v>      -0.35000000       0.35000000       0.25000000 </v>
   <v>      -0.25000000       0.35000000       0.25000000 </v>
   <v>       0.45000000       0.45000000       0.25000000 </v>
   <v>      -0.45000000       0.45000000       0.25000000 </v>
   <v>      -0.35000000       0.45000000       0.25000000 </v>
   <v>      -0.25000000       0.45000000       0.25000000 </v>
   <v>      -0.45000000      -0.45000000       0.25000000 </v>
   <v>      -0.35000000      -0.45000000       0.25000000 </v>
   <v>      -0.35000000      -0.35000000       0.25000000 </v>
   <v>       0.35000000       0.35000000       0.35000000 </v>
   <v>       0.45000000       0.35000000       0.35000000 </v>
   <v>      -0.45000000       0.35000000       0.35000000 </v>
   <v>      -0.35000000       0.35000000       0.35000000 </v>
   <v>       0.45000000       0.45000000       0.35000000 </v>
   <v>      -0.45000000       0.45000000       0.35000000 </v>
   <v>      -0.35000000       0.45000000       0.35000000 </v>
   <v>      -0.45000000      -0.45000000       0.35000000 </v>
   <v>       0.45000000       0.45000000       0.45000000 </v>
   <v>      -0.45000000       0.45000000       0.45000000 </v>
  </varray>
  <varray name="weights" >
   <v>       0.00200000 </v>
   <v>       0.00600000 </v>
   <v>       0.00600000 </v>
   <v>       0.00600000 </v>
   <v>       0.00600000 </v>
   <v>       0.00600000 </v>
   <v>       0.00600000 </v>
   <v>       0.00600000 </v>
   <v>       0.00600000 </v>
   <v>       0.00600000 </v>
   <v>       0.00600000 </v>
   <v>       0.01200000 </v>
   <v>       0.01200000 </v>
   <v>       0.01200000 </v>
   <v>       0.01200000 </v>
   <v>       0.01200000 </v>
   <v>       0.01200000 </v>
   <v>       0.01200000 </v>
   <v>       0.01200000 </v>
   <v>       0.00600000 </v>
   <v>       0.01200000 </v>
   <v>       0.01200000 </v>
   <v>       0.01200000 </v>
   <v>       0.01200000 </v>
   <v>       0.01200000 </v>
   <v>       0.01200000 </v>
   <v>       0.01200000 </v>
   <v>       0.00600000 </v>
   <v>       0.01200000 </v>
   <v>       0.01200000 </v>
   <v>       0.01200000 </v>
   <v>       0.01200000 </v>
   <v>       0.01200000 </v>
   <v>       0.01200000 </v>
   <v>       0.00600000 </v>
   <v>       0.01200000 </v>
   <v>       0.01200000 </v>
   <v>       0.01200000 </v>
   <v>       0.01200000 </v>
   <v>       0.01200000 </v>
   <v>       0.00600000 </v>
   <v>       0.01200000 </v>
   <v>       0.01200000 </v>
   <v>       0.01200000 </v>
   <v>       0.00600000 </v>
   <v>       0.01200000 </v>
   <v>       0.01200000 </v>
   <v>       0.00600000 </v>
   <v>       0.01200000 </v>
   <v>       0.00600000 </v>
   <v>       0.00200000 </v>
   <v>       0.00600000 </v>
   <v>       0.00600000 </v>
   <v>       0.00600000 </v>
   <v>       0.00600000 </v>
   <v>       0.00600000 </v>
   <v>       0.00600000 </v>
   <v>       0.00600000 </v>
   <v>       0.00600000 </v>
   <v>       0.01200000 </v>
   <v>       0.01200000 </v>
   <v>       0.01200000 </v>
   <v>       0.01200000 </v>
   <v>       0.01200000 </v>
   <v>       0.01200000 </v>
   <v>       0.00600000 </v>
   <v>       0.01200000 </v>
   <v>       0.01200000 </v>
   <v>       0.01200000 </v>
   <v>       0.01200000 </v>
   <v>       0.01200000 </v>
   <v>       0.00600000 </v>
   <v>       0.01200000 </v>
   <v>       0.01200000 </v>
   <v>       0.01200000 </v>
   <v>       0.01200000 </v>
   <v>       0.00600000 </v>
   <v>       0.01200000 </v>
   <v>       0.01200000 </v>
   <v>       0.00600000 </v>
   <v>       0.01200000 </v>
   <v>       0.00600000 </v>
   <v>       0.00200000 </v>
   <v>       0.00600000 </v>
   <v>       0.00600000 </v>
   <v>       0.00600000 </v>
   <v>       0.00600000 </v>
   <v>       0.00600000 </v>
   <v>       0.00600000 </v>
   <v>       0.01200000 </v>
   <v>       0.01200000 </v>
   <v>       0.01200000 </v>
   <v>       0.01200000 </v>
   <v>       0.00600000 </v>
   <v>       0.01200000 </v>
   <v>       0.01200000 </v>
   <v>       0.01200000 </v>
   <v>       0.00600000 </v>
   <v>       0.01200000 </v>
   <v>       0.00600000 </v>
   <v>       0.00200000 </v>
   <v>       0.00600000 </v>
   <v>       0.00600000 </v>
   <v>       0.00600000 </v>
   <v>       0.00600000 </v>
   <v>       0.01200000 </v>
   <v>       0.01200000 </v>
   <v>       0.00600000 </v>
   <v>       0.00200000 </v>
   <v>       0.00600000 </v>
  </varray>
 </kpoints>
 <parameters>
  <separator name="general" >
   <i type="string" name="SYSTEM">fcc Au</i>
   <i type="logical" name="LCOMPAT"> F  </i>
  </separator>
  <separator name="electronic" >
   <i type="string" name="PREC">normal</i>
   <i name="ENMAX">    229.86900000</i>
   <i name="ENAUG">    356.67000000</i>
   <i name="EDIFF">      0.00010000</i>
   <i type="int" name="IALGO">    38</i>
   <i type="int" name="IWAVPR">    10</i>
   <i type="int" name="NBANDS">    12</i>
   <i name="NELECT">     11.00000000</i>
   <i type="int" name="TURBO">     0</i>
   <i type="int" name="IRESTART">     0</i>
   <i type="int" name="NREBOOT">     0</i>
   <i type="int" name="NMIN">     0</i>
   <i name="EREF">      0.00000000</i>
   <separator name="electronic smearing" >
    <i type="int" name="ISMEAR">     1</i>
    <i name="SIGMA">      0.20000000</i>
    <i name="KSPACING">      0.50000000</i>
    <i type="logical" name="KGAMMA"> T  </i>
   </separator>
   <separator name="electronic projectors" >
    <i type="logical" name="LREAL"> F  </i>
    <v name="ROPT">      0.00000000</v>
    <i type="int" name="LMAXPAW">  -100</i>
    <i type="int" name="LMAXMIX">     2</i>
    <i type="logical" name="NLSPLINE"> F  </i>
   </separator>
   <separator name="electronic startup" >
    <i type="int" name="ISTART">     0</i>
    <i type="int" name="ICHARG">     2</i>
    <i type="int" name="INIWAV">     1</i>
   </separator>
   <separator name="electronic spin" >
    <i type="int" name="ISPIN">     1</i>
    <i type="logical" name="LNONCOLLINEAR"> F  </i>
    <v name="MAGMOM">      1.00000000</v>
    <i name="NUPDOWN">     -1.00000000</i>
    <i type="logical" name="LSORBIT"> F  </i>
    <v name="SAXIS">      0.00000000      0.00000000      1.00000000</v>
    <i type="logical" name="LSPIRAL"> F  </i>
    <v name="QSPIRAL">      0.00000000      0.00000000      0.00000000</v>
    <i type="logical" name="LZEROZ"> F  </i>
   </separator>
   <separator name="electronic exchange-correlation" >
    <i type="logical" name="LASPH"> F  </i>
    <i type="logical" name="LMETAGGA"> F  </i>
   </separator>
   <separator name="electronic convergence" >
    <i type="int" name="NELM">    60</i>
    <i type="int" name="NELMDL">    -5</i>
    <i type="int" name="NELMIN">     2</i>
    <i name="ENINI">    229.86900000</i>
    <separator name="electronic convergence detail" >
     <i type="logical" name="LDIAG"> T  </i>
     <i type="logical" name="LSUBROT"> F  </i>
     <i name="WEIMIN">      0.00000000</i>
     <i name="EBREAK">      0.00000208</i>
     <i name="DEPER">      0.30000000</i>
     <i type="int" name="NRMM">     4</i>
     <i name="TIME">      0.40000000</i>
    </separator>
   </separator>
   <separator name="electronic mixer" >
    <i name="AMIX">      0.40000000</i>
    <i name="BMIX">      1.00000000</i>
    <i name="AMIN">      0.10000000</i>
    <i name="AMIX_MAG">      1.60000000</i>
    <i name="BMIX_MAG">      1.00000000</i>
    <separator name="electronic mixer details" >
     <i type="int" name="IMIX">     4</i>
     <i type="logical" name="MIXFIRST"> F  </i>
     <i type="int" name="MAXMIX">   -45</i>
     <i name="WC">    100.00000000</i>
     <i type="int" name="INIMIX">     1</i>
     <i type="int" name="MIXPRE">     1</i>
     <i type="int" name="MREMOVE">     5</i>
    </separator>
   </separator>
   <separator name="electronic dipolcorrection" >
    <i type="logical" name="LDIPOL"> F  </i>
    <i type="logical" name="LMONO"> F  </i>
    <i type="int" name="IDIPOL">     0</i>
    <i name="EPSILON">      1.00000000</i>
    <v name="DIPOL">   -100.00000000   -100.00000000   -100.00000000</v>
    <i name="EFIELD">      0.00000000</i>
   </separator>
  </separator>
  <separator name="grids" >
   <i type="int" name="NGX">    10</i>
   <i type="int" name="NGY">    10</i>
   <i type="int" name="NGZ">    10</i>
   <i type="int" name="NGXF">    20</i>
   <i type="int" name="NGYF">    20</i>
   <i type="int" name="NGZF">    20</i>
   <i type="logical" name="ADDGRID"> F  </i>
  </separator>
  <separator name="ionic" >
   <i type="int" name="NSW">     0</i>
   <i type="int" name="IBRION">    -1</i>
   <i type="int" name="MDALGO">     0</i>
   <i type="int" name="ISIF">     2</i>
   <i name="PSTRESS">      0.00000000</i>
   <i name="EDIFFG">      0.00100000</i>
   <i type="int" name="NFREE">     0</i>
   <i name="POTIM">      0.50000000</i>
   <i name="SMASS">     -3.00000000</i>
   <i name="SCALEE">      1.00000000</i>
  </separator>
  <separator name="ionic md" >
   <i name="TEBEG">      0.00010000</i>
   <i name="TEEND">      0.00010000</i>
   <i type="int" name="NBLOCK">     1</i>
   <i type="int" name="KBLOCK">     1</i>
   <i type="int" name="NPACO">   256</i>
   <i name="APACO">     16.00000000</i>
  </separator>
  <separator name="symmetry" >
   <i type="int" name="ISYM">     2</i>
   <i name="SYMPREC">      0.00001000</i>
  </separator>
  <separator name="dos" >
   <i type="int" name="LORBIT">     0</i>
   <v name="RWIGS">      1.50300000</v>
   <i type="int" name="NEDOS">   301</i>
   <i name="EMIN">     10.00000000</i>
   <i name="EMAX">    -10.00000000</i>
   <i name="EFERMI">      0.00000000</i>
  </separator>
  <separator name="writing" >
   <i type="int" name="NWRITE">     2</i>
   <i type="logical" name="LWAVE"> T  </i>
   <i type="logical" name="LDOWNSAMPLE"> F  </i>
   <i type="logical" name="LCHARG"> T  </i>
   <i type="logical" name="LPARD"> F  </i>
   <i type="logical" name="LVTOT"> F  </i>
   <i type="logical" name="LVHAR"> F  </i>
   <i type="logical" name="LELF"> F  </i>
   <i type="logical" name="LOPTICS"> F  </i>
   <v name="STM">      0.00000000      0.00000000      0.00000000      0.00000000      0.00000000      0.00000000      0.00000000</v>
  </separator>
  <separator name="performance" >
   <i type="int" name="NPAR">     4</i>
   <i type="int" name="NSIM">     4</i>
   <i type="int" name="NBLK">    -1</i>
   <i type="logical" name="LPLANE"> T  </i>
   <i type="logical" name="LSCALAPACK"> T  </i>
   <i type="logical" name="LSCAAWARE"> F  </i>
   <i type="logical" name="LSCALU"> F  </i>
   <i type="logical" name="LASYNC"> F  </i>
   <i type="logical" name="LORBITALREAL"> F  </i>
  </separator>
  <separator name="miscellaneous" >
   <i type="int" name="IDIOT">     3</i>
   <i type="int" name="ISPECIAL">     0</i>
   <i type="logical" name="LMUSIC"> F  </i>
   <v name="POMASS">    196.96600000</v>
   <v name="DARWINR">      0.00000000</v>
   <v name="DARWINV">      1.00000000</v>
   <i type="logical" name="LCORR"> T  </i>
  </separator>
  <i type="logical" name="GGA_COMPAT"> T  </i>
  <i type="logical" name="LBERRY"> F  </i>
  <i type="int" name="ICORELEVEL">     0</i>
  <i type="logical" name="LDAU"> F  </i>
  <i type="int" name="I_CONSTRAINED_M">     0</i>
  <separator name="electronic exchange-correlation" >
   <i type="string" name="GGA">--</i>
   <i type="int" name="VOSKOWN">     0</i>
   <i type="logical" name="LHFCALC"> F  </i>
   <i type="string" name="PRECFOCK"></i>
   <i type="logical" name="LSYMGRAD"> F  </i>
   <i type="logical" name="LHFONE"> F  </i>
   <i type="logical" name="LRHFCALC"> F  </i>
   <i type="logical" name="LTHOMAS"> F  </i>
   <i type="logical" name="LMODELHF"> F  </i>
   <i name="ENCUT4O">     -1.00000000</i>
   <i type="int" name="EXXOEP">     0</i>
   <i type="int" name="FOURORBIT">     0</i>
   <i name="AEXX">      0.00000000</i>
   <i name="HFALPHA">      0.00000000</i>
   <i name="MCALPHA">      0.00000000</i>
   <i name="ALDAX">      1.00000000</i>
   <i name="AGGAX">      1.00000000</i>
   <i name="ALDAC">      1.00000000</i>
   <i name="AGGAC">      1.00000000</i>
   <i type="int" name="NKREDX">     1</i>
   <i type="int" name="NKREDY">     1</i>
   <i type="int" name="NKREDZ">     1</i>
   <i type="logical" name="SHIFTRED"> F  </i>
   <i type="logical" name="ODDONLY"> F  </i>
   <i type="logical" name="EVENONLY"> F  </i>
   <i type="int" name="LMAXFOCK">     0</i>
   <i type="int" name="NMAXFOCKAE">     0</i>
   <i type="logical" name="LFOCKAEDFT"> F  </i>
   <i name="HFSCREEN">      0.00000000</i>
   <i name="HFSCREENC">      0.00000000</i>
   <i type="int" name="NBANDSGWLOW">     0</i>
  </separator>
  <separator name="vdW DFT" >
   <i type="logical" name="LUSE_VDW"> F  </i>
   <i name="Zab_VDW">     -0.84910000</i>
   <i name="PARAM1">      0.12340000</i>
   <i name="PARAM2">      1.00000000</i>
   <i name="PARAM3">      0.00000000</i>
  </separator>
  <separator name="model GW" >
   <i type="int" name="MODEL_GW">     0</i>
   <i name="MODEL_EPS0">      8.89785000</i>
   <i name="MODEL_ALPHA">      1.00000000</i>
  </separator>
  <separator name="linear response parameters" >
   <i type="logical" name="LEPSILON"> F  </i>
   <i type="logical" name="LRPA"> F  </i>
   <i type="logical" name="LNABLA"> F  </i>
   <i type="logical" name="LVEL"> F  </i>
   <i type="int" name="KINTER">     0</i>
   <i name="CSHIFT">      0.10000000</i>
   <i name="OMEGAMAX">     -1.00000000</i>
   <i name="DEG_THRESHOLD">      0.00200000</i>
   <i name="RTIME">     -0.10000000</i>
   <i name="WPLASMAI">      0.00000000</i>
   <v name="DFIELD">      0.00000000      0.00000000      0.00000000</v>
   <v name="WPLASMA">      0.00000000      0.00000000      0.00000000      0.00000000      0.00000000      0.00000000      0.00000000      0.00000000      0.00000000</v>
  </separator>
  <separator name="orbital magnetization" >
   <i type="logical" name="NUCIND"> F  </i>
   <v name="MAGPOS">      0.00000000      0.00000000      0.00000000</v>
   <i type="logical" name="LNICSALL"> T  </i>
   <i type="logical" name="ORBITALMAG"> F  </i>
   <i type="logical" name="LMAGBLOCH"> F  </i>
   <i type="logical" name="LCHIMAG"> F  </i>
   <i type="logical" name="LGAUGE"> T  </i>
   <i type="int" name="MAGATOM">     0</i>
   <v name="MAGDIPOL">      0.00000000      0.00000000      0.00000000</v>
   <v name="AVECCONST">      0.00000000      0.00000000      0.00000000</v>
  </separator>
  <separator name="response functions" >
   <i type="logical" name="LADDER"> F  </i>
   <i type="logical" name="LRPAFORCE"> F  </i>
   <i type="logical" name="LFXC"> F  </i>
   <i type="logical" name="LHARTREE"> T  </i>
   <i type="int" name="IBSE">     0</i>
   <v type="int" name="KPOINT">    -1     0     0     0</v>
   <i type="logical" name="LTCTE"> F  </i>
   <i type="logical" name="LTETE"> F  </i>
   <i type="logical" name="LTRIPLET"> F  </i>
   <i type="logical" name="LFXCEPS"> F  </i>
   <i type="logical" name="LFXHEG"> F  </i>
   <i type="int" name="NATURALO">     2</i>
   <i type="logical" name="L2ORDER"> F  </i>
   <i type="logical" name="LMP2LT"> F  </i>
   <i type="logical" name="LUSEW"> F  </i>
   <i name="ENCUTGW">     -2.00000000</i>
   <i name="ENCUTGWSOFT">     -2.00000000</i>
   <i name="ENCUTLF">     -1.00000000</i>
   <i type="int" name="LMAXMP2">    -1</i>
   <i name="SCISSOR">      0.00000000</i>
   <i type="int" name="NOMEGA">     0</i>
   <i type="int" name="NOMEGAR">     0</i>
   <i type="int" name="NBANDSGW">    -1</i>
   <i type="int" name="NBANDSO">    -1</i>
   <i type="int" name="NBANDSV">    -1</i>
   <i type="int" name="NELM">     1</i>
   <i type="int" name="NELMHF">     1</i>
   <i type="int" name="DIM">     3</i>
   <i type="int" name="ANTIRES">     0</i>
   <i name="OMEGAMAX">    -30.00000000</i>
   <i name="OMEGAMIN">    -30.00000000</i>
   <i name="OMEGATL">   -200.00000000</i>
   <i type="int" name="OMEGAGRID">   140</i>
   <i name="CSHIFT">     -0.10000000</i>
   <i type="logical" name="SELFENERGY"> F  </i>
   <i type="logical" name="LSPECTRAL"> F  </i>
   <i type="logical" name="LSPECTRALGW"> F  </i>
   <i type="logical" name="LSINGLES"> F  </i>
   <i type="logical" name="LFERMIGW"> F  </i>
   <i type="logical" name="ODDONLYGW"> F  </i>
   <i type="logical" name="EVENONLYGW"> F  </i>
   <i type="int" name="NKREDLFX">     1</i>
   <i type="int" name="NKREDLFY">     1</i>
   <i type="int" name="NKREDLFZ">     1</i>
   <i type="int" name="MAXMEM">  2800</i>
   <i type="int" name="TELESCOPE">     0</i>
   <i type="int" name="TAUPAR">     1</i>
   <i type="int" name="OMEGAPAR">    -1</i>
   <i name="LAMBDA">      1.00000000</i>
  </separator>
  <separator name="External order field" >
   <i name="OFIELD_KAPPA">      0.00000000</i>
   <v name="OFIELD_K">      0.00000000      0.00000000      0.00000000</v>
   <i name="OFIELD_Q6_NEAR">      0.00000000</i>
   <i name="OFIELD_Q6_FAR">      0.00000000</i>
   <i name="OFIELD_A">      0.00000000</i>
  </separator>
 </parameters>
 <atominfo>
  <atoms>       1 </atoms>
  <types>       1 </types>
  <array name="atoms" >
   <dimension dim="1">ion</dimension>
   <field type="string">element</field>
   <field type="int">atomtype</field>
   <set>
    <rc><c>Au</c><c>   1</c></rc>
   </set>
  </array>
  <array name="atomtypes" >
   <dimension dim="1">type</dimension>
   <field type="int">atomspertype</field>
   <field type="string">element</field>
   <field>mass</field>
   <field>valence</field>
   <field type="string">pseudopotential</field>
   <set>
    <rc><c>   1</c><c>Au</c><c>    196.96600000</c><c>     11.00000000</c><c> PAW Au 04Feb1998                       </c></rc>
   </set>
  </array>
 </atominfo>
 <structure name="initialpos" >
  <crystal>
   <varray name="basis" >
    <v>       0.00000000       1.95000000       1.95000000 </v>
    <v>       1.95000000       0.00000000       1.95000000 </v>
    <v>       1.95000000       1.95000000       0.00000000 </v>
   </varray>
   <i name="volume">     14.82975000 </i>
   <varray name="rec_basis" >
    <v>      -0.25641026       0.25641026       0.25641026 </v>
    <v>       0.25641026      -0.25641026       0.25641026 </v>
    <v>       0.25641026       0.25641026      -0.25641026 </v>
   </varray>
  </crystal>
  <varray name="positions" >
   <v>       0.00000000       0.00000000       0.00000000 </v>
  </varray>
 </structure>
 <calculation>
  <scstep>
   <time name="dav">    0.26    0.27</time>
   <time name="total">    0.27    0.27</time>
   <energy>
    <i name="alphaZ">    123.93191659 </i>
    <i name="ewald">  -1024.17251330 </i>
    <i name="hartreedc">   -105.59397540 </i>
    <i name="XCdc">     16.77548007 </i>
    <i name="pawpsdc">    746.10209728 </i>
    <i name="pawaedc">   -725.46159323 </i>
    <i name="eentropy">     -0.00136767 </i>
    <i name="bandstr">     69.77103844 </i>
    <i name="atom">    929.39614979 </i>
    <i name="e_fr_energy">     30.74723258 </i>
    <i name="e_wo_entrp">     30.74860024 </i>
    <i name="e_0_energy">     30.74768847 </i>
   </energy>
  </scstep>
  <scstep>
   <time name="dav">    0.24    0.25</time>
   <time name="total">    0.24    0.25</time>
   <energy>
    <i name="e_fr_energy">     -4.23152076 </i>
    <i name="e_wo_entrp">     -4.23088875 </i>
    <i name="e_0_energy">     -4.23131009 </i>
   </energy>
  </scstep>
  <scstep>
   <time name="dav">    0.27    0.27</time>
   <time name="total">    0.27    0.28</time>
   <energy>
    <i name="e_fr_energy">     -4.52739705 </i>
    <i name="e_wo_entrp">     -4.52681989 </i>
    <i name="e_0_energy">     -4.52720467 </i>
   </energy>
  </scstep>
  <scstep>
   <time name="dav">    0.27    0.27</time>
   <time name="total">    0.27    0.27</time>
   <energy>
    <i name="e_fr_energy">     -4.52818102 </i>
    <i name="e_wo_entrp">     -4.52760442 </i>
    <i name="e_0_energy">     -4.52798882 </i>
   </energy>
  </scstep>
  <scstep>
   <time name="dav">    0.25    0.26</time>
   <time name="total">    0.26    0.26</time>
   <energy>
    <i name="e_fr_energy">     -4.52818606 </i>
    <i name="e_wo_entrp">     -4.52760946 </i>
    <i name="e_0_energy">     -4.52799386 </i>
   </energy>
  </scstep>
  <scstep>
   <time name="dav">    0.26    0.27</time>
   <time name="total">    0.27    0.27</time>
   <energy>
    <i name="e_fr_energy">     -4.26173478 </i>
    <i name="e_wo_entrp">     -4.26124632 </i>
    <i name="e_0_energy">     -4.26157196 </i>
   </energy>
  </scstep>
  <scstep>
   <time name="dav">    0.24    0.24</time>
   <time name="total">    0.24    0.25</time>
   <energy>
    <i name="e_fr_energy">     -4.22620748 </i>
    <i name="e_wo_entrp">     -4.22595242 </i>
    <i name="e_0_energy">     -4.22612246 </i>
   </energy>
  </scstep>
  <scstep>
   <time name="dav">    0.22    0.22</time>
   <time name="total">    0.22    0.23</time>
   <energy>
    <i name="e_fr_energy">     -4.22025266 </i>
    <i name="e_wo_entrp">     -4.22001828 </i>
    <i name="e_0_energy">     -4.22017453 </i>
   </energy>
  </scstep>
  <scstep>
   <time name="dav">    0.17    0.17</time>
   <time name="total">    0.17    0.18</time>
   <energy>
    <i name="alphaZ">    123.93191659 </i>
    <i name="ewald">  -1024.17251330 </i>
    <i name="hartreedc">    -94.72721777 </i>
    <i name="XCdc">     16.21516418 </i>
    <i name="pawpsdc">    779.12416232 </i>
    <i name="pawaedc">   -762.12808510 </i>
    <i name="eentropy">     -0.00023073 </i>
    <i name="bandstr">     28.14041705 </i>
    <i name="atom">    929.39614979 </i>
    <i name="e_fr_energy">     -4.22023697 </i>
    <i name="e_wo_entrp">     -4.22000625 </i>
    <i name="e_0_energy">     -4.22016006 </i>
   </energy>
  </scstep>
  <structure>
   <crystal>
    <varray name="basis" >
     <v>       0.00000000       1.95000000       1.95000000 </v>
     <v>       1.95000000       0.00000000       1.95000000 </v>
     <v>       1.95000000       1.95000000       0.00000000 </v>
    </varray>
    <i name="volume">     14.82975000 </i>
    <varray name="rec_basis" >
     <v>      -0.25641026       0.25641026       0.25641026 </v>
     <v>       0.25641026      -0.25641026       0.25641026 </v>
     <v>       0.25641026       0.25641026      -0.25641026 </v>
    </varray>
   </crystal>
   <varray name="positions" >
    <v>       0.00000000       0.00000000       0.00000000 </v>
   </varray>
  </structure>
  <varray name="forces" >
   <v>       0.00000000       0.00000000       0.00000000 </v>
  </varray>
  <varray name="stress" >
   <v>     293.63226860      -0.00000000       0.00000000 </v>
   <v>       0.00000000     293.63226860       0.00000000 </v>
   <v>      -0.00000000       0.00000000     293.63226860 </v>
  </varray>
  <energy>
   <i name="e_fr_energy">     -4.22023697 </i>
   <i name="e_wo_entrp">     -4.22016006 </i>
   <i name="e_0_energy">     -0.00023073 </i>
  </energy>
  <time name="totalsc">    2.36    2.42</time>
  <eigenvalues>
   <array>
    <dimension dim="1">band</dimension>
    <dimension dim="2">kpoint</dimension>
    <dimension dim="3">spin</dimension>
    <field>eigene</field>
    <field>occ</field>
    <set>
     <set comment="spin 1">
      <set comment="kpoint 1">
       <r>   -3.8666    1.0000 </r>
       <r>    1.9522    1.0000 </r>
       <r>    2.0314    1.0000 </r>
       <r>    2.0314    1.0000 </r>
       <r>    3.9343    1.0000 </r>
       <r>    3.9343    1.0000 </r>
       <r>   22.9371    0.0000 </r>
       <r>   26.8033    0.0000 </r>
       <r>   27.6298    0.0000 </r>
       <r>   27.6298    0.0000 </r>
       <r>   32.7706    0.0000 </r>
       <r>   37.0588    0.0000 </r>
      </set>
      <set comment="kpoint 2">
       <r>   -3.3510    1.0000 </r>
       <r>    1.7531    1.0000 </r>
       <r>    2.2034    1.0000 </r>
       <r>    2.2417    1.0000 </r>
       <r>    3.7378    1.0000 </r>
       <r>    3.9939    1.0000 </r>
       <r>   23.5305    0.0000 </r>
       <r>   24.7649    0.0000 </r>
       <r>   27.4588    0.0000 </r>
       <r>   28.7074    0.0000 </r>
       <r>   32.8630    0.0000 </r>
       <r>   35.6906    0.0000 </r>
      </set>
      <set comment="kpoint 3">
       <r>   -2.2542    1.0000 </r>
       <r>    1.5946    1.0000 </r>
       <r>    2.3857    1.0000 </r>
       <r>    2.4158    1.0000 </r>
       <r>    3.7419    1.0000 </r>
       <r>    4.2577    1.0000 </r>
       <r>   21.1508    0.0000 </r>
       <r>   24.2627    0.0000 </r>
       <r>   28.0373    0.0000 </r>
       <r>   30.3007    0.0000 </r>
       <r>   30.4800    0.0000 </r>
       <r>   33.3868    0.0000 </r>
      </set>
      <set comment="kpoint 4">
       <r>   -1.3304    1.0000 </r>
       <r>    2.1543    1.0000 </r>
       <r>    2.2676    1.0000 </r>
       <r>    2.3758    1.0000 </r>
       <r>    4.3631    1.0000 </r>
       <r>    4.9727    1.0000 </r>
       <r>   17.1048    0.0000 </r>
       <r>   23.4479    0.0000 </r>
       <r>   27.1801    0.0000 </r>
       <r>   29.6317    0.0000 </r>
       <r>   31.5084    0.0000 </r>
       <r>   32.9531    0.0000 </r>
      </set>
      <set comment="kpoint 5">
       <r>   -1.1407    1.0000 </r>
       <r>    1.9665    1.0000 </r>
       <r>    2.0546    1.0000 </r>
       <r>    4.1145    1.0000 </r>
       <r>    5.1315    1.0000 </r>
       <r>    5.9152    1.0000 </r>
       <r>   13.1569    0.0000 </r>
       <r>   22.4821    0.0000 </r>
       <r>   26.0124    0.0000 </r>
       <r>   27.1964    0.0000 </r>
       <r>   33.8272    0.0000 </r>
       <r>   34.3430    0.0000 </r>
      </set>
      <set comment="kpoint 6">
       <r>   -1.1476    1.0000 </r>
       <r>    1.8829    1.0000 </r>
       <r>    2.0067    1.0000 </r>
       <r>    4.7095    1.0000 </r>
       <r>    5.5002    1.0000 </r>
       <r>    6.6136    1.0000 </r>
       <r>   11.4943   -0.0000 </r>
       <r>   22.2196    0.0000 </r>
       <r>   26.0210    0.0000 </r>
       <r>   26.1202    0.0000 </r>
       <r>   34.5998    0.0000 </r>
       <r>   34.7065    0.0000 </r>
      </set>
      <set comment="kpoint 7">
       <r>   -1.1573    1.0000 </r>
       <r>    2.0045    1.0000 </r>
       <r>    2.1452    1.0000 </r>
       <r>    3.4503    1.0000 </r>
       <r>    5.2401    1.0000 </r>
       <r>    5.2936    1.0000 </r>
       <r>   14.3791    0.0000 </r>
       <r>   22.7531    0.0000 </r>
       <r>   26.5757    0.0000 </r>
       <r>   27.4953    0.0000 </r>
       <r>   33.8002    0.0000 </r>
       <r>   33.8188    0.0000 </r>
      </set>
      <set comment="kpoint 8">
       <r>   -1.5537    1.0000 </r>
       <r>    1.8878    1.0000 </r>
       <r>    2.2809    1.0000 </r>
       <r>    2.3645    1.0000 </r>
       <r>    4.2406    1.0000 </r>
       <r>    4.5957    1.0000 </r>
       <r>   18.4910    0.0000 </r>
       <r>   23.8663    0.0000 </r>
       <r>   27.7824    0.0000 </r>
       <r>   29.7031    0.0000 </r>
       <r>   31.3066    0.0000 </r>
       <r>   33.0394    0.0000 </r>
      </set>
      <set comment="kpoint 9">
       <r>   -2.6532    1.0000 </r>
       <r>    1.5851    1.0000 </r>
       <r>    2.3791    1.0000 </r>
       <r>    2.3950    1.0000 </r>
       <r>    3.6877    1.0000 </r>
       <r>    4.1039    1.0000 </r>
       <r>   22.4030    0.0000 </r>
       <r>   24.2496    0.0000 </r>
       <r>   27.9817    0.0000 </r>
       <r>   29.3002    0.0000 </r>
       <r>   31.4377    0.0000 </r>
       <r>   33.9833    0.0000 </r>
      </set>
      <set comment="kpoint 10">
       <r>   -3.6038    1.0000 </r>
       <r>    1.8133    1.0000 </r>
       <r>    2.1473    1.0000 </r>
       <r>    2.1540    1.0000 </r>
       <r>    3.7694    1.0000 </r>
       <r>    4.0059    1.0000 </r>
       <r>   23.2765    0.0000 </r>
       <r>   25.8608    0.0000 </r>
       <r>   27.5013    0.0000 </r>
       <r>   27.8287    0.0000 </r>
       <r>   33.8046    0.0000 </r>
       <r>   36.1000    0.0000 </r>
      </set>
      <set comment="kpoint 11">
       <r>   -3.0956    1.0000 </r>
       <r>    1.5386    1.0000 </r>
       <r>    2.3951    1.0000 </r>
       <r>    2.4007    1.0000 </r>
       <r>    3.4847    1.0000 </r>
       <r>    4.1450    1.0000 </r>
       <r>   23.8937    0.0000 </r>
       <r>   24.9668    0.0000 </r>
       <r>   27.0507    0.0000 </r>
       <r>   27.5532    0.0000 </r>
       <r>   33.5695    0.0000 </r>
       <r>   34.9020    0.0000 </r>
      </set>
      <set comment="kpoint 12">
       <r>   -2.1797    1.0000 </r>
       <r>    1.2244    1.0000 </r>
       <r>    2.5092    1.0000 </r>
       <r>    2.7458    1.0000 </r>
       <r>    3.4137    1.0000 </r>
       <r>    4.4207    1.0000 </r>
       <r>   22.6855    0.0000 </r>
       <r>   24.4137    0.0000 </r>
       <r>   26.4896    0.0000 </r>
       <r>   27.8261    0.0000 </r>
       <r>   31.4986    0.0000 </r>
       <r>   34.0460    0.0000 </r>
      </set>
      <set comment="kpoint 13">
       <r>   -1.0922    1.0000 </r>
       <r>    1.3231    1.0000 </r>
       <r>    2.1220    1.0000 </r>
       <r>    2.7549    1.0000 </r>
       <r>    4.2326    1.0000 </r>
       <r>    5.1397    1.0000 </r>
       <r>   18.7365    0.0000 </r>
       <r>   23.8944    0.0000 </r>
       <r>   25.4830    0.0000 </r>
       <r>   28.0287    0.0000 </r>
       <r>   31.9731    0.0000 </r>
       <r>   33.4938    0.0000 </r>
      </set>
      <set comment="kpoint 14">
       <r>   -0.7234    1.0000 </r>
       <r>    1.7381    1.0000 </r>
       <r>    2.3872    1.0000 </r>
       <r>    2.5935    1.0000 </r>
       <r>    5.2011    1.0000 </r>
       <r>    6.4561    1.0000 </r>
       <r>   14.5362    0.0000 </r>
       <r>   23.0391    0.0000 </r>
       <r>   24.3712    0.0000 </r>
       <r>   26.7280    0.0000 </r>
       <r>   33.5761    0.0000 </r>
       <r>   35.0595    0.0000 </r>
      </set>
      <set comment="kpoint 15">
       <r>   -0.7179    1.0000 </r>
       <r>    1.5777    1.0000 </r>
       <r>    2.3756    1.0000 </r>
       <r>    3.4337    1.0000 </r>
       <r>    5.4375    1.0000 </r>
       <r>    8.3311   -0.0000 </r>
       <r>   11.4196   -0.0000 </r>
       <r>   22.5147    0.0000 </r>
       <r>   24.0504    0.0000 </r>
       <r>   25.6615    0.0000 </r>
       <r>   34.4335    0.0000 </r>
       <r>   35.4012    0.0000 </r>
      </set>
      <set comment="kpoint 16">
       <r>   -0.6874    1.0000 </r>
       <r>    1.6810    1.0000 </r>
       <r>    2.4063    1.0000 </r>
       <r>    3.0251    1.0000 </r>
       <r>    5.0185    1.0000 </r>
       <r>    7.2427    1.0104 </r>
       <r>   13.3428    0.0000 </r>
       <r>   22.5031    0.0000 </r>
       <r>   24.0986    0.0000 </r>
       <r>   26.8598    0.0000 </r>
       <r>   33.2586    0.0000 </r>
       <r>   35.1524    0.0000 </r>
      </set>
      <set comment="kpoint 17">
       <r>   -0.8400    1.0000 </r>
       <r>    1.6708    1.0000 </r>
       <r>    2.0449    1.0000 </r>
       <r>    2.6453    1.0000 </r>
       <r>    4.1317    1.0000 </r>
       <r>    5.7916    1.0000 </r>
       <r>   17.3476    0.0000 </r>
       <r>   23.0043    0.0000 </r>
       <r>   25.1645    0.0000 </r>
       <r>   29.0146    0.0000 </r>
       <r>   31.1780    0.0000 </r>
       <r>   34.1698    0.0000 </r>
      </set>
      <set comment="kpoint 18">
       <r>   -1.7859    1.0000 </r>
       <r>    1.2770    1.0000 </r>
       <r>    2.3720    1.0000 </r>
       <r>    2.7753    1.0000 </r>
       <r>    3.4059    1.0000 </r>
       <r>    4.7469    1.0000 </r>
       <r>   21.2905    0.0000 </r>
       <r>   23.7195    0.0000 </r>
       <r>   26.9492    0.0000 </r>
       <r>   28.0364    0.0000 </r>
       <r>   32.0333    0.0000 </r>
       <r>   33.4652    0.0000 </r>
      </set>
      <set comment="kpoint 19">
       <r>   -2.8621    1.0000 </r>
       <r>    1.5410    1.0000 </r>
       <r>    2.3963    1.0000 </r>
       <r>    2.4121    1.0000 </r>
       <r>    3.5358    1.0000 </r>
       <r>    4.1537    1.0000 </r>
       <r>   23.5582    0.0000 </r>
       <r>   24.1306    0.0000 </r>
       <r>   27.0915    0.0000 </r>
       <r>   28.9404    0.0000 </r>
       <r>   31.8239    0.0000 </r>
       <r>   35.0177    0.0000 </r>
      </set>
      <set comment="kpoint 20">
       <r>   -1.5817    1.0000 </r>
       <r>    0.7793    1.0000 </r>
       <r>    2.6886    1.0000 </r>
       <r>    3.2217    1.0000 </r>
       <r>    3.4557    1.0000 </r>
       <r>    4.5770    1.0000 </r>
       <r>   23.2963    0.0000 </r>
       <r>   24.6077    0.0000 </r>
       <r>   25.2395    0.0000 </r>
       <r>   26.1859    0.0000 </r>
       <r>   28.7596    0.0000 </r>
       <r>   35.0935    0.0000 </r>
      </set>
      <set comment="kpoint 21">
       <r>   -0.7306    1.0000 </r>
       <r>    0.5014    1.0000 </r>
       <r>    2.3603    1.0000 </r>
       <r>    3.6555    1.0000 </r>
       <r>    4.2683    1.0000 </r>
       <r>    5.1701    1.0000 </r>
       <r>   20.5324    0.0000 </r>
       <r>   22.5986    0.0000 </r>
       <r>   24.1578    0.0000 </r>
       <r>   27.0699    0.0000 </r>
       <r>   28.6694    0.0000 </r>
       <r>   35.2382    0.0000 </r>
      </set>
      <set comment="kpoint 22">
       <r>   -0.2608    1.0000 </r>
       <r>    0.8083    1.0000 </r>
       <r>    2.0557    1.0000 </r>
       <r>    3.4856    1.0000 </r>
       <r>    5.3186    1.0000 </r>
       <r>    6.7831    1.0000 </r>
       <r>   16.1802    0.0000 </r>
       <r>   21.9053    0.0000 </r>
       <r>   22.3519    0.0000 </r>
       <r>   26.5857    0.0000 </r>
       <r>   31.9617    0.0000 </r>
       <r>   35.4484    0.0000 </r>
      </set>
      <set comment="kpoint 23">
       <r>   -0.1307    1.0000 </r>
       <r>    1.1161    1.0000 </r>
       <r>    2.2863    1.0000 </r>
       <r>    3.2321    1.0000 </r>
       <r>    5.4822    1.0000 </r>
       <r>    9.5077   -0.0000 </r>
       <r>   12.3305   -0.0000 </r>
       <r>   20.5679    0.0000 </r>
       <r>   22.4470    0.0000 </r>
       <r>   25.9216    0.0000 </r>
       <r>   34.5415    0.0000 </r>
       <r>   36.5567    0.0000 </r>
      </set>
      <set comment="kpoint 24">
       <r>    0.0870    1.0000 </r>
       <r>    1.2014    1.0000 </r>
       <r>    2.2938    1.0000 </r>
       <r>    3.0998    1.0000 </r>
       <r>    4.9639    1.0000 </r>
       <r>    9.3373   -0.0000 </r>
       <r>   12.9910   -0.0000 </r>
       <r>   19.4013    0.0000 </r>
       <r>   23.6770    0.0000 </r>
       <r>   26.1213    0.0000 </r>
       <r>   33.4760    0.0000 </r>
       <r>   36.0510    0.0000 </r>
      </set>
      <set comment="kpoint 25">
       <r>    0.2178    1.0000 </r>
       <r>    1.3207    1.0000 </r>
       <r>    1.6034    1.0000 </r>
       <r>    3.1983    1.0000 </r>
       <r>    4.0832    1.0000 </r>
       <r>    7.4376    1.0178 </r>
       <r>   16.5759    0.0000 </r>
       <r>   19.3858    0.0000 </r>
       <r>   24.6682    0.0000 </r>
       <r>   28.0938    0.0000 </r>
       <r>   30.8549    0.0000 </r>
       <r>   36.0116    0.0000 </r>
      </set>
      <set comment="kpoint 26">
       <r>   -0.6339    1.0000 </r>
       <r>    1.1769    1.0000 </r>
       <r>    2.0138    1.0000 </r>
       <r>    3.0536    1.0000 </r>
       <r>    3.5779    1.0000 </r>
       <r>    5.9084    1.0000 </r>
       <r>   18.8165    0.0000 </r>
       <r>   21.7621    0.0000 </r>
       <r>   25.5912    0.0000 </r>
       <r>   28.8133    0.0000 </r>
       <r>   30.7628    0.0000 </r>
       <r>   34.8239    0.0000 </r>
      </set>
      <set comment="kpoint 27">
       <r>   -1.7075    1.0000 </r>
       <r>    1.4951    1.0000 </r>
       <r>    2.3393    1.0000 </r>
       <r>    2.5351    1.0000 </r>
       <r>    3.8153    1.0000 </r>
       <r>    4.6546    1.0000 </r>
       <r>   19.9413    0.0000 </r>
       <r>   24.1708    0.0000 </r>
       <r>   27.0046    0.0000 </r>
       <r>   29.2160    0.0000 </r>
       <r>   31.6888    0.0000 </r>
       <r>   32.7409    0.0000 </r>
      </set>
      <set comment="kpoint 28">
       <r>   -0.6377    1.0000 </r>
       <r>    0.0342    1.0000 </r>
       <r>    3.4032    1.0000 </r>
       <r>    4.3298    1.0000 </r>
       <r>    4.8124    1.0000 </r>
       <r>    5.1089    1.0000 </r>
       <r>   20.4861    0.0000 </r>
       <r>   21.3678    0.0000 </r>
       <r>   21.9429    0.0000 </r>
       <r>   25.9530    0.0000 </r>
       <r>   27.9118    0.0000 </r>
       <r>   37.7195    0.0000 </r>
      </set>
      <set comment="kpoint 29">
       <r>   -0.5104    1.0000 </r>
       <r>   -0.0979    1.0000 </r>
       <r>    3.4798    1.0000 </r>
       <r>    4.7019    1.0000 </r>
       <r>    5.3354    1.0000 </r>
       <r>    6.7859    1.0000 </r>
       <r>   17.5034    0.0000 </r>
       <r>   19.6448    0.0000 </r>
       <r>   20.2899    0.0000 </r>
       <r>   27.0658    0.0000 </r>
       <r>   29.0813    0.0000 </r>
       <r>   37.3641    0.0000 </r>
      </set>
      <set comment="kpoint 30">
       <r>   -0.3217    1.0000 </r>
       <r>    0.2790    1.0000 </r>
       <r>    3.0432    1.0000 </r>
       <r>    4.3174    1.0000 </r>
       <r>    5.6097    1.0000 </r>
       <r>    9.7554   -0.0000 </r>
       <r>   13.9104    0.0000 </r>
       <r>   18.0162    0.0000 </r>
       <r>   20.3204    0.0000 </r>
       <r>   27.2237    0.0000 </r>
       <r>   32.0243    0.0000 </r>
       <r>   36.3499    0.0000 </r>
      </set>
      <set comment="kpoint 31">
       <r>    0.0382    1.0000 </r>
       <r>    0.8899    1.0000 </r>
       <r>    2.3740    1.0000 </r>
       <r>    3.8927    1.0000 </r>
       <r>    5.1865    1.0000 </r>
       <r>   11.0849   -0.0000 </r>
       <r>   13.3689    0.0000 </r>
       <r>   16.2259    0.0000 </r>
       <r>   21.8738    0.0000 </r>
       <r>   26.7746    0.0000 </r>
       <r>   34.8253    0.0000 </r>
       <r>   35.7939    0.0000 </r>
      </set>
      <set comment="kpoint 32">
       <r>    0.4121    1.0000 </r>
       <r>    1.2464    1.0000 </r>
       <r>    1.7626    1.0000 </r>
       <r>    3.4396    1.0000 </r>
       <r>    4.6552    1.0000 </r>
       <r>    9.1852   -0.0000 </r>
       <r>   14.9751    0.0000 </r>
       <r>   17.2281    0.0000 </r>
       <r>   23.7749    0.0000 </r>
       <r>   26.5665    0.0000 </r>
       <r>   32.9071    0.0000 </r>
       <r>   36.2417    0.0000 </r>
      </set>
      <set comment="kpoint 33">
       <r>   -0.2552    1.0000 </r>
       <r>    1.5521    1.0000 </r>
       <r>    2.1297    1.0000 </r>
       <r>    2.8168    1.0000 </r>
       <r>    4.5409    1.0000 </r>
       <r>    7.3843    1.0354 </r>
       <r>   14.9253    0.0000 </r>
       <r>   21.1231    0.0000 </r>
       <r>   24.2633    0.0000 </r>
       <r>   27.5000    0.0000 </r>
       <r>   31.9396    0.0000 </r>
       <r>   35.5571    0.0000 </r>
      </set>
      <set comment="kpoint 34">
       <r>   -1.0473    1.0000 </r>
       <r>    2.0054    1.0000 </r>
       <r>    2.3168    1.0000 </r>
       <r>    2.5459    1.0000 </r>
       <r>    4.7017    1.0000 </r>
       <r>    5.5636    1.0000 </r>
       <r>   15.7892    0.0000 </r>
       <r>   23.1888    0.0000 </r>
       <r>   25.7771    0.0000 </r>
       <r>   28.3173    0.0000 </r>
       <r>   32.4831    0.0000 </r>
       <r>   33.8959    0.0000 </r>
      </set>
      <set comment="kpoint 35">
       <r>   -0.8428    1.0000 </r>
       <r>   -0.4528    1.0000 </r>
       <r>    5.1377    1.0000 </r>
       <r>    5.2161    1.0000 </r>
       <r>    5.6471    1.0000 </r>
       <r>    7.1187    1.0010 </r>
       <r>   16.3311    0.0000 </r>
       <r>   18.6393    0.0000 </r>
       <r>   18.9337    0.0000 </r>
       <r>   26.3994    0.0000 </r>
       <r>   29.1010    0.0000 </r>
       <r>   38.6369    0.0000 </r>
      </set>
      <set comment="kpoint 36">
       <r>   -0.7644    1.0000 </r>
       <r>   -0.3891    1.0000 </r>
       <r>    4.6405    1.0000 </r>
       <r>    5.1458    1.0000 </r>
       <r>    5.8379    1.0000 </r>
       <r>    9.3445   -0.0000 </r>
       <r>   14.3177    0.0000 </r>
       <r>   17.5752    0.0000 </r>
       <r>   18.5389    0.0000 </r>
       <r>   27.4490    0.0000 </r>
       <r>   29.6535    0.0000 </r>
       <r>   37.7060    0.0000 </r>
      </set>
      <set comment="kpoint 37">
       <r>   -0.3951    1.0000 </r>
       <r>    0.1700    1.0000 </r>
       <r>    3.3977    1.0000 </r>
       <r>    4.5383    1.0000 </r>
       <r>    5.6026    1.0000 </r>
       <r>   11.2438   -0.0000 </r>
       <r>   13.0642   -0.0000 </r>
       <r>   16.5412    0.0000 </r>
       <r>   19.9286    0.0000 </r>
       <r>   27.5051    0.0000 </r>
       <r>   32.0689    0.0000 </r>
       <r>   36.4191    0.0000 </r>
      </set>
      <set comment="kpoint 38">
       <r>    0.0093    1.0000 </r>
       <r>    0.9446    1.0000 </r>
       <r>    2.3216    1.0000 </r>
       <r>    3.6146    1.0000 </r>
       <r>    5.3493    1.0000 </r>
       <r>   11.3625   -0.0000 </r>
       <r>   11.5917   -0.0000 </r>
       <r>   18.3491    0.0000 </r>
       <r>   22.0652    0.0000 </r>
       <r>   26.3969    0.0000 </r>
       <r>   34.6788    0.0000 </r>
       <r>   36.2015    0.0000 </r>
      </set>
      <set comment="kpoint 39">
       <r>   -0.3408    1.0000 </r>
       <r>    1.3516    1.0000 </r>
       <r>    2.7053    1.0000 </r>
       <r>    2.8745    1.0000 </r>
       <r>    5.2718    1.0000 </r>
       <r>    9.3193   -0.0000 </r>
       <r>   11.5223   -0.0000 </r>
       <r>   21.4316    0.0000 </r>
       <r>   23.5482    0.0000 </r>
       <r>   25.6770    0.0000 </r>
       <r>   34.1268    0.0000 </r>
       <r>   35.7500    0.0000 </r>
      </set>
      <set comment="kpoint 40">
       <r>   -0.9917    1.0000 </r>
       <r>    1.8023    1.0000 </r>
       <r>    2.1511    1.0000 </r>
       <r>    3.9275    1.0000 </r>
       <r>    5.3766    1.0000 </r>
       <r>    6.9648    1.0000 </r>
       <r>   12.1408   -0.0000 </r>
       <r>   22.4755    0.0000 </r>
       <r>   25.1591    0.0000 </r>
       <r>   26.3474    0.0000 </r>
       <r>   34.2688    0.0000 </r>
       <r>   34.8975    0.0000 </r>
      </set>
      <set comment="kpoint 41">
       <r>   -0.9422    1.0000 </r>
       <r>   -0.5559    1.0000 </r>
       <r>    5.3687    1.0000 </r>
       <r>    5.5327    1.0000 </r>
       <r>    5.8542    1.0000 </r>
       <r>    8.3109   -0.0000 </r>
       <r>   14.6830    0.0000 </r>
       <r>   18.0128    0.0000 </r>
       <r>   18.3675    0.0000 </r>
       <r>   26.5901    0.0000 </r>
       <r>   29.3505    0.0000 </r>
       <r>   38.3834    0.0000 </r>
      </set>
      <set comment="kpoint 42">
       <r>   -0.6623    1.0000 </r>
       <r>   -0.2900    1.0000 </r>
       <r>    4.1797    1.0000 </r>
       <r>    5.0520    1.0000 </r>
       <r>    5.6372    1.0000 </r>
       <r>    8.1247   -0.0012 </r>
       <r>   15.7764    0.0000 </r>
       <r>   18.3153    0.0000 </r>
       <r>   19.1071    0.0000 </r>
       <r>   27.2809    0.0000 </r>
       <r>   29.4598    0.0000 </r>
       <r>   37.7008    0.0000 </r>
      </set>
      <set comment="kpoint 43">
       <r>   -0.2362    1.0000 </r>
       <r>    0.5006    1.0000 </r>
       <r>    2.5186    1.0000 </r>
       <r>    3.9284    1.0000 </r>
       <r>    5.5448    1.0000 </r>
       <r>    8.1663   -0.0004 </r>
       <r>   14.9606    0.0000 </r>
       <r>   20.0378    0.0000 </r>
       <r>   21.0935    0.0000 </r>
       <r>   26.8206    0.0000 </r>
       <r>   31.9719    0.0000 </r>
       <r>   36.0565    0.0000 </r>
      </set>
      <set comment="kpoint 44">
       <r>   -0.3969    1.0000 </r>
       <r>    1.4085    1.0000 </r>
       <r>    2.3173    1.0000 </r>
       <r>    2.8632    1.0000 </r>
       <r>    5.4591    1.0000 </r>
       <r>    7.8162   -0.0195 </r>
       <r>   13.3615    0.0000 </r>
       <r>   22.4695    0.0000 </r>
       <r>   23.0383    0.0000 </r>
       <r>   25.8351    0.0000 </r>
       <r>   34.2457    0.0000 </r>
       <r>   36.1299    0.0000 </r>
      </set>
      <set comment="kpoint 45">
       <r>   -0.6956    1.0000 </r>
       <r>   -0.2521    1.0000 </r>
       <r>    4.3644    1.0000 </r>
       <r>    4.8537    1.0000 </r>
       <r>    5.3734    1.0000 </r>
       <r>    5.8048    1.0000 </r>
       <r>   18.5375    0.0000 </r>
       <r>   19.8919    0.0000 </r>
       <r>   19.9770    0.0000 </r>
       <r>   26.1130    0.0000 </r>
       <r>   28.6143    0.0000 </r>
       <r>   38.7798    0.0000 </r>
      </set>
      <set comment="kpoint 46">
       <r>   -0.4495    1.0000 </r>
       <r>    0.1733    1.0000 </r>
       <r>    2.7567    1.0000 </r>
       <r>    4.1917    1.0000 </r>
       <r>    4.8958    1.0000 </r>
       <r>    5.7725    1.0000 </r>
       <r>   19.1025    0.0000 </r>
       <r>   21.1129    0.0000 </r>
       <r>   22.1637    0.0000 </r>
       <r>   27.0196    0.0000 </r>
       <r>   28.6307    0.0000 </r>
       <r>   36.4425    0.0000 </r>
      </set>
      <set comment="kpoint 47">
       <r>   -0.5500    1.0000 </r>
       <r>    1.1061    1.0000 </r>
       <r>    1.9178    1.0000 </r>
       <r>    3.0788    1.0000 </r>
       <r>    4.8501    1.0000 </r>
       <r>    5.7751    1.0000 </r>
       <r>   17.4705    0.0000 </r>
       <r>   23.1569    0.0000 </r>
       <r>   23.9870    0.0000 </r>
       <r>   26.9414    0.0000 </r>
       <r>   31.9832    0.0000 </r>
       <r>   34.5609    0.0000 </r>
      </set>
      <set comment="kpoint 48">
       <r>   -0.9104    1.0000 </r>
       <r>    0.3868    1.0000 </r>
       <r>    2.7742    1.0000 </r>
       <r>    3.7579    1.0000 </r>
       <r>    4.0525    1.0000 </r>
       <r>    4.8381    1.0000 </r>
       <r>   22.0606    0.0000 </r>
       <r>   22.9637    0.0000 </r>
       <r>   24.1641    0.0000 </r>
       <r>   26.3765    0.0000 </r>
       <r>   27.1531    0.0000 </r>
       <r>   36.2050    0.0000 </r>
      </set>
      <set comment="kpoint 49">
       <r>   -1.3991    1.0000 </r>
       <r>    0.8633    1.0000 </r>
       <r>    2.3957    1.0000 </r>
       <r>    3.1668    1.0000 </r>
       <r>    3.6923    1.0000 </r>
       <r>    4.7574    1.0000 </r>
       <r>   21.7190    0.0000 </r>
       <r>   23.9072    0.0000 </r>
       <r>   25.7529    0.0000 </r>
       <r>   26.8839    0.0000 </r>
       <r>   30.0479    0.0000 </r>
       <r>   34.1779    0.0000 </r>
      </set>
      <set comment="kpoint 50">
       <r>   -2.3866    1.0000 </r>
       <r>    1.1777    1.0000 </r>
       <r>    2.6915    1.0000 </r>
       <r>    2.7602    1.0000 </r>
       <r>    3.2225    1.0000 </r>
       <r>    4.3405    1.0000 </r>
       <r>   24.0970    0.0000 </r>
       <r>   24.8083    0.0000 </r>
       <r>   26.0607    0.0000 </r>
       <r>   26.7696    0.0000 </r>
       <r>   31.5309    0.0000 </r>
       <r>   34.5615    0.0000 </r>
      </set>
      <set comment="kpoint 51">
       <r>   -3.1126    1.0000 </r>
       <r>    1.7296    1.0000 </r>
       <r>    2.2624    1.0000 </r>
       <r>    2.2624    1.0000 </r>
       <r>    3.8656    1.0000 </r>
       <r>    3.8656    1.0000 </r>
       <r>   23.3763    0.0000 </r>
       <r>   24.0624    0.0000 </r>
       <r>   28.5515    0.0000 </r>
       <r>   28.5515    0.0000 </r>
       <r>   32.2752    0.0000 </r>
       <r>   35.1134    0.0000 </r>
      </set>
      <set comment="kpoint 52">
       <r>   -2.4123    1.0000 </r>
       <r>    1.4686    1.0000 </r>
       <r>    2.4151    1.0000 </r>
       <r>    2.5214    1.0000 </r>
       <r>    3.4642    1.0000 </r>
       <r>    4.3526    1.0000 </r>
       <r>   22.3997    0.0000 </r>
       <r>   24.0692    0.0000 </r>
       <r>   27.0463    0.0000 </r>
       <r>   29.6587    0.0000 </r>
       <r>   30.6738    0.0000 </r>
       <r>   34.9973    0.0000 </r>
      </set>
      <set comment="kpoint 53">
       <r>   -1.2476    1.0000 </r>
       <r>    1.2698    1.0000 </r>
       <r>    2.2630    1.0000 </r>
       <r>    2.8698    1.0000 </r>
       <r>    3.3461    1.0000 </r>
       <r>    5.2751    1.0000 </r>
       <r>   20.0127    0.0000 </r>
       <r>   22.8366    0.0000 </r>
       <r>   26.5837    0.0000 </r>
       <r>   28.2651    0.0000 </r>
       <r>   31.7894    0.0000 </r>
       <r>   33.8859    0.0000 </r>
      </set>
      <set comment="kpoint 54">
       <r>   -0.5579    1.0000 </r>
       <r>    1.7487    1.0000 </r>
       <r>    2.1520    1.0000 </r>
       <r>    2.6098    1.0000 </r>
       <r>    4.1994    1.0000 </r>
       <r>    6.5261    1.0000 </r>
       <r>   16.0808    0.0000 </r>
       <r>   22.0713    0.0000 </r>
       <r>   24.7758    0.0000 </r>
       <r>   28.7338    0.0000 </r>
       <r>   31.0160    0.0000 </r>
       <r>   34.9468    0.0000 </r>
      </set>
      <set comment="kpoint 55">
       <r>   -0.5605    1.0000 </r>
       <r>    1.5580    1.0000 </r>
       <r>    2.4703    1.0000 </r>
       <r>    3.1546    1.0000 </r>
       <r>    5.0849    1.0000 </r>
       <r>    8.1719   -0.0004 </r>
       <r>   12.3335   -0.0000 </r>
       <r>   21.9195    0.0000 </r>
       <r>   24.1583    0.0000 </r>
       <r>   26.0519    0.0000 </r>
       <r>   33.8008    0.0000 </r>
       <r>   35.1701    0.0000 </r>
      </set>
      <set comment="kpoint 56">
       <r>   -0.6102    1.0000 </r>
       <r>    1.5208    1.0000 </r>
       <r>    2.5330    1.0000 </r>
       <r>    2.9627    1.0000 </r>
       <r>    5.5420    1.0000 </r>
       <r>    8.0872   -0.0026 </r>
       <r>   12.1308   -0.0000 </r>
       <r>   22.4483    0.0000 </r>
       <r>   24.6054    0.0000 </r>
       <r>   24.7817    0.0000 </r>
       <r>   34.9433    0.0000 </r>
       <r>   35.3961    0.0000 </r>
      </set>
      <set comment="kpoint 57">
       <r>   -0.6730    1.0000 </r>
       <r>    1.6271    1.0000 </r>
       <r>    1.9463    1.0000 </r>
       <r>    2.7388    1.0000 </r>
       <r>    5.3544    1.0000 </r>
       <r>    5.8087    1.0000 </r>
       <r>   15.9225    0.0000 </r>
       <r>   23.4565    0.0000 </r>
       <r>   24.5001    0.0000 </r>
       <r>   26.2782    0.0000 </r>
       <r>   33.8793    0.0000 </r>
       <r>   34.5424    0.0000 </r>
      </set>
      <set comment="kpoint 58">
       <r>   -1.2894    1.0000 </r>
       <r>    1.0219    1.0000 </r>
       <r>    2.2786    1.0000 </r>
       <r>    2.9096    1.0000 </r>
       <r>    4.1268    1.0000 </r>
       <r>    4.7700    1.0000 </r>
       <r>   20.2431    0.0000 </r>
       <r>   24.7070    0.0000 </r>
       <r>   25.2054    0.0000 </r>
       <r>   27.3335    0.0000 </r>
       <r>   30.8940    0.0000 </r>
       <r>   34.3436    0.0000 </r>
      </set>
      <set comment="kpoint 59">
       <r>   -2.0153    1.0000 </r>
       <r>    1.3288    1.0000 </r>
       <r>    2.4361    1.0000 </r>
       <r>    2.6108    1.0000 </r>
       <r>    3.6921    1.0000 </r>
       <r>    4.4165    1.0000 </r>
       <r>   21.3477    0.0000 </r>
       <r>   24.5883    0.0000 </r>
       <r>   26.7909    0.0000 </r>
       <r>   28.6172    0.0000 </r>
       <r>   31.3097    0.0000 </r>
       <r>   33.7896    0.0000 </r>
      </set>
      <set comment="kpoint 60">
       <r>   -1.0632    1.0000 </r>
       <r>    1.0102    1.0000 </r>
       <r>    2.1493    1.0000 </r>
       <r>    3.1284    1.0000 </r>
       <r>    3.6621    1.0000 </r>
       <r>    5.2494    1.0000 </r>
       <r>   20.1887    0.0000 </r>
       <r>   22.8769    0.0000 </r>
       <r>   25.8036    0.0000 </r>
       <r>   27.7707    0.0000 </r>
       <r>   31.6539    0.0000 </r>
       <r>   33.3084    0.0000 </r>
      </set>
      <set comment="kpoint 61">
       <r>   -0.0506    1.0000 </r>
       <r>    1.0381    1.0000 </r>
       <r>    1.6465    1.0000 </r>
       <r>    3.3996    1.0000 </r>
       <r>    4.0558    1.0000 </r>
       <r>    6.6460    1.0000 </r>
       <r>   17.6659    0.0000 </r>
       <r>   20.5625    0.0000 </r>
       <r>   24.3176    0.0000 </r>
       <r>   28.9063    0.0000 </r>
       <r>   30.3728    0.0000 </r>
       <r>   35.4985    0.0000 </r>
      </set>
      <set comment="kpoint 62">
       <r>    0.0625    1.0000 </r>
       <r>    1.2317    1.0000 </r>
       <r>    2.0127    1.0000 </r>
       <r>    3.1513    1.0000 </r>
       <r>    4.9480    1.0000 </r>
       <r>    8.4825   -0.0000 </r>
       <r>   13.8870    0.0000 </r>
       <r>   20.2295    0.0000 </r>
       <r>   23.0024    0.0000 </r>
       <r>   27.1967    0.0000 </r>
       <r>   32.5865    0.0000 </r>
       <r>   36.5066    0.0000 </r>
      </set>
      <set comment="kpoint 63">
       <r>   -0.0291    1.0000 </r>
       <r>    1.1159    1.0000 </r>
       <r>    2.4181    1.0000 </r>
       <r>    3.0695    1.0000 </r>
       <r>    5.3292    1.0000 </r>
       <r>   10.1812   -0.0000 </r>
       <r>   11.4596   -0.0000 </r>
       <r>   20.9296    0.0000 </r>
       <r>   21.9211    0.0000 </r>
       <r>   26.5348    0.0000 </r>
       <r>   33.7191    0.0000 </r>
       <r>   36.9073    0.0000 </r>
      </set>
      <set comment="kpoint 64">
       <r>   -0.0828    1.0000 </r>
       <r>    1.2252    1.0000 </r>
       <r>    1.7506    1.0000 </r>
       <r>    3.3133    1.0000 </r>
       <r>    5.1048    1.0000 </r>
       <r>    7.6444    0.4208 </r>
       <r>   14.9305    0.0000 </r>
       <r>   21.1557    0.0000 </r>
       <r>   22.5612    0.0000 </r>
       <r>   27.2259    0.0000 </r>
       <r>   32.5726    0.0000 </r>
       <r>   35.9532    0.0000 </r>
      </set>
      <set comment="kpoint 65">
       <r>   -0.4119    1.0000 </r>
       <r>    0.7253    1.0000 </r>
       <r>    1.9314    1.0000 </r>
       <r>    3.5647    1.0000 </r>
       <r>    4.1747    1.0000 </r>
       <r>    5.8635    1.0000 </r>
       <r>   18.9986    0.0000 </r>
       <r>   21.6757    0.0000 </r>
       <r>   24.1776    0.0000 </r>
       <r>   28.0285    0.0000 </r>
       <r>   30.3242    0.0000 </r>
       <r>   34.4230    0.0000 </r>
      </set>
      <set comment="kpoint 66">
       <r>   -0.6656    1.0000 </r>
       <r>    0.7105    1.0000 </r>
       <r>    2.1810    1.0000 </r>
       <r>    3.2904    1.0000 </r>
       <r>    4.9226    1.0000 </r>
       <r>    5.1163    1.0000 </r>
       <r>   18.9970    0.0000 </r>
       <r>   23.5580    0.0000 </r>
       <r>   24.0026    0.0000 </r>
       <r>   26.4167    0.0000 </r>
       <r>   30.3645    0.0000 </r>
       <r>   35.2933    0.0000 </r>
      </set>
      <set comment="kpoint 67">
       <r>   -0.1083    1.0000 </r>
       <r>    0.4535    1.0000 </r>
       <r>    2.0651    1.0000 </r>
       <r>    4.0614    1.0000 </r>
       <r>    4.7343    1.0000 </r>
       <r>    6.6852    1.0000 </r>
       <r>   17.7241    0.0000 </r>
       <r>   20.3511    0.0000 </r>
       <r>   22.3496    0.0000 </r>
       <r>   28.1338    0.0000 </r>
       <r>   29.9416    0.0000 </r>
       <r>   35.3432    0.0000 </r>
      </set>
      <set comment="kpoint 68">
       <r>    0.2771    1.0000 </r>
       <r>    0.6363    1.0000 </r>
       <r>    1.7959    1.0000 </r>
       <r>    4.1552    1.0000 </r>
       <r>    5.1198    1.0000 </r>
       <r>    8.7884   -0.0000 </r>
       <r>   15.5621    0.0000 </r>
       <r>   18.1894    0.0000 </r>
       <r>   20.7689    0.0000 </r>
       <r>   29.1712    0.0000 </r>
       <r>   31.0835    0.0000 </r>
       <r>   35.6770    0.0000 </r>
      </set>
      <set comment="kpoint 69">
       <r>    0.4785    1.0000 </r>
       <r>    0.8373    1.0000 </r>
       <r>    1.8153    1.0000 </r>
       <r>    3.6973    1.0000 </r>
       <r>    5.4218    1.0000 </r>
       <r>   11.4342   -0.0000 </r>
       <r>   12.4705   -0.0000 </r>
       <r>   17.9131    0.0000 </r>
       <r>   20.0518    0.0000 </r>
       <r>   28.7128    0.0000 </r>
       <r>   32.9528    0.0000 </r>
       <r>   36.8918    0.0000 </r>
      </set>
      <set comment="kpoint 70">
       <r>    0.7387    1.0000 </r>
       <r>    0.8981    1.0000 </r>
       <r>    1.3716    1.0000 </r>
       <r>    3.7959    1.0000 </r>
       <r>    5.0887    1.0000 </r>
       <r>    9.6167   -0.0000 </r>
       <r>   14.9184    0.0000 </r>
       <r>   17.2420    0.0000 </r>
       <r>   21.1556    0.0000 </r>
       <r>   29.0248    0.0000 </r>
       <r>   31.7805    0.0000 </r>
       <r>   37.2947    0.0000 </r>
      </set>
      <set comment="kpoint 71">
       <r>    0.3024    1.0000 </r>
       <r>    0.8688    1.0000 </r>
       <r>    1.4804    1.0000 </r>
       <r>    3.8271    1.0000 </r>
       <r>    4.6038    1.0000 </r>
       <r>    7.5743    0.7093 </r>
       <r>   16.5724    0.0000 </r>
       <r>   19.3436    0.0000 </r>
       <r>   22.6376    0.0000 </r>
       <r>   28.8348    0.0000 </r>
       <r>   30.6888    0.0000 </r>
       <r>   35.7808    0.0000 </r>
      </set>
      <set comment="kpoint 72">
       <r>   -0.4275    1.0000 </r>
       <r>    0.1246    1.0000 </r>
       <r>    3.1334    1.0000 </r>
       <r>    4.1905    1.0000 </r>
       <r>    5.6140    1.0000 </r>
       <r>    7.3155    1.0253 </r>
       <r>   16.2368    0.0000 </r>
       <r>   20.0156    0.0000 </r>
       <r>   20.7937    0.0000 </r>
       <r>   26.6480    0.0000 </r>
       <r>   30.3519    0.0000 </r>
       <r>   37.1208    0.0000 </r>
      </set>
      <set comment="kpoint 73">
       <r>   -0.3277    1.0000 </r>
       <r>    0.0294    1.0000 </r>
       <r>    3.1753    1.0000 </r>
       <r>    4.7157    1.0000 </r>
       <r>    5.5881    1.0000 </r>
       <r>    9.2552   -0.0000 </r>
       <r>   15.1077    0.0000 </r>
       <r>   17.8283    0.0000 </r>
       <r>   19.1501    0.0000 </r>
       <r>   28.5770    0.0000 </r>
       <r>   30.3228    0.0000 </r>
       <r>   36.2396    0.0000 </r>
      </set>
      <set comment="kpoint 74">
       <r>   -0.0209    1.0000 </r>
       <r>    0.4070    1.0000 </r>
       <r>    2.6128    1.0000 </r>
       <r>    4.1846    1.0000 </r>
       <r>    5.8319    1.0000 </r>
       <r>   11.8629   -0.0000 </r>
       <r>   13.5698    0.0000 </r>
       <r>   16.2434    0.0000 </r>
       <r>   18.4028    0.0000 </r>
       <r>   30.0280    0.0000 </r>
       <r>   32.0206    0.0000 </r>
       <r>   34.7055    0.0000 </r>
      </set>
      <set comment="kpoint 75">
       <r>    0.3954    1.0000 </r>
       <r>    0.9641    1.0000 </r>
       <r>    1.7658    1.0000 </r>
       <r>    3.7749    1.0000 </r>
       <r>    5.5456    1.0000 </r>
       <r>   11.6820   -0.0000 </r>
       <r>   13.6957    0.0000 </r>
       <r>   15.9915    0.0000 </r>
       <r>   19.6436    0.0000 </r>
       <r>   29.4468    0.0000 </r>
       <r>   33.0311    0.0000 </r>
       <r>   36.0359    0.0000 </r>
      </set>
      <set comment="kpoint 76">
       <r>    0.3642    1.0000 </r>
       <r>    0.9203    1.0000 </r>
       <r>    1.9014    1.0000 </r>
       <r>    3.4798    1.0000 </r>
       <r>    5.2324    1.0000 </r>
       <r>    9.8918   -0.0000 </r>
       <r>   12.9980   -0.0000 </r>
       <r>   19.3240    0.0000 </r>
       <r>   21.2560    0.0000 </r>
       <r>   27.7921    0.0000 </r>
       <r>   32.8499    0.0000 </r>
       <r>   37.6968    0.0000 </r>
      </set>
      <set comment="kpoint 77">
       <r>   -0.6452    1.0000 </r>
       <r>   -0.1875    1.0000 </r>
       <r>    4.1887    1.0000 </r>
       <r>    4.9001    1.0000 </r>
       <r>    5.6973    1.0000 </r>
       <r>   10.1267   -0.0000 </r>
       <r>   13.7732    0.0000 </r>
       <r>   16.9698    0.0000 </r>
       <r>   19.4265    0.0000 </r>
       <r>   27.2618    0.0000 </r>
       <r>   30.6023    0.0000 </r>
       <r>   37.4890    0.0000 </r>
      </set>
      <set comment="kpoint 78">
       <r>   -0.4355    1.0000 </r>
       <r>   -0.0615    1.0000 </r>
       <r>    3.5995    1.0000 </r>
       <r>    4.7124    1.0000 </r>
       <r>    5.8336    1.0000 </r>
       <r>   10.6346   -0.0000 </r>
       <r>   13.8496    0.0000 </r>
       <r>   17.0151    0.0000 </r>
       <r>   18.5091    0.0000 </r>
       <r>   28.7988    0.0000 </r>
       <r>   30.4620    0.0000 </r>
       <r>   36.2919    0.0000 </r>
      </set>
      <set comment="kpoint 79">
       <r>    0.1020    1.0000 </r>
       <r>    0.4793    1.0000 </r>
       <r>    2.2650    1.0000 </r>
       <r>    4.2495    1.0000 </r>
       <r>    5.5598    1.0000 </r>
       <r>   10.2806   -0.0000 </r>
       <r>   14.6183    0.0000 </r>
       <r>   17.1035    0.0000 </r>
       <r>   19.2030    0.0000 </r>
       <r>   29.6937    0.0000 </r>
       <r>   31.5338    0.0000 </r>
       <r>   35.2449    0.0000 </r>
      </set>
      <set comment="kpoint 80">
       <r>   -0.5548    1.0000 </r>
       <r>   -0.0820    1.0000 </r>
       <r>    3.7874    1.0000 </r>
       <r>    4.6122    1.0000 </r>
       <r>    5.7027    1.0000 </r>
       <r>    8.8035   -0.0000 </r>
       <r>   14.9088    0.0000 </r>
       <r>   18.1188    0.0000 </r>
       <r>   19.8955    0.0000 </r>
       <r>   27.0199    0.0000 </r>
       <r>   30.5070    0.0000 </r>
       <r>   37.4391    0.0000 </r>
      </set>
      <set comment="kpoint 81">
       <r>   -0.1681    1.0000 </r>
       <r>    0.2081    1.0000 </r>
       <r>    2.5807    1.0000 </r>
       <r>    4.4992    1.0000 </r>
       <r>    5.2065    1.0000 </r>
       <r>    7.8282   -0.0264 </r>
       <r>   16.4251    0.0000 </r>
       <r>   19.0478    0.0000 </r>
       <r>   20.5066    0.0000 </r>
       <r>   28.2888    0.0000 </r>
       <r>   30.0943    0.0000 </r>
       <r>   35.9638    0.0000 </r>
      </set>
      <set comment="kpoint 82">
       <r>   -0.3908    1.0000 </r>
       <r>    0.4049    1.0000 </r>
       <r>    2.4866    1.0000 </r>
       <r>    3.7283    1.0000 </r>
       <r>    5.4111    1.0000 </r>
       <r>    5.9950    1.0000 </r>
       <r>   17.6269    0.0000 </r>
       <r>   22.0437    0.0000 </r>
       <r>   22.1652    0.0000 </r>
       <r>   26.3507    0.0000 </r>
       <r>   30.2397    0.0000 </r>
       <r>   36.3355    0.0000 </r>
      </set>
      <set comment="kpoint 83">
       <r>   -1.9562    1.0000 </r>
       <r>    1.7804    1.0000 </r>
       <r>    2.3438    1.0000 </r>
       <r>    2.3438    1.0000 </r>
       <r>    4.1472    1.0000 </r>
       <r>    4.1472    1.0000 </r>
       <r>   19.7901    0.0000 </r>
       <r>   24.0935    0.0000 </r>
       <r>   29.4679    0.0000 </r>
       <r>   29.4679    0.0000 </r>
       <r>   31.0991    0.0000 </r>
       <r>   32.7195    0.0000 </r>
      </set>
      <set comment="kpoint 84">
       <r>   -1.2971    1.0000 </r>
       <r>    1.6336    1.0000 </r>
       <r>    2.2658    1.0000 </r>
       <r>    2.5186    1.0000 </r>
       <r>    3.8426    1.0000 </r>
       <r>    5.1612    1.0000 </r>
       <r>   18.6139    0.0000 </r>
       <r>   23.6312    0.0000 </r>
       <r>   26.2654    0.0000 </r>
       <r>   29.7642    0.0000 </r>
       <r>   31.1650    0.0000 </r>
       <r>   32.9597    0.0000 </r>
      </set>
      <set comment="kpoint 85">
       <r>   -0.1893    1.0000 </r>
       <r>    1.2958    1.0000 </r>
       <r>    1.8934    1.0000 </r>
       <r>    2.9962    1.0000 </r>
       <r>    3.7165    1.0000 </r>
       <r>    6.6350    1.0000 </r>
       <r>   17.6180    0.0000 </r>
       <r>   20.5877    0.0000 </r>
       <r>   25.3279    0.0000 </r>
       <r>   29.1714    0.0000 </r>
       <r>   29.9211    0.0000 </r>
       <r>   35.7382    0.0000 </r>
      </set>
      <set comment="kpoint 86">
       <r>    0.3461    1.0000 </r>
       <r>    1.3877    1.0000 </r>
       <r>    1.7167    1.0000 </r>
       <r>    3.1949    1.0000 </r>
       <r>    4.2899    1.0000 </r>
       <r>    8.2517   -0.0000 </r>
       <r>   15.7056    0.0000 </r>
       <r>   18.2299    0.0000 </r>
       <r>   25.1464    0.0000 </r>
       <r>   26.3450    0.0000 </r>
       <r>   32.0500    0.0000 </r>
       <r>   35.7484    0.0000 </r>
      </set>
      <set comment="kpoint 87">
       <r>    0.0374    1.0000 </r>
       <r>    1.1500    1.0000 </r>
       <r>    2.3308    1.0000 </r>
       <r>    3.2840    1.0000 </r>
       <r>    5.1450    1.0000 </r>
       <r>   10.3289   -0.0000 </r>
       <r>   12.1659   -0.0000 </r>
       <r>   18.7767    0.0000 </r>
       <r>   23.7879    0.0000 </r>
       <r>   25.3055    0.0000 </r>
       <r>   34.7979    0.0000 </r>
       <r>   35.7558    0.0000 </r>
      </set>
      <set comment="kpoint 88">
       <r>   -0.2221    1.0000 </r>
       <r>    0.8665    1.0000 </r>
       <r>    2.3759    1.0000 </r>
       <r>    3.4842    1.0000 </r>
       <r>    5.6115    1.0000 </r>
       <r>    8.7783   -0.0000 </r>
       <r>   13.5215    0.0000 </r>
       <r>   20.3093    0.0000 </r>
       <r>   22.2433    0.0000 </r>
       <r>   25.8273    0.0000 </r>
       <r>   33.9591    0.0000 </r>
       <r>   35.9853    0.0000 </r>
      </set>
      <set comment="kpoint 89">
       <r>   -1.1010    1.0000 </r>
       <r>    1.8701    1.0000 </r>
       <r>    2.0717    1.0000 </r>
       <r>    2.4973    1.0000 </r>
       <r>    4.7919    1.0000 </r>
       <r>    5.0122    1.0000 </r>
       <r>   17.2053    0.0000 </r>
       <r>   23.7019    0.0000 </r>
       <r>   26.0491    0.0000 </r>
       <r>   27.9500    0.0000 </r>
       <r>   32.7289    0.0000 </r>
       <r>   33.7222    0.0000 </r>
      </set>
      <set comment="kpoint 90">
       <r>   -0.4066    1.0000 </r>
       <r>    1.6213    1.0000 </r>
       <r>    1.7006    1.0000 </r>
       <r>    2.9308    1.0000 </r>
       <r>    4.6431    1.0000 </r>
       <r>    6.5710    1.0000 </r>
       <r>   16.1086    0.0000 </r>
       <r>   22.1655    0.0000 </r>
       <r>   24.0333    0.0000 </r>
       <r>   27.7323    0.0000 </r>
       <r>   31.9740    0.0000 </r>
       <r>   35.2448    0.0000 </r>
      </set>
      <set comment="kpoint 91">
       <r>    0.5785    1.0000 </r>
       <r>    1.1419    1.0000 </r>
       <r>    1.3609    1.0000 </r>
       <r>    3.5474    1.0000 </r>
       <r>    4.5747    1.0000 </r>
       <r>    8.3993   -0.0000 </r>
       <r>   15.6852    0.0000 </r>
       <r>   18.2461    0.0000 </r>
       <r>   23.1239    0.0000 </r>
       <r>   28.1594    0.0000 </r>
       <r>   31.4769    0.0000 </r>
       <r>   36.8763    0.0000 </r>
      </set>
      <set comment="kpoint 92">
       <r>    0.4470    1.0000 </r>
       <r>    1.0348    1.0000 </r>
       <r>    1.7809    1.0000 </r>
       <r>    3.6743    1.0000 </r>
       <r>    5.1079    1.0000 </r>
       <r>   10.3469   -0.0000 </r>
       <r>   14.2745    0.0000 </r>
       <r>   16.5053    0.0000 </r>
       <r>   21.6284    0.0000 </r>
       <r>   27.8600    0.0000 </r>
       <r>   33.1211    0.0000 </r>
       <r>   37.7704    0.0000 </r>
      </set>
      <set comment="kpoint 93">
       <r>    0.0369    1.0000 </r>
       <r>    0.6801    1.0000 </r>
       <r>    2.2939    1.0000 </r>
       <r>    3.9898    1.0000 </r>
       <r>    5.4891    1.0000 </r>
       <r>   10.6972   -0.0000 </r>
       <r>   13.0803   -0.0000 </r>
       <r>   17.9450    0.0000 </r>
       <r>   20.2496    0.0000 </r>
       <r>   27.9489    0.0000 </r>
       <r>   33.3293    0.0000 </r>
       <r>   35.4587    0.0000 </r>
      </set>
      <set comment="kpoint 94">
       <r>   -0.3619    1.0000 </r>
       <r>    1.2182    1.0000 </r>
       <r>    2.0805    1.0000 </r>
       <r>    3.0789    1.0000 </r>
       <r>    5.5628    1.0000 </r>
       <r>    7.1654    1.0027 </r>
       <r>   14.6646    0.0000 </r>
       <r>   22.3288    0.0000 </r>
       <r>   23.2160    0.0000 </r>
       <r>   25.5683    0.0000 </r>
       <r>   34.1385    0.0000 </r>
       <r>   35.3505    0.0000 </r>
      </set>
      <set comment="kpoint 95">
       <r>    0.0565    1.0000 </r>
       <r>    0.8848    1.0000 </r>
       <r>    1.9743    1.0000 </r>
       <r>    3.7063    1.0000 </r>
       <r>    5.3647    1.0000 </r>
       <r>    9.0590   -0.0000 </r>
       <r>   13.8836    0.0000 </r>
       <r>   19.8438    0.0000 </r>
       <r>   21.0503    0.0000 </r>
       <r>   27.4526    0.0000 </r>
       <r>   32.9612    0.0000 </r>
       <r>   35.8920    0.0000 </r>
      </set>
      <set comment="kpoint 96">
       <r>    0.4704    1.0000 </r>
       <r>    0.9891    1.0000 </r>
       <r>    1.5502    1.0000 </r>
       <r>    3.8433    1.0000 </r>
       <r>    5.5461    1.0000 </r>
       <r>   11.0866   -0.0000 </r>
       <r>   14.2878    0.0000 </r>
       <r>   16.3294    0.0000 </r>
       <r>   19.3658    0.0000 </r>
       <r>   30.2338    0.0000 </r>
       <r>   32.0053    0.0000 </r>
       <r>   36.0643    0.0000 </r>
      </set>
      <set comment="kpoint 97">
       <r>    0.3186    1.0000 </r>
       <r>    0.9965    1.0000 </r>
       <r>    1.7407    1.0000 </r>
       <r>    3.7860    1.0000 </r>
       <r>    5.8311    1.0000 </r>
       <r>   12.5444   -0.0000 </r>
       <r>   13.8647    0.0000 </r>
       <r>   15.3516    0.0000 </r>
       <r>   18.3252    0.0000 </r>
       <r>   31.1336    0.0000 </r>
       <r>   32.6482    0.0000 </r>
       <r>   34.5030    0.0000 </r>
      </set>
      <set comment="kpoint 98">
       <r>   -0.2135    1.0000 </r>
       <r>    0.6346    1.0000 </r>
       <r>    2.7263    1.0000 </r>
       <r>    3.9099    1.0000 </r>
       <r>    5.5125    1.0000 </r>
       <r>   10.5340   -0.0000 </r>
       <r>   12.6377   -0.0000 </r>
       <r>   18.1305    0.0000 </r>
       <r>   21.6034    0.0000 </r>
       <r>   26.3113    0.0000 </r>
       <r>   33.8426    0.0000 </r>
       <r>   36.3791    0.0000 </r>
      </set>
      <set comment="kpoint 99">
       <r>   -0.0203    1.0000 </r>
       <r>    0.5963    1.0000 </r>
       <r>    2.5422    1.0000 </r>
       <r>    4.0949    1.0000 </r>
       <r>    5.5595    1.0000 </r>
       <r>   12.0647   -0.0000 </r>
       <r>   12.8075   -0.0000 </r>
       <r>   16.1791    0.0000 </r>
       <r>   19.9188    0.0000 </r>
       <r>   28.3252    0.0000 </r>
       <r>   33.7875    0.0000 </r>
       <r>   34.8596    0.0000 </r>
      </set>
      <set comment="kpoint 100">
       <r>   -0.2436    1.0000 </r>
       <r>    0.5263    1.0000 </r>
       <r>    2.9658    1.0000 </r>
       <r>    4.2359    1.0000 </r>
       <r>    5.3543    1.0000 </r>
       <r>   11.8481   -0.0000 </r>
       <r>   12.4278   -0.0000 </r>
       <r>   16.2902    0.0000 </r>
       <r>   21.2881    0.0000 </r>
       <r>   26.6504    0.0000 </r>
       <r>   33.8144    0.0000 </r>
       <r>   36.5392    0.0000 </r>
      </set>
      <set comment="kpoint 101">
       <r>   -1.2924    1.0000 </r>
       <r>    2.1418    1.0000 </r>
       <r>    2.1418    1.0000 </r>
       <r>    3.0790    1.0000 </r>
       <r>    4.8455    1.0000 </r>
       <r>    4.8455    1.0000 </r>
       <r>   15.6825    0.0000 </r>
       <r>   22.9988    0.0000 </r>
       <r>   28.0048    0.0000 </r>
       <r>   28.0048    0.0000 </r>
       <r>   33.1650    0.0000 </r>
       <r>   33.3159    0.0000 </r>
      </set>
      <set comment="kpoint 102">
       <r>   -0.9109    1.0000 </r>
       <r>    1.9043    1.0000 </r>
       <r>    2.2770    1.0000 </r>
       <r>    3.0105    1.0000 </r>
       <r>    4.7028    1.0000 </r>
       <r>    6.2928    1.0000 </r>
       <r>   14.5051    0.0000 </r>
       <r>   22.8083    0.0000 </r>
       <r>   24.9436    0.0000 </r>
       <r>   27.9951    0.0000 </r>
       <r>   32.5025    0.0000 </r>
       <r>   34.4937    0.0000 </r>
      </set>
      <set comment="kpoint 103">
       <r>   -0.0966    1.0000 </r>
       <r>    1.4141    1.0000 </r>
       <r>    2.3778    1.0000 </r>
       <r>    2.8433    1.0000 </r>
       <r>    4.6719    1.0000 </r>
       <r>    8.2663   -0.0000 </r>
       <r>   13.8968    0.0000 </r>
       <r>   20.1785    0.0000 </r>
       <r>   24.6317    0.0000 </r>
       <r>   26.2169    0.0000 </r>
       <r>   32.7912    0.0000 </r>
       <r>   35.5059    0.0000 </r>
      </set>
      <set comment="kpoint 104">
       <r>    0.1840    1.0000 </r>
[...]
      <set comment="kpoint 93">
       <set comment="band 1">
        <r>  0.0515  0.0261  0.8247 </r>
       </set>
       <set comment="band 2">
        <r>  0.0001  0.0908  0.8100 </r>
       </set>
       <set comment="band 3">
        <r>  0.0374  0.1265  0.7506 </r>
       </set>
       <set comment="band 4">
        <r>  0.0019  0.0301  0.9140 </r>
       </set>
       <set comment="band 5">
        <r>  0.0042  0.0024  0.9656 </r>
       </set>
       <set comment="band 6">
        <r>  0.2492  0.2707  0.3515 </r>
       </set>
       <set comment="band 7">
        <r>  0.2847  0.3427  0.1409 </r>
       </set>
       <set comment="band 8">
        <r>  0.1176  0.4071  0.2611 </r>
       </set>
       <set comment="band 9">
        <r>  0.0018  0.4218  0.2423 </r>
       </set>
       <set comment="band 10">
        <r>  0.0225  0.1527  0.2284 </r>
       </set>
       <set comment="band 11">
        <r>  0.0277  0.1085  0.2119 </r>
       </set>
       <set comment="band 12">
        <r>  0.0572  0.0366  0.2480 </r>
       </set>
      </set>
      <set comment="kpoint 94">
       <set comment="band 1">
        <r>  0.1781  0.0473  0.6686 </r>
       </set>
       <set comment="band 2">
        <r>  0.0089  0.0861  0.7971 </r>
       </set>
       <set comment="band 3">
        <r>  0.0871  0.1000  0.7249 </r>
       </set>
       <set comment="band 4">
        <r>  0.0000  0.0131  0.9376 </r>
       </set>
       <set comment="band 5">
        <r>  0.0000  0.0007  0.9783 </r>
       </set>
       <set comment="band 6">
        <r>  0.1341  0.2129  0.5511 </r>
       </set>
       <set comment="band 7">
        <r>  0.2796  0.3082  0.1875 </r>
       </set>
       <set comment="band 8">
        <r>  0.0405  0.2321  0.2444 </r>
       </set>
       <set comment="band 9">
        <r>  0.0000  0.5286  0.1129 </r>
       </set>
       <set comment="band 10">
        <r>  0.0512  0.2010  0.2138 </r>
       </set>
       <set comment="band 11">
        <r>  0.0472  0.2280  0.1330 </r>
       </set>
       <set comment="band 12">
        <r>  0.0000  0.0061  0.2027 </r>
       </set>
      </set>
      <set comment="kpoint 95">
       <set comment="band 1">
        <r>  0.0907  0.0446  0.7681 </r>
       </set>
       <set comment="band 2">
        <r>  0.0006  0.0821  0.8120 </r>
       </set>
       <set comment="band 3">
        <r>  0.0685  0.1064  0.7378 </r>
       </set>
       <set comment="band 4">
        <r>  0.0012  0.0356  0.9086 </r>
       </set>
       <set comment="band 5">
        <r>  0.0012  0.0082  0.9610 </r>
       </set>
       <set comment="band 6">
        <r>  0.2031  0.2365  0.4478 </r>
       </set>
       <set comment="band 7">
        <r>  0.2905  0.3206  0.1614 </r>
       </set>
       <set comment="band 8">
        <r>  0.0923  0.4685  0.1954 </r>
       </set>
       <set comment="band 9">
        <r>  0.0043  0.3210  0.2904 </r>
       </set>
       <set comment="band 10">
        <r>  0.0198  0.2014  0.1501 </r>
       </set>
       <set comment="band 11">
        <r>  0.0120  0.1143  0.2123 </r>
       </set>
       <set comment="band 12">
        <r>  0.0779  0.0498  0.2939 </r>
       </set>
      </set>
      <set comment="kpoint 96">
       <set comment="band 1">
        <r>  0.0066  0.0628  0.8096 </r>
       </set>
       <set comment="band 2">
        <r>  0.0114  0.0845  0.8278 </r>
       </set>
       <set comment="band 3">
        <r>  0.0375  0.1082  0.7700 </r>
       </set>
       <set comment="band 4">
        <r>  0.0190  0.0207  0.8987 </r>
       </set>
       <set comment="band 5">
        <r>  0.0013  0.0063  0.9654 </r>
       </set>
       <set comment="band 6">
        <r>  0.3623  0.2109  0.2737 </r>
       </set>
       <set comment="band 7">
        <r>  0.1983  0.3948  0.1982 </r>
       </set>
       <set comment="band 8">
        <r>  0.1101  0.4828  0.2000 </r>
       </set>
       <set comment="band 9">
        <r>  0.0094  0.3317  0.3592 </r>
       </set>
       <set comment="band 10">
        <r>  0.0028  0.1898  0.1259 </r>
       </set>
       <set comment="band 11">
        <r>  0.0003  0.0420  0.2764 </r>
       </set>
       <set comment="band 12">
        <r>  0.0406  0.1796  0.2374 </r>
       </set>
      </set>
      <set comment="kpoint 97">
       <set comment="band 1">
        <r>  0.0047  0.0605  0.8124 </r>
       </set>
       <set comment="band 2">
        <r>  0.0033  0.0876  0.8339 </r>
       </set>
       <set comment="band 3">
        <r>  0.0056  0.1153  0.8001 </r>
       </set>
       <set comment="band 4">
        <r>  0.0430  0.0054  0.8852 </r>
       </set>
       <set comment="band 5">
        <r>  0.0002  0.0018  0.9772 </r>
       </set>
       <set comment="band 6">
        <r>  0.5122  0.1405  0.1742 </r>
       </set>
       <set comment="band 7">
        <r>  0.0987  0.4917  0.2140 </r>
       </set>
       <set comment="band 8">
        <r>  0.0865  0.5039  0.2061 </r>
       </set>
       <set comment="band 9">
        <r>  0.0000  0.3307  0.3870 </r>
       </set>
       <set comment="band 10">
        <r>  0.0025  0.0973  0.2533 </r>
       </set>
       <set comment="band 11">
        <r>  0.0017  0.0670  0.2222 </r>
       </set>
       <set comment="band 12">
        <r>  0.0219  0.2511  0.1500 </r>
       </set>
      </set>
      <set comment="kpoint 98">
       <set comment="band 1">
        <r>  0.0655  0.0094  0.8334 </r>
       </set>
       <set comment="band 2">
        <r>  0.0005  0.0938  0.8015 </r>
       </set>
       <set comment="band 3">
        <r>  0.0362  0.1517  0.7239 </r>
       </set>
       <set comment="band 4">
        <r>  0.0000  0.0160  0.9347 </r>
       </set>
       <set comment="band 5">
        <r>  0.0000  0.0001  0.9751 </r>
       </set>
       <set comment="band 6">
        <r>  0.1915  0.3074  0.3791 </r>
       </set>
       <set comment="band 7">
        <r>  0.3322  0.3119  0.1140 </r>
       </set>
       <set comment="band 8">
        <r>  0.1083  0.3507  0.3178 </r>
       </set>
       <set comment="band 9">
        <r>  0.0000  0.5496  0.1063 </r>
       </set>
       <set comment="band 10">
        <r>  0.0431  0.0816  0.3179 </r>
       </set>
       <set comment="band 11">
        <r>  0.0769  0.1102  0.2366 </r>
       </set>
       <set comment="band 12">
        <r>  0.0000  0.0015  0.1602 </r>
       </set>
      </set>
      <set comment="kpoint 99">
       <set comment="band 1">
        <r>  0.0371  0.0186  0.8429 </r>
       </set>
       <set comment="band 2">
        <r>  0.0005  0.0938  0.8120 </r>
       </set>
       <set comment="band 3">
        <r>  0.0054  0.1449  0.7675 </r>
       </set>
       <set comment="band 4">
        <r>  0.0138  0.0157  0.9153 </r>
       </set>
       <set comment="band 5">
        <r>  0.0010  0.0036  0.9690 </r>
       </set>
       <set comment="band 6">
        <r>  0.4795  0.1592  0.1862 </r>
       </set>
       <set comment="band 7">
        <r>  0.0718  0.5067  0.2262 </r>
       </set>
       <set comment="band 8">
        <r>  0.1316  0.3685  0.3016 </r>
       </set>
       <set comment="band 9">
        <r>  0.0056  0.4508  0.2254 </r>
       </set>
       <set comment="band 10">
        <r>  0.0240  0.1283  0.2933 </r>
       </set>
       <set comment="band 11">
        <r>  0.0596  0.1199  0.2166 </r>
       </set>
       <set comment="band 12">
        <r>  0.0178  0.0272  0.1784 </r>
       </set>
      </set>
      <set comment="kpoint 100">
       <set comment="band 1">
        <r>  0.0506  0.0010  0.8553 </r>
       </set>
       <set comment="band 2">
        <r>  0.0001  0.0970  0.8023 </r>
       </set>
       <set comment="band 3">
        <r>  0.0047  0.1663  0.7447 </r>
       </set>
       <set comment="band 4">
        <r>  0.0000  0.0167  0.9355 </r>
       </set>
       <set comment="band 5">
        <r>  0.0000  0.0001  0.9713 </r>
       </set>
       <set comment="band 6">
        <r>  0.5017  0.1456  0.1640 </r>
       </set>
       <set comment="band 7">
        <r>  0.0358  0.5265  0.2506 </r>
       </set>
       <set comment="band 8">
        <r>  0.1401  0.3233  0.3427 </r>
       </set>
       <set comment="band 9">
        <r>  0.0000  0.5540  0.1081 </r>
       </set>
       <set comment="band 10">
        <r>  0.0440  0.0680  0.3669 </r>
       </set>
       <set comment="band 11">
        <r>  0.0880  0.0907  0.2520 </r>
       </set>
       <set comment="band 12">
        <r>  0.0000  0.0002  0.1363 </r>
       </set>
      </set>
      <set comment="kpoint 101">
       <set comment="band 1">
        <r>  0.3540  0.0348  0.4834 </r>
       </set>
       <set comment="band 2">
        <r>  0.0000  0.0008  0.9539 </r>
       </set>
       <set comment="band 3">
        <r>  0.0000  0.0008  0.9539 </r>
       </set>
       <set comment="band 4">
        <r>  0.1489  0.3211  0.3554 </r>
       </set>
       <set comment="band 5">
        <r>  0.0000  0.0030  0.9634 </r>
       </set>
       <set comment="band 6">
        <r>  0.0000  0.0030  0.9634 </r>
       </set>
       <set comment="band 7">
        <r>  0.2505  0.2681  0.2584 </r>
       </set>
       <set comment="band 8">
        <r>  0.0005  0.0338  0.0383 </r>
       </set>
       <set comment="band 9">
        <r>  0.0000  0.5043  0.0852 </r>
       </set>
       <set comment="band 10">
        <r>  0.0000  0.5043  0.0852 </r>
       </set>
       <set comment="band 11">
        <r>  0.0592  0.0927  0.1160 </r>
       </set>
       <set comment="band 12">
        <r>  0.0000  0.0009  0.3997 </r>
       </set>
      </set>
      <set comment="kpoint 102">
       <set comment="band 1">
        <r>  0.2780  0.0372  0.5719 </r>
       </set>
       <set comment="band 2">
        <r>  0.0005  0.0060  0.9390 </r>
       </set>
       <set comment="band 3">
        <r>  0.0000  0.0011  0.9501 </r>
       </set>
       <set comment="band 4">
        <r>  0.0870  0.2759  0.4845 </r>
       </set>
       <set comment="band 5">
        <r>  0.0000  0.0031  0.9598 </r>
       </set>
       <set comment="band 6">
        <r>  0.0781  0.1131  0.7414 </r>
       </set>
       <set comment="band 7">
        <r>  0.2927  0.2506  0.2659 </r>
       </set>
       <set comment="band 8">
        <r>  0.0011  0.0852  0.1186 </r>
       </set>
       <set comment="band 9">
        <r>  0.0237  0.4393  0.0618 </r>
       </set>
       <set comment="band 10">
        <r>  0.0000  0.4797  0.1011 </r>
       </set>
       <set comment="band 11">
        <r>  0.0124  0.0410  0.2397 </r>
       </set>
       <set comment="band 12">
        <r>  0.0000  0.0218  0.5332 </r>
       </set>
      </set>
      <set comment="kpoint 103">
       <set comment="band 1">
        <r>  0.1816  0.0589  0.6614 </r>
       </set>
       <set comment="band 2">
        <r>  0.0008  0.0331  0.8834 </r>
       </set>
       <set comment="band 3">
        <r>  0.0287  0.2121  0.6382 </r>
       </set>
       <set comment="band 4">
        <r>  0.0000  0.0079  0.9383 </r>
       </set>
       <set comment="band 5">
        <r>  0.0000  0.0022  0.9597 </r>
       </set>
       <set comment="band 6">
        <r>  0.2049  0.1708  0.5170 </r>
       </set>
       <set comment="band 7">
        <r>  0.2795  0.2758  0.2615 </r>
       </set>
       <set comment="band 8">
        <r>  0.0490  0.4094  0.2460 </r>
       </set>
       <set comment="band 9">
        <r>  0.0175  0.1119  0.0920 </r>
       </set>
       <set comment="band 10">
        <r>  0.0000  0.4961  0.1709 </r>
       </set>
       <set comment="band 11">
        <r>  0.0040  0.0416  0.1453 </r>
       </set>
       <set comment="band 12">
        <r>  0.0000  0.0039  0.3895 </r>
       </set>
      </set>
      <set comment="kpoint 104">
       <set comment="band 1">
        <r>  0.0724  0.0094  0.8368 </r>
       </set>
       <set comment="band 2">
        <r>  0.0143  0.1468  0.7151 </r>
       </set>
       <set comment="band 3">
        <r>  0.0001  0.1417  0.7757 </r>
       </set>
       <set comment="band 4">
        <r>  0.0000  0.0162  0.9294 </r>
       </set>
       <set comment="band 5">
        <r>  0.0000  0.0004  0.9642 </r>
       </set>
       <set comment="band 6">
        <r>  0.3953  0.1601  0.2729 </r>
       </set>
       <set comment="band 7">
        <r>  0.1199  0.4079  0.3079 </r>
       </set>
       <set comment="band 8">
        <r>  0.1372  0.3768  0.2777 </r>
       </set>
       <set comment="band 9">
        <r>  0.0000  0.5268  0.1628 </r>
       </set>
       <set comment="band 10">
        <r>  0.0239  0.0739  0.2549 </r>
       </set>
       <set comment="band 11">
        <r>  0.0001  0.0434  0.0538 </r>
       </set>
       <set comment="band 12">
        <r>  0.0000  0.0002  0.2215 </r>
       </set>
      </set>
      <set comment="kpoint 105">
       <set comment="band 1">
        <r>  0.2409  0.0243  0.6323 </r>
       </set>
       <set comment="band 2">
        <r>  0.0003  0.0066  0.9327 </r>
       </set>
       <set comment="band 3">
        <r>  0.0000  0.0048  0.9472 </r>
       </set>
       <set comment="band 4">
        <r>  0.0533  0.2424  0.5702 </r>
       </set>
       <set comment="band 5">
        <r>  0.0000  0.0006  0.9765 </r>
       </set>
       <set comment="band 6">
        <r>  0.0804  0.2414  0.5625 </r>
       </set>
       <set comment="band 7">
        <r>  0.3567  0.1926  0.2916 </r>
       </set>
       <set comment="band 8">
        <r>  0.0009  0.0373  0.0661 </r>
       </set>
       <set comment="band 9">
        <r>  0.0000  0.5135  0.0721 </r>
       </set>
       <set comment="band 10">
        <r>  0.0294  0.4406  0.1270 </r>
       </set>
       <set comment="band 11">
        <r>  0.0000  0.0008  0.3931 </r>
       </set>
       <set comment="band 12">
        <r>  0.0029  0.0137  0.5205 </r>
       </set>
      </set>
      <set comment="kpoint 106">
       <set comment="band 1">
        <r>  0.1782  0.0440  0.6827 </r>
       </set>
       <set comment="band 2">
        <r>  0.0001  0.0200  0.8996 </r>
       </set>
       <set comment="band 3">
        <r>  0.0057  0.0791  0.8410 </r>
       </set>
       <set comment="band 4">
        <r>  0.0131  0.1402  0.7541 </r>
       </set>
       <set comment="band 5">
        <r>  0.0008  0.0058  0.9633 </r>
       </set>
       <set comment="band 6">
        <r>  0.1181  0.3026  0.4439 </r>
       </set>
       <set comment="band 7">
        <r>  0.3852  0.1734  0.2886 </r>
       </set>
       <set comment="band 8">
        <r>  0.0217  0.3268  0.1972 </r>
       </set>
       <set comment="band 9">
        <r>  0.0354  0.3006  0.1631 </r>
       </set>
       <set comment="band 10">
        <r>  0.0025  0.3851  0.0421 </r>
       </set>
       <set comment="band 11">
        <r>  0.0048  0.0218  0.3818 </r>
       </set>
       <set comment="band 12">
        <r>  0.0010  0.0101  0.3416 </r>
       </set>
      </set>
      <set comment="kpoint 107">
       <set comment="band 1">
        <r>  0.0904  0.0461  0.7781 </r>
       </set>
       <set comment="band 2">
        <r>  0.0092  0.0748  0.8065 </r>
       </set>
       <set comment="band 3">
        <r>  0.0002  0.1536  0.7555 </r>
       </set>
       <set comment="band 4">
        <r>  0.0021  0.0204  0.9213 </r>
       </set>
       <set comment="band 5">
        <r>  0.0059  0.0015  0.9602 </r>
       </set>
       <set comment="band 6">
        <r>  0.3196  0.2290  0.2840 </r>
       </set>
       <set comment="band 7">
        <r>  0.2186  0.3176  0.3061 </r>
       </set>
       <set comment="band 8">
        <r>  0.0962  0.4259  0.2386 </r>
       </set>
       <set comment="band 9">
        <r>  0.0139  0.3617  0.2534 </r>
       </set>
       <set comment="band 10">
        <r>  0.0034  0.2258  0.1024 </r>
       </set>
       <set comment="band 11">
        <r>  0.0010  0.0210  0.2854 </r>
       </set>
       <set comment="band 12">
        <r>  0.0008  0.0110  0.1547 </r>
       </set>
      </set>
      <set comment="kpoint 108">
       <set comment="band 1">
        <r>  0.1445  0.0374  0.7287 </r>
       </set>
       <set comment="band 2">
        <r>  0.0023  0.0501  0.8523 </r>
       </set>
       <set comment="band 3">
        <r>  0.0107  0.1833  0.7044 </r>
       </set>
       <set comment="band 4">
        <r>  0.0000  0.0105  0.9372 </r>
       </set>
       <set comment="band 5">
        <r>  0.0000  0.0005  0.9735 </r>
       </set>
       <set comment="band 6">
        <r>  0.0099  0.4657  0.3499 </r>
       </set>
       <set comment="band 7">
        <r>  0.5169  0.0458  0.3071 </r>
       </set>
       <set comment="band 8">
        <r>  0.0517  0.3430  0.2399 </r>
       </set>
       <set comment="band 9">
        <r>  0.0000  0.5234  0.1148 </r>
       </set>
       <set comment="band 10">
        <r>  0.0267  0.1454  0.1388 </r>
       </set>
       <set comment="band 11">
        <r>  0.0043  0.0247  0.3200 </r>
       </set>
       <set comment="band 12">
        <r>  0.0000  0.0019  0.3200 </r>
       </set>
      </set>
      <set comment="kpoint 109">
       <set comment="band 1">
        <r>  0.2451  0.0031  0.6547 </r>
       </set>
       <set comment="band 2">
        <r>  0.0000  0.0001  0.9531 </r>
       </set>
       <set comment="band 3">
        <r>  0.0000  0.0001  0.9531 </r>
       </set>
       <set comment="band 4">
        <r>  0.0607  0.6126  0.0675 </r>
       </set>
       <set comment="band 5">
        <r>  0.0000  0.0006  0.9747 </r>
       </set>
       <set comment="band 6">
        <r>  0.0000  0.0006  0.9747 </r>
       </set>
       <set comment="band 7">
        <r>  0.4393  0.0873  0.3638 </r>
       </set>
       <set comment="band 8">
        <r>  0.0001  0.0269  0.0037 </r>
       </set>
       <set comment="band 9">
        <r>  0.0000  0.4997  0.0101 </r>
       </set>
       <set comment="band 10">
        <r>  0.0000  0.4998  0.0101 </r>
       </set>
       <set comment="band 11">
        <r>  0.0000  0.0010  0.6048 </r>
       </set>
       <set comment="band 12">
        <r>  0.0000  0.0010  0.6048 </r>
       </set>
      </set>
      <set comment="kpoint 110">
       <set comment="band 1">
        <r>  0.2136  0.0163  0.6760 </r>
       </set>
       <set comment="band 2">
        <r>  0.0001  0.0071  0.9330 </r>
       </set>
       <set comment="band 3">
        <r>  0.0000  0.0027  0.9481 </r>
       </set>
       <set comment="band 4">
        <r>  0.0014  0.2613  0.6105 </r>
       </set>
       <set comment="band 5">
        <r>  0.0000  0.0006  0.9735 </r>
       </set>
       <set comment="band 6">
        <r>  0.0149  0.4200  0.3942 </r>
       </set>
       <set comment="band 7">
        <r>  0.4990  0.0241  0.3825 </r>
       </set>
       <set comment="band 8">
        <r>  0.0009  0.0517  0.0727 </r>
       </set>
       <set comment="band 9">
        <r>  0.0238  0.4609  0.0684 </r>
       </set>
       <set comment="band 10">
        <r>  0.0000  0.5023  0.0526 </r>
       </set>
       <set comment="band 11">
        <r>  0.0087  0.0066  0.4746 </r>
       </set>
       <set comment="band 12">
        <r>  0.0000  0.0017  0.5492 </r>
       </set>
      </set>
     </set>
    </set>
   </array>
  </projected>
 </calculation>
 <structure name="finalpos" >
  <crystal>
   <varray name="basis" >
    <v>       0.00000000       1.95000000       1.95000000 </v>
    <v>       1.95000000       0.00000000       1.95000000 </v>
    <v>       1.95000000       1.95000000       0.00000000 </v>
   </varray>
   <i name="volume">     14.82975000 </i>
   <varray name="rec_basis" >
    <v>      -0.25641026       0.25641026       0.25641026 </v>
    <v>       0.25641026      -0.25641026       0.25641026 </v>
    <v>       0.25641026       0.25641026      -0.25641026 </v>
   </varray>
  </crystal>
  <varray name="positions" >
   <v>       0.00000000       0.00000000       0.00000000 </v>
  </varray>
 </structure>
</modeling>
