BCC Fe                                  
   2.84000000000000     
     1.000000    0.000000    0.000000
     0.000000    1.000000    0.000000
     0.000000    0.000000    4.521127
   Fe
     3
Direct
  0.500000  0.500000  0.110592
  0.000000  0.000000  0.000000
  0.500000  0.500000  0.889408
 
   24   24  108
  881.36      833.19      702.41      524.98      345.38      199.69      104.29      55.318      36.877      30.491    
  26.817      24.877      24.245      24.877      26.817      30.491      36.877      55.318      104.29      199.69    
  345.38      524.98      702.41      833.19      833.19      788.24      665.84      499.00      329.19      190.86    
  100.18      53.877      36.608      30.403      26.800      24.919      24.310      24.919      26.800      30.403    
  36.608      53.877      100.18      190.86      329.19      499.00      665.84      788.24      702.41      665.84    
  565.47      426.78      283.57      165.74      88.588      49.949      35.886      30.119      26.744      25.029    
  24.486      25.029      26.744      30.119      35.886      49.949      88.588      165.74      283.57      426.78    
  565.47      665.84      524.98      499.00      426.78      325.04      218.09      129.48      72.261      44.805    
  34.824      29.611      26.633      25.171      24.722      25.171      26.633      29.611      34.824      44.805    
  72.261      129.48      218.09      325.04      426.78      499.00      345.38      329.19      283.57      218.09    
  148.52      91.416      56.046      40.158      33.304      28.905      26.466      25.305      24.959      25.305    
  26.466      28.905      33.304      40.158      56.046      91.416      148.52      218.09      283.57      329.19    
  199.69      190.86      165.74      129.48      91.416      61.513      44.428      36.612      31.460      28.103    
  26.265      25.400      25.148      25.400      26.265      28.103      31.460      36.612      44.428      61.513    
  91.416      129.48      165.74      190.86      104.29      100.18      88.588      72.261      56.046      44.428    
  37.942      33.225      29.633      27.334      26.054      25.440      25.260      25.440      26.054      27.334    
  29.633      33.225      37.942      44.428      56.046      72.261      88.588      100.18      55.318      53.877    
  49.949      44.805      40.158      36.612      33.225      30.276      28.098      26.682      25.848      25.420    
  25.289      25.420      25.848      26.682      28.098      30.276      33.225      36.612      40.158      44.805    
  49.949      53.877      36.877      36.608      35.886      34.824      33.304      31.460      29.633      28.098    
  26.955      26.163      25.644      25.344      25.245      25.344      25.644      26.163      26.955      28.098    
  29.633      31.460      33.304      34.824      35.886      36.608      30.491      30.403      30.119      29.611    
  28.905      28.103      27.334      26.682      26.163      25.753      25.436      25.225      25.150      25.225    
  25.436      25.753      26.163      26.682      27.334      28.103      28.905      29.611      30.119      30.403    
  26.817      26.800      26.744      26.633      26.466      26.265      26.054      25.848      25.644      25.436    
  25.239      25.093      25.038      25.093      25.239      25.436      25.644      25.848      26.054      26.265    
  26.466      26.633      26.744      26.800      24.877      24.919      25.029      25.171      25.305      25.400    
  25.440      25.420      25.344      25.225      25.093      24.988      24.948      24.988      25.093      25.225    
  25.344      25.420      25.440      25.400      25.305      25.171      25.029      24.919      24.245      24.310    
  24.486      24.722      24.959      25.148      25.260      25.289      25.245      25.150      25.038      24.948    
  24.914      24.948      25.038      25.150      25.245      25.289      25.260      25.148      24.959      24.722    
  24.486      24.310      24.877      24.919      25.029      25.171      25.305      25.400      25.440      25.420    
  25.344      25.225      25.093      24.988      24.948      24.988      25.093      25.225      25.344      25.420    
  25.440      25.400      25.305      25.171      25.029      24.919      26.817      26.800      26.744      26.633    
  26.466      26.265      26.054      25.848      25.644      25.436      25.239      25.093      25.038      25.093    
  25.239      25.436      25.644      25.848      26.054      26.265      26.466      26.633      26.744      26.800    
  30.491      30.403      30.119      29.611      28.905      28.103      27.334      26.682      26.163      25.753    
  25.436      25.225      25.150      25.225      25.436      25.753      26.163      26.682      27.334      28.103    
  28.905      29.611      30.119      30.403      36.877      36.608      35.886      34.824      33.304      31.460    
  29.633      28.098      26.955      26.163      25.644      25.344      25.245      25.344      25.644      26.163    
  26.955      28.098      29.633      31.460      33.304      34.824      35.886      36.608      55.318      53.877    
  49.949      44.805      40.158      36.612      33.225      30.276      28.098      26.682      25.848      25.420    
  25.289      25.420      25.848      26.682      28.098      30.276      33.225      36.612      40.158      44.805    
  49.949      53.877      104.29      100.18      88.588      72.261      56.046      44.428      37.942      33.225    
  29.633      27.334      26.054      25.440      25.260      25.440      26.054      27.334      29.633      33.225    
  37.942      44.428      56.046      72.261      88.588      100.18      199.69      190.86      165.74      129.48    
  91.416      61.513      44.428      36.612      31.460      28.103      26.265      25.400      25.148      25.400    
  26.265      28.103      31.460      36.612      44.428      61.513      91.416      129.48      165.74      190.86    
  345.38      329.19      283.57      218.09      148.52      91.416      56.046      40.158      33.304      28.905    
  26.466      25.305      24.959      25.305      26.466      28.905      33.304      40.158      56.046      91.416    
  148.52      218.09      283.57      329.19      524.98      499.00      426.78      325.04      218.09      129.48    
  72.261      44.805      34.824      29.611      26.633      25.171      24.722      25.171      26.633      29.611    
  34.824      44.805      72.261      129.48      218.09      325.04      426.78      499.00      702.41      665.84    
  565.47      426.78      283.57      165.74      88.588      49.949      35.886      30.119      26.744      25.029    
  24.486      25.029      26.744      30.119      35.886      49.949      88.588      165.74      283.57      426.78    
  565.47      665.84      833.19      788.24      665.84      499.00      329.19      190.86      100.18      53.877    
  36.608      30.403      26.800      24.919      24.310      24.919      26.800      30.403      36.608      53.877    
  100.18      190.86      329.19      499.00      665.84      788.24      833.20      788.21      665.73      498.83    
  329.02      190.74      100.14      53.890      36.641      30.436      26.831      24.947      24.338      24.947    
  26.831      30.436      36.641      53.890      100.14      190.74      329.02      498.83      665.73      788.21    
  788.21      746.16      631.37      474.24      313.56      182.25      96.203      52.537      36.401      30.355    
  26.822      24.994      24.408      24.994      26.822      30.355      36.401      52.537      96.203      182.25    
  313.56      474.24      631.37      746.16      665.73      631.37      536.85      405.79      270.02      158.18    
  85.147      48.876      35.748      30.090      26.785      25.119      24.595      25.119      26.785      30.090    
  35.748      48.876      85.147      158.18      270.02      405.79      536.85      631.37      498.83      474.24    
  405.79      309.21      207.63      123.63      69.724      44.136      34.738      29.614      26.703      25.282    
  24.847      25.282      26.703      29.614      34.738      44.136      69.724      123.63      207.63      309.21    
  405.79      474.24      329.02      313.56      270.02      207.63      141.55      87.644      54.595      39.881    
  33.255      28.951      26.572      25.441      25.105      25.441      26.572      28.951      33.255      39.881    
  54.595      87.644      141.55      207.63      270.02      313.56      190.74      182.25      158.18      123.63    
  87.644      59.678      43.890      36.510      31.471      28.201      26.411      25.569      25.324      25.569    
  26.411      28.201      31.471      36.510      43.890      59.678      87.644      123.63      158.18      182.25    
  100.14      96.203      85.147      69.724      54.595      43.890      37.817      33.207      29.719      27.491    
  26.251      25.657      25.483      25.657      26.251      27.491      29.719      33.207      37.817      43.890    
  54.595      69.724      85.147      96.203      53.890      52.537      48.876      44.136      39.881      36.510    
  33.207      30.354      28.260      26.904      26.111      25.705      25.582      25.705      26.111      26.904    
  28.260      30.354      33.207      36.510      39.881      44.136      48.876      52.537      36.641      36.401    
  35.748      34.738      33.255      31.471      29.719      28.260      27.187      26.457      25.985      25.715    
  25.627      25.715      25.985      26.457      27.187      28.260      29.719      31.471      33.255      34.738    
  35.748      36.401      30.436      30.355      30.090      29.614      28.951      28.201      27.491      26.904    
  26.457      26.117      25.861      25.691      25.631      25.691      25.861      26.117      26.457      26.904    
  27.491      28.201      28.951      29.614      30.090      30.355      26.831      26.822      26.785      26.703    
  26.572      26.411      26.251      26.111      25.985      25.861      25.740      25.646      25.610      25.646    
  25.740      25.861      25.985      26.111      26.251      26.411      26.572      26.703      26.785      26.822    
  24.947      24.994      25.119      25.282      25.441      25.569      25.657      25.705      25.715      25.691    
  25.646      25.603      25.585      25.603      25.646      25.691      25.715      25.705      25.657      25.569    
  25.441      25.282      25.119      24.994      24.338      24.408      24.595      24.847      25.105      25.324    
  25.483      25.582      25.627      25.631      25.610      25.585      25.574      25.585      25.610      25.631    
  25.627      25.582      25.483      25.324      25.105      24.847      24.595      24.408      24.947      24.994    
  25.119      25.282      25.441      25.569      25.657      25.705      25.715      25.691      25.646      25.603    
  25.585      25.603      25.646      25.691      25.715      25.705      25.657      25.569      25.441      25.282    
  25.119      24.994      26.831      26.822      26.785      26.703      26.572      26.411      26.251      26.111    
  25.985      25.861      25.740      25.646      25.610      25.646      25.740      25.861      25.985      26.111    
  26.251      26.411      26.572      26.703      26.785      26.822      30.436      30.355      30.090      29.614    
  28.951      28.201      27.491      26.904      26.457      26.117      25.861      25.691      25.631      25.691    
  25.861      26.117      26.457      26.904      27.491      28.201      28.951      29.614      30.090      30.355    
  36.641      36.401      35.748      34.738      33.255      31.471      29.719      28.260      27.187      26.457    
  25.985      25.715      25.627      25.715      25.985      26.457      27.187      28.260      29.719      31.471    
  33.255      34.738      35.748      36.401      53.890      52.537      48.876      44.136      39.881      36.510    
  33.207      30.354      28.260      26.904      26.111      25.705      25.582      25.705      26.111      26.904    
  28.260      30.354      33.207      36.510      39.881      44.136      48.876      52.537      100.14      96.203    
  85.147      69.724      54.595      43.890      37.817      33.207      29.719      27.491      26.251      25.657    
  25.483      25.657      26.251      27.491      29.719      33.207      37.817      43.890      54.595      69.724    
  85.147      96.203      190.74      182.25      158.18      123.63      87.644      59.678      43.890      36.510    
  31.471      28.201      26.411      25.569      25.324      25.569      26.411      28.201      31.471      36.510    
  43.890      59.678      87.644      123.63      158.18      182.25      329.02      313.56      270.02      207.63    
  141.55      87.644      54.595      39.881      33.255      28.951      26.572      25.441      25.105      25.441    
  26.572      28.951      33.255      39.881      54.595      87.644      141.55      207.63      270.02      313.56    
  498.83      474.24      405.79      309.21      207.63      123.63      69.724      44.136      34.738      29.614    
  26.703      25.282      24.847      25.282      26.703      29.614      34.738      44.136      69.724      123.63    
  207.63      309.21      405.79      474.24      665.73      631.37      536.85      405.79      270.02      158.18    
  85.147      48.876      35.748      30.090      26.785      25.119      24.595      25.119      26.785      30.090    
  35.748      48.876      85.147      158.18      270.02      405.79      536.85      631.37      788.21      746.16    
  631.37      474.24      313.56      182.25      96.203      52.537      36.401      30.355      26.822      24.994    
  24.408      24.994      26.822      30.355      36.401      52.537      96.203      182.25      313.56      474.24    
  631.37      746.16      702.58      665.88      565.21      426.29      283.06      165.41      88.500      50.020    
  36.011      30.244      26.862      25.142      24.596      25.142      26.862      30.244      36.011      50.020    
  88.500      165.41      283.06      426.29      565.21      665.88      665.88      631.43      536.68      405.46    
  269.68      157.97      85.094      48.933      35.840      30.182      26.874      25.203      24.678      25.203    
  26.874      30.182      35.840      48.933      85.094      157.97      269.68      405.46      536.68      631.43    
  565.21      536.68      457.74      347.31      232.07      137.04      75.681      46.047      35.338      29.978    
  26.894      25.370      24.899      25.370      26.894      29.978      35.338      46.047      75.681      137.04    
  232.07      347.31      457.74      536.68      426.29      405.46      347.31      265.00      178.46      107.50    
  62.908      42.418      34.427      29.604      26.900      25.598      25.205      25.598      26.900      29.604    
  34.427      42.418      62.908      107.50      178.46      265.00      347.31      405.46      283.06      269.68    
  232.07      178.46      122.33      77.463      50.827      39.158      33.083      29.083      26.885      25.849    
  25.544      25.849      26.885      29.083      33.083      39.158      50.827      77.463      122.33      178.46    
  232.07      269.68      165.41      157.97      137.04      107.50      77.463      54.890      42.538      36.178    
  31.510      28.512      26.874      26.107      25.885      26.107      26.874      28.512      31.510      36.178    
  42.538      54.890      77.463      107.50      137.04      157.97      88.500      85.094      75.681      62.908    
  50.827      42.538      37.420      33.168      30.009      28.011      26.906      26.380      26.226      26.380    
  26.906      28.011      30.009      33.168      37.420      42.538      50.827      62.908      75.681      85.094    
  50.020      48.933      46.047      42.418      39.158      36.178      33.168      30.631      28.810      27.659    
  27.002      26.674      26.575      26.674      27.002      27.659      28.810      30.631      33.168      36.178    
  39.158      42.418      46.047      48.933      36.011      35.840      35.338      34.427      33.083      31.510    
  30.009      28.810      27.981      27.458      27.146      26.978      26.923      26.978      27.146      27.458    
  27.981      28.810      30.009      31.510      33.083      34.427      35.338      35.840      30.244      30.182    
  29.978      29.604      29.083      28.512      28.011      27.659      27.458      27.355      27.296      27.258    
  27.243      27.258      27.296      27.355      27.458      27.659      28.011      28.512      29.083      29.604    
  29.978      30.182      26.862      26.874      26.894      26.900      26.885      26.874      26.906      27.002    
  27.146      27.296      27.412      27.478      27.498      27.478      27.412      27.296      27.146      27.002    
  26.906      26.874      26.885      26.900      26.894      26.874      25.142      25.203      25.370      25.598    
  25.849      26.107      26.380      26.674      26.978      27.258      27.478      27.615      27.661      27.615    
  27.478      27.258      26.978      26.674      26.380      26.107      25.849      25.598      25.370      25.203    
  24.596      24.678      24.899      25.205      25.544      25.885      26.226      26.575      26.923      27.243    
  27.498      27.661      27.717      27.661      27.498      27.243      26.923      26.575      26.226      25.885    
  25.544      25.205      24.899      24.678      25.142      25.203      25.370      25.598      25.849      26.107    
  26.380      26.674      26.978      27.258      27.478      27.615      27.661      27.615      27.478      27.258    
  26.978      26.674      26.380      26.107      25.849      25.598      25.370      25.203      26.862      26.874    
  26.894      26.900      26.885      26.874      26.906      27.002      27.146      27.296      27.412      27.478    
  27.498      27.478      27.412      27.296      27.146      27.002      26.906      26.874      26.885      26.900    
  26.894      26.874      30.244      30.182      29.978      29.604      29.083      28.512      28.011      27.659    
  27.458      27.355      27.296      27.258      27.243      27.258      27.296      27.355      27.458      27.659    
  28.011      28.512      29.083      29.604      29.978      30.182      36.011      35.840      35.338      34.427    
  33.083      31.510      30.009      28.810      27.981      27.458      27.146      26.978      26.923      26.978    
  27.146      27.458      27.981      28.810      30.009      31.510      33.083      34.427      35.338      35.840    
  50.020      48.933      46.047      42.418      39.158      36.178      33.168      30.631      28.810      27.659    
  27.002      26.674      26.575      26.674      27.002      27.659      28.810      30.631      33.168      36.178    
  39.158      42.418      46.047      48.933      88.500      85.094      75.681      62.908      50.827      42.538    
  37.420      33.168      30.009      28.011      26.906      26.380      26.226      26.380      26.906      28.011    
  30.009      33.168      37.420      42.538      50.827      62.908      75.681      85.094      165.41      157.97    
  137.04      107.50      77.463      54.890      42.538      36.178      31.510      28.512      26.874      26.107    
  25.885      26.107      26.874      28.512      31.510      36.178      42.538      54.890      77.463      107.50    
  137.04      157.97      283.06      269.68      232.07      178.46      122.33      77.463      50.827      39.158    
  33.083      29.083      26.885      25.849      25.544      25.849      26.885      29.083      33.083      39.158    
  50.827      77.463      122.33      178.46      232.07      269.68      426.29      405.46      347.31      265.00    
  178.46      107.50      62.908      42.418      34.427      29.604      26.900      25.598      25.205      25.598    
  26.900      29.604      34.427      42.418      62.908      107.50      178.46      265.00      347.31      405.46    
  565.21      536.68      457.74      347.31      232.07      137.04      75.681      46.047      35.338      29.978    
  26.894      25.370      24.899      25.370      26.894      29.978      35.338      46.047      75.681      137.04    
  232.07      347.31      457.74      536.68      665.88      631.43      536.68      405.46      269.68      157.97    
  85.094      48.933      35.840      30.182      26.874      25.203      24.678      25.203      26.874      30.182    
  35.840      48.933      85.094      157.97      269.68      405.46      536.68      631.43      525.54      499.31    
  426.55      324.38      217.39      129.08      72.224      45.001      35.085      29.870      26.884      25.415    
  24.963      25.415      26.884      29.870      35.085      45.001      72.224      129.08      217.39      324.38    
  426.55      499.31      499.31      474.52      405.62      308.68      207.07      123.31      69.710      44.312    
  34.964      29.841      26.925      25.498      25.061      25.498      26.925      29.841      34.964      44.312    
  69.710      123.31      207.07      308.68      405.62      474.52      426.55      405.62      347.24      264.75    
  178.20      107.36      62.928      42.530      34.560      29.739      27.035      25.731      25.337      25.731    
  27.035      29.739      34.560      42.530      62.928      107.36      178.20      264.75      347.24      405.62    
  324.38      308.68      264.75      202.53      137.58      85.477      54.125      40.331      33.811      29.548    
  27.196      26.082      25.753      26.082      27.196      29.548      33.811      40.331      54.125      85.477    
  137.58      202.53      264.75      308.68      217.39      207.07      178.20      137.58      96.051      64.167    
  46.256      38.110      32.763      29.301      27.416      26.536      26.281      26.536      27.416      29.301    
  32.763      38.110      46.256      64.167      96.051      137.58      178.20      207.07      129.08      123.31    
  107.36      85.477      64.167      49.042      40.902      35.603      31.611      29.095      27.735      27.106    
  26.927      27.106      27.735      29.095      31.611      35.603      40.902      49.042      64.167      85.477    
  107.36      123.31      72.224      69.710      62.928      54.125      46.256      40.902      36.740      33.171    
  30.612      29.043      28.204      27.819      27.711      27.819      28.204      29.043      30.612      33.171    
  36.740      40.902      46.256      54.125      62.928      69.710      45.001      44.312      42.530      40.331    
  38.110      35.603      33.171      31.235      29.942      29.202      28.831      28.670      28.626      28.670    
  28.831      29.202      29.942      31.235      33.171      35.603      38.110      40.331      42.530      44.312    
  35.085      34.964      34.560      33.811      32.763      31.611      30.612      29.942      29.616      29.531    
  29.553      29.591      29.607      29.591      29.553      29.531      29.616      29.942      30.612      31.611    
  32.763      33.811      34.560      34.964      29.870      29.841      29.739      29.548      29.301      29.095    
  29.043      29.202      29.531      29.918      30.250      30.460      30.530      30.460      30.250      29.918    
  29.531      29.202      29.043      29.095      29.301      29.548      29.739      29.841      26.884      26.925    
  27.035      27.196      27.416      27.735      28.204      28.831      29.553      30.250      30.806      31.153    
  31.268      31.153      30.806      30.250      29.553      28.831      28.204      27.735      27.416      27.196    
  27.035      26.925      25.415      25.498      25.731      26.082      26.536      27.106      27.819      28.670    
  29.591      30.460      31.153      31.588      31.735      31.588      31.153      30.460      29.591      28.670    
  27.819      27.106      26.536      26.082      25.731      25.498      24.963      25.061      25.337      25.753    
  26.281      26.927      27.711      28.626      29.607      30.530      31.268      31.735      31.893      31.735    
  31.268      30.530      29.607      28.626      27.711      26.927      26.281      25.753      25.337      25.061    
  25.415      25.498      25.731      26.082      26.536      27.106      27.819      28.670      29.591      30.460    
  31.153      31.588      31.735      31.588      31.153      30.460      29.591      28.670      27.819      27.106    
  26.536      26.082      25.731      25.498      26.884      26.925      27.035      27.196      27.416      27.735    
  28.204      28.831      29.553      30.250      30.806      31.153      31.268      31.153      30.806      30.250    
  29.553      28.831      28.204      27.735      27.416      27.196      27.035      26.925      29.870      29.841    
  29.739      29.548      29.301      29.095      29.043      29.202      29.531      29.918      30.250      30.460    
  30.530      30.460      30.250      29.918      29.531      29.202      29.043      29.095      29.301      29.548    
  29.739      29.841      35.085      34.964      34.560      33.811      32.763      31.611      30.612      29.942    
  29.616      29.531      29.553      29.591      29.607      29.591      29.553      29.531      29.616      29.942    
  30.612      31.611      32.763      33.811      34.560      34.964      45.001      44.312      42.530      40.331    
  38.110      35.603      33.171      31.235      29.942      29.202      28.831      28.670      28.626      28.670    
  28.831      29.202      29.942      31.235      33.171      35.603      38.110      40.331      42.530      44.312    
  72.224      69.710      62.928      54.125      46.256      40.902      36.740      33.171      30.612      29.043    
  28.204      27.819      27.711      27.819      28.204      29.043      30.612      33.171      36.740      40.902    
  46.256      54.125      62.928      69.710      129.08      123.31      107.36      85.477      64.167      49.042    
  40.902      35.603      31.611      29.095      27.735      27.106      26.927      27.106      27.735      29.095    
  31.611      35.603      40.902      49.042      64.167      85.477      107.36      123.31      217.39      207.07    
  178.20      137.58      96.051      64.167      46.256      38.110      32.763      29.301      27.416      26.536    
  26.281      26.536      27.416      29.301      32.763      38.110      46.256      64.167      96.051      137.58    
  178.20      207.07      324.38      308.68      264.75      202.53      137.58      85.477      54.125      40.331    
  33.811      29.548      27.196      26.082      25.753      26.082      27.196      29.548      33.811      40.331    
  54.125      85.477      137.58      202.53      264.75      308.68      426.55      405.62      347.24      264.75    
  178.20      107.36      62.928      42.530      34.560      29.739      27.035      25.731      25.337      25.731    
  27.035      29.739      34.560      42.530      62.928      107.36      178.20      264.75      347.24      405.62    
  499.31      474.52      405.62      308.68      207.07      123.31      69.710      44.312      34.964      29.841    
  26.925      25.498      25.061      25.498      26.925      29.841      34.964      44.312      69.710      123.31    
  207.07      308.68      405.62      474.52      346.10      329.63      283.39      217.46      147.88      91.144    
  56.180      40.516      33.702      29.311      26.872      25.708      25.361      25.708      26.872      29.311    
  33.702      40.516      56.180      91.144      147.88      217.46      283.39      329.63      329.63      313.93    
  269.86      207.08      141.01      87.426      54.735      40.211      33.619      29.326      26.948      25.818    
  25.481      25.818      26.948      29.326      33.619      40.211      54.735      87.426      141.01      207.08    
  269.86      313.93      283.39      269.86      231.92      178.09      122.00      77.362      50.962      39.407    
  33.354      29.368      27.178      26.146      25.842      26.146      27.178      29.368      33.354      39.407    
  50.962      77.362      122.00      178.09      231.92      269.86      217.46      207.08      178.09      137.41    
  95.927      64.156      46.343      38.236      32.903      29.454      27.579      26.705      26.452      26.705    
  27.579      29.454      32.903      38.236      46.343      64.156      95.927      137.41      178.09      207.08    
  147.88      141.01      122.00      95.927      70.429      52.128      42.372      36.642      32.350      29.649    
  28.201      27.540      27.352      27.540      28.201      29.649      32.350      36.642      42.372      52.128    
  70.429      95.927      122.00      141.01      91.144      87.426      77.362      64.156      52.128      44.119    
  39.066      34.887      31.884      30.068      29.129      28.719      28.608      28.719      29.129      30.068    
  31.884      34.887      39.066      44.119      52.128      64.156      77.362      87.426      56.180      54.735    