BCC Fe                                  
   2.84000000000000     
     1.000000    0.000000    0.000000
     0.000000    1.000000    0.000000
     0.000000    0.000000    4.521127
   Fe
     3
Direct
  0.500000  0.500000  0.108839
 -0.000000 -0.000000  0.000000
  0.500000  0.500000  0.891161
 
   24   24  108
 0.88132004503E+03 0.83314901107E+03 0.70232775296E+03 0.52482467801E+03 0.34515165717E+03
 0.19950880342E+03 0.10426261035E+03 0.55469816582E+02 0.37137166396E+02 0.30802573226E+02
 0.27159514273E+02 0.25237532916E+02 0.24611825047E+02 0.25237532916E+02 0.27159514273E+02
 0.30802573226E+02 0.37137166396E+02 0.55469816582E+02 0.10426261035E+03 0.19950880342E+03
 0.34515165717E+03 0.52482467801E+03 0.70232775296E+03 0.83314901107E+03 0.83314901107E+03
 0.78820730487E+03 0.66580850819E+03 0.49892067705E+03 0.32905578786E+03 0.19075521598E+03
 0.10021446367E+03 0.54065233701E+02 0.36892392953E+02 0.30734358382E+02 0.27160966246E+02
 0.25295612541E+02 0.24692888459E+02 0.25295612541E+02 0.27160966246E+02 0.30734358382E+02
 0.36892392953E+02 0.54065233701E+02 0.10021446367E+03 0.19075521598E+03 0.32905578786E+03
 0.49892067705E+03 0.66580850819E+03 0.78820730487E+03 0.70232775296E+03 0.66580850819E+03
 0.56551702167E+03 0.42686579234E+03 0.28364092186E+03 0.16583179428E+03 0.88766247197E+02
 0.50229996041E+02 0.36233326115E+02 0.30504979946E+02 0.27153947638E+02 0.25452459204E+02
 0.24914032630E+02 0.25452459204E+02 0.27153947638E+02 0.30504979946E+02 0.36233326115E+02
 0.50229996041E+02 0.88766247197E+02 0.16583179428E+03 0.28364092186E+03 0.42686579234E+03
 0.56551702167E+03 0.66580850819E+03 0.52482467801E+03 0.49892067705E+03 0.42686579234E+03
 0.32525459567E+03 0.21835667353E+03 0.12977225121E+03 0.72596448639E+02 0.45197689513E+02
 0.35260066625E+02 0.30075668498E+02 0.27115999103E+02 0.25664722114E+02 0.25218826473E+02
 0.25664722114E+02 0.27115999103E+02 0.30075668498E+02 0.35260066625E+02 0.45197689513E+02
 0.72596448639E+02 0.12977225121E+03 0.21835667353E+03 0.32525459567E+03 0.42686579234E+03
 0.49892067705E+03 0.34515165717E+03 0.32905578786E+03 0.28364092186E+03 0.21835667353E+03
 0.14889107266E+03 0.91836972088E+02 0.56504398305E+02 0.40657385861E+02 0.33836170683E+02
 0.29460459722E+02 0.27036395577E+02 0.25883185689E+02 0.25539623608E+02 0.25883185689E+02
 0.27036395577E+02 0.29460459722E+02 0.33836170683E+02 0.40657385861E+02 0.56504398305E+02
 0.91836972088E+02 0.14889107266E+03 0.21835667353E+03 0.28364092186E+03 0.32905578786E+03
 0.19950880342E+03 0.19075521598E+03 0.16583179428E+03 0.12977225121E+03 0.91836972088E+02
 0.62007494653E+02 0.44975907069E+02 0.37203870115E+02 0.32084346729E+02 0.28750495596E+02
 0.26926612367E+02 0.26070379241E+02 0.25820666790E+02 0.26070379241E+02 0.26926612367E+02
 0.28750495596E+02 0.32084346729E+02 0.37203870115E+02 0.44975907069E+02 0.62007494653E+02
 0.91836972088E+02 0.12977225121E+03 0.16583179428E+03 0.19075521598E+03 0.10426261035E+03
 0.10021446367E+03 0.88766247197E+02 0.72596448639E+02 0.56504398305E+02 0.44975907069E+02
 0.38558773986E+02 0.33893094010E+02 0.30339961042E+02 0.28068475045E+02 0.26808418894E+02
 0.26206108991E+02 0.26029847546E+02 0.26206108991E+02 0.26808418894E+02 0.28068475045E+02
 0.30339961042E+02 0.33893094010E+02 0.38558773986E+02 0.44975907069E+02 0.56504398305E+02
 0.72596448639E+02 0.88766247197E+02 0.10021446367E+03 0.55469816582E+02 0.54065233701E+02
 0.50229996041E+02 0.45197689513E+02 0.40657385861E+02 0.37203870115E+02 0.33893094010E+02
 0.31005264291E+02 0.28876655650E+02 0.27498357123E+02 0.26693220171E+02 0.26282751496E+02
 0.26157523592E+02 0.26282751496E+02 0.26693220171E+02 0.27498357123E+02 0.28876655650E+02
 0.31005264291E+02 0.33893094010E+02 0.37203870115E+02 0.40657385861E+02 0.45197689513E+02
 0.50229996041E+02 0.54065233701E+02 0.37137166396E+02 0.36892392953E+02 0.36233326115E+02
 0.35260066625E+02 0.33836170683E+02 0.32084346729E+02 0.30339961042E+02 0.28876655650E+02
 0.27794897660E+02 0.27054782635E+02 0.26574974520E+02 0.26300072404E+02 0.26209598649E+02
 0.26300072404E+02 0.26574974520E+02 0.27054782635E+02 0.27794897660E+02 0.28876655650E+02
 0.30339961042E+02 0.32084346729E+02 0.33836170683E+02 0.35260066625E+02 0.36233326115E+02
 0.36892392953E+02 0.30802573226E+02 0.30734358382E+02 0.30504979946E+02 0.30075668498E+02
 0.29460459722E+02 0.28750495596E+02 0.28068475045E+02 0.27498357123E+02 0.27054782635E+02
 0.26710398289E+02 0.26444446438E+02 0.26266528377E+02 0.26202751732E+02 0.26266528377E+02
 0.26444446438E+02 0.26710398289E+02 0.27054782635E+02 0.27498357123E+02 0.28068475045E+02
 0.28750495596E+02 0.29460459722E+02 0.30075668498E+02 0.30504979946E+02 0.30734358382E+02
 0.27159514273E+02 0.27160966246E+02 0.27153947638E+02 0.27115999103E+02 0.27036395577E+02
 0.26926612367E+02 0.26808418894E+02 0.26693220171E+02 0.26574974520E+02 0.26444446438E+02
 0.26310125715E+02 0.26203743805E+02 0.26162737298E+02 0.26203743805E+02 0.26310125715E+02
 0.26444446438E+02 0.26574974520E+02 0.26693220171E+02 0.26808418894E+02 0.26926612367E+02
 0.27036395577E+02 0.27115999103E+02 0.27153947638E+02 0.27160966246E+02 0.25237532916E+02
 0.25295612541E+02 0.25452459204E+02 0.25664722114E+02 0.25883185689E+02 0.26070379241E+02
 0.26206108991E+02 0.26282751496E+02 0.26300072404E+02 0.26266528377E+02 0.26203743805E+02
 0.26144632083E+02 0.26120578601E+02 0.26144632083E+02 0.26203743805E+02 0.26266528377E+02
 0.26300072404E+02 0.26282751496E+02 0.26206108991E+02 0.26070379241E+02 0.25883185689E+02
 0.25664722114E+02 0.25452459204E+02 0.25295612541E+02 0.24611825047E+02 0.24692888459E+02
 0.24914032630E+02 0.25218826473E+02 0.25539623608E+02 0.25820666790E+02 0.26029847546E+02
 0.26157523592E+02 0.26209598649E+02 0.26202751732E+02 0.26162737298E+02 0.26120578601E+02
 0.26102966783E+02 0.26120578601E+02 0.26162737298E+02 0.26202751732E+02 0.26209598649E+02
 0.26157523592E+02 0.26029847546E+02 0.25820666790E+02 0.25539623608E+02 0.25218826473E+02
 0.24914032630E+02 0.24692888459E+02 0.25237532916E+02 0.25295612541E+02 0.25452459204E+02
 0.25664722114E+02 0.25883185689E+02 0.26070379241E+02 0.26206108991E+02 0.26282751496E+02
 0.26300072404E+02 0.26266528377E+02 0.26203743805E+02 0.26144632083E+02 0.26120578601E+02
 0.26144632083E+02 0.26203743805E+02 0.26266528377E+02 0.26300072404E+02 0.26282751496E+02
 0.26206108991E+02 0.26070379241E+02 0.25883185689E+02 0.25664722114E+02 0.25452459204E+02
 0.25295612541E+02 0.27159514273E+02 0.27160966246E+02 0.27153947638E+02 0.27115999103E+02
 0.27036395577E+02 0.26926612367E+02 0.26808418894E+02 0.26693220171E+02 0.26574974520E+02
 0.26444446438E+02 0.26310125715E+02 0.26203743805E+02 0.26162737298E+02 0.26203743805E+02
 0.26310125715E+02 0.26444446438E+02 0.26574974520E+02 0.26693220171E+02 0.26808418894E+02
 0.26926612367E+02 0.27036395577E+02 0.27115999103E+02 0.27153947638E+02 0.27160966246E+02
 0.30802573226E+02 0.30734358382E+02 0.30504979946E+02 0.30075668498E+02 0.29460459722E+02
 0.28750495596E+02 0.28068475045E+02 0.27498357123E+02 0.27054782635E+02 0.26710398289E+02
 0.26444446438E+02 0.26266528377E+02 0.26202751732E+02 0.26266528377E+02 0.26444446438E+02
 0.26710398289E+02 0.27054782635E+02 0.27498357123E+02 0.28068475045E+02 0.28750495596E+02
 0.29460459722E+02 0.30075668498E+02 0.30504979946E+02 0.30734358382E+02 0.37137166396E+02
 0.36892392953E+02 0.36233326115E+02 0.35260066625E+02 0.33836170683E+02 0.32084346729E+02
 0.30339961042E+02 0.28876655650E+02 0.27794897660E+02 0.27054782635E+02 0.26574974520E+02
 0.26300072404E+02 0.26209598649E+02 0.26300072404E+02 0.26574974520E+02 0.27054782635E+02
 0.27794897660E+02 0.28876655650E+02 0.30339961042E+02 0.32084346729E+02 0.33836170683E+02
 0.35260066625E+02 0.36233326115E+02 0.36892392953E+02 0.55469816582E+02 0.54065233701E+02
 0.50229996041E+02 0.45197689513E+02 0.40657385861E+02 0.37203870115E+02 0.33893094010E+02
 0.31005264291E+02 0.28876655650E+02 0.27498357123E+02 0.26693220171E+02 0.26282751496E+02
 0.26157523592E+02 0.26282751496E+02 0.26693220171E+02 0.27498357123E+02 0.28876655650E+02
 0.31005264291E+02 0.33893094010E+02 0.37203870115E+02 0.40657385861E+02 0.45197689513E+02
 0.50229996041E+02 0.54065233701E+02 0.10426261035E+03 0.10021446367E+03 0.88766247197E+02
 0.72596448639E+02 0.56504398305E+02 0.44975907069E+02 0.38558773986E+02 0.33893094010E+02
 0.30339961042E+02 0.28068475045E+02 0.26808418894E+02 0.26206108991E+02 0.26029847546E+02
 0.26206108991E+02 0.26808418894E+02 0.28068475045E+02 0.30339961042E+02 0.33893094010E+02
 0.38558773986E+02 0.44975907069E+02 0.56504398305E+02 0.72596448639E+02 0.88766247197E+02
 0.10021446367E+03 0.19950880342E+03 0.19075521598E+03 0.16583179428E+03 0.12977225121E+03
 0.91836972088E+02 0.62007494653E+02 0.44975907069E+02 0.37203870115E+02 0.32084346729E+02
 0.28750495596E+02 0.26926612367E+02 0.26070379241E+02 0.25820666790E+02 0.26070379241E+02
 0.26926612367E+02 0.28750495596E+02 0.32084346729E+02 0.37203870115E+02 0.44975907069E+02
 0.62007494653E+02 0.91836972088E+02 0.12977225121E+03 0.16583179428E+03 0.19075521598E+03
 0.34515165717E+03 0.32905578786E+03 0.28364092186E+03 0.21835667353E+03 0.14889107266E+03
 0.91836972088E+02 0.56504398305E+02 0.40657385861E+02 0.33836170683E+02 0.29460459722E+02
 0.27036395577E+02 0.25883185689E+02 0.25539623608E+02 0.25883185689E+02 0.27036395577E+02
 0.29460459722E+02 0.33836170683E+02 0.40657385861E+02 0.56504398305E+02 0.91836972088E+02
 0.14889107266E+03 0.21835667353E+03 0.28364092186E+03 0.32905578786E+03 0.52482467801E+03
 0.49892067705E+03 0.42686579234E+03 0.32525459567E+03 0.21835667353E+03 0.12977225121E+03
 0.72596448639E+02 0.45197689513E+02 0.35260066625E+02 0.30075668498E+02 0.27115999103E+02
 0.25664722114E+02 0.25218826473E+02 0.25664722114E+02 0.27115999103E+02 0.30075668498E+02
 0.35260066625E+02 0.45197689513E+02 0.72596448639E+02 0.12977225121E+03 0.21835667353E+03
 0.32525459567E+03 0.42686579234E+03 0.49892067705E+03 0.70232775296E+03 0.66580850819E+03
 0.56551702167E+03 0.42686579234E+03 0.28364092186E+03 0.16583179428E+03 0.88766247197E+02
 0.50229996041E+02 0.36233326115E+02 0.30504979946E+02 0.27153947638E+02 0.25452459204E+02
 0.24914032630E+02 0.25452459204E+02 0.27153947638E+02 0.30504979946E+02 0.36233326115E+02
 0.50229996041E+02 0.88766247197E+02 0.16583179428E+03 0.28364092186E+03 0.42686579234E+03
 0.56551702167E+03 0.66580850819E+03 0.83314901107E+03 0.78820730487E+03 0.66580850819E+03
 0.49892067705E+03 0.32905578786E+03 0.19075521598E+03 0.10021446367E+03 0.54065233701E+02
 0.36892392953E+02 0.30734358382E+02 0.27160966246E+02 0.25295612541E+02 0.24692888459E+02
 0.25295612541E+02 0.27160966246E+02 0.30734358382E+02 0.36892392953E+02 0.54065233701E+02
 0.10021446367E+03 0.19075521598E+03 0.32905578786E+03 0.49892067705E+03 0.66580850819E+03
 0.78820730487E+03 0.83317389416E+03 0.78818644716E+03 0.66568723043E+03 0.49872194539E+03
 0.32885516028E+03 0.19061919688E+03 0.10015952488E+03 0.54064993926E+02 0.36911748220E+02
 0.30754129782E+02 0.27178894343E+02 0.25312097930E+02 0.24708867585E+02 0.25312097930E+02
 0.27178894343E+02 0.30754129782E+02 0.36911748220E+02 0.54064993926E+02 0.10015952488E+03
 0.19061919688E+03 0.32885516028E+03 0.49872194539E+03 0.66568723043E+03 0.78818644716E+03
 0.78818644716E+03 0.74615031869E+03 0.63137222502E+03 0.47420277966E+03 0.31348580286E+03
 0.18220419741E+03 0.96275231135E+02 0.52745976161E+02 0.36694566923E+02 0.30691545505E+02
 0.27186732628E+02 0.25374708234E+02 0.24793400471E+02 0.25374708234E+02 0.27186732628E+02
 0.30691545505E+02 0.36694566923E+02 0.52745976161E+02 0.96275231135E+02 0.18220419741E+03
 0.31348580286E+03 0.47420277966E+03 0.63137222502E+03 0.74615031869E+03 0.66568723043E+03
 0.63137222502E+03 0.53692878908E+03 0.40591379670E+03 0.27014130410E+03 0.15831619106E+03
 0.85351828315E+02 0.49170874285E+02 0.36101591551E+02 0.30479331463E+02 0.27197391525E+02
 0.25543831185E+02 0.25023895646E+02 0.25543831185E+02 0.27197391525E+02 0.30479331463E+02
 0.36101591551E+02 0.49170874285E+02 0.85351828315E+02 0.15831619106E+03 0.27014130410E+03
 0.40591379670E+03 0.53692878908E+03 0.63137222502E+03 0.49872194539E+03 0.47420277966E+03
 0.40591379670E+03 0.30945807029E+03 0.20792360342E+03 0.12394517824E+03 0.70072793765E+02
 0.44535002036E+02 0.35175712943E+02 0.30079087944E+02 0.27185478712E+02 0.25774009756E+02
 0.25342567717E+02 0.25774009756E+02 0.27185478712E+02 0.30079087944E+02 0.35175712943E+02
 0.44535002036E+02 0.70072793765E+02 0.12394517824E+03 0.20792360342E+03 0.30945807029E+03
 0.40591379670E+03 0.47420277966E+03 0.32885516028E+03 0.31348580286E+03 0.27014130410E+03
 0.20792360342E+03 0.14193650000E+03 0.88073705586E+02 0.55058366102E+02 0.40381209813E+02
 0.33786038126E+02 0.29504742869E+02 0.27139119325E+02 0.26016840666E+02 0.25683704606E+02
 0.26016840666E+02 0.27139119325E+02 0.29504742869E+02 0.33786038126E+02 0.40381209813E+02
 0.55058366102E+02 0.88073705586E+02 0.14193650000E+03 0.20792360342E+03 0.27014130410E+03
 0.31348580286E+03 0.19061919688E+03 0.18220419741E+03 0.15831619106E+03 0.12394517824E+03
 0.88073705586E+02 0.60175287241E+02 0.44437523469E+02 0.37100045662E+02 0.32093947139E+02
 0.28847109878E+02 0.27072471015E+02 0.26240432019E+02 0.25998344808E+02 0.26240432019E+02
 0.27072471015E+02 0.28847109878E+02 0.32093947139E+02 0.37100045662E+02 0.44437523469E+02
 0.60175287241E+02 0.88073705586E+02 0.12394517824E+03 0.15831619106E+03 0.18220419741E+03
 0.10015952488E+03 0.96275231135E+02 0.85351828315E+02 0.70072793765E+02 0.55058366102E+02
 0.44437523469E+02 0.38431956840E+02 0.33874047053E+02 0.30425857336E+02 0.28228902871E+02
 0.27012568894E+02 0.26432586618E+02 0.26263299391E+02 0.26432586618E+02 0.27012568894E+02
 0.28228902871E+02 0.30425857336E+02 0.33874047053E+02 0.38431956840E+02 0.44437523469E+02
 0.55058366102E+02 0.70072793765E+02 0.85351828315E+02 0.96275231135E+02 0.54064993926E+02
 0.52745976161E+02 0.49170874285E+02 0.44535002036E+02 0.40381209813E+02 0.37100045662E+02
 0.33874047053E+02 0.31084942580E+02 0.29044608095E+02 0.27733693717E+02 0.26974453606E+02
 0.26590637041E+02 0.26474190174E+02 0.26590637041E+02 0.26974453606E+02 0.27733693717E+02
 0.29044608095E+02 0.31084942580E+02 0.33874047053E+02 0.37100045662E+02 0.40381209813E+02
 0.44535002036E+02 0.49170874285E+02 0.52745976161E+02 0.36911748220E+02 0.36694566923E+02
 0.36101591551E+02 0.35175712943E+02 0.33786038126E+02 0.32093947139E+02 0.30425857336E+02
 0.29044608095E+02 0.28042361959E+02 0.27373064629E+02 0.26949643195E+02 0.26711228725E+02
 0.26633390359E+02 0.26711228725E+02 0.26949643195E+02 0.27373064629E+02 0.28042361959E+02
 0.29044608095E+02 0.30425857336E+02 0.32093947139E+02 0.33786038126E+02 0.35175712943E+02
 0.36101591551E+02 0.36694566923E+02 0.30754129782E+02 0.30691545505E+02 0.30479331463E+02
 0.30079087944E+02 0.29504742869E+02 0.28847109878E+02 0.28228902871E+02 0.27733693717E+02
 0.27373064629E+02 0.27112087831E+02 0.26918575857E+02 0.26790091911E+02 0.26743868411E+02
 0.26790091911E+02 0.26918575857E+02 0.27112087831E+02 0.27373064629E+02 0.27733693717E+02
 0.28228902871E+02 0.28847109878E+02 0.29504742869E+02 0.30079087944E+02 0.30479331463E+02
 0.30691545505E+02 0.27178894343E+02 0.27186732628E+02 0.27197391525E+02 0.27185478712E+02
 0.27139119325E+02 0.27072471015E+02 0.27012568894E+02 0.26974453606E+02 0.26949643195E+02
 0.26918575857E+02 0.26873612775E+02 0.26829430808E+02 0.26810719482E+02 0.26829430808E+02
 0.26873612775E+02 0.26918575857E+02 0.26949643195E+02 0.26974453606E+02 0.27012568894E+02
 0.27072471015E+02 0.27139119325E+02 0.27185478712E+02 0.27197391525E+02 0.27186732628E+02
 0.25312097930E+02 0.25374708234E+02 0.25543831185E+02 0.25774009756E+02 0.26016840666E+02
 0.26240432019E+02 0.26432586618E+02 0.26590637041E+02 0.26711228725E+02 0.26790091911E+02
 0.26829430808E+02 0.26841816442E+02 0.26843456872E+02 0.26841816442E+02 0.26829430808E+02
 0.26790091911E+02 0.26711228725E+02 0.26590637041E+02 0.26432586618E+02 0.26240432019E+02
 0.26016840666E+02 0.25774009756E+02 0.25543831185E+02 0.25374708234E+02 0.24708867585E+02
 0.24793400471E+02 0.25023895646E+02 0.25342567717E+02 0.25683704606E+02 0.25998344808E+02
 0.26263299391E+02 0.26474190174E+02 0.26633390359E+02 0.26743868411E+02 0.26810719482E+02
 0.26843456872E+02 0.26852770349E+02 0.26843456872E+02 0.26810719482E+02 0.26743868411E+02
 0.26633390359E+02 0.26474190174E+02 0.26263299391E+02 0.25998344808E+02 0.25683704606E+02
 0.25342567717E+02 0.25023895646E+02 0.24793400471E+02 0.25312097930E+02 0.25374708234E+02
 0.25543831185E+02 0.25774009756E+02 0.26016840666E+02 0.26240432019E+02 0.26432586618E+02
 0.26590637041E+02 0.26711228725E+02 0.26790091911E+02 0.26829430808E+02 0.26841816442E+02
 0.26843456872E+02 0.26841816442E+02 0.26829430808E+02 0.26790091911E+02 0.26711228725E+02
 0.26590637041E+02 0.26432586618E+02 0.26240432019E+02 0.26016840666E+02 0.25774009756E+02
 0.25543831185E+02 0.25374708234E+02 0.27178894343E+02 0.27186732628E+02 0.27197391525E+02
 0.27185478712E+02 0.27139119325E+02 0.27072471015E+02 0.27012568894E+02 0.26974453606E+02
 0.26949643195E+02 0.26918575857E+02 0.26873612775E+02 0.26829430808E+02 0.26810719482E+02
 0.26829430808E+02 0.26873612775E+02 0.26918575857E+02 0.26949643195E+02 0.26974453606E+02
 0.27012568894E+02 0.27072471015E+02 0.27139119325E+02 0.27185478712E+02 0.27197391525E+02
 0.27186732628E+02 0.30754129782E+02 0.30691545505E+02 0.30479331463E+02 0.30079087944E+02
 0.29504742869E+02 0.28847109878E+02 0.28228902871E+02 0.27733693717E+02 0.27373064629E+02
 0.27112087831E+02 0.26918575857E+02 0.26790091911E+02 0.26743868411E+02 0.26790091911E+02
 0.26918575857E+02 0.27112087831E+02 0.27373064629E+02 0.27733693717E+02 0.28228902871E+02
 0.28847109878E+02 0.29504742869E+02 0.30079087944E+02 0.30479331463E+02 0.30691545505E+02
 0.36911748220E+02 0.36694566923E+02 0.36101591551E+02 0.35175712943E+02 0.33786038126E+02
 0.32093947139E+02 0.30425857336E+02 0.29044608095E+02 0.28042361959E+02 0.27373064629E+02
 0.26949643195E+02 0.26711228725E+02 0.26633390359E+02 0.26711228725E+02 0.26949643195E+02
 0.27373064629E+02 0.28042361959E+02 0.29044608095E+02 0.30425857336E+02 0.32093947139E+02
 0.33786038126E+02 0.35175712943E+02 0.36101591551E+02 0.36694566923E+02 0.54064993926E+02
 0.52745976161E+02 0.49170874285E+02 0.44535002036E+02 0.40381209813E+02 0.37100045662E+02
 0.33874047053E+02 0.31084942580E+02 0.29044608095E+02 0.27733693717E+02 0.26974453606E+02
 0.26590637041E+02 0.26474190174E+02 0.26590637041E+02 0.26974453606E+02 0.27733693717E+02
 0.29044608095E+02 0.31084942580E+02 0.33874047053E+02 0.37100045662E+02 0.40381209813E+02
 0.44535002036E+02 0.49170874285E+02 0.52745976161E+02 0.10015952488E+03 0.96275231135E+02
 0.85351828315E+02 0.70072793765E+02 0.55058366102E+02 0.44437523469E+02 0.38431956840E+02
 0.33874047053E+02 0.30425857336E+02 0.28228902871E+02 0.27012568894E+02 0.26432586618E+02
 0.26263299391E+02 0.26432586618E+02 0.27012568894E+02 0.28228902871E+02 0.30425857336E+02
 0.33874047053E+02 0.38431956840E+02 0.44437523469E+02 0.55058366102E+02 0.70072793765E+02
 0.85351828315E+02 0.96275231135E+02 0.19061919688E+03 0.18220419741E+03 0.15831619106E+03
 0.12394517824E+03 0.88073705586E+02 0.60175287241E+02 0.44437523469E+02 0.37100045662E+02
 0.32093947139E+02 0.28847109878E+02 0.27072471015E+02 0.26240432019E+02 0.25998344808E+02
 0.26240432019E+02 0.27072471015E+02 0.28847109878E+02 0.32093947139E+02 0.37100045662E+02
 0.44437523469E+02 0.60175287241E+02 0.88073705586E+02 0.12394517824E+03 0.15831619106E+03
 0.18220419741E+03 0.32885516028E+03 0.31348580286E+03 0.27014130410E+03 0.20792360342E+03
 0.14193650000E+03 0.88073705586E+02 0.55058366102E+02 0.40381209813E+02 0.33786038126E+02
 0.29504742869E+02 0.27139119325E+02 0.26016840666E+02 0.25683704606E+02 0.26016840666E+02
 0.27139119325E+02 0.29504742869E+02 0.33786038126E+02 0.40381209813E+02 0.55058366102E+02
 0.88073705586E+02 0.14193650000E+03 0.20792360342E+03 0.27014130410E+03 0.31348580286E+03
 0.49872194539E+03 0.47420277966E+03 0.40591379670E+03 0.30945807029E+03 0.20792360342E+03
 0.12394517824E+03 0.70072793765E+02 0.44535002036E+02 0.35175712943E+02 0.30079087944E+02
 0.27185478712E+02 0.25774009756E+02 0.25342567717E+02 0.25774009756E+02 0.27185478712E+02
 0.30079087944E+02 0.35175712943E+02 0.44535002036E+02 0.70072793765E+02 0.12394517824E+03
 0.20792360342E+03 0.30945807029E+03 0.40591379670E+03 0.47420277966E+03 0.66568723043E+03
 0.63137222502E+03 0.53692878908E+03 0.40591379670E+03 0.27014130410E+03 0.15831619106E+03
 0.85351828315E+02 0.49170874285E+02 0.36101591551E+02 0.30479331463E+02 0.27197391525E+02
 0.25543831185E+02 0.25023895646E+02 0.25543831185E+02 0.27197391525E+02 0.30479331463E+02
 0.36101591551E+02 0.49170874285E+02 0.85351828315E+02 0.15831619106E+03 0.27014130410E+03
 0.40591379670E+03 0.53692878908E+03 0.63137222502E+03 0.78818644716E+03 0.74615031869E+03
 0.63137222502E+03 0.47420277966E+03 0.31348580286E+03 0.18220419741E+03 0.96275231135E+02
 0.52745976161E+02 0.36694566923E+02 0.30691545505E+02 0.27186732628E+02 0.25374708234E+02
 0.24793400471E+02 0.25374708234E+02 0.27186732628E+02 0.30691545505E+02 0.36694566923E+02
 0.52745976161E+02 0.96275231135E+02 0.18220419741E+03 0.31348580286E+03 0.47420277966E+03
 0.63137222502E+03 0.74615031869E+03 0.70257267223E+03 0.66589013053E+03 0.56523757582E+03
 0.42629892989E+03 0.28304380807E+03 0.16543124258E+03 0.88619107835E+02 0.50250232326E+02
 0.36308354469E+02 0.30579022663E+02 0.27222521586E+02 0.25516627304E+02 0.24976619679E+02
 0.25516627304E+02 0.27222521586E+02 0.30579022663E+02 0.36308354469E+02 0.50250232326E+02
 0.88619107835E+02 0.16543124258E+03 0.28304380807E+03 0.42629892989E+03 0.56523757582E+03
 0.66589013053E+03 0.66589013053E+03 0.63145789749E+03 0.53675493749E+03 0.40553212431E+03
 0.26973438385E+03 0.15804477193E+03 0.85255926067E+02 0.49189843300E+02 0.36156853729E+02
 0.30533635066E+02 0.27248090953E+02 0.25591570071E+02 0.25070561320E+02 0.25591570071E+02
 0.27248090953E+02 0.30533635066E+02 0.36156853729E+02 0.49189843300E+02 0.85255926067E+02
 0.15804477193E+03 0.26973438385E+03 0.40553212431E+03 0.53675493749E+03 0.63145789749E+03
 0.56523757582E+03 0.53675493749E+03 0.45789794228E+03 0.34752211715E+03 0.23227816356E+03
 0.13726199460E+03 0.75946343238E+02 0.46373497464E+02 0.35706809339E+02 0.30375123842E+02
 0.27310161874E+02 0.25796723270E+02 0.25329113002E+02 0.25796723270E+02 0.27310161874E+02
 0.30375123842E+02 0.35706809339E+02 0.46373497464E+02 0.75946343238E+02 0.13726199460E+03
 0.23227816356E+03 0.34752211715E+03 0.45789794228E+03 0.53675493749E+03 0.42629892989E+03
 0.40553212431E+03 0.34752211715E+03 0.26531601197E+03 0.17881092023E+03 0.10785494952E+03
 0.63286531907E+02 0.42831991072E+02 0.34871072244E+02 0.30069480582E+02 0.27380750272E+02
 0.26087046984E+02 0.25697142828E+02 0.26087046984E+02 0.27380750272E+02 0.30069480582E+02
 0.34871072244E+02 0.42831991072E+02 0.63286531907E+02 0.10785494952E+03 0.17881092023E+03
 0.26531601197E+03 0.34752211715E+03 0.40553212431E+03 0.28304380807E+03 0.26973438385E+03
 0.23227816356E+03 0.17881092023E+03 0.12274559771E+03 0.77909166791E+02 0.51299317885E+02
 0.39660993640E+02 0.33613083483E+02 0.29633854732E+02 0.27450238177E+02 0.26422350347E+02
 0.26120344331E+02 0.26422350347E+02 0.27450238177E+02 0.29633854732E+02 0.33613083483E+02
 0.39660993640E+02 0.51299317885E+02 0.77909166791E+02 0.12274559771E+03 0.17881092023E+03
 0.23227816356E+03 0.26973438385E+03 0.16543124258E+03 0.15804477193E+03 0.13726199460E+03
 0.10785494952E+03 0.77909166791E+02 0.55392813556E+02 0.43085356167E+02 0.36766135855E+02
 0.32130900080E+02 0.29159768977E+02 0.27542537314E+02 0.26788503159E+02 0.26570830294E+02
 0.26788503159E+02 0.27542537314E+02 0.29159768977E+02 0.32130900080E+02 0.36766135855E+02
 0.43085356167E+02 0.55392813556E+02 0.77909166791E+02 0.10785494952E+03 0.13726199460E+03
 0.15804477193E+03 0.88619107835E+02 0.85255926067E+02 0.75946343238E+02 0.63286531907E+02
 0.51299317885E+02 0.43085356167E+02 0.38031262588E+02 0.33834816192E+02 0.30724219173E+02
 0.28768148767E+02 0.27696890734E+02 0.27192623915E+02 0.27047107453E+02 0.27192623915E+02
 0.27696890734E+02 0.28768148767E+02 0.30724219173E+02 0.33834816192E+02 0.38031262588E+02
 0.43085356167E+02 0.51299317885E+02 0.63286531907E+02 0.75946343238E+02 0.85255926067E+02
 0.50250232326E+02 0.49189843300E+02 0.46373497464E+02 0.42831991072E+02 0.39660993640E+02
 0.36766135855E+02 0.33834816192E+02 0.31372317884E+02 0.29622520685E+02 0.28535989088E+02
 0.27931534956E+02 0.27638044517E+02 0.27551338945E+02 0.27638044517E+02 0.27931534956E+02
 0.28535989088E+02 0.29622520685E+02 0.31372317884E+02 0.33834816192E+02 0.36766135855E+02
 0.39660993640E+02 0.42831991072E+02 0.46373497464E+02 0.49189843300E+02 0.36308354469E+02
 0.36156853729E+02 0.35706809339E+02 0.34871072244E+02 0.33613083483E+02 0.32130900080E+02
 0.30724219173E+02 0.29622520685E+02 0.28890054400E+02 0.28458601718E+02 0.28221637840E+02
 0.28102066075E+02 0.28065004294E+02 0.28102066075E+02 0.28221637840E+02 0.28458601718E+02
 0.28890054400E+02 0.29622520685E+02 0.30724219173E+02 0.32130900080E+02 0.33613083483E+02
 0.34871072244E+02 0.35706809339E+02 0.36156853729E+02 0.30579022663E+02 0.30533635066E+02
 0.30375123842E+02 0.30069480582E+02 0.29633854732E+02 0.29159768977E+02 0.28768148767E+02
 0.28535989088E+02 0.28458601718E+02 0.28472700251E+02 0.28510351028E+02 0.28535677616E+02
 0.28543320324E+02 0.28535677616E+02 0.28510351028E+02 0.28472700251E+02 0.28458601718E+02
 0.28535989088E+02 0.28768148767E+02 0.29159768977E+02 0.29633854732E+02 0.30069480582E+02
 0.30375123842E+02 0.30533635066E+02 0.27222521586E+02 0.27248090953E+02 0.27310161874E+02
 0.27380750272E+02 0.27450238177E+02 0.27542537314E+02 0.27696890734E+02 0.27931534956E+02
 0.28221637840E+02 0.28510351028E+02 0.28741306530E+02 0.28883457921E+02 0.28930452990E+02
 0.28883457921E+02 0.28741306530E+02 0.28510351028E+02 0.28221637840E+02 0.27931534956E+02
 0.27696890734E+02 0.27542537314E+02 0.27450238177E+02 0.27380750272E+02 0.27310161874E+02
 0.27248090953E+02 0.25516627304E+02 0.25591570071E+02 0.25796723270E+02 0.26087046984E+02
 0.26422350347E+02 0.26788503159E+02 0.27192623915E+02 0.27638044517E+02 0.28102066075E+02
 0.28535677616E+02 0.28883457921E+02 0.29104769412E+02 0.29180153158E+02 0.29104769412E+02
 0.28883457921E+02 0.28535677616E+02 0.28102066075E+02 0.27638044517E+02 0.27192623915E+02
 0.26788503159E+02 0.26422350347E+02 0.26087046984E+02 0.25796723270E+02 0.25591570071E+02
 0.24976619679E+02 0.25070561320E+02 0.25329113002E+02 0.25697142828E+02 0.26120344331E+02
 0.26570830294E+02 0.27047107453E+02 0.27551338945E+02 0.28065004294E+02 0.28543320324E+02
 0.28930452990E+02 0.29180153158E+02 0.29266029921E+02 0.29180153158E+02 0.28930452990E+02
 0.28543320324E+02 0.28065004294E+02 0.27551338945E+02 0.27047107453E+02 0.26570830294E+02
 0.26120344331E+02 0.25697142828E+02 0.25329113002E+02 0.25070561320E+02 0.25516627304E+02
 0.25591570071E+02 0.25796723270E+02 0.26087046984E+02 0.26422350347E+02 0.26788503159E+02
 0.27192623915E+02 0.27638044517E+02 0.28102066075E+02 0.28535677616E+02 0.28883457921E+02
 0.29104769412E+02 0.29180153158E+02 0.29104769412E+02 0.28883457921E+02 0.28535677616E+02
 0.28102066075E+02 0.27638044517E+02 0.27192623915E+02 0.26788503159E+02 0.26422350347E+02
 0.26087046984E+02 0.25796723270E+02 0.25591570071E+02 0.27222521586E+02 0.27248090953E+02
 0.27310161874E+02 0.27380750272E+02 0.27450238177E+02 0.27542537314E+02 0.27696890734E+02
 0.27931534956E+02 0.28221637840E+02 0.28510351028E+02 0.28741306530E+02 0.28883457921E+02
 0.28930452990E+02 0.28883457921E+02 0.28741306530E+02 0.28510351028E+02 0.28221637840E+02
 0.27931534956E+02 0.27696890734E+02 0.27542537314E+02 0.27450238177E+02 0.27380750272E+02
 0.27310161874E+02 0.27248090953E+02 0.30579022663E+02 0.30533635066E+02 0.30375123842E+02
 0.30069480582E+02 0.29633854732E+02 0.29159768977E+02 0.28768148767E+02 0.28535989088E+02
 0.28458601718E+02 0.28472700251E+02 0.28510351028E+02 0.28535677616E+02 0.28543320324E+02
 0.28535677616E+02 0.28510351028E+02 0.28472700251E+02 0.28458601718E+02 0.28535989088E+02
 0.28768148767E+02 0.29159768977E+02 0.29633854732E+02 0.30069480582E+02 0.30375123842E+02
 0.30533635066E+02 0.36308354469E+02 0.36156853729E+02 0.35706809339E+02 0.34871072244E+02
 0.33613083483E+02 0.32130900080E+02 0.30724219173E+02 0.29622520685E+02 0.28890054400E+02
 0.28458601718E+02 0.28221637840E+02 0.28102066075E+02 0.28065004294E+02 0.28102066075E+02
 0.28221637840E+02 0.28458601718E+02 0.28890054400E+02 0.29622520685E+02 0.30724219173E+02
 0.32130900080E+02 0.33613083483E+02 0.34871072244E+02 0.35706809339E+02 0.36156853729E+02
 0.50250232326E+02 0.49189843300E+02 0.46373497464E+02 0.42831991072E+02 0.39660993640E+02
 0.36766135855E+02 0.33834816192E+02 0.31372317884E+02 0.29622520685E+02 0.28535989088E+02
 0.27931534956E+02 0.27638044517E+02 0.27551338945E+02 0.27638044517E+02 0.27931534956E+02
 0.28535989088E+02 0.29622520685E+02 0.31372317884E+02 0.33834816192E+02 0.36766135855E+02
 0.39660993640E+02 0.42831991072E+02 0.46373497464E+02 0.49189843300E+02 0.88619107835E+02
 0.85255926067E+02 0.75946343238E+02 0.63286531907E+02 0.51299317885E+02 0.43085356167E+02
 0.38031262588E+02 0.33834816192E+02 0.30724219173E+02 0.28768148767E+02 0.27696890734E+02
 0.27192623915E+02 0.27047107453E+02 0.27192623915E+02 0.27696890734E+02 0.28768148767E+02
 0.30724219173E+02 0.33834816192E+02 0.38031262588E+02 0.43085356167E+02 0.51299317885E+02
 0.63286531907E+02 0.75946343238E+02 0.85255926067E+02 0.16543124258E+03 0.15804477193E+03
 0.13726199460E+03 0.10785494952E+03 0.77909166791E+02 0.55392813556E+02 0.43085356167E+02
 0.36766135855E+02 0.32130900080E+02 0.29159768977E+02 0.27542537314E+02 0.26788503159E+02
 0.26570830294E+02 0.26788503159E+02 0.27542537314E+02 0.29159768977E+02 0.32130900080E+02
 0.36766135855E+02 0.43085356167E+02 0.55392813556E+02 0.77909166791E+02 0.10785494952E+03