   3   3   1   0
  0.3452077E+02  0.2840000E-09  0.2840000E-09  0.1284000E-08  0.5000000E-15
  1.000000000000000E-004
  CAR 
 BCC Fe                                  
     10.83576515     -9.58744556  301     -0.28422833      1.00000000
     -9.587  0.0000E+00  0.0000E+00  0.0000E+00  0.0000E+00
     -9.519  0.0000E+00  0.0000E+00  0.0000E+00  0.0000E+00
     -9.451  0.0000E+00  0.0000E+00  0.0000E+00  0.0000E+00
     -9.383  0.0000E+00  0.0000E+00  0.0000E+00  0.0000E+00
     -9.315  0.0000E+00  0.0000E+00  0.0000E+00  0.0000E+00
     -9.247 -0.3427E-31  0.0000E+00 -0.2333E-32  0.0000E+00
     -9.179 -0.8278E-29  0.0000E+00 -0.5659E-30  0.0000E+00
     -9.111 -0.1588E-26  0.0000E+00 -0.1087E-27  0.0000E+00
     -9.043 -0.2411E-24  0.0000E+00 -0.1652E-25  0.0000E+00
     -8.975 -0.2896E-22 -0.2603E-31 -0.1988E-23 -0.1772E-32
     -8.907 -0.2751E-20 -0.6362E-29 -0.1893E-21 -0.4349E-30
     -8.839 -0.2066E-18 -0.1235E-26 -0.1425E-19 -0.8448E-28
     -8.771 -0.1161E-16 -0.1896E-24 -0.8045E-18 -0.1299E-25
     -8.702 -0.5564E-15 -0.2304E-22 -0.3868E-16 -0.1581E-23
     -8.634 -0.2049E-13 -0.2213E-20 -0.1434E-14 -0.1523E-21
     -8.566 -0.5945E-12 -0.1682E-18 -0.4191E-13 -0.1160E-19
     -8.498 -0.1357E-10 -0.1009E-16 -0.9657E-12 -0.6988E-18
     -8.430 -0.2432E-09 -0.4630E-15 -0.1752E-10 -0.3222E-16
     -8.362 -0.3415E-08 -0.1727E-13 -0.2500E-09 -0.1208E-14
     -8.294 -0.3743E-07 -0.5070E-12 -0.2798E-08 -0.3572E-13
     -8.226 -0.3187E-06 -0.1171E-10 -0.2449E-07 -0.8329E-12
     -8.158 -0.2093E-05 -0.2124E-09 -0.1670E-06 -0.1529E-10
     -8.090 -0.1047E-04 -0.3018E-08 -0.8799E-06 -0.2207E-09
     -8.022 -0.3909E-04 -0.3348E-07 -0.3541E-05 -0.2500E-08
     -7.954 -0.1041E-03 -0.2887E-06 -0.1062E-04 -0.2215E-07
     -7.886 -0.1741E-03 -0.1921E-05 -0.2248E-04 -0.1529E-06
     -7.817 -0.7695E-04 -0.9743E-05 -0.2772E-04 -0.8161E-06
     -7.749  0.4856E-03 -0.3692E-04  0.5343E-05 -0.3329E-05
     -7.681  0.1604E-02 -0.1001E-03  0.1146E-03 -0.1014E-04
     -7.613  0.2752E-02 -0.1724E-03  0.3019E-03 -0.2188E-04
     -7.545  0.3045E-02 -0.8983E-04  0.5092E-03 -0.2800E-04
     -7.477  0.2277E-02  0.4453E-03  0.6642E-03  0.2320E-05
     -7.409  0.1505E-02  0.1548E-02  0.7667E-03  0.1077E-03
     -7.341  0.2130E-02  0.2724E-02  0.9116E-03  0.2931E-03
     -7.273  0.4236E-02  0.3079E-02  0.1200E-02  0.5027E-03
     -7.205  0.6139E-02  0.2319E-02  0.1618E-02  0.6606E-03
     -7.137  0.6040E-02  0.1408E-02  0.2029E-02  0.7564E-03
     -7.069  0.4062E-02  0.1794E-02  0.2306E-02  0.8786E-03
     -7.001  0.2095E-02  0.3800E-02  0.2448E-02  0.1137E-02
     -6.932  0.1617E-02  0.5936E-02  0.2558E-02  0.1541E-02
     -6.864  0.2260E-02  0.6246E-02  0.2712E-02  0.1967E-02
     -6.796  0.2710E-02  0.4450E-02  0.2897E-02  0.2270E-02
     -6.728  0.2583E-02  0.2263E-02  0.3073E-02  0.2424E-02
     -6.660  0.2873E-02  0.1454E-02  0.3268E-02  0.2523E-02
     -6.592  0.4311E-02  0.2061E-02  0.3562E-02  0.2663E-02
     -6.524  0.5888E-02  0.2728E-02  0.3962E-02  0.2849E-02
     -6.456  0.5914E-02  0.2487E-02  0.4365E-02  0.3018E-02
     -6.388  0.4418E-02  0.1946E-02  0.4666E-02  0.3150E-02
     -6.320  0.3376E-02  0.2500E-02  0.4896E-02  0.3321E-02
     -6.252  0.4196E-02  0.4398E-02  0.5181E-02  0.3620E-02
     -6.184  0.5813E-02  0.6046E-02  0.5577E-02  0.4032E-02
     -6.115  0.5996E-02  0.5761E-02  0.5985E-02  0.4424E-02
     -6.047  0.4072E-02  0.3970E-02  0.6262E-02  0.4694E-02
     -5.979  0.1632E-02  0.2887E-02  0.6374E-02  0.4891E-02
     -5.911  0.7857E-03  0.3866E-02  0.6427E-02  0.5154E-02
     -5.843  0.2282E-02  0.5755E-02  0.6582E-02  0.5546E-02
     -5.775  0.5064E-02  0.6272E-02  0.6927E-02  0.5973E-02
     -5.707  0.7291E-02  0.4608E-02  0.7423E-02  0.6286E-02
     -5.639  0.8051E-02  0.2005E-02  0.7971E-02  0.6423E-02
     -5.571  0.8064E-02  0.1936E-04  0.8520E-02  0.6424E-02
     -5.503  0.8486E-02 -0.8156E-03  0.9098E-02  0.6369E-02
     -5.435  0.9387E-02 -0.4968E-03  0.9737E-02  0.6335E-02
     -5.367  0.9788E-02  0.1288E-02  0.1040E-01  0.6422E-02
     -5.299  0.8946E-02  0.4604E-02  0.1101E-01  0.6736E-02
     -5.230  0.7553E-02  0.8070E-02  0.1153E-01  0.7285E-02
     -5.162  0.7580E-02  0.9432E-02  0.1204E-01  0.7927E-02
     -5.094  0.1014E-01  0.8088E-02  0.1273E-01  0.8478E-02
     -5.026  0.1374E-01  0.6082E-02  0.1367E-01  0.8892E-02
     -4.958  0.1651E-01  0.5567E-02  0.1479E-01  0.9271E-02
     -4.890  0.2003E-01  0.6131E-02  0.1616E-01  0.9688E-02
     -4.822  0.2842E-01  0.5766E-02  0.1809E-01  0.1008E-01
     -4.754  0.4267E-01  0.3726E-02  0.2100E-01  0.1033E-01
     -4.686  0.5779E-01  0.1146E-02  0.2493E-01  0.1041E-01
     -4.618  0.6698E-01 -0.6224E-03  0.2949E-01  0.1037E-01
     -4.550  0.6890E-01 -0.9110E-03  0.3418E-01  0.1031E-01
     -4.482  0.6846E-01  0.8541E-03  0.3884E-01  0.1037E-01
     -4.414  0.6916E-01  0.5113E-02  0.4355E-01  0.1071E-01
     -4.345  0.6759E-01  0.1071E-01  0.4815E-01  0.1144E-01
     -4.277  0.5909E-01  0.1452E-01  0.5217E-01  0.1243E-01
     -4.209  0.4655E-01  0.1421E-01  0.5534E-01  0.1340E-01
     -4.141  0.3973E-01  0.1129E-01  0.5805E-01  0.1417E-01
     -4.073  0.4629E-01  0.9715E-02  0.6120E-01  0.1483E-01
     -4.005  0.6432E-01  0.1088E-01  0.6558E-01  0.1557E-01
     -3.937  0.8371E-01  0.1210E-01  0.7128E-01  0.1639E-01
     -3.869  0.9549E-01  0.1073E-01  0.7778E-01  0.1712E-01
     -3.801  0.9864E-01  0.7907E-02  0.8449E-01  0.1766E-01
     -3.733  0.9685E-01  0.6791E-02  0.9109E-01  0.1812E-01
     -3.665  0.9243E-01  0.8660E-02  0.9738E-01  0.1871E-01
     -3.597  0.8564E-01  0.1190E-01  0.1032E+00  0.1952E-01
     -3.529  0.7633E-01  0.1387E-01  0.1084E+00  0.2047E-01
     -3.460  0.6408E-01  0.1367E-01  0.1128E+00  0.2140E-01
     -3.392  0.5036E-01  0.1373E-01  0.1162E+00  0.2233E-01
     -3.324  0.4078E-01  0.1740E-01  0.1190E+00  0.2352E-01
     -3.256  0.4173E-01  0.2422E-01  0.1218E+00  0.2517E-01
     -3.188  0.5439E-01  0.2948E-01  0.1255E+00  0.2717E-01
     -3.120  0.7420E-01  0.2963E-01  0.1306E+00  0.2919E-01
     -3.052  0.9486E-01  0.2636E-01  0.1370E+00  0.3099E-01
     -2.984  0.1095E+00  0.2512E-01  0.1445E+00  0.3270E-01
     -2.916  0.1105E+00  0.3009E-01  0.1520E+00  0.3474E-01
     -2.848  0.9499E-01  0.4024E-01  0.1585E+00  0.3748E-01
     -2.780  0.7241E-01  0.4972E-01  0.1634E+00  0.4087E-01
     -2.712  0.5935E-01  0.5280E-01  0.1674E+00  0.4446E-01
     -2.644  0.6481E-01  0.4853E-01  0.1719E+00  0.4777E-01
     -2.575  0.8279E-01  0.4069E-01  0.1775E+00  0.5054E-01
     -2.507  0.9917E-01  0.3388E-01  0.1842E+00  0.5284E-01
     -2.439  0.1039E+00  0.3029E-01  0.1913E+00  0.5491E-01
     -2.371  0.9692E-01  0.2893E-01  0.1979E+00  0.5687E-01
     -2.303  0.8501E-01  0.2760E-01  0.2037E+00  0.5875E-01
     -2.235  0.7547E-01  0.2559E-01  0.2088E+00  0.6050E-01
     -2.167  0.7383E-01  0.2469E-01  0.2139E+00  0.6218E-01
     -2.099  0.8243E-01  0.2769E-01  0.2195E+00  0.6406E-01
     -2.031  0.9799E-01  0.3584E-01  0.2261E+00  0.6650E-01
     -1.963  0.1121E+00  0.4750E-01  0.2338E+00  0.6974E-01
     -1.895  0.1160E+00  0.5928E-01  0.2417E+00  0.7377E-01
     -1.827  0.1069E+00  0.6814E-01  0.2489E+00  0.7841E-01
     -1.759  0.8979E-01  0.7194E-01  0.2551E+00  0.8331E-01
     -1.690  0.7276E-01  0.6964E-01  0.2600E+00  0.8805E-01
     -1.622  0.6208E-01  0.6318E-01  0.2642E+00  0.9235E-01
     -1.554  0.5965E-01  0.5779E-01  0.2683E+00  0.9628E-01
     -1.486  0.6304E-01  0.5709E-01  0.2726E+00  0.1002E+00
     -1.418  0.6721E-01  0.5936E-01  0.2772E+00  0.1042E+00
     -1.350  0.6880E-01  0.6072E-01  0.2818E+00  0.1083E+00
     -1.282  0.6930E-01  0.5920E-01  0.2866E+00  0.1124E+00
     -1.214  0.7208E-01  0.5468E-01  0.2915E+00  0.1161E+00
     -1.146  0.7660E-01  0.4774E-01  0.2967E+00  0.1193E+00
     -1.078  0.7808E-01  0.3987E-01  0.3020E+00  0.1221E+00
     -1.010  0.7257E-01  0.3326E-01  0.3069E+00  0.1243E+00
     -0.942  0.6042E-01  0.2970E-01  0.3111E+00  0.1263E+00
     -0.874  0.4538E-01  0.2962E-01  0.3141E+00  0.1284E+00
     -0.805  0.3177E-01  0.3227E-01  0.3163E+00  0.1306E+00
     -0.737  0.2256E-01  0.3637E-01  0.3178E+00  0.1330E+00
     -0.669  0.1852E-01  0.4073E-01  0.3191E+00  0.1358E+00
     -0.601  0.1815E-01  0.4440E-01  0.3203E+00  0.1388E+00
     -0.533  0.1832E-01  0.4707E-01  0.3216E+00  0.1420E+00
     -0.465  0.1620E-01  0.4949E-01  0.3227E+00  0.1454E+00
     -0.397  0.1144E-01  0.5317E-01  0.3235E+00  0.1490E+00
     -0.329  0.6313E-02  0.5908E-01  0.3239E+00  0.1530E+00
     -0.261  0.3593E-02  0.6545E-01  0.3241E+00  0.1575E+00
     -0.193  0.4237E-02  0.6851E-01  0.3244E+00  0.1622E+00
     -0.125  0.7053E-02  0.6783E-01  0.3249E+00  0.1668E+00
     -0.057  0.1048E-01  0.6900E-01  0.3256E+00  0.1715E+00
      0.011  0.1391E-01  0.7717E-01  0.3266E+00  0.1767E+00
      0.080  0.1696E-01  0.8987E-01  0.3277E+00  0.1829E+00
      0.148  0.1870E-01  0.9898E-01  0.3290E+00  0.1896E+00
      0.216  0.1868E-01  0.9787E-01  0.3303E+00  0.1963E+00
      0.284  0.1724E-01  0.8522E-01  0.3314E+00  0.2021E+00
      0.352  0.1456E-01  0.6531E-01  0.3324E+00  0.2065E+00
      0.420  0.1082E-01  0.4622E-01  0.3332E+00  0.2096E+00
      0.488  0.7503E-02  0.3581E-01  0.3337E+00  0.2121E+00
      0.556  0.6348E-02  0.3733E-01  0.3341E+00  0.2146E+00
      0.624  0.6948E-02  0.4849E-01  0.3346E+00  0.2179E+00
      0.692  0.7300E-02  0.6503E-01  0.3351E+00  0.2224E+00
      0.760  0.7051E-02  0.8493E-01  0.3356E+00  0.2281E+00
      0.828  0.8440E-02  0.1070E+00  0.3361E+00  0.2354E+00
      0.896  0.1313E-01  0.1251E+00  0.3370E+00  0.2439E+00
      0.965  0.1921E-01  0.1292E+00  0.3383E+00  0.2527E+00
      1.033  0.2263E-01  0.1154E+00  0.3399E+00  0.2606E+00
      1.101  0.2105E-01  0.9244E-01  0.3413E+00  0.2669E+00
      1.169  0.1544E-01  0.7353E-01  0.3424E+00  0.2719E+00
      1.237  0.8872E-02  0.6540E-01  0.3430E+00  0.2763E+00
      1.305  0.4694E-02  0.6607E-01  0.3433E+00  0.2808E+00
      1.373  0.4745E-02  0.7062E-01  0.3436E+00  0.2856E+00
      1.441  0.8008E-02  0.7598E-01  0.3442E+00  0.2908E+00
      1.509  0.1145E-01  0.8070E-01  0.3449E+00  0.2963E+00
      1.577  0.1271E-01  0.8249E-01  0.3458E+00  0.3019E+00
      1.645  0.1160E-01  0.7839E-01  0.3466E+00  0.3073E+00
      1.713  0.9358E-02  0.6824E-01  0.3472E+00  0.3119E+00
      1.781  0.7505E-02  0.5605E-01  0.3477E+00  0.3157E+00
      1.850  0.7380E-02  0.4703E-01  0.3482E+00  0.3189E+00
      1.918  0.9211E-02  0.4367E-01  0.3489E+00  0.3219E+00
      1.986  0.1141E-01  0.4437E-01  0.3497E+00  0.3249E+00
      2.054  0.1224E-01  0.4491E-01  0.3505E+00  0.3280E+00
      2.122  0.1216E-01  0.4192E-01  0.3513E+00  0.3308E+00
      2.190  0.1286E-01  0.3508E-01  0.3522E+00  0.3332E+00
      2.258  0.1416E-01  0.2615E-01  0.3532E+00  0.3350E+00
      2.326  0.1373E-01  0.1703E-01  0.3541E+00  0.3362E+00
      2.394  0.1016E-01  0.9579E-02  0.3548E+00  0.3368E+00
      2.462  0.5033E-02  0.5293E-02  0.3551E+00  0.3372E+00
      2.530  0.1526E-02  0.3949E-02  0.3552E+00  0.3374E+00
      2.598  0.1629E-02  0.4326E-02  0.3553E+00  0.3377E+00
      2.666  0.4885E-02  0.7130E-02  0.3557E+00  0.3382E+00
      2.735  0.9169E-02  0.1463E-01  0.3563E+00  0.3392E+00
      2.803  0.1252E-01  0.2558E-01  0.3571E+00  0.3410E+00
      2.871  0.1427E-01  0.3310E-01  0.3581E+00  0.3432E+00
      2.939  0.1468E-01  0.3085E-01  0.3591E+00  0.3453E+00
      3.007  0.1469E-01  0.2021E-01  0.3601E+00  0.3467E+00
      3.075  0.1599E-01  0.9042E-02  0.3612E+00  0.3473E+00
      3.143  0.1970E-01  0.3931E-02  0.3625E+00  0.3476E+00
      3.211  0.2457E-01  0.5280E-02  0.3642E+00  0.3479E+00
      3.279  0.2792E-01  0.8882E-02  0.3661E+00  0.3485E+00
      3.347  0.2825E-01  0.1063E-01  0.3680E+00  0.3493E+00
      3.415  0.2611E-01  0.9958E-02  0.3698E+00  0.3499E+00
      3.483  0.2294E-01  0.9471E-02  0.3714E+00  0.3506E+00
      3.551  0.1979E-01  0.1152E-01  0.3727E+00  0.3514E+00
      3.620  0.1720E-01  0.1533E-01  0.3739E+00  0.3524E+00
      3.688  0.1539E-01  0.1768E-01  0.3749E+00  0.3536E+00
      3.756  0.1441E-01  0.1605E-01  0.3759E+00  0.3547E+00
      3.824  0.1419E-01  0.1111E-01  0.3769E+00  0.3555E+00
      3.892  0.1453E-01  0.6746E-02  0.3779E+00  0.3559E+00
      3.960  0.1493E-01  0.7004E-02  0.3789E+00  0.3564E+00
      4.028  0.1464E-01  0.1220E-01  0.3799E+00  0.3572E+00
      4.096  0.1365E-01  0.1796E-01  0.3808E+00  0.3585E+00
      4.164  0.1308E-01  0.1915E-01  0.3817E+00  0.3598E+00
      4.232  0.1376E-01  0.1503E-01  0.3827E+00  0.3608E+00
      4.300  0.1495E-01  0.1012E-01  0.3837E+00  0.3615E+00
      4.368  0.1535E-01  0.1003E-01  0.3847E+00  0.3622E+00
      4.436  0.1475E-01  0.1663E-01  0.3857E+00  0.3633E+00
      4.505  0.1427E-01  0.2710E-01  0.3867E+00  0.3651E+00
      4.573  0.1489E-01  0.3617E-01  0.3877E+00  0.3676E+00
      4.641  0.1596E-01  0.3928E-01  0.3888E+00  0.3703E+00
      4.709  0.1535E-01  0.3505E-01  0.3898E+00  0.3727E+00
      4.777  0.1179E-01  0.2609E-01  0.3906E+00  0.3744E+00
      4.845  0.7048E-02  0.1761E-01  0.3911E+00  0.3756E+00
      4.913  0.4474E-02  0.1422E-01  0.3914E+00  0.3766E+00
      4.981  0.5336E-02  0.1649E-01  0.3918E+00  0.3777E+00
      5.049  0.7505E-02  0.2036E-01  0.3923E+00  0.3791E+00
      5.117  0.8221E-02  0.2127E-01  0.3929E+00  0.3806E+00
      5.185  0.7555E-02  0.1868E-01  0.3934E+00  0.3818E+00
      5.253  0.8043E-02  0.1508E-01  0.3939E+00  0.3828E+00
      5.321  0.1086E-01  0.1180E-01  0.3947E+00  0.3837E+00
      5.390  0.1401E-01  0.8913E-02  0.3956E+00  0.3843E+00
      5.458  0.1547E-01  0.8049E-02  0.3967E+00  0.3848E+00
      5.526  0.1642E-01  0.1156E-01  0.3978E+00  0.3856E+00
      5.594  0.1925E-01  0.1822E-01  0.3991E+00  0.3868E+00
      5.662  0.2327E-01  0.2269E-01  0.4007E+00  0.3884E+00
      5.730  0.2457E-01  0.2086E-01  0.4023E+00  0.3898E+00
      5.798  0.2061E-01  0.1415E-01  0.4038E+00  0.3908E+00
      5.866  0.1327E-01  0.7342E-02  0.4047E+00  0.3913E+00
      5.934  0.6647E-02  0.3497E-02  0.4051E+00  0.3915E+00
      6.002  0.3041E-02  0.2110E-02  0.4053E+00  0.3916E+00
      6.070  0.2277E-02  0.1523E-02  0.4055E+00  0.3917E+00
      6.138  0.3606E-02  0.1732E-02  0.4057E+00  0.3919E+00
      6.207  0.6230E-02  0.4308E-02  0.4061E+00  0.3922E+00
      6.275  0.8460E-02  0.9789E-02  0.4067E+00  0.3928E+00
      6.343  0.8853E-02  0.1609E-01  0.4073E+00  0.3939E+00
      6.411  0.8515E-02  0.2014E-01  0.4079E+00  0.3953E+00
      6.479  0.1018E-01  0.2049E-01  0.4086E+00  0.3967E+00
      6.547  0.1435E-01  0.1791E-01  0.4096E+00  0.3979E+00
      6.615  0.1802E-01  0.1458E-01  0.4108E+00  0.3989E+00
      6.683  0.1814E-01  0.1299E-01  0.4120E+00  0.3998E+00
      6.751  0.1492E-01  0.1428E-01  0.4130E+00  0.4008E+00
      6.819  0.1096E-01  0.1738E-01  0.4138E+00  0.4019E+00
      6.887  0.8126E-02  0.2011E-01  0.4143E+00  0.4033E+00
      6.955  0.6454E-02  0.2098E-01  0.4148E+00  0.4047E+00
      7.023  0.5785E-02  0.1932E-01  0.4152E+00  0.4060E+00
      7.092  0.6626E-02  0.1504E-01  0.4156E+00  0.4071E+00
      7.160  0.8827E-02  0.9374E-02  0.4162E+00  0.4077E+00
      7.228  0.1067E-01  0.5215E-02  0.4170E+00  0.4081E+00
      7.296  0.1024E-01  0.5188E-02  0.4177E+00  0.4084E+00
      7.364  0.7256E-02  0.9189E-02  0.4181E+00  0.4090E+00
      7.432  0.3367E-02  0.1418E-01  0.4184E+00  0.4100E+00
      7.500  0.6909E-03  0.1638E-01  0.4184E+00  0.4111E+00
      7.568  0.4628E-03  0.1408E-01  0.4185E+00  0.4121E+00
      7.636  0.2496E-02  0.8986E-02  0.4186E+00  0.4127E+00
      7.704  0.5234E-02  0.4524E-02  0.4190E+00  0.4130E+00
      7.772  0.6563E-02  0.2758E-02  0.4194E+00  0.4132E+00
      7.840  0.5479E-02  0.3583E-02  0.4198E+00  0.4134E+00
      7.908  0.2963E-02  0.6127E-02  0.4200E+00  0.4139E+00
      7.977  0.7850E-03  0.9382E-02  0.4201E+00  0.4145E+00
      8.045 -0.2123E-03  0.1189E-01  0.4200E+00  0.4153E+00
      8.113 -0.3386E-03  0.1234E-01  0.4200E+00  0.4161E+00
      8.181 -0.1889E-03  0.1065E-01  0.4200E+00  0.4169E+00
      8.249 -0.6787E-04  0.7961E-02  0.4200E+00  0.4174E+00
      8.317 -0.1753E-04  0.5578E-02  0.4200E+00  0.4178E+00
      8.385 -0.3388E-05  0.3996E-02  0.4200E+00  0.4181E+00
      8.453 -0.4998E-06  0.2766E-02  0.4200E+00  0.4182E+00
      8.521 -0.5693E-07  0.1437E-02  0.4200E+00  0.4183E+00
      8.589 -0.5041E-08  0.3950E-03  0.4200E+00  0.4184E+00
      8.657 -0.3486E-09  0.5847E-03  0.4200E+00  0.4184E+00
      8.725 -0.1889E-10  0.2451E-02  0.4200E+00  0.4186E+00
      8.793 -0.8042E-12  0.5086E-02  0.4200E+00  0.4189E+00
      8.862 -0.2694E-13  0.6581E-02  0.4200E+00  0.4194E+00
      8.930 -0.7097E-15  0.5732E-02  0.4200E+00  0.4198E+00
      8.998 -0.1566E-16  0.3280E-02  0.4200E+00  0.4200E+00
      9.066  0.0000E+00  0.9876E-03  0.4200E+00  0.4201E+00
      9.134  0.0000E+00 -0.1511E-03  0.4200E+00  0.4200E+00
      9.202  0.0000E+00 -0.3479E-03  0.4200E+00  0.4200E+00
      9.270  0.0000E+00 -0.2081E-03  0.4200E+00  0.4200E+00
      9.338  0.0000E+00 -0.7817E-04  0.4200E+00  0.4200E+00
      9.406  0.0000E+00 -0.2094E-04  0.4200E+00  0.4200E+00
      9.474  0.0000E+00 -0.4186E-05  0.4200E+00  0.4200E+00
      9.542  0.0000E+00 -0.6374E-06  0.4200E+00  0.4200E+00
      9.610  0.0000E+00 -0.7486E-07  0.4200E+00  0.4200E+00
      9.678  0.0000E+00 -0.6829E-08  0.4200E+00  0.4200E+00
      9.747  0.0000E+00 -0.4864E-09  0.4200E+00  0.4200E+00
      9.815  0.0000E+00 -0.2714E-10  0.4200E+00  0.4200E+00
      9.883  0.0000E+00 -0.1189E-11  0.4200E+00  0.4200E+00
      9.951  0.0000E+00 -0.4098E-13  0.4200E+00  0.4200E+00
     10.019  0.0000E+00 -0.1112E-14  0.4200E+00  0.4200E+00
     10.087  0.0000E+00 -0.2609E-16  0.4200E+00  0.4200E+00
     10.155  0.0000E+00  0.0000E+00  0.4200E+00  0.4200E+00
     10.223  0.0000E+00  0.0000E+00  0.4200E+00  0.4200E+00
     10.291  0.0000E+00  0.0000E+00  0.4200E+00  0.4200E+00
     10.359  0.0000E+00  0.0000E+00  0.4200E+00  0.4200E+00
     10.427  0.0000E+00  0.0000E+00  0.4200E+00  0.4200E+00
     10.495  0.0000E+00  0.0000E+00  0.4200E+00  0.4200E+00
     10.563  0.0000E+00  0.0000E+00  0.4200E+00  0.4200E+00
     10.632  0.0000E+00  0.0000E+00  0.4200E+00  0.4200E+00
     10.700  0.0000E+00  0.0000E+00  0.4200E+00  0.4200E+00
     10.768  0.0000E+00  0.0000E+00  0.4200E+00  0.4200E+00
     10.836  0.0000E+00  0.0000E+00  0.4200E+00  0.4200E+00
     10.83576515     -9.58744556  301     -0.28422833      1.00000000
     -9.587  0.0000E+00  0.0000E+00  0.0000E+00  0.0000E+00  0.0000E+00  0.0000E+00
     -9.519  0.0000E+00  0.0000E+00  0.0000E+00  0.0000E+00  0.0000E+00  0.0000E+00
     -9.451  0.0000E+00  0.0000E+00  0.0000E+00  0.0000E+00  0.0000E+00  0.0000E+00
     -9.383  0.0000E+00  0.0000E+00  0.0000E+00  0.0000E+00  0.0000E+00  0.0000E+00
     -9.315  0.0000E+00  0.0000E+00  0.0000E+00  0.0000E+00  0.0000E+00  0.0000E+00
     -9.247 -0.2393E-30  0.0000E+00 -0.2665E-31  0.0000E+00 -0.1430E-32  0.0000E+00
     -9.179 -0.5782E-28  0.0000E+00 -0.6438E-29  0.0000E+00 -0.3456E-30  0.0000E+00
     -9.111 -0.1109E-25  0.0000E+00 -0.1235E-26  0.0000E+00 -0.6630E-28  0.0000E+00
     -9.043 -0.1684E-23  0.0000E+00 -0.1875E-24  0.0000E+00 -0.1007E-25  0.0000E+00
     -8.975 -0.2023E-21 -0.1726E-30 -0.2252E-22 -0.2392E-31 -0.1209E-23 -0.7140E-33
     -8.907 -0.1921E-19 -0.4218E-28 -0.2140E-20 -0.5846E-29 -0.1148E-21 -0.1745E-30
     -8.839 -0.1443E-17 -0.8185E-26 -0.1607E-18 -0.1134E-26 -0.8625E-20 -0.3386E-28
     -8.771 -0.8108E-16 -0.1257E-23 -0.9029E-17 -0.1742E-24 -0.4846E-18 -0.5200E-26
     -8.702 -0.3886E-14 -0.1527E-21 -0.4327E-15 -0.2117E-22 -0.2323E-16 -0.6318E-24
     -8.634 -0.1431E-12 -0.1467E-19 -0.1594E-13 -0.2034E-20 -0.8555E-15 -0.6071E-22
     -8.566 -0.4152E-11 -0.1115E-17 -0.4624E-12 -0.1545E-18 -0.2482E-13 -0.4612E-20
     -8.498 -0.9478E-10 -0.6693E-16 -0.1055E-10 -0.9276E-17 -0.5665E-12 -0.2769E-18
     -8.430 -0.1699E-08 -0.3069E-14 -0.1892E-09 -0.4254E-15 -0.1015E-10 -0.1270E-16
     -8.362 -0.2385E-07 -0.1145E-12 -0.2656E-08 -0.1587E-13 -0.1426E-09 -0.4737E-15
     -8.294 -0.2614E-06 -0.3361E-11 -0.2911E-07 -0.4659E-12 -0.1563E-08 -0.1391E-13
     -8.226 -0.2226E-05 -0.7763E-10 -0.2479E-06 -0.1076E-10 -0.1331E-07 -0.3211E-12
     -8.158 -0.1462E-04 -0.1408E-08 -0.1628E-05 -0.1951E-09 -0.8737E-07 -0.5825E-11
     -8.090 -0.7314E-04 -0.2001E-07 -0.8145E-05 -0.2773E-08 -0.4372E-06 -0.8277E-10
     -8.022 -0.2730E-03 -0.2220E-06 -0.3040E-04 -0.3077E-07 -0.1632E-05 -0.9183E-09
     -7.954 -0.7267E-03 -0.1914E-05 -0.8093E-04 -0.2653E-06 -0.4348E-05 -0.7918E-08
     -7.886 -0.1216E-02 -0.1273E-04 -0.1355E-03 -0.1765E-05 -0.7311E-05 -0.5267E-07
     -7.817 -0.5369E-03 -0.6459E-04 -0.6021E-04 -0.8952E-05 -0.3532E-05 -0.2672E-06
     -7.749  0.3395E-02 -0.2447E-03  0.3756E-03 -0.3392E-04  0.1840E-04 -0.1013E-05
     -7.681  0.1122E-01 -0.6636E-03  0.1238E-02 -0.9197E-04  0.5866E-04 -0.2747E-05
     -7.613  0.1927E-01 -0.1143E-02  0.2110E-02 -0.1585E-03  0.8775E-04 -0.4745E-05
     -7.545  0.2137E-01 -0.5952E-03  0.2299E-02 -0.8280E-04  0.6619E-04 -0.2593E-05
     -7.477  0.1603E-01  0.2954E-02  0.1686E-02  0.4076E-03  0.2056E-04  0.1142E-04
     -7.409  0.1045E-01  0.1027E-01  0.1215E-02  0.1415E-02  0.1019E-03  0.3874E-04
     -7.341  0.1421E-01  0.1809E-01  0.2110E-02  0.2477E-02  0.4881E-03  0.6191E-04
     -7.273  0.2800E-01  0.2049E-01  0.4372E-02  0.2768E-02  0.1125E-02  0.5356E-04
     -7.205  0.4061E-01  0.1549E-01  0.6320E-02  0.2045E-02  0.1611E-02  0.1995E-04
     -7.137  0.4001E-01  0.9329E-02  0.6183E-02  0.1299E-02  0.1549E-02  0.4098E-04
     -7.069  0.2691E-01  0.1144E-01  0.4157E-02  0.2005E-02  0.1040E-02  0.2292E-03
     -7.001  0.1372E-01  0.2398E-01  0.2250E-02  0.4448E-02  0.6504E-03  0.5865E-03
     -6.932  0.1023E-01  0.3748E-01  0.1985E-02  0.6934E-02  0.7619E-03  0.9078E-03
     -6.864  0.1419E-01  0.3948E-01  0.2866E-02  0.7258E-02  0.1128E-02  0.9341E-03
     -6.796  0.1709E-01  0.2815E-01  0.3394E-02  0.5155E-02  0.1288E-02  0.6564E-03
     -6.728  0.1611E-01  0.1423E-01  0.3273E-02  0.2688E-02  0.1439E-02  0.3735E-03
     -6.660  0.1710E-01  0.8848E-02  0.3875E-02  0.1955E-02  0.2491E-02  0.3753E-03
     -6.592  0.2475E-01  0.1236E-01  0.6083E-02  0.2920E-02  0.4729E-02  0.6135E-03
     -6.524  0.3353E-01  0.1644E-01  0.8382E-02  0.3809E-02  0.6743E-02  0.7630E-03
     -6.456  0.3370E-01  0.1505E-01  0.8409E-02  0.3428E-02  0.6752E-02  0.6588E-03
     -6.388  0.2509E-01  0.1161E-01  0.6324E-02  0.2766E-02  0.5148E-02  0.6328E-03
     -6.320  0.1874E-01  0.1434E-01  0.5069E-02  0.3868E-02  0.4532E-02  0.1224E-02
     -6.252  0.2266E-01  0.2485E-01  0.6638E-02  0.7000E-02  0.6474E-02  0.2408E-02
     -6.184  0.3129E-01  0.3415E-01  0.9292E-02  0.9622E-02  0.9107E-02  0.3317E-02
     -6.115  0.3253E-01  0.3259E-01  0.9567E-02  0.9134E-02  0.9047E-02  0.3123E-02
     -6.047  0.2252E-01  0.2241E-01  0.6474E-02  0.6331E-02  0.5523E-02  0.2186E-02
     -5.979  0.9267E-02  0.1594E-01  0.2577E-02  0.4860E-02  0.1848E-02  0.1838E-02
     -5.911  0.3037E-02  0.2082E-01  0.1256E-02  0.6882E-02  0.2843E-02  0.2825E-02
     -5.843  0.7260E-02  0.3088E-01  0.3728E-02  0.1032E-01  0.1056E-01  0.4280E-02
     -5.775  0.1761E-01  0.3370E-01  0.8324E-02  0.1122E-01  0.2149E-01  0.4636E-02
     -5.707  0.2702E-01  0.2480E-01  0.1210E-01  0.8224E-02  0.2889E-01  0.3368E-02
     -5.639  0.3164E-01  0.1088E-01  0.1358E-01  0.3546E-02  0.2996E-01  0.1375E-02
     -5.571  0.3263E-01  0.3630E-03  0.1381E-01 -0.4817E-04  0.2971E-01 -0.2392E-03
     -5.503  0.3212E-01 -0.3978E-02  0.1442E-01 -0.1591E-02  0.3556E-01 -0.1000E-02
     -5.435  0.2924E-01 -0.2548E-02  0.1532E-01 -0.9431E-03  0.4896E-01 -0.4881E-03
     -5.367  0.2207E-01  0.5650E-02  0.1500E-01  0.2681E-02  0.6306E-01  0.2193E-02
     -5.299  0.1239E-01  0.2083E-01  0.1269E-01  0.9470E-02  0.6874E-01  0.7226E-02
     -5.230  0.6447E-02  0.3678E-01  0.9725E-02  0.1658E-01  0.6572E-01  0.1239E-01
     -5.162  0.1019E-01  0.4321E-01  0.8898E-02  0.1939E-01  0.6697E-01  0.1427E-01
     -5.094  0.2327E-01  0.3710E-01  0.1166E-01  0.1669E-01  0.8328E-01  0.1224E-01
     -5.026  0.3815E-01  0.2746E-01  0.1569E-01  0.1274E-01  0.1069E+00  0.9765E-02
     -4.958  0.4776E-01  0.2423E-01  0.1706E-01  0.1195E-01  0.1278E+00  0.1003E-01
     -4.890  0.5404E-01  0.2610E-01  0.1543E-01  0.1332E-01  0.1646E+00  0.1172E-01
     -4.822  0.6551E-01  0.2444E-01  0.1482E-01  0.1255E-01  0.2552E+00  0.1112E-01
     -4.754  0.8579E-01  0.1581E-01  0.1799E-01  0.8128E-02  0.4074E+00  0.7083E-02
     -4.686  0.1071E+00  0.4918E-02  0.2273E-01  0.2586E-02  0.5746E+00  0.1856E-02
     -4.618  0.1173E+00 -0.2492E-02  0.2509E-01 -0.1125E-02  0.6921E+00 -0.1968E-02
     -4.550  0.1143E+00 -0.3582E-02  0.2468E-01 -0.1676E-02  0.7422E+00 -0.2713E-02
     -4.482  0.1105E+00  0.3871E-02  0.2465E-01  0.1800E-02  0.7625E+00  0.1987E-02
     -4.414  0.1153E+00  0.2112E-01  0.2668E-01  0.9826E-02  0.7777E+00  0.1458E-01
     -4.345  0.1187E+00  0.4264E-01  0.2857E-01  0.2012E-01  0.7544E+00  0.3266E-01
     -4.277  0.1029E+00  0.5565E-01  0.2755E-01  0.2699E-01  0.6577E+00  0.4671E-01
     -4.209  0.6762E-01  0.5257E-01  0.2422E-01  0.2603E-01  0.5304E+00  0.4804E-01
     -4.141  0.3188E-01  0.4203E-01  0.2194E-01  0.1946E-01  0.4834E+00  0.4001E-01
     -4.073  0.1252E-01  0.3976E-01  0.2340E-01  0.1421E-01  0.6042E+00  0.3540E-01
     -4.005  0.9992E-02  0.4803E-01  0.2825E-01  0.1405E-01  0.8715E+00  0.3997E-01
     -3.937  0.1487E-01  0.5305E-01  0.3346E-01  0.1591E-01  0.1163E+01  0.4488E-01
     -3.869  0.1919E-01  0.4515E-01  0.3577E-01  0.1523E-01  0.1370E+01  0.4015E-01
     -3.801  0.2003E-01  0.3243E-01  0.3424E-01  0.1214E-01  0.1479E+01  0.2905E-01
     -3.733  0.1765E-01  0.2950E-01  0.3035E-01  0.1029E-01  0.1524E+01  0.2349E-01
     -3.665  0.1365E-01  0.4009E-01  0.2607E-01  0.1175E-01  0.1509E+01  0.2986E-01
     -3.597  0.9947E-02  0.5488E-01  0.2229E-01  0.1521E-01  0.1420E+01  0.4344E-01
     -3.529  0.7622E-02  0.6159E-01  0.1878E-01  0.1782E-01  0.1261E+01  0.5369E-01
     -3.460  0.6557E-02  0.5683E-01  0.1510E-01  0.1821E-01  0.1045E+01  0.5606E-01
     -3.392  0.6319E-02  0.5206E-01  0.1173E-01  0.1847E-01  0.8158E+00  0.6030E-01
     -3.324  0.7123E-02  0.6360E-01  0.1046E-01  0.2160E-01  0.6759E+00  0.8049E-01
     -3.256  0.9312E-02  0.9198E-01  0.1309E-01  0.2655E-01  0.7305E+00  0.1140E+00
     -3.188  0.1203E-01  0.1172E+00  0.1931E-01  0.2863E-01  0.9949E+00  0.1407E+00
     -3.120  0.1337E-01  0.1196E+00  0.2590E-01  0.2579E-01  0.1392E+01  0.1465E+00
     -3.052  0.1231E-01  0.1000E+00  0.2872E-01  0.2148E-01  0.1816E+01  0.1421E+00
     -2.984  0.9787E-02  0.7672E-01  0.2590E-01  0.2084E-01  0.2139E+01  0.1574E+00
     -2.916  0.7408E-02  0.6534E-01  0.1919E-01  0.2550E-01  0.2199E+01  0.2187E+00
     -2.848  0.5967E-02  0.6561E-01  0.1241E-01  0.3254E-01  0.1926E+01  0.3219E+00
     -2.780  0.5730E-02  0.6607E-01  0.9033E-02  0.3742E-01  0.1503E+01  0.4233E+00
     -2.712  0.7168E-02  0.5864E-01  0.1074E-01  0.3792E-01  0.1262E+01  0.4699E+00
     -2.644  0.1066E-01  0.4503E-01  0.1695E-01  0.3501E-01  0.1386E+01  0.4442E+00
     -2.575  0.1581E-01  0.3196E-01  0.2495E-01  0.3122E-01  0.1757E+01  0.3744E+00
     -2.507  0.2125E-01  0.2533E-01  0.3087E-01  0.2912E-01  0.2088E+01  0.3018E+00
     -2.439  0.2525E-01  0.2677E-01  0.3197E-01  0.3013E-01  0.2180E+01  0.2484E+00
     -2.371  0.2685E-01  0.3126E-01  0.2864E-01  0.3318E-01  0.2041E+01  0.2153E+00
     -2.303  0.2737E-01  0.3072E-01  0.2401E-01  0.3547E-01  0.1797E+01  0.1956E+00
     -2.235  0.3077E-01  0.2265E-01  0.2143E-01  0.3551E-01  0.1561E+01  0.1848E+00
     -2.167  0.4068E-01  0.1258E-01  0.2295E-01  0.3475E-01  0.1406E+01  0.1885E+00
     -2.099  0.5508E-01  0.6681E-02  0.2925E-01  0.3561E-01  0.1366E+01  0.2269E+00
     -2.031  0.6516E-01  0.5452E-02  0.3926E-01  0.3879E-01  0.1409E+01  0.3224E+00
     -1.963  0.6264E-01  0.5646E-02  0.4910E-01  0.4334E-01  0.1437E+01  0.4732E+00
     -1.895  0.4804E-01  0.5136E-02  0.5317E-01  0.4816E-01  0.1368E+01  0.6455E+00
     -1.827  0.2980E-01  0.4200E-02  0.4872E-01  0.5235E-01  0.1192E+01  0.7936E+00
     -1.759  0.1600E-01  0.3683E-02  0.3866E-01  0.5396E-01  0.9668E+00  0.8746E+00
     -1.690  0.8810E-02  0.3690E-02  0.2838E-01  0.5084E-01  0.7594E+00  0.8619E+00
     -1.622  0.6092E-02  0.3951E-02  0.2146E-01  0.4390E-01  0.6125E+00  0.7792E+00
     -1.554  0.5344E-02  0.4400E-02  0.1905E-01  0.3782E-01  0.5450E+00  0.7021E+00
     -1.486  0.5231E-02  0.4987E-02  0.2054E-01  0.3654E-01  0.5476E+00  0.6848E+00
     -1.418  0.5176E-02  0.5475E-02  0.2380E-01  0.3914E-01  0.5823E+00  0.7089E+00
     -1.350  0.5421E-02  0.5684E-02  0.2727E-01  0.4126E-01  0.6115E+00  0.7299E+00
     -1.282  0.7025E-02  0.5601E-02  0.3171E-01  0.3937E-01  0.6314E+00  0.7274E+00
     -1.214  0.1040E-01  0.5221E-02  0.3755E-01  0.3373E-01  0.6596E+00  0.6929E+00
     -1.146  0.1389E-01  0.4637E-02  0.4177E-01  0.2814E-01  0.6923E+00  0.6164E+00
     -1.078  0.1485E-01  0.4167E-02  0.4047E-01  0.2647E-01  0.6943E+00  0.5080E+00
     -1.010  0.1243E-01  0.4028E-02  0.3407E-01  0.2831E-01  0.6347E+00  0.4066E+00
     -0.942  0.8879E-02  0.4031E-02  0.2714E-01  0.2952E-01  0.5182E+00  0.3552E+00
     -0.874  0.7345E-02  0.4014E-02  0.2297E-01  0.2789E-01  0.3797E+00  0.3703E+00
     -0.805  0.8956E-02  0.4289E-02  0.2080E-01  0.2608E-01  0.2591E+00  0.4338E+00
     -0.737  0.1234E-01  0.5063E-02  0.1861E-01  0.2711E-01  0.1806E+00  0.5143E+00
     -0.669  0.1557E-01  0.5705E-02  0.1638E-01  0.2959E-01  0.1456E+00  0.5907E+00
     -0.601  0.1764E-01  0.5340E-02  0.1539E-01  0.3018E-01  0.1378E+00  0.6574E+00
     -0.533  0.1803E-01  0.4056E-02  0.1540E-01  0.2815E-01  0.1335E+00  0.7202E+00
     -0.465  0.1612E-01  0.2842E-02  0.1439E-01  0.2474E-01  0.1142E+00  0.7981E+00
     -0.397  0.1202E-01  0.2487E-02  0.1116E-01  0.2091E-01  0.7886E-01  0.9186E+00
     -0.329  0.7562E-02  0.3056E-02  0.7466E-02  0.1820E-01  0.4274E-01  0.1089E+01
     -0.261  0.5450E-02  0.4304E-02  0.6751E-02  0.1845E-01  0.2269E-01  0.1255E+01