    3    3   50    2
  0.3452077E+02  0.2840000E-09  0.2840000E-09  0.1284000E-08  0.5000000E-15
  1.000000000000000E-004
  CAR 
 BCC Fe                                  
     24     15     21
 
  0.5000000E-01  0.5000000E-01  0.0000000E+00  0.4000000E-01
    1       -7.587446     -7.311804   1.000000   1.000000
    2       -5.039340     -4.279003   1.000000   1.000000
    3       -4.838480     -2.952634   1.000000   1.000000
    4       -4.780607     -2.769227   1.000000   1.000000
    5       -3.648339     -1.192678   1.000000   1.000000
    6       -2.923487     -0.504652   1.000000   1.032737
    7       -2.903372     -0.471168   1.000000   1.016956
    8       -2.899978     -0.436952   1.000000   0.980146
    9       -2.728594     -0.117330   1.000000   0.001647
   10       -2.589656      0.012650   1.000000  -0.028342
   11       -2.437590      0.026036   1.000000  -0.025317
   12       -2.103463      0.355734   1.000000  -0.000029
   13       -2.070164      0.744633   1.000000  -0.000000
   14       -2.063675      0.767427   1.000000  -0.000000
   15       -1.209918      1.407160   1.000000  -0.000000
   16       -1.205189      1.414455   1.000000  -0.000000
   17       -0.883286      1.795337   1.000096  -0.000000
   18       -0.023386      1.847730  -0.034586  -0.000000
   19        2.772564      3.713607  -0.000000  -0.000000
   20        3.219474      4.185717  -0.000000  -0.000000
   21        6.302010      7.044303   0.000000   0.000000
 
  0.1500000E+00  0.5000000E-01  0.0000000E+00  0.8000000E-01
    1       -7.207712     -6.923600   1.000000   1.000000
    2       -4.824502     -3.981291   1.000000   1.000000
    3       -4.751066     -2.784562   1.000000   1.000000
    4       -4.575366     -2.634340   1.000000   1.000000
    5       -3.583783     -1.281555   1.000000   1.000000
    6       -3.211710     -0.792197   1.000000   1.000967
    7       -2.967331     -0.612858   1.000000   1.021084
    8       -2.958030     -0.403517   1.000000   0.918412
    9       -2.889118     -0.303363   1.000000   0.580558
   10       -2.473031      0.092025   1.000000  -0.011509
   11       -2.367113      0.223476   1.000000  -0.000973
   12       -2.168548      0.628299   1.000000  -0.000000
   13       -1.964113      0.657680   1.000000  -0.000000
   14       -1.900932      0.930002   1.000000  -0.000000
   15       -1.368155      1.180488   1.000000  -0.000000
   16       -1.014839      1.626741   1.000002  -0.000000
   17       -0.946457      1.712102   1.000015  -0.000000
   18        0.296993      1.929422  -0.000156  -0.000000
   19        3.157781      4.059663  -0.000000  -0.000000
   20        3.589836      4.555317  -0.000000  -0.000000
   21        6.715181      7.511100   0.000000   0.000000
 
  0.2500000E+00  0.5000000E-01  0.0000000E+00  0.8000000E-01
    1       -6.519535     -6.190319   1.000000   1.000000
    2       -4.649350     -3.523102   1.000000   1.000000
    3       -4.647163     -2.721363   1.000000   1.000000
    4       -4.208878     -2.255099   1.000000   1.000000
    5       -3.442877     -1.197680   1.000000   1.000000
    6       -3.233535     -1.091363   1.000000   1.000000
    7       -3.146717     -0.834697   1.000000   1.000349
    8       -3.102172     -0.630127   1.000000   1.017281
    9       -2.912800     -0.242110   1.000000   0.326090
   10       -2.471340      0.249977   1.000000  -0.000521
   11       -2.385219      0.288768   1.000000  -0.000195
   12       -2.016994      0.694820   1.000000  -0.000000
   13       -1.870012      0.949906   1.000000  -0.000000
   14       -1.766256      0.960396   1.000000  -0.000000
   15       -1.452908      0.985188   1.000000  -0.000000
   16       -0.988018      1.686398   1.000004  -0.000000
   17       -0.802961      1.822677   1.000754  -0.000000
   18        0.934420      2.282577  -0.000000  -0.000000
   19        3.811693      4.636993  -0.000000  -0.000000
   20        4.303122      5.247746  -0.000000   0.000000
   21        5.337488      6.495060   0.000000   0.000000
 
  0.3500000E+00  0.5000000E-01  0.0000000E+00  0.8000000E-01
    1       -5.739611     -5.217782   1.000000   1.000000
    2       -4.630381     -3.175989   1.000000   1.000000
    3       -4.549500     -2.861327   1.000000   1.000000
    4       -3.847155     -1.788969   1.000000   1.000000
    5       -3.571880     -1.307470   1.000000   1.000000
    6       -3.360822     -1.083034   1.000000   1.000000
    7       -3.113350     -0.689989   1.000000   1.007276
    8       -2.997361     -0.688492   1.000000   1.007458
    9       -2.553342     -0.318215   1.000000   0.641532
   10       -2.541808      0.129647   1.000000  -0.006348
   11       -2.356897      0.477109   1.000000  -0.000001
   12       -1.962891      0.822051   1.000000  -0.000000
   13       -1.899706      0.825072   1.000000  -0.000000
   14       -1.466618      0.924482   1.000000  -0.000000
   15       -1.175664      1.323861   1.000000  -0.000000
   16       -0.965450      1.766436   1.000008  -0.000000
   17       -0.554935      1.957649   1.033326  -0.000000
   18        1.702666      2.865014  -0.000000  -0.000000
   19        2.961516      4.431188  -0.000000  -0.000000
   20        4.081945      5.033644  -0.000000  -0.000000
   21        5.392575      6.333415   0.000000   0.000000
 
  0.4500000E+00  0.5000000E-01  0.0000000E+00  0.8000000E-01
    1       -5.292936     -4.241213   1.000000   1.000000
    2       -4.653298     -3.250798   1.000000   1.000000
    3       -4.392251     -3.050408   1.000000   1.000000
    4       -3.719941     -1.454656   1.000000   1.000000
    5       -3.519511     -1.338412   1.000000   1.000000
    6       -3.486910     -1.217738   1.000000   1.000000
    7       -3.069193     -0.806783   1.000000   1.000689
    8       -3.022612     -0.480980   1.000000   1.023358
    9       -2.487550      0.081832   1.000000  -0.013294
   10       -2.328385      0.141991   1.000000  -0.005117
   11       -2.294069      0.565477   1.000000  -0.000000
   12       -2.051259      0.680799   1.000000  -0.000000
   13       -1.732360      0.839030   1.000000  -0.000000
   14       -1.087322      1.009310   1.000000  -0.000000
   15       -0.883153      1.618030   1.000096  -0.000000
   16       -0.697814      1.942136   1.006380  -0.000000
   17        0.150565      2.092959  -0.004380  -0.000000
   18        0.613461      2.548045  -0.000000  -0.000000
   19        2.721430      4.076657  -0.000000  -0.000000
   20        2.908474      4.163319  -0.000000  -0.000000
   21        6.261068      7.025732   0.000000   0.000000
 
  0.1500000E+00  0.1500000E+00  0.0000000E+00  0.4000000E-01
    1       -6.838045     -6.544076   1.000000   1.000000
    2       -4.577374     -3.667315   1.000000   1.000000
    3       -4.546605     -2.563522   1.000000   1.000000
    4       -4.454527     -2.540913   1.000000   1.000000
    5       -3.647178     -1.425622   1.000000   1.000000
    6       -3.500029     -1.167068   1.000000   1.000000
    7       -2.926521     -0.629969   1.000000   1.017314
    8       -2.916670     -0.279668   1.000000   0.480710
    9       -2.902874     -0.179877   1.000000   0.118188
   10       -2.627279     -0.008794   1.000000  -0.032574
   11       -2.523570      0.014454   1.000000  -0.027944
   12       -2.070587      0.674017   1.000000  -0.000000
   13       -1.935785      0.716333   1.000000  -0.000000
   14       -1.813722      1.059719   1.000000  -0.000000
   15       -1.148109      1.451558   1.000000  -0.000000
   16       -1.057152      1.479621   1.000000  -0.000000
   17       -1.010390      1.591324   1.000002  -0.000000
   18        0.719096      2.260270  -0.000000  -0.000000
   19        3.552150      4.425124  -0.000000  -0.000000
   20        3.964998      4.936321  -0.000000  -0.000000
   21        7.137031      7.974635   0.000000   0.000000
 
  0.2500000E+00  0.1500000E+00  0.0000000E+00  0.8000000E-01
    1       -6.176466     -5.831113   1.000000   1.000000
    2       -4.434461     -3.184700   1.000000   1.000000
    3       -4.317409     -2.493600   1.000000   1.000000
    4       -4.150054     -2.176516   1.000000   1.000000
    5       -3.726217     -1.470189   1.000000   1.000000
    6       -3.472874     -1.447086   1.000000   1.000000
    7       -3.109802     -0.922342   1.000000   1.000031
    8       -2.987711     -0.332887   1.000000   0.699291
    9       -2.878876     -0.184022   1.000000   0.129337
   10       -2.665594      0.037653   1.000000  -0.022631
   11       -2.544482      0.048890   1.000000  -0.020070
   12       -2.043248      0.770793   1.000000  -0.000000
   13       -1.881487      0.804147   1.000000  -0.000000
   14       -1.698849      1.156205   1.000000  -0.000000
   15       -1.173845      1.363052   1.000000  -0.000000
   16       -1.143184      1.527796   1.000000  -0.000000
   17       -0.575403      1.796495   1.029566  -0.000000
   18        1.447753      2.840201  -0.000000  -0.000000
   19        4.241188      5.055063  -0.000000  -0.000000
   20        4.692229      5.653059  -0.000000   0.000000
   21        5.694657      6.861528   0.000000   0.000000
 
  0.3500000E+00  0.1500000E+00  0.0000000E+00  0.8000000E-01
    1       -5.445991     -4.894415   1.000000   1.000000
    2       -4.358894     -2.859705   1.000000   1.000000
    3       -4.351044     -2.636246   1.000000   1.000000
    4       -3.932784     -1.866033   1.000000   1.000000
    5       -3.716310     -1.571524   1.000000   1.000000
    6       -3.535661     -1.322074   1.000000   1.000000
    7       -3.071368     -0.949669   1.000000   1.000013
    8       -2.938226     -0.448024   1.000000   0.994745
    9       -2.694179     -0.230048   1.000000   0.279805
   10       -2.545709      0.067209   1.000000  -0.016130
   11       -2.442996      0.198859   1.000000  -0.001675
   12       -2.011891      0.850572   1.000000  -0.000000
   13       -1.825840      0.984763   1.000000  -0.000000
   14       -1.605948      1.093558   1.000000  -0.000000
   15       -1.214945      1.346987   1.000000  -0.000000
   16       -1.040509      1.674982   1.000001  -0.000000
   17        0.102585      2.214573  -0.009835  -0.000000
   18        2.324180      3.571358  -0.000000  -0.000000
   19        3.277208      4.724823  -0.000000  -0.000000
   20        4.619214      5.582787  -0.000000   0.000000
   21        5.775869      6.724035   0.000000   0.000000
 
  0.4500000E+00  0.1500000E+00  0.0000000E+00  0.8000000E-01
    1       -5.034522     -3.952387   1.000000   1.000000
    2       -4.406330     -3.066281   1.000000   1.000000
    3       -4.314665     -2.779887   1.000000   1.000000
    4       -3.805005     -1.695390   1.000000   1.000000
    5       -3.682105     -1.557372   1.000000   1.000000
    6       -3.565482     -1.459980   1.000000   1.000000
    7       -3.242921     -0.584423   1.000000   1.027608
    8       -2.978756     -0.471250   1.000000   1.017016
    9       -2.569211     -0.174385   1.000000   0.104076
   10       -2.275635      0.255679   1.000000  -0.000454
   11       -2.134986      0.310751   1.000000  -0.000107
   12       -1.855020      0.883980   1.000000  -0.000000
   13       -1.715039      0.887612   1.000000  -0.000000
   14       -1.503192      1.233599   1.000000  -0.000000
   15       -1.371448      1.290941   1.000000  -0.000000
   16       -0.439266      2.026563   0.983424  -0.000000
   17        1.013578      2.815532  -0.000000  -0.000000
   18        1.129649      2.921611  -0.000000  -0.000000
   19        3.143154      4.574503  -0.000000  -0.000000
   20        3.449839      4.638073  -0.000000  -0.000000
   21        6.603583      7.362713   0.000000   0.000000
 
  0.2500000E+00  0.2500000E+00  0.0000000E+00  0.4000000E-01
    1       -5.589232     -5.168861   1.000000   1.000000
    2       -4.148281     -2.637418   1.000000   1.000000
    3       -4.060613     -2.211048   1.000000   1.000000
    4       -3.962815     -2.056671   1.000000   1.000000
    5       -3.825438     -1.815604   1.000000   1.000000
    6       -3.707457     -1.673793   1.000000   1.000000
    7       -3.307633     -1.183610   1.000000   1.000000
    8       -2.913941     -0.193161   1.000000   0.155410
    9       -2.800764     -0.075422   1.000000  -0.029114
   10       -2.757208     -0.052875   1.000000  -0.034678
   11       -2.568252     -0.047742   1.000000  -0.035166
   12       -2.100518      0.739545   1.000000  -0.000000
   13       -1.833488      0.849041   1.000000  -0.000000
   14       -1.576471      1.347025   1.000000  -0.000000
   15       -1.268800      1.395163   1.000000  -0.000000
   16       -1.104120      1.576509   1.000000  -0.000000
   17        0.054582      2.136343  -0.018807  -0.000000
   18        2.280989      3.612979  -0.000000  -0.000000
   19        5.008418      5.785728  -0.000000   0.000000
   20        5.448369      6.418119   0.000000   0.000000
   21        5.620401      6.773321   0.000000   0.000000
 
  0.3500000E+00  0.2500000E+00  0.0000000E+00  0.8000000E-01
    1       -4.999630     -4.330881   1.000000   1.000000
    2       -4.247409     -2.391438   1.000000   1.000000
    3       -3.991079     -2.345620   1.000000   1.000000
    4       -3.958462     -1.998501   1.000000   1.000000
    5       -3.829568     -1.761111   1.000000   1.000000
    6       -3.733287     -1.635883   1.000000   1.000000
    7       -3.160406     -1.303189   1.000000   1.000000
    8       -2.888428     -0.206761   1.000000   0.197878
    9       -2.741461     -0.110524   1.000000  -0.005560
   10       -2.566532      0.108162   1.000000  -0.009023
   11       -2.312987      0.184885   1.000000  -0.002245
   12       -2.101803      0.900274   1.000000  -0.000000
   13       -1.682102      0.929726   1.000000  -0.000000
   14       -1.571162      1.242073   1.000000  -0.000000
   15       -1.159294      1.557537   1.000000  -0.000000
   16       -1.077108      1.593054   1.000000  -0.000000
   17        0.962932      2.824755  -0.000000  -0.000000
   18        3.294472      4.523518  -0.000000  -0.000000
   19        3.712588      5.067401  -0.000000  -0.000000
   20        5.595856      6.543406   0.000000   0.000000
   21        6.533871      7.486448   0.000000   0.000000
 
  0.4500000E+00  0.2500000E+00  0.0000000E+00  0.8000000E-01
    1       -4.655743     -3.515454   1.000000   1.000000
    2       -4.429477     -2.873134   1.000000   1.000000
    3       -4.070549     -2.375390   1.000000   1.000000
    4       -3.949275     -1.892714   1.000000   1.000000
    5       -3.867799     -1.721224   1.000000   1.000000
    6       -3.660362     -1.718655   1.000000   1.000000
    7       -3.128046     -1.036212   1.000000   1.000001
    8       -2.912924     -0.242500   1.000000   0.327625
    9       -2.684471      0.025785   1.000000  -0.025375
   10       -2.239674      0.196371   1.000000  -0.001767
   11       -1.925746      0.642530   1.000000  -0.000000
   12       -1.923437      0.947838   1.000000  -0.000000
   13       -1.709789      1.046873   1.000000  -0.000000
   14       -1.583993      1.163363   1.000000  -0.000000
   15       -1.326900      1.473689   1.000000  -0.000000
   16       -0.137825      2.060151   0.029445  -0.000000
   17        1.545280      3.248571  -0.000000  -0.000000
   18        2.202770      3.754588  -0.000000  -0.000000
   19        3.954713      5.327108  -0.000000   0.000000
   20        4.435025      5.636950  -0.000000   0.000000
   21        7.279673      8.022536   0.000000   0.000000
 
  0.3500000E+00  0.3500000E+00  0.0000000E+00  0.4000000E-01
    1       -4.722030     -3.712632   1.000000   1.000000
    2       -4.314953     -2.518912   1.000000   1.000000
    3       -3.967378     -1.985624   1.000000   1.000000
    4       -3.898849     -1.881738   1.000000   1.000000
    5       -3.844469     -1.876853   1.000000   1.000000
    6       -3.841621     -1.870096   1.000000   1.000000
    7       -3.348318     -1.501338   1.000000   1.000000
    8       -2.556460      0.004193   1.000000  -0.030137
    9       -2.466682      0.224171   1.000000  -0.000958
   10       -2.452596      0.255113   1.000000  -0.000460
   11       -2.233639      0.390292   1.000000  -0.000010
   12       -2.074067      0.962361   1.000000  -0.000000
   13       -1.481509      1.101254   1.000000  -0.000000
   14       -1.410313      1.392687   1.000000  -0.000000
   15       -1.184443      1.531688   1.000000  -0.000000
   16       -0.800883      1.599232   1.000792  -0.000000
   17        2.021845      3.676695  -0.000000  -0.000000
   18        3.460086      4.677420  -0.000000  -0.000000
   19        4.489085      5.668973  -0.000000   0.000000
   20        6.890253      7.781589   0.000000   0.000000
   21        6.912505      8.155138   0.000000   0.000000
 
  0.4500000E+00  0.3500000E+00  0.0000000E+00  0.8000000E-01
    1       -4.680259     -3.276216   1.000000   1.000000
    2       -4.411193     -2.744154   1.000000   1.000000
    3       -3.985907     -2.087293   1.000000   1.000000
    4       -3.979686     -1.930397   1.000000   1.000000
    5       -3.925711     -1.910362   1.000000   1.000000
    6       -3.698965     -1.720835   1.000000   1.000000
    7       -3.459778     -1.468043   1.000000   1.000000
    8       -2.459790      0.221470   1.000000  -0.001019
    9       -2.318631      0.372148   1.000000  -0.000018
   10       -2.179528      0.435869   1.000000  -0.000002
   11       -1.951566      0.899082   1.000000  -0.000000
   12       -1.910729      1.007984   1.000000  -0.000000
   13       -1.478934      1.222361   1.000000  -0.000000
   14       -1.403133      1.373205   1.000000  -0.000000
   15       -1.327073      1.535805   1.000000  -0.000000
   16        0.349527      2.041543  -0.000035  -0.000000
   17        1.988716      3.350896  -0.000000  -0.000000
   18        3.371314      4.794318  -0.000000  -0.000000
   19        5.079819      6.326280  -0.000000   0.000000
   20        5.709217      6.900356   0.000000   0.000000
   21        7.738367      8.835765   0.000000   0.000000
 
  0.4500000E+00  0.4500000E+00  0.0000000E+00  0.4000000E-01
    1       -4.780641     -3.272100   1.000000   1.000000
    2       -4.524523     -2.722464   1.000000   1.000000
    3       -3.990273     -2.017754   1.000000   1.000000
    4       -3.944161     -1.995651   1.000000   1.000000
    5       -3.785613     -1.757019   1.000000   1.000000
    6       -3.759034     -1.722015   1.000000   1.000000
    7       -3.719167     -1.690664   1.000000   1.000000
    8       -2.245109      0.555533   1.000000  -0.000000
    9       -2.051970      0.596978   1.000000  -0.000000
   10       -1.960554      0.911278   1.000000  -0.000000
   11       -1.833384      1.041365   1.000000  -0.000000
   12       -1.765278      1.125097   1.000000  -0.000000
   13       -1.465121      1.473881   1.000000  -0.000000
   14       -1.339929      1.491499   1.000000  -0.000000
   15       -1.276166      1.628007   1.000000  -0.000000
   16        1.138045      2.145866  -0.000000  -0.000000
   17        1.909766      2.923572  -0.000000  -0.000000
   18        4.730280      5.996215  -0.000000   0.000000
   19        5.992921      7.077370   0.000000   0.000000
   20        6.610913      8.182385   0.000000   0.000000
   21        7.169954      8.388182   0.000000   0.000000
