BCC Fe                                  
   2.84000000000000     
     1.000000    0.000000    0.000000
     0.000000    1.000000    0.000000
     0.000000    0.000000    4.521127
   Fe
     3
Direct
  0.500000  0.500000  0.108839
 -0.000000 -0.000000  0.000000
  0.500000  0.500000  0.891161
 
   24   24  108
 -.31971105040E+02 -.31487544454E+02 -.29977081956E+02 -.27666647810E+02 -.24535352909E+02
 -.20791657806E+02 -.16899459306E+02 -.12922475621E+02 -.76723553764E+01 -.32250925551E+01
 -.11339678836E+01 0.14727555569E+00 0.51525452042E+00 0.14727555569E+00 -.11339678836E+01
 -.32250925551E+01 -.76723553764E+01 -.12922475621E+02 -.16899459306E+02 -.20791657806E+02
 -.24535352909E+02 -.27666647810E+02 -.29977081956E+02 -.31487544454E+02 -.31487544454E+02
 -.30994278909E+02 -.29460952922E+02 -.27119416969E+02 -.23972777100E+02 -.20366453490E+02
 -.16553002141E+02 -.12563102965E+02 -.73454456010E+01 -.30400207769E+01 -.10629983786E+01
 0.21236100377E+00 0.53607252445E+00 0.21236100377E+00 -.10629983786E+01 -.30400207769E+01
 -.73454456010E+01 -.12563102965E+02 -.16553002141E+02 -.20366453490E+02 -.23972777100E+02
 -.27119416969E+02 -.29460952922E+02 -.30994278909E+02 -.29977081956E+02 -.29460952922E+02
 -.27938743891E+02 -.25611976547E+02 -.22581531746E+02 -.19071608055E+02 -.15550684480E+02
 -.11530233209E+02 -.63518517699E+01 -.26150969995E+01 -.83872417879E+00 0.36098937330E+00
 0.64239736569E+00 0.36098937330E+00 -.83872417879E+00 -.26150969995E+01 -.63518517699E+01
 -.11530233209E+02 -.15550684480E+02 -.19071608055E+02 -.22581531746E+02 -.25611976547E+02
 -.27938743891E+02 -.29460952922E+02 -.27666647810E+02 -.27119416969E+02 -.25611976547E+02
 -.23277494395E+02 -.20367910267E+02 -.17265091013E+02 -.13993485214E+02 -.97413207011E+01
 -.49492357777E+01 -.20272280257E+01 -.49939752048E+00 0.56107053990E+00 0.77169733510E+00
 0.56107053990E+00 -.49939752048E+00 -.20272280257E+01 -.49492357777E+01 -.97413207011E+01
 -.13993485214E+02 -.17265091013E+02 -.20367910267E+02 -.23277494395E+02 -.25611976547E+02
 -.27119416969E+02 -.24535352909E+02 -.23972777100E+02 -.22581531746E+02 -.20367910267E+02
 -.17875170721E+02 -.15044615297E+02 -.11762112753E+02 -.73402482719E+01 -.34327688777E+01
 -.14745717880E+01 -.64810104462E-01 0.69807383774E+00 0.96404354187E+00 0.69807383774E+00
 -.64810104462E-01 -.14745717880E+01 -.34327688777E+01 -.73402482719E+01 -.11762112753E+02
 -.15044615297E+02 -.17875170721E+02 -.20367910267E+02 -.22581531746E+02 -.23972777100E+02
 -.20791657806E+02 -.20366453490E+02 -.19071608055E+02 -.17265091013E+02 -.15044615297E+02
 -.12370685439E+02 -.87215991074E+01 -.47073304548E+01 -.23039589517E+01 -.82640813594E+00
 0.29930636014E+00 0.83254425550E+00 0.10697593532E+01 0.83254425550E+00 0.29930636014E+00
 -.82640813594E+00 -.23039589517E+01 -.47073304548E+01 -.87215991074E+01 -.12370685439E+02
 -.15044615297E+02 -.17265091013E+02 -.19071608055E+02 -.20366453490E+02 -.16899459306E+02
 -.16553002141E+02 -.15550684480E+02 -.13993485214E+02 -.11762112753E+02 -.87215991074E+01
 -.52191511169E+01 -.28225541498E+01 -.13901706664E+01 -.21389202875E+00 0.47776794520E+00
 0.92442610988E+00 0.10279483851E+01 0.92442610988E+00 0.47776794520E+00 -.21389202875E+00
 -.13901706664E+01 -.28225541498E+01 -.52191511169E+01 -.87215991074E+01 -.11762112753E+02
 -.13993485214E+02 -.15550684480E+02 -.16553002141E+02 -.12922475621E+02 -.12563102965E+02
 -.11530233209E+02 -.97413207011E+01 -.73402482719E+01 -.47073304548E+01 -.28225541498E+01
 -.15963922871E+01 -.54615728779E+00 0.16034275301E+00 0.66426147394E+00 0.91867997608E+00
 0.10140911529E+01 0.91867997608E+00 0.66426147394E+00 0.16034275301E+00 -.54615728779E+00
 -.15963922871E+01 -.28225541498E+01 -.47073304548E+01 -.73402482719E+01 -.97413207011E+01
 -.11530233209E+02 -.12563102965E+02 -.76723553764E+01 -.73454456010E+01 -.63518517699E+01
 -.49492357777E+01 -.34327688777E+01 -.23039589517E+01 -.13901706664E+01 -.54615728779E+00
 0.36885889219E-01 0.48082502229E+00 0.70022703006E+00 0.80299704303E+00 0.82576106003E+00
 0.80299704303E+00 0.70022703006E+00 0.48082502229E+00 0.36885889219E-01 -.54615728779E+00
 -.13901706664E+01 -.23039589517E+01 -.34327688777E+01 -.49492357777E+01 -.63518517699E+01
 -.73454456010E+01 -.32250925551E+01 -.30400207769E+01 -.26150969995E+01 -.20272280257E+01
 -.14745717880E+01 -.82640813594E+00 -.21389202875E+00 0.16034275301E+00 0.48082502229E+00
 0.59027359271E+00 0.59508430683E+00 0.59904733230E+00 0.59240900857E+00 0.59904733230E+00
 0.59508430683E+00 0.59027359271E+00 0.48082502229E+00 0.16034275301E+00 -.21389202875E+00
 -.82640813594E+00 -.14745717880E+01 -.20272280257E+01 -.26150969995E+01 -.30400207769E+01
 -.11339678836E+01 -.10629983786E+01 -.83872417879E+00 -.49939752048E+00 -.64810104462E-01
 0.29930636014E+00 0.47776794520E+00 0.66426147394E+00 0.70022703006E+00 0.59508430683E+00
 0.52104855394E+00 0.45343086891E+00 0.44232361314E+00 0.45343086891E+00 0.52104855394E+00
 0.59508430683E+00 0.70022703006E+00 0.66426147394E+00 0.47776794520E+00 0.29930636014E+00
 -.64810104462E-01 -.49939752048E+00 -.83872417879E+00 -.10629983786E+01 0.14727555569E+00
 0.21236100377E+00 0.36098937330E+00 0.56107053990E+00 0.69807383774E+00 0.83254425550E+00
 0.92442610988E+00 0.91867997608E+00 0.80299704303E+00 0.59904733230E+00 0.45343086891E+00
 0.35205854071E+00 0.32441327511E+00 0.35205854071E+00 0.45343086891E+00 0.59904733230E+00
 0.80299704303E+00 0.91867997608E+00 0.92442610988E+00 0.83254425550E+00 0.69807383774E+00
 0.56107053990E+00 0.36098937330E+00 0.21236100377E+00 0.51525452042E+00 0.53607252445E+00
 0.64239736569E+00 0.77169733510E+00 0.96404354187E+00 0.10697593532E+01 0.10279483851E+01
 0.10140911529E+01 0.82576106003E+00 0.59240900857E+00 0.44232361314E+00 0.32441327511E+00
 0.29668284657E+00 0.32441327511E+00 0.44232361314E+00 0.59240900857E+00 0.82576106003E+00
 0.10140911529E+01 0.10279483851E+01 0.10697593532E+01 0.96404354187E+00 0.77169733510E+00
 0.64239736569E+00 0.53607252445E+00 0.14727555569E+00 0.21236100377E+00 0.36098937330E+00
 0.56107053990E+00 0.69807383774E+00 0.83254425550E+00 0.92442610988E+00 0.91867997608E+00
 0.80299704303E+00 0.59904733230E+00 0.45343086891E+00 0.35205854071E+00 0.32441327511E+00
 0.35205854071E+00 0.45343086891E+00 0.59904733230E+00 0.80299704303E+00 0.91867997608E+00
 0.92442610988E+00 0.83254425550E+00 0.69807383774E+00 0.56107053990E+00 0.36098937330E+00
 0.21236100377E+00 -.11339678836E+01 -.10629983786E+01 -.83872417879E+00 -.49939752048E+00
 -.64810104462E-01 0.29930636014E+00 0.47776794520E+00 0.66426147394E+00 0.70022703006E+00
 0.59508430683E+00 0.52104855394E+00 0.45343086891E+00 0.44232361314E+00 0.45343086891E+00
 0.52104855394E+00 0.59508430683E+00 0.70022703006E+00 0.66426147394E+00 0.47776794520E+00
 0.29930636014E+00 -.64810104462E-01 -.49939752048E+00 -.83872417879E+00 -.10629983786E+01
 -.32250925551E+01 -.30400207769E+01 -.26150969995E+01 -.20272280257E+01 -.14745717880E+01
 -.82640813594E+00 -.21389202875E+00 0.16034275301E+00 0.48082502229E+00 0.59027359271E+00
 0.59508430683E+00 0.59904733230E+00 0.59240900857E+00 0.59904733230E+00 0.59508430683E+00
 0.59027359271E+00 0.48082502229E+00 0.16034275301E+00 -.21389202875E+00 -.82640813594E+00
 -.14745717880E+01 -.20272280257E+01 -.26150969995E+01 -.30400207769E+01 -.76723553764E+01
 -.73454456010E+01 -.63518517699E+01 -.49492357777E+01 -.34327688777E+01 -.23039589517E+01
 -.13901706664E+01 -.54615728779E+00 0.36885889219E-01 0.48082502229E+00 0.70022703006E+00
 0.80299704303E+00 0.82576106003E+00 0.80299704303E+00 0.70022703006E+00 0.48082502229E+00
 0.36885889219E-01 -.54615728779E+00 -.13901706664E+01 -.23039589517E+01 -.34327688777E+01
 -.49492357777E+01 -.63518517699E+01 -.73454456010E+01 -.12922475621E+02 -.12563102965E+02
 -.11530233209E+02 -.97413207011E+01 -.73402482719E+01 -.47073304548E+01 -.28225541498E+01
 -.15963922871E+01 -.54615728779E+00 0.16034275301E+00 0.66426147394E+00 0.91867997608E+00
 0.10140911529E+01 0.91867997608E+00 0.66426147394E+00 0.16034275301E+00 -.54615728779E+00
 -.15963922871E+01 -.28225541498E+01 -.47073304548E+01 -.73402482719E+01 -.97413207011E+01
 -.11530233209E+02 -.12563102965E+02 -.16899459306E+02 -.16553002141E+02 -.15550684480E+02
 -.13993485214E+02 -.11762112753E+02 -.87215991074E+01 -.52191511169E+01 -.28225541498E+01
 -.13901706664E+01 -.21389202875E+00 0.47776794520E+00 0.92442610988E+00 0.10279483851E+01
 0.92442610988E+00 0.47776794520E+00 -.21389202875E+00 -.13901706664E+01 -.28225541498E+01
 -.52191511169E+01 -.87215991074E+01 -.11762112753E+02 -.13993485214E+02 -.15550684480E+02
 -.16553002141E+02 -.20791657806E+02 -.20366453490E+02 -.19071608055E+02 -.17265091013E+02
 -.15044615297E+02 -.12370685439E+02 -.87215991074E+01 -.47073304548E+01 -.23039589517E+01
 -.82640813594E+00 0.29930636014E+00 0.83254425550E+00 0.10697593532E+01 0.83254425550E+00
 0.29930636014E+00 -.82640813594E+00 -.23039589517E+01 -.47073304548E+01 -.87215991074E+01
 -.12370685439E+02 -.15044615297E+02 -.17265091013E+02 -.19071608055E+02 -.20366453490E+02
 -.24535352909E+02 -.23972777100E+02 -.22581531746E+02 -.20367910267E+02 -.17875170721E+02
 -.15044615297E+02 -.11762112753E+02 -.73402482719E+01 -.34327688777E+01 -.14745717880E+01
 -.64810104462E-01 0.69807383774E+00 0.96404354187E+00 0.69807383774E+00 -.64810104462E-01
 -.14745717880E+01 -.34327688777E+01 -.73402482719E+01 -.11762112753E+02 -.15044615297E+02
 -.17875170721E+02 -.20367910267E+02 -.22581531746E+02 -.23972777100E+02 -.27666647810E+02
 -.27119416969E+02 -.25611976547E+02 -.23277494395E+02 -.20367910267E+02 -.17265091013E+02
 -.13993485214E+02 -.97413207011E+01 -.49492357777E+01 -.20272280257E+01 -.49939752048E+00
 0.56107053990E+00 0.77169733510E+00 0.56107053990E+00 -.49939752048E+00 -.20272280257E+01
 -.49492357777E+01 -.97413207011E+01 -.13993485214E+02 -.17265091013E+02 -.20367910267E+02
 -.23277494395E+02 -.25611976547E+02 -.27119416969E+02 -.29977081956E+02 -.29460952922E+02
 -.27938743891E+02 -.25611976547E+02 -.22581531746E+02 -.19071608055E+02 -.15550684480E+02
 -.11530233209E+02 -.63518517699E+01 -.26150969995E+01 -.83872417879E+00 0.36098937330E+00
 0.64239736569E+00 0.36098937330E+00 -.83872417879E+00 -.26150969995E+01 -.63518517699E+01
 -.11530233209E+02 -.15550684480E+02 -.19071608055E+02 -.22581531746E+02 -.25611976547E+02
 -.27938743891E+02 -.29460952922E+02 -.31487544454E+02 -.30994278909E+02 -.29460952922E+02
 -.27119416969E+02 -.23972777100E+02 -.20366453490E+02 -.16553002141E+02 -.12563102965E+02
 -.73454456010E+01 -.30400207769E+01 -.10629983786E+01 0.21236100377E+00 0.53607252445E+00
 0.21236100377E+00 -.10629983786E+01 -.30400207769E+01 -.73454456010E+01 -.12563102965E+02
 -.16553002141E+02 -.20366453490E+02 -.23972777100E+02 -.27119416969E+02 -.29460952922E+02
 -.30994278909E+02 -.31459069019E+02 -.30979125963E+02 -.29456102848E+02 -.27136435876E+02
 -.23963827377E+02 -.20337281524E+02 -.16555597787E+02 -.12554599031E+02 -.73379824314E+01
 -.30366120607E+01 -.10573626753E+01 0.21432097343E+00 0.54134829482E+00 0.21432097343E+00
 -.10573626753E+01 -.30366120607E+01 -.73379824314E+01 -.12554599031E+02 -.16555597787E+02
 -.20337281524E+02 -.23963827377E+02 -.27136435876E+02 -.29456102848E+02 -.30979125963E+02
 -.30979125963E+02 -.30477164292E+02 -.28931164339E+02 -.26564404523E+02 -.23429160606E+02
 -.19934845473E+02 -.16210066061E+02 -.12202323776E+02 -.70099699243E+01 -.28812747210E+01
 -.99805758767E+00 0.27543133120E+00 0.56680008888E+00 0.27543133120E+00 -.99805758767E+00
 -.28812747210E+01 -.70099699243E+01 -.12202323776E+02 -.16210066061E+02 -.19934845473E+02
 -.23429160606E+02 -.26564404523E+02 -.28931164339E+02 -.30477164292E+02 -.29456102848E+02
 -.28931164339E+02 -.27419549692E+02 -.25078705835E+02 -.22064918686E+02 -.18692569070E+02
 -.15224972231E+02 -.11170259761E+02 -.60603053141E+01 -.24791000733E+01 -.77914967142E+00
 0.39998118376E+00 0.65025824990E+00 0.39998118376E+00 -.77914967142E+00 -.24791000733E+01
 -.60603053141E+01 -.11170259761E+02 -.15224972231E+02 -.18692569070E+02 -.22064918686E+02
 -.25078705835E+02 -.27419549692E+02 -.28931164339E+02 -.27136435876E+02 -.26564404523E+02
 -.25078705835E+02 -.22728378828E+02 -.19965388516E+02 -.16942280290E+02 -.13663460720E+02
 -.94088538389E+01 -.47036846259E+01 -.19685808821E+01 -.46283073351E+00 0.55771657684E+00
 0.77501316432E+00 0.55771657684E+00 -.46283073351E+00 -.19685808821E+01 -.47036846259E+01
 -.94088538389E+01 -.13663460720E+02 -.16942280290E+02 -.19965388516E+02 -.22728378828E+02
 -.25078705835E+02 -.26564404523E+02 -.23963827377E+02 -.23429160606E+02 -.22064918686E+02
 -.19965388516E+02 -.17551490137E+02 -.14723586640E+02 -.11451792178E+02 -.70362163737E+01
 -.33070611769E+01 -.14433595799E+01 -.52324836145E-01 0.65203477323E+00 0.92764751902E+00
 0.65203477323E+00 -.52324836145E-01 -.14433595799E+01 -.33070611769E+01 -.70362163737E+01
 -.11451792178E+02 -.14723586640E+02 -.17551490137E+02 -.19965388516E+02 -.22064918686E+02
 -.23429160606E+02 -.20337281524E+02 -.19934845473E+02 -.18692569070E+02 -.16942280290E+02
 -.14723586640E+02 -.12074751395E+02 -.84074970356E+01 -.45191485128E+01 -.22698534090E+01
 -.84043238741E+00 0.21634563895E+00 0.74897214429E+00 0.96663072628E+00 0.74897214429E+00
 0.21634563895E+00 -.84043238741E+00 -.22698534090E+01 -.45191485128E+01 -.84074970356E+01
 -.12074751395E+02 -.14723586640E+02 -.16942280290E+02 -.18692569070E+02 -.19934845473E+02
 -.16555597787E+02 -.16210066061E+02 -.15224972231E+02 -.13663460720E+02 -.11451792178E+02
 -.84074970356E+01 -.50096129353E+01 -.27799485691E+01 -.14225447332E+01 -.28733497978E+00
 0.39434903611E+00 0.80943562569E+00 0.90700039108E+00 0.80943562569E+00 0.39434903611E+00
 -.28733497978E+00 -.14225447332E+01 -.27799485691E+01 -.50096129353E+01 -.84074970356E+01
 -.11451792178E+02 -.13663460720E+02 -.15224972231E+02 -.16210066061E+02 -.12554599031E+02
 -.12202323776E+02 -.11170259761E+02 -.94088538389E+01 -.70362163737E+01 -.45191485128E+01
 -.27799485691E+01 -.16327348292E+01 -.61070780044E+00 0.52487466829E-01 0.46020119473E+00
 0.66926397252E+00 0.74584261451E+00 0.66926397252E+00 0.46020119473E+00 0.52487466829E-01
 -.61070780044E+00 -.16327348292E+01 -.27799485691E+01 -.45191485128E+01 -.70362163737E+01
 -.94088538389E+01 -.11170259761E+02 -.12202323776E+02 -.73379824314E+01 -.70099699243E+01
 -.60603053141E+01 -.47036846259E+01 -.33070611769E+01 -.22698534090E+01 -.14225447332E+01
 -.61070780044E+00 -.88164721061E-01 0.21288899382E+00 0.41351119495E+00 0.53086060829E+00
 0.56617961694E+00 0.53086060829E+00 0.41351119495E+00 0.21288899382E+00 -.88164721061E-01
 -.61070780044E+00 -.14225447332E+01 -.22698534090E+01 -.33070611769E+01 -.47036846259E+01
 -.60603053141E+01 -.70099699243E+01 -.30366120607E+01 -.28812747210E+01 -.24791000733E+01
 -.19685808821E+01 -.14433595799E+01 -.84043238741E+00 -.28733497978E+00 0.52487466829E-01
 0.21288899382E+00 0.31891597614E+00 0.38389913137E+00 0.37318527348E+00 0.37122652803E+00
 0.37318527348E+00 0.38389913137E+00 0.31891597614E+00 0.21288899382E+00 0.52487466829E-01
 -.28733497978E+00 -.84043238741E+00 -.14433595799E+01 -.19685808821E+01 -.24791000733E+01
 -.28812747210E+01 -.10573626753E+01 -.99805758767E+00 -.77914967142E+00 -.46283073351E+00
 -.52324836145E-01 0.21634563895E+00 0.39434903611E+00 0.46020119473E+00 0.41351119495E+00
 0.38389913137E+00 0.25713232689E+00 0.15754076748E+00 0.10452339721E+00 0.15754076748E+00
 0.25713232689E+00 0.38389913137E+00 0.41351119495E+00 0.46020119473E+00 0.39434903611E+00
 0.21634563895E+00 -.52324836145E-01 -.46283073351E+00 -.77914967142E+00 -.99805758767E+00
 0.21432097343E+00 0.27543133120E+00 0.39998118376E+00 0.55771657684E+00 0.65203477323E+00
 0.74897214429E+00 0.80943562569E+00 0.66926397252E+00 0.53086060829E+00 0.37318527348E+00
 0.15754076748E+00 -.69723817466E-02 -.78833057160E-01 -.69723817466E-02 0.15754076748E+00
 0.37318527348E+00 0.53086060829E+00 0.66926397252E+00 0.80943562569E+00 0.74897214429E+00
 0.65203477323E+00 0.55771657684E+00 0.39998118376E+00 0.27543133120E+00 0.54134829482E+00
 0.56680008888E+00 0.65025824990E+00 0.77501316432E+00 0.92764751902E+00 0.96663072628E+00
 0.90700039108E+00 0.74584261451E+00 0.56617961694E+00 0.37122652803E+00 0.10452339721E+00
 -.78833057160E-01 -.15920651338E+00 -.78833057160E-01 0.10452339721E+00 0.37122652803E+00
 0.56617961694E+00 0.74584261451E+00 0.90700039108E+00 0.96663072628E+00 0.92764751902E+00
 0.77501316432E+00 0.65025824990E+00 0.56680008888E+00 0.21432097343E+00 0.27543133120E+00
 0.39998118376E+00 0.55771657684E+00 0.65203477323E+00 0.74897214429E+00 0.80943562569E+00
 0.66926397252E+00 0.53086060829E+00 0.37318527348E+00 0.15754076748E+00 -.69723817466E-02
 -.78833057160E-01 -.69723817466E-02 0.15754076748E+00 0.37318527348E+00 0.53086060829E+00
 0.66926397252E+00 0.80943562569E+00 0.74897214429E+00 0.65203477323E+00 0.55771657684E+00
 0.39998118376E+00 0.27543133120E+00 -.10573626753E+01 -.99805758767E+00 -.77914967142E+00
 -.46283073351E+00 -.52324836145E-01 0.21634563895E+00 0.39434903611E+00 0.46020119473E+00
 0.41351119495E+00 0.38389913137E+00 0.25713232689E+00 0.15754076748E+00 0.10452339721E+00
 0.15754076748E+00 0.25713232689E+00 0.38389913137E+00 0.41351119495E+00 0.46020119473E+00
 0.39434903611E+00 0.21634563895E+00 -.52324836145E-01 -.46283073351E+00 -.77914967142E+00
 -.99805758767E+00 -.30366120607E+01 -.28812747210E+01 -.24791000733E+01 -.19685808821E+01
 -.14433595799E+01 -.84043238741E+00 -.28733497978E+00 0.52487466829E-01 0.21288899382E+00
 0.31891597614E+00 0.38389913137E+00 0.37318527348E+00 0.37122652803E+00 0.37318527348E+00
 0.38389913137E+00 0.31891597614E+00 0.21288899382E+00 0.52487466829E-01 -.28733497978E+00
 -.84043238741E+00 -.14433595799E+01 -.19685808821E+01 -.24791000733E+01 -.28812747210E+01
 -.73379824314E+01 -.70099699243E+01 -.60603053141E+01 -.47036846259E+01 -.33070611769E+01
 -.22698534090E+01 -.14225447332E+01 -.61070780044E+00 -.88164721061E-01 0.21288899382E+00
 0.41351119495E+00 0.53086060829E+00 0.56617961694E+00 0.53086060829E+00 0.41351119495E+00
 0.21288899382E+00 -.88164721061E-01 -.61070780044E+00 -.14225447332E+01 -.22698534090E+01
 -.33070611769E+01 -.47036846259E+01 -.60603053141E+01 -.70099699243E+01 -.12554599031E+02
 -.12202323776E+02 -.11170259761E+02 -.94088538389E+01 -.70362163737E+01 -.45191485128E+01
 -.27799485691E+01 -.16327348292E+01 -.61070780044E+00 0.52487466829E-01 0.46020119473E+00
 0.66926397252E+00 0.74584261451E+00 0.66926397252E+00 0.46020119473E+00 0.52487466829E-01
 -.61070780044E+00 -.16327348292E+01 -.27799485691E+01 -.45191485128E+01 -.70362163737E+01
 -.94088538389E+01 -.11170259761E+02 -.12202323776E+02 -.16555597787E+02 -.16210066061E+02
 -.15224972231E+02 -.13663460720E+02 -.11451792178E+02 -.84074970356E+01 -.50096129353E+01
 -.27799485691E+01 -.14225447332E+01 -.28733497978E+00 0.39434903611E+00 0.80943562569E+00
 0.90700039108E+00 0.80943562569E+00 0.39434903611E+00 -.28733497978E+00 -.14225447332E+01
 -.27799485691E+01 -.50096129353E+01 -.84074970356E+01 -.11451792178E+02 -.13663460720E+02
 -.15224972231E+02 -.16210066061E+02 -.20337281524E+02 -.19934845473E+02 -.18692569070E+02
 -.16942280290E+02 -.14723586640E+02 -.12074751395E+02 -.84074970356E+01 -.45191485128E+01
 -.22698534090E+01 -.84043238741E+00 0.21634563895E+00 0.74897214429E+00 0.96663072628E+00
 0.74897214429E+00 0.21634563895E+00 -.84043238741E+00 -.22698534090E+01 -.45191485128E+01
 -.84074970356E+01 -.12074751395E+02 -.14723586640E+02 -.16942280290E+02 -.18692569070E+02
 -.19934845473E+02 -.23963827377E+02 -.23429160606E+02 -.22064918686E+02 -.19965388516E+02
 -.17551490137E+02 -.14723586640E+02 -.11451792178E+02 -.70362163737E+01 -.33070611769E+01
 -.14433595799E+01 -.52324836145E-01 0.65203477323E+00 0.92764751902E+00 0.65203477323E+00
 -.52324836145E-01 -.14433595799E+01 -.33070611769E+01 -.70362163737E+01 -.11451792178E+02
 -.14723586640E+02 -.17551490137E+02 -.19965388516E+02 -.22064918686E+02 -.23429160606E+02
 -.27136435876E+02 -.26564404523E+02 -.25078705835E+02 -.22728378828E+02 -.19965388516E+02
 -.16942280290E+02 -.13663460720E+02 -.94088538389E+01 -.47036846259E+01 -.19685808821E+01
 -.46283073351E+00 0.55771657684E+00 0.77501316432E+00 0.55771657684E+00 -.46283073351E+00
 -.19685808821E+01 -.47036846259E+01 -.94088538389E+01 -.13663460720E+02 -.16942280290E+02
 -.19965388516E+02 -.22728378828E+02 -.25078705835E+02 -.26564404523E+02 -.29456102848E+02
 -.28931164339E+02 -.27419549692E+02 -.25078705835E+02 -.22064918686E+02 -.18692569070E+02
 -.15224972231E+02 -.11170259761E+02 -.60603053141E+01 -.24791000733E+01 -.77914967142E+00
 0.39998118376E+00 0.65025824990E+00 0.39998118376E+00 -.77914967142E+00 -.24791000733E+01
 -.60603053141E+01 -.11170259761E+02 -.15224972231E+02 -.18692569070E+02 -.22064918686E+02
 -.25078705835E+02 -.27419549692E+02 -.28931164339E+02 -.30979125963E+02 -.30477164292E+02
 -.28931164339E+02 -.26564404523E+02 -.23429160606E+02 -.19934845473E+02 -.16210066061E+02
 -.12202323776E+02 -.70099699243E+01 -.28812747210E+01 -.99805758767E+00 0.27543133120E+00
 0.56680008888E+00 0.27543133120E+00 -.99805758767E+00 -.28812747210E+01 -.70099699243E+01
 -.12202323776E+02 -.16210066061E+02 -.19934845473E+02 -.23429160606E+02 -.26564404523E+02
 -.28931164339E+02 -.30477164292E+02 -.29891041634E+02 -.29380111992E+02 -.27868700103E+02
 -.25551524413E+02 -.22526649134E+02 -.19043161796E+02 -.15524911550E+02 -.11500328905E+02
 -.63294609148E+01 -.25953737900E+01 -.82528691599E+00 0.37720002768E+00 0.65445713461E+00
 0.37720002768E+00 -.82528691599E+00 -.25953737900E+01 -.63294609148E+01 -.11500328905E+02
 -.15524911550E+02 -.19043161796E+02 -.22526649134E+02 -.25551524413E+02 -.27868700103E+02
 -.29380111992E+02 -.29380111992E+02 -.28847735043E+02 -.27344482585E+02 -.25006117780E+02
 -.22042095690E+02 -.18682952203E+02 -.15193474463E+02 -.11154655282E+02 -.60403406362E+01
 -.24667345623E+01 -.76759971695E+00 0.41028346007E+00 0.66027535179E+00 0.41028346007E+00
 -.76759971695E+00 -.24667345623E+01 -.60403406362E+01 -.11154655282E+02 -.15193474463E+02
 -.18682952203E+02 -.22042095690E+02 -.25006117780E+02 -.27344482585E+02 -.28847735043E+02
 -.27868700103E+02 -.27344482585E+02 -.25878128736E+02 -.23612241120E+02 -.20757026461E+02
 -.17532185266E+02 -.14285974875E+02 -.10111836478E+02 -.52066736156E+01 -.21785779158E+01
 -.59919975603E+00 0.47437270520E+00 0.71280567061E+00 0.47437270520E+00 -.59919975603E+00
 -.21785779158E+01 -.52066736156E+01 -.10111836478E+02 -.14285974875E+02 -.17532185266E+02
 -.20757026461E+02 -.23612241120E+02 -.25878128736E+02 -.27344482585E+02 -.25551524413E+02
 -.25006117780E+02 -.23612241120E+02 -.21404564557E+02 -.18788016843E+02 -.15943874481E+02
 -.12744094989E+02 -.83826173769E+01 -.40877978928E+01 -.17770266963E+01 -.35012104167E+00
 0.53429257855E+00 0.75625156064E+00 0.53429257855E+00 -.35012104167E+00 -.17770266963E+01
 -.40877978928E+01 -.83826173769E+01 -.12744094989E+02 -.15943874481E+02 -.18788016843E+02
 -.21404564557E+02 -.23612241120E+02 -.25006117780E+02 -.22526649134E+02 -.22042095690E+02
 -.20757026461E+02 -.18788016843E+02 -.16515642023E+02 -.13851439142E+02 -.10497382493E+02
 -.61739049515E+01 -.29876686841E+01 -.13766468234E+01 -.89760390611E-01 0.51885939284E+00
 0.79512112429E+00 0.51885939284E+00 -.89760390611E-01 -.13766468234E+01 -.29876686841E+01
 -.61739049515E+01 -.10497382493E+02 -.13851439142E+02 -.16515642023E+02 -.18788016843E+02
 -.20757026461E+02 -.22042095690E+02 -.19043161796E+02 -.18682952203E+02 -.17532185266E+02
 -.15943874481E+02 -.13851439142E+02 -.11173636142E+02 -.74708697042E+01 -.40493577343E+01
 -.22133842886E+01 -.87850934483E+00 0.28478579878E-01 0.50252034074E+00 0.67034230806E+00
 0.50252034074E+00 0.28478579878E-01 -.87850934483E+00 -.22133842886E+01 -.40493577343E+01
 -.74708697042E+01 -.11173636142E+02 -.13851439142E+02 -.15943874481E+02 -.17532185266E+02
 -.18682952203E+02 -.15524911550E+02 -.15193474463E+02 -.14285974875E+02 -.12744094989E+02
 -.10497382493E+02 -.74708697042E+01 -.44813495821E+01 -.27021685127E+01 -.14838936629E+01
 -.53615390536E+00 0.22682427445E-03 0.34658085268E+00 0.42129768612E+00 0.34658085268E+00
 0.22682427445E-03 -.53615390536E+00 -.14838936629E+01 -.27021685127E+01 -.44813495821E+01
 -.74708697042E+01 -.10497382493E+02 -.12744094989E+02 -.14285974875E+02 -.15193474463E+02
 -.11500328905E+02 -.11154655282E+02 -.10111836478E+02 -.83826173769E+01 -.61739049515E+01
 -.40493577343E+01 -.27021685127E+01 -.17065512188E+01 -.89866064783E+00 -.41042895940E+00
 -.54278985675E-01 0.94178712173E-01 0.16316433801E+00 0.94178712173E-01 -.54278985675E-01
 -.41042895940E+00 -.89866064783E+00 -.17065512188E+01 -.27021685127E+01 -.40493577343E+01
 -.61739049515E+01 -.83826173769E+01 -.10111836478E+02 -.11154655282E+02 -.63294609148E+01
 -.60403406362E+01 -.52066736156E+01 -.40877978928E+01 -.29876686841E+01 -.22133842886E+01
 -.14838936629E+01 -.89866064783E+00 -.56547623967E+00 -.31887472675E+00 -.27903787428E+00
 -.28271249377E+00 -.30858030411E+00 -.28271249377E+00 -.27903787428E+00 -.31887472675E+00
 -.56547623967E+00 -.89866064783E+00 -.14838936629E+01 -.22133842886E+01 -.29876686841E+01
 -.40877978928E+01 -.52066736156E+01 -.60403406362E+01 -.25953737900E+01 -.24667345623E+01
 -.21785779158E+01 -.17770266963E+01 -.13766468234E+01 -.87850934483E+00 -.53615390536E+00
 -.41042895940E+00 -.31887472675E+00 -.44765917417E+00 -.63132357863E+00 -.76032596198E+00
 -.80284170821E+00 -.76032596198E+00 -.63132357863E+00 -.44765917417E+00 -.31887472675E+00
 -.41042895940E+00 -.53615390536E+00 -.87850934483E+00 -.13766468234E+01 -.17770266963E+01
 -.21785779158E+01 -.24667345623E+01 -.82528691599E+00 -.76759971695E+00 -.59919975603E+00
 -.35012104167E+00 -.89760390611E-01 0.28478579878E-01 0.22682427443E-03 -.54278985675E-01
 -.27903787428E+00 -.63132357863E+00 -.91530256152E+00 -.11018158986E+01 -.11618868510E+01
 -.11018158986E+01 -.91530256152E+00 -.63132357863E+00 -.27903787428E+00 -.54278985675E-01
 0.22682427444E-03 0.28478579878E-01 -.89760390611E-01 -.35012104167E+00 -.59919975603E+00
 -.76759971695E+00 0.37720002768E+00 0.41028346007E+00 0.47437270520E+00 0.53429257855E+00
 0.51885939284E+00 0.50252034074E+00 0.34658085268E+00 0.94178712173E-01 -.28271249377E+00
 -.76032596198E+00 -.11018158986E+01 -.13361622993E+01 -.13981954839E+01 -.13361622993E+01
 -.11018158986E+01 -.76032596198E+00 -.28271249377E+00 0.94178712173E-01 0.34658085268E+00
 0.50252034074E+00 0.51885939284E+00 0.53429257855E+00 0.47437270520E+00 0.41028346007E+00
 0.65445713461E+00 0.66027535179E+00 0.71280567061E+00 0.75625156064E+00 0.79512112429E+00
 0.67034230806E+00 0.42129768612E+00 0.16316433801E+00 -.30858030411E+00 -.80284170821E+00
 -.11618868510E+01 -.13981954839E+01 -.14739790537E+01 -.13981954839E+01 -.11618868510E+01
 -.80284170821E+00 -.30858030411E+00 0.16316433801E+00 0.42129768612E+00 0.67034230806E+00
 0.79512112429E+00 0.75625156064E+00 0.71280567061E+00 0.66027535179E+00 0.37720002768E+00
 0.41028346007E+00 0.47437270520E+00 0.53429257855E+00 0.51885939284E+00 0.50252034074E+00
 0.34658085268E+00 0.94178712173E-01 -.28271249377E+00 -.76032596198E+00 -.11018158986E+01
 -.13361622993E+01 -.13981954839E+01 -.13361622993E+01 -.11018158986E+01 -.76032596198E+00
 -.28271249377E+00 0.94178712173E-01 0.34658085268E+00 0.50252034074E+00 0.51885939284E+00
 0.53429257855E+00 0.47437270520E+00 0.41028346007E+00 -.82528691599E+00 -.76759971695E+00
 -.59919975603E+00 -.35012104167E+00 -.89760390611E-01 0.28478579878E-01 0.22682427443E-03
 -.54278985675E-01 -.27903787428E+00 -.63132357863E+00 -.91530256152E+00 -.11018158986E+01
 -.11618868510E+01 -.11018158986E+01 -.91530256152E+00 -.63132357863E+00 -.27903787428E+00
 -.54278985675E-01 0.22682427443E-03 0.28478579878E-01 -.89760390611E-01 -.35012104167E+00
 -.59919975603E+00 -.76759971695E+00 -.25953737900E+01 -.24667345623E+01 -.21785779158E+01
 -.17770266963E+01 -.13766468234E+01 -.87850934483E+00 -.53615390536E+00 -.41042895940E+00
 -.31887472675E+00 -.44765917417E+00 -.63132357863E+00 -.76032596198E+00 -.80284170821E+00
 -.76032596198E+00 -.63132357863E+00 -.44765917417E+00 -.31887472675E+00 -.41042895940E+00
 -.53615390536E+00 -.87850934483E+00 -.13766468234E+01 -.17770266963E+01 -.21785779158E+01
 -.24667345623E+01 -.63294609148E+01 -.60403406362E+01 -.52066736156E+01 -.40877978928E+01
 -.29876686841E+01 -.22133842886E+01 -.14838936629E+01 -.89866064783E+00 -.56547623967E+00
 -.31887472675E+00 -.27903787428E+00 -.28271249377E+00 -.30858030411E+00 -.28271249377E+00
 -.27903787428E+00 -.31887472675E+00 -.56547623967E+00 -.89866064783E+00 -.14838936629E+01
 -.22133842886E+01 -.29876686841E+01 -.40877978928E+01 -.52066736156E+01 -.60403406362E+01
 -.11500328905E+02 -.11154655282E+02 -.10111836478E+02 -.83826173769E+01 -.61739049515E+01
 -.40493577343E+01 -.27021685127E+01 -.17065512188E+01 -.89866064783E+00 -.41042895940E+00
 -.54278985675E-01 0.94178712173E-01 0.16316433801E+00 0.94178712173E-01 -.54278985675E-01
 -.41042895940E+00 -.89866064783E+00 -.17065512188E+01 -.27021685127E+01 -.40493577343E+01
 -.61739049515E+01 -.83826173769E+01 -.10111836478E+02 -.11154655282E+02 -.15524911550E+02
 -.15193474463E+02 -.14285974875E+02 -.12744094989E+02 -.10497382493E+02 -.74708697042E+01
 -.44813495821E+01 -.27021685127E+01 -.14838936629E+01 -.53615390536E+00 0.22682427444E-03
 0.34658085268E+00 0.42129768612E+00 0.34658085268E+00 0.22682427444E-03 -.53615390536E+00
 -.14838936629E+01 -.27021685127E+01 -.44813495821E+01 -.74708697042E+01 -.10497382493E+02
 -.12744094989E+02 -.14285974875E+02 -.15193474463E+02 -.19043161796E+02 -.18682952203E+02
 -.17532185266E+02 -.15943874481E+02 -.13851439142E+02 -.11173636142E+02 -.74708697042E+01
 -.40493577343E+01 -.22133842886E+01 -.87850934483E+00 0.28478579878E-01 0.50252034074E+00
 0.67034230806E+00 0.50252034074E+00 0.28478579878E-01 -.87850934483E+00 -.22133842886E+01
 -.40493577343E+01 -.74708697042E+01 -.11173636142E+02 -.13851439142E+02 -.15943874481E+02