       N       E                     dE             d eps       ncg     rms          rms(c)
DAV:   1     0.114344565517E+03    0.11434E+03   -0.69431E+03  1260   0.638E+02
DAV:   2    -0.202194936647E+02   -0.13456E+03   -0.12285E+03  1285   0.214E+02
DAV:   3    -0.247927084291E+02   -0.45732E+01   -0.44153E+01  1430   0.513E+01
DAV:   4    -0.248425441442E+02   -0.49836E-01   -0.49792E-01  1403   0.581E+00
DAV:   5    -0.248431048547E+02   -0.56071E-03   -0.56062E-03  1526   0.506E-01    0.185E+01
DAV:   6    -0.350905877918E+02   -0.10247E+02   -0.33079E+01  1603   0.117E+02    0.580E+01
DAV:   7    -0.235129557041E+02    0.11578E+02   -0.77857E+01  1608   0.687E+01    0.180E+01
DAV:   8    -0.214392314780E+02    0.20737E+01   -0.47345E+00  1640   0.454E+01    0.653E+00
DAV:   9    -0.218284505317E+02   -0.38922E+00   -0.10536E+00  1340   0.115E+01    0.388E+00
DAV:  10    -0.220781603131E+02   -0.24971E+00   -0.26646E-01  1547   0.530E+00    0.269E+00
DAV:  11    -0.222228822883E+02   -0.14472E+00   -0.10848E-01  1702   0.413E+00    0.135E+00
DAV:  12    -0.222182507502E+02    0.46315E-02   -0.29455E-02  1546   0.267E+00    0.739E-01
DAV:  13    -0.222242589777E+02   -0.60082E-02   -0.79798E-03  1377   0.810E-01    0.613E-01
DAV:  14    -0.222306078128E+02   -0.63488E-02   -0.35380E-03  1406   0.115E+00    0.325E-01
DAV:  15    -0.222330648143E+02   -0.24570E-02   -0.21115E-03  1548   0.646E-01    0.111E-01
DAV:  16    -0.222340918902E+02   -0.10271E-02   -0.97360E-04  1290   0.224E-01    0.908E-02
DAV:  17    -0.222345941012E+02   -0.50221E-03   -0.24166E-04  1171   0.163E-01    0.436E-02
DAV:  18    -0.222348492530E+02   -0.25515E-03   -0.10149E-04  1028   0.820E-02    0.515E-02
DAV:  19    -0.222349943359E+02   -0.14508E-03   -0.88333E-05   991   0.856E-02    0.269E-02
DAV:  20    -0.222350625888E+02   -0.68253E-04   -0.36173E-05   894   0.439E-02
   1 F= -.22235063E+02 E0= -.22235681E+02  d E =-.222351E+02  mag=     8.4085
       N       E                     dE             d eps       ncg     rms          rms(c)
DAV:   1    -0.222339975129E+02    0.99682E-03   -0.48772E-01  1260   0.391E+00    0.544E-01
DAV:   2    -0.222421304221E+02   -0.81329E-02   -0.17093E-02  1719   0.311E+00    0.114E+00
DAV:   3    -0.222378768296E+02    0.42536E-02   -0.16101E-02  1756   0.349E+00    0.536E-01
DAV:   4    -0.222369723721E+02    0.90446E-03   -0.19465E-03  1640   0.115E+00    0.560E-02
DAV:   5    -0.222368909765E+02    0.81396E-04   -0.21653E-04  1150   0.136E-01
   2 F= -.22236891E+02 E0= -.22237460E+02  d E =-.182839E-02  mag=     8.4070
       N       E                     dE             d eps       ncg     rms          rms(c)
DAV:   1    -0.222275714920E+02    0.94009E-02   -0.16710E+00  1260   0.726E+00    0.101E+00
DAV:   2    -0.222561117829E+02   -0.28540E-01   -0.60328E-02  1759   0.592E+00    0.218E+00
DAV:   3    -0.222404685274E+02    0.15643E-01   -0.56536E-02  1758   0.646E+00    0.976E-01
DAV:   4    -0.222374715159E+02    0.29970E-02   -0.64600E-03  1660   0.210E+00    0.109E-01
DAV:   5    -0.222375451198E+02   -0.73604E-04   -0.72749E-04  1388   0.253E-01
   3 F= -.22237545E+02 E0= -.22238005E+02  d E =-.248253E-02  mag=     8.4073
