 vasp.5.4.4.18Apr17-6-g9f103f2a35 (build May 18 2018 14:42:58) complex          
  
 executed on             LinuxIFC date 2020.07.01  22:11:20
 running on    4 total cores
 distrk:  each k-point on    4 cores,    1 groups
 distr:  one band on NCORES_PER_BAND=   4 cores,    1 groups


--------------------------------------------------------------------------------------------------------


 INCAR:
 POTCAR:    PAW_PBE Fe 06Sep2000                  
 POTCAR:    PAW_PBE Fe 06Sep2000                  
   VRHFIN =Fe:  d7 s1                                                           
   LEXCH  = PE                                                                  
   EATOM  =   594.3153 eV,   43.6809 Ry                                         
                                                                                
   TITEL  = PAW_PBE Fe 06Sep2000                                                
   LULTRA =        F    use ultrasoft PP ?                                      
   IUNSCR =        1    unscreen: 0-lin 1-nonlin 2-no                           
   RPACOR =    2.000    partial core radius                                     
   POMASS =   55.847; ZVAL   =    8.000    mass and valenz                      
   RCORE  =    2.300    outmost cutoff radius                                   
   RWIGS  =    2.460; RWIGS  =    1.302    wigner-seitz radius (au A)           
   ENMAX  =  267.882; ENMIN  =  200.911 eV                                      
   RCLOC  =    1.701    cutoff for local pot                                    
   LCOR   =        T    correct aug charges                                     
   LPAW   =        T    paw PP                                                  
   EAUG   =  511.368                                                            
   DEXC   =    0.000                                                            
   RMAX   =    2.356    core radius for proj-oper                               
   RAUG   =    1.300    factor for augmentation sphere                          
   RDEP   =    2.442    radius for radial grids                                 
   RDEPT  =    1.890    core radius for aug-charge                              
                                                                                
   Atomic configuration                                                         
    9 entries                                                                   
     n  l   j            E        occ.                                          
     1  0  0.50     -6993.8440   2.0000                                         
     2  0  0.50      -814.6047   2.0000                                         
     2  1  1.50      -693.3689   6.0000                                         
     3  0  0.50       -89.4732   2.0000                                         
     3  1  1.50       -55.6373   6.0000                                         
     3  2  2.50        -3.8151   7.0000                                         
     4  0  0.50        -4.2551   1.0000                                         
     4  1  1.50        -3.4015   0.0000                                         
     4  3  2.50        -1.3606   0.0000                                         
   Description                                                                  
     l       E           TYP  RCUT    TYP  RCUT                                 
     2     -3.8151135     23  2.300                                             
     2     -5.1756961     23  2.300                                             
     0     -4.2550963     23  2.300                                             
     0      7.2035603     23  2.300                                             
     1     -2.7211652     23  2.300                                             
     1     18.4316424     23  2.300                                             
  local pseudopotential read in
  partial core-charges read in
  partial kinetic energy density read in
  atomic valenz-charges read in
  non local Contribution for L=           2  read in
    real space projection operators read in
  non local Contribution for L=           2  read in
    real space projection operators read in
  non local Contribution for L=           0  read in
    real space projection operators read in
  non local Contribution for L=           0  read in
    real space projection operators read in
  non local Contribution for L=           1  read in
    real space projection operators read in
  non local Contribution for L=           1  read in
    real space projection operators read in
    PAW grid and wavefunctions read in
 
   number of l-projection  operators is LMAX  =           6
   number of lm-projection operators is LMMAX =          18
 
  PAW_PBE Fe 06Sep2000                  :
 energy of atom  1       EATOM= -594.3153
 kinetic energy error for atom=    0.0345 (will be added to EATOM!!)
 
 
 POSCAR: Fe(001)-5layers                         
  positions in direct lattice
  No initial velocities read in
 exchange correlation table for  LEXCH =        8
   RHO(1)=    0.500       N(1)  =     2000
   RHO(2)=  100.500       N(2)  =     4000
 


--------------------------------------------------------------------------------------------------------


 ion  position               nearest neighbor table
   1  0.500  0.500  0.111-   2 2.46   2 2.46   2 2.46   2 2.46   3 2.84
   2  0.000  0.000  0.000-   1 2.46   3 2.46   1 2.46   3 2.46   1 2.46   3 2.46   1 2.46   3 2.46

   3  0.500  0.500  0.889-   2 2.46   2 2.46   2 2.46   2 2.46   1 2.84
 
  LATTYP: Found a simple tetragonal cell.
 ALAT       =     2.8400000000
 C/A-ratio  =     4.5211267606
  
  Lattice vectors:
  
 A1 = (   2.8400000000,   0.0000000000,   0.0000000000)
 A2 = (   0.0000000000,   2.8400000000,   0.0000000000)
 A3 = (   0.0000000000,   0.0000000000,  12.8400000000)


Analysis of symmetry for initial positions (statically):
=====================================================================
 Subroutine PRICEL returns:
 Original cell was already a primitive cell.
 

 Routine SETGRP: Setting up the symmetry group for a 
 simple tetragonal supercell.


 Subroutine GETGRP returns: Found 16 space group operations
 (whereof 16 operations were pure point group operations)
 out of a pool of 16 trial point group operations.


The static configuration has the point symmetry D_4h.


Analysis of symmetry for dynamics (positions and initial velocities):
=====================================================================
 Subroutine PRICEL returns:
 Original cell was already a primitive cell.
 

 Routine SETGRP: Setting up the symmetry group for a 
 simple tetragonal supercell.


 Subroutine GETGRP returns: Found 16 space group operations
 (whereof 16 operations were pure point group operations)
 out of a pool of 16 trial point group operations.


The dynamic configuration has the point symmetry D_4h.


Analysis of structural, dynamic, and magnetic symmetry:
=====================================================================
 Subroutine PRICEL returns:
 Original cell was already a primitive cell.
 

 Routine SETGRP: Setting up the symmetry group for a 
 simple tetragonal supercell.


 Subroutine GETGRP returns: Found 16 space group operations
 (whereof 16 operations were pure point group operations)
 out of a pool of 16 trial point group operations.


The magnetic configuration has the point symmetry D_4h.


 Subroutine INISYM returns: Found 16 space group operations
 (whereof 16 operations are pure point group operations),
 and found     1 'primitive' translations

 
 
 KPOINTS: 10x10x10                                

Automatic generation of k-mesh.
Space group operators:
 irot       det(A)        alpha          n_x          n_y          n_z        tau_x        tau_y        tau_z
    1     1.000000     0.000001     1.000000     0.000000     0.000000     0.000000     0.000000     0.000000
    2    -1.000000     0.000001     1.000000     0.000000     0.000000     0.000000     0.000000     0.000000
    3     1.000000    90.000000     0.000000     0.000000    -1.000000     0.000000     0.000000     0.000000
    4    -1.000000    90.000000     0.000000     0.000000    -1.000000     0.000000     0.000000     0.000000
    5     1.000000   180.000000     0.000000     0.000000     1.000000     0.000000     0.000000     0.000000
    6    -1.000000   180.000000     0.000000     0.000000     1.000000     0.000000     0.000000     0.000000
    7     1.000000    90.000000     0.000000     0.000000     1.000000     0.000000     0.000000     0.000000
    8    -1.000000    90.000000     0.000000     0.000000     1.000000     0.000000     0.000000     0.000000
    9     1.000000   180.000000     0.000000     1.000000     0.000000     0.000000     0.000000     0.000000
   10    -1.000000   180.000000     0.000000     1.000000     0.000000     0.000000     0.000000     0.000000
   11     1.000000   180.000000     0.707107     0.707107     0.000000     0.000000     0.000000     0.000000
   12    -1.000000   180.000000     0.707107     0.707107     0.000000     0.000000     0.000000     0.000000
   13     1.000000   180.000000     1.000000     0.000000     0.000000     0.000000     0.000000     0.000000
   14    -1.000000   180.000000     1.000000     0.000000     0.000000     0.000000     0.000000     0.000000
   15     1.000000   180.000000     0.707107    -0.707107     0.000000     0.000000     0.000000     0.000000
   16    -1.000000   180.000000     0.707107    -0.707107     0.000000     0.000000     0.000000     0.000000
 
 Subroutine IBZKPT returns following result:
 ===========================================
 
 Found     15 irreducible k-points:
 
 Following reciprocal coordinates:
            Coordinates               Weight
  0.050000  0.050000  0.000000      4.000000
  0.150000  0.050000  0.000000      8.000000
  0.250000  0.050000  0.000000      8.000000
  0.350000  0.050000  0.000000      8.000000
  0.450000  0.050000  0.000000      8.000000
  0.150000  0.150000  0.000000      4.000000
  0.250000  0.150000  0.000000      8.000000
  0.350000  0.150000  0.000000      8.000000
  0.450000  0.150000  0.000000      8.000000
  0.250000  0.250000  0.000000      4.000000
  0.350000  0.250000  0.000000      8.000000
  0.450000  0.250000  0.000000      8.000000
  0.350000  0.350000  0.000000      4.000000
  0.450000  0.350000  0.000000      8.000000
  0.450000  0.450000  0.000000      4.000000
 
 Following cartesian coordinates:
            Coordinates               Weight
  0.050000  0.050000  0.000000      4.000000
  0.150000  0.050000  0.000000      8.000000
  0.250000  0.050000  0.000000      8.000000
  0.350000  0.050000  0.000000      8.000000
  0.450000  0.050000  0.000000      8.000000
  0.150000  0.150000  0.000000      4.000000
  0.250000  0.150000  0.000000      8.000000
  0.350000  0.150000  0.000000      8.000000
  0.450000  0.150000  0.000000      8.000000
  0.250000  0.250000  0.000000      4.000000
  0.350000  0.250000  0.000000      8.000000
  0.450000  0.250000  0.000000      8.000000
  0.350000  0.350000  0.000000      4.000000
  0.450000  0.350000  0.000000      8.000000
  0.450000  0.450000  0.000000      4.000000
 


--------------------------------------------------------------------------------------------------------




 Dimension of arrays:
   k-points           NKPTS =     15   k-points in BZ     NKDIM =     15   number of bands    NBANDS=     21
   number of dos      NEDOS =    301   number of ions     NIONS =      3
   non local maximal  LDIM  =      6   non local SUM 2l+1 LMDIM =     18
   total plane-waves  NPLWV =   7776
   max r-space proj   IRMAX =      1   max aug-charges    IRDMAX=   2874
   dimension x,y,z NGX =    12 NGY =   12 NGZ =   54
   dimension x,y,z NGXF=    24 NGYF=   24 NGZF=  108
   support grid    NGXF=    24 NGYF=   24 NGZF=  108
   ions per type =               3
   NGX,Y,Z   is equivalent  to a cutoff of   7.02,  7.02,  6.99 a.u.
   NGXF,Y,Z  is equivalent  to a cutoff of  14.05, 14.05, 13.98 a.u.

 SYSTEM =  BCC Fe                                  
 POSCAR =  Fe(001)-5layers                         

 Startparameter for this run:
   NWRITE =      2    write-flag & timer
   PREC   = normal    normal or accurate (medium, high low for compatibility)
   ISTART =      0    job   : 0-new  1-cont  2-samecut
   ICHARG =      2    charge: 1-file 2-atom 10-const
   ISPIN  =      2    spin polarized calculation?
   LNONCOLLINEAR =      F non collinear calculations
   LSORBIT =      F    spin-orbit coupling
   INIWAV =      1    electr: 0-lowe 1-rand  2-diag
   LASPH  =      F    aspherical Exc in radial PAW
   METAGGA=      F    non-selfconsistent MetaGGA calc.

 Electronic Relaxation 1
   ENCUT  =  268.0 eV  19.70 Ry    4.44 a.u.   3.79  3.79 17.14*2*pi/ulx,y,z
   ENINI  =  268.0     initial cutoff
   ENAUG  =  511.4 eV  augmentation charge cutoff
   NELM   =     60;   NELMIN=  2; NELMDL= -5     # of ELM steps 
   EDIFF  = 0.1E-03   stopping-criterion for ELM
   LREAL  =      F    real-space projection
   NLSPLINE    = F    spline interpolate recip. space projectors
   LCOMPAT=      F    compatible to vasp.4.4
   GGA_COMPAT  = T    GGA compatible to vasp.4.4-vasp.4.6
   LMAXPAW     = -100 max onsite density
   LMAXMIX     =    2 max onsite mixed and CHGCAR
   VOSKOWN=      0    Vosko Wilk Nusair interpolation
   ROPT   =    0.00000
 Ionic relaxation
   EDIFFG = -.1E-01   stopping-criterion for IOM
   NSW    =     50    number of steps for IOM
   NBLOCK =      1;   KBLOCK =     50    inner block; outer block 
   IBRION =      2    ionic relax: 0-MD 1-quasi-New 2-CG
   NFREE  =      1    steps in history (QN), initial steepest desc. (CG)
   ISIF   =      2    stress and relaxation
   IWAVPR =     11    prediction:  0-non 1-charg 2-wave 3-comb
   ISYM   =      2    0-nonsym 1-usesym 2-fastsym
   LCORR  =      T    Harris-Foulkes like correction to forces

   POTIM  = 0.5000    time-step for ionic-motion
   TEIN   =    0.0    initial temperature
   TEBEG  =    0.0;   TEEND  =   0.0 temperature during run
   SMASS  =  -3.00    Nose mass-parameter (am)
   estimated Nose-frequenzy (Omega)   =  0.10E-29 period in steps =****** mass=  -0.184E-27a.u.
   SCALEE = 1.0000    scale energy and forces
   NPACO  =    256;   APACO  = 16.0  distance and # of slots for P.C.
   PSTRESS=    0.0 pullay stress

  Mass of Ions in am
   POMASS =  55.85
  Ionic Valenz
   ZVAL   =   8.00
  Atomic Wigner-Seitz radii
   RWIGS  =   1.30
  virtual crystal weights 
   VCA    =   1.00
   NELECT =      24.0000    total number of electrons
   NUPDOWN=      -1.0000    fix difference up-down

 DOS related values:
   EMIN   =  10.00;   EMAX   =-10.00  energy-range for DOS
   EFERMI =   0.00
   ISMEAR =     1;   SIGMA  =   0.20  broadening in eV -4-tet -1-fermi 0-gaus

 Electronic relaxation 2 (details)
   IALGO  =     38    algorithm
   LDIAG  =      T    sub-space diagonalisation (order eigenvalues)
   LSUBROT=      F    optimize rotation matrix (better conditioning)
   TURBO    =      0    0=normal 1=particle mesh
   IRESTART =      0    0=no restart 2=restart with 2 vectors
   NREBOOT  =      0    no. of reboots
   NMIN     =      0    reboot dimension
   EREF     =   0.00    reference energy to select bands
   IMIX   =      4    mixing-type and parameters
     AMIX     =   0.40;   BMIX     =  1.00
     AMIX_MAG =   1.60;   BMIX_MAG =  1.00
     AMIN     =   0.10
     WC   =   100.;   INIMIX=   1;  MIXPRE=   1;  MAXMIX= -45

 Intra band minimization:
   WEIMIN = 0.0010     energy-eigenvalue tresh-hold
   EBREAK =  0.12E-05  absolut break condition
   DEPER  =   0.30     relativ break condition  

   TIME   =   0.40     timestep for ELM

  volume/ion in A,a.u.               =      34.52       232.96
  Fermi-wavevector in a.u.,A,eV,Ry     =   1.005568  1.900248 13.757756  1.011167
  Thomas-Fermi vector in A             =   2.138255
 
 Write flags
   LWAVE        =      T    write WAVECAR
   LDOWNSAMPLE  =      F    k-point downsampling of WAVECAR
   LCHARG       =      T    write CHGCAR
   LVTOT        =      F    write LOCPOT, total local potential
   LVHAR        =      T    write LOCPOT, Hartree potential only
   LELF         =      F    write electronic localiz. function (ELF)
   LORBIT       =      0    0 simple, 1 ext, 2 COOP (PROOUT), +10 PAW based schemes


 Dipole corrections
   LMONO  =      F    monopole corrections only (constant potential shift)
   LDIPOL =      F    correct potential (dipole corrections)
   IDIPOL =      0    1-x, 2-y, 3-z, 4-all directions 
   EPSILON=  1.0000000 bulk dielectric constant

 Exchange correlation treatment:
   GGA     =    --    GGA type
   LEXCH   =     8    internal setting for exchange type
   VOSKOWN=      0    Vosko Wilk Nusair interpolation
   LHFCALC =     F    Hartree Fock is set to
   LHFONE  =     F    Hartree Fock one center treatment
   AEXX    =    0.0000 exact exchange contribution

 Linear response parameters
   LEPSILON=     F    determine dielectric tensor
   LRPA    =     F    only Hartree local field effects (RPA)
   LNABLA  =     F    use nabla operator in PAW spheres
   LVEL    =     F    velocity operator in full k-point grid
   LINTERFAST=   F  fast interpolation
   KINTER  =     0    interpolate to denser k-point grid
   CSHIFT  =0.1000    complex shift for real part using Kramers Kronig
   OMEGAMAX=  -1.0    maximum frequency
   DEG_THRESHOLD= 0.2000000E-02 threshold for treating states as degnerate
   RTIME   =   -0.100 relaxation time in fs
  (WPLASMAI=    0.000 imaginary part of plasma frequency in eV, 0.658/RTIME)
   DFIELD  = 0.0000000 0.0000000 0.0000000 field for delta impulse in time
 
 Orbital magnetization related:
   ORBITALMAG=     F  switch on orbital magnetization
   LCHIMAG   =     F  perturbation theory with respect to B field
   DQ        =  0.001000  dq finite difference perturbation B field
   LLRAUG    =     F  two centre corrections for induced B field



--------------------------------------------------------------------------------------------------------


 conjugate gradient relaxation of ions
 charge density and potential will be updated during run
 spin polarized calculation
 Variant of blocked Davidson
 Davidson routine will perform the subspace rotation
 perform sub-space diagonalisation
    after iterative eigenvector-optimisation
 modified Broyden-mixing scheme, WC =      100.0
 initial mixing is a Kerker type mixing with AMIX =  0.4000 and BMIX =      1.0000
 Hartree-type preconditioning will be used
 using additional bands            9
 reciprocal scheme for non local part
 use partial core corrections
 calculate Harris-corrections to forces 
   (improved forces if not selfconsistent)
 use gradient corrections 
 use of overlap-Matrix (Vanderbilt PP)
 Methfessel and Paxton  Order N= 1 SIGMA  =   0.20


--------------------------------------------------------------------------------------------------------


  energy-cutoff  :      268.00
  volume of cell :      103.56
      direct lattice vectors                 reciprocal lattice vectors
     2.840000000  0.000000000  0.000000000     0.352112676  0.000000000  0.000000000
     0.000000000  2.840000000  0.000000000     0.000000000  0.352112676  0.000000000
     0.000000000  0.000000000 12.840000000     0.000000000  0.000000000  0.077881620

  length of vectors
     2.840000000  2.840000000 12.840000000     0.352112676  0.352112676  0.077881620


 
 k-points in units of 2pi/SCALE and weight: 10x10x10                                
   0.05000000  0.05000000  0.00000000       0.040
   0.15000000  0.05000000  0.00000000       0.080
   0.25000000  0.05000000  0.00000000       0.080
   0.35000000  0.05000000  0.00000000       0.080
   0.45000000  0.05000000  0.00000000       0.080
   0.15000000  0.15000000  0.00000000       0.040
   0.25000000  0.15000000  0.00000000       0.080
   0.35000000  0.15000000  0.00000000       0.080
   0.45000000  0.15000000  0.00000000       0.080
   0.25000000  0.25000000  0.00000000       0.040
   0.35000000  0.25000000  0.00000000       0.080
   0.45000000  0.25000000  0.00000000       0.080
   0.35000000  0.35000000  0.00000000       0.040
   0.45000000  0.35000000  0.00000000       0.080
   0.45000000  0.45000000  0.00000000       0.040
 
 k-points in reciprocal lattice and weights: 10x10x10                                
   0.05000000  0.05000000  0.00000000       0.040
   0.15000000  0.05000000  0.00000000       0.080
   0.25000000  0.05000000  0.00000000       0.080
   0.35000000  0.05000000  0.00000000       0.080
   0.45000000  0.05000000  0.00000000       0.080
   0.15000000  0.15000000  0.00000000       0.040
   0.25000000  0.15000000  0.00000000       0.080
   0.35000000  0.15000000  0.00000000       0.080
   0.45000000  0.15000000  0.00000000       0.080
   0.25000000  0.25000000  0.00000000       0.040
   0.35000000  0.25000000  0.00000000       0.080
   0.45000000  0.25000000  0.00000000       0.080
   0.35000000  0.35000000  0.00000000       0.040
   0.45000000  0.35000000  0.00000000       0.080
   0.45000000  0.45000000  0.00000000       0.040
 
 position of ions in fractional coordinates (direct lattice) 
   0.50000000  0.50000000  0.11059190
   0.00000000  0.00000000  0.00000000
   0.50000000  0.50000000  0.88940810
 
 position of ions in cartesian coordinates  (Angst):
   1.42000000  1.42000000  1.42000000
   0.00000000  0.00000000  0.00000000
   1.42000000  1.42000000 11.42000000
 


--------------------------------------------------------------------------------------------------------


 k-point  1 :   0.0500 0.0500 0.0000  plane waves:    1045
 k-point  2 :   0.1500 0.0500 0.0000  plane waves:    1041
 k-point  3 :   0.2500 0.0500 0.0000  plane waves:    1027
 k-point  4 :   0.3500 0.0500 0.0000  plane waves:    1028
 k-point  5 :   0.4500 0.0500 0.0000  plane waves:    1034
 k-point  6 :   0.1500 0.1500 0.0000  plane waves:    1027
 k-point  7 :   0.2500 0.1500 0.0000  plane waves:    1020
 k-point  8 :   0.3500 0.1500 0.0000  plane waves:    1026
 k-point  9 :   0.4500 0.1500 0.0000  plane waves:    1035
 k-point 10 :   0.2500 0.2500 0.0000  plane waves:    1027
 k-point 11 :   0.3500 0.2500 0.0000  plane waves:    1030
 k-point 12 :   0.4500 0.2500 0.0000  plane waves:    1034
 k-point 13 :   0.3500 0.3500 0.0000  plane waves:    1042
 k-point 14 :   0.4500 0.3500 0.0000  plane waves:    1037
 k-point 15 :   0.4500 0.4500 0.0000  plane waves:    1032

 maximum and minimum number of plane-waves per node :       269      244

 maximum number of plane-waves:      1045
 maximum index in each direction: 
   IXMAX=    3   IYMAX=    3   IZMAX=   17
   IXMIN=   -4   IYMIN=   -4   IZMIN=  -17


 parallel 3D FFT for wavefunctions:
    minimum data exchange during FFTs selected (reduces bandwidth)
 parallel 3D FFT for charge:
    minimum data exchange during FFTs selected (reduces bandwidth)


 total amount of memory used by VASP MPI-rank0    36733. kBytes
=======================================================================

   base      :      30000. kBytes
   nonl-proj :        593. kBytes
   fftplans  :       1102. kBytes
   grid      :       2115. kBytes
   one-center:         31. kBytes
   wavefun   :       2892. kBytes
 
     INWAV:  cpu time    0.0007: real time    0.0002
 Broyden mixing: mesh for mixing (old mesh)
   NGX =  7   NGY =  7   NGZ = 35
  (NGX  = 24   NGY  = 24   NGZ  =108)
  gives a total of   1715 points

 initial charge density was supplied:
 charge density of overlapping atoms calculated
 number of electron      24.0000000 magnetization       9.0000000
 keeping initial charge density in first step


--------------------------------------------------------------------------------------------------------


 Maximum index for augmentation-charges          633 (set IRDMAX)


--------------------------------------------------------------------------------------------------------


 First call to EWALD:  gamma=   0.377
 Maximum number of real-space cells 4x 4x 1
 Maximum number of reciprocal cells 2x 2x 7

    FEWALD:  cpu time    0.0010: real time    0.0009


--------------------------------------- Iteration      1(   1)  ---------------------------------------


    POTLOK:  cpu time    0.0156: real time    0.0195
    SETDIJ:  cpu time    0.0035: real time    0.0033
     EDDAV:  cpu time    0.1921: real time    0.1986
       DOS:  cpu time    0.0020: real time    0.0020
    --------------------------------------------
      LOOP:  cpu time    0.2133: real time    0.2236

 eigenvalue-minimisations  :  1260
 total energy-change (2. order) : 0.1143446E+03  (-0.6943105E+03)
 number of electron      24.0000000 magnetization       9.0000000
 augmentation part       24.0000000 magnetization       9.0000000

 Free energy of the ion-electron system (eV)
  ---------------------------------------------------
  alpha Z        PSCENC =        60.06277960
  Ewald energy   TEWEN  =      1526.23768055
  -Hartree energ DENC   =     -3316.15930329
  -exchange      EXHF   =         0.00000000
  -V(xc)+E(xc)   XCENC  =        13.06006398
  PAW double counting   =      1661.27780056    -1684.45586133
  entropy T*S    EENTRO =        -0.00226841
  eigenvalues    EBANDS =        71.48113895
  atomic energy  EATOM  =      1782.84253489
  Solvation  Ediel_sol  =         0.00000000
  ---------------------------------------------------
  free energy    TOTEN  =       114.34456552 eV

  energy without entropy =      114.34683393  energy(sigma->0) =      114.34532165


--------------------------------------------------------------------------------------------------------




--------------------------------------- Iteration      1(   2)  ---------------------------------------


     EDDAV:  cpu time    0.1842: real time    0.1856
       DOS:  cpu time    0.0023: real time    0.0023
    --------------------------------------------
      LOOP:  cpu time    0.1865: real time    0.1879

 eigenvalue-minimisations  :  1285
 total energy-change (2. order) :-0.1345641E+03  (-0.1228469E+03)
 number of electron      24.0000000 magnetization       9.0000000
 augmentation part       24.0000000 magnetization       9.0000000

 Free energy of the ion-electron system (eV)
  ---------------------------------------------------
  alpha Z        PSCENC =        60.06277960
  Ewald energy   TEWEN  =      1526.23768055
  -Hartree energ DENC   =     -3316.15930329
  -exchange      EXHF   =         0.00000000
  -V(xc)+E(xc)   XCENC  =        13.06006398
  PAW double counting   =      1661.27780056    -1684.45586133
  entropy T*S    EENTRO =        -0.00132306
  eigenvalues    EBANDS =       -63.08386558
  atomic energy  EATOM  =      1782.84253489
  Solvation  Ediel_sol  =         0.00000000
  ---------------------------------------------------
  free energy    TOTEN  =       -20.21949366 eV

  energy without entropy =      -20.21817060  energy(sigma->0) =      -20.21905264


--------------------------------------------------------------------------------------------------------




--------------------------------------- Iteration      1(   3)  ---------------------------------------


     EDDAV:  cpu time    0.2013: real time    0.2027
       DOS:  cpu time    0.0024: real time    0.0026
    --------------------------------------------
      LOOP:  cpu time    0.2037: real time    0.2053

 eigenvalue-minimisations  :  1430
 total energy-change (2. order) :-0.4573215E+01  (-0.4415279E+01)
 number of electron      24.0000000 magnetization       9.0000000
 augmentation part       24.0000000 magnetization       9.0000000

 Free energy of the ion-electron system (eV)
  ---------------------------------------------------
  alpha Z        PSCENC =        60.06277960
  Ewald energy   TEWEN  =      1526.23768055
  -Hartree energ DENC   =     -3316.15930329
  -exchange      EXHF   =         0.00000000
  -V(xc)+E(xc)   XCENC  =        13.06006398
  PAW double counting   =      1661.27780056    -1684.45586133
  entropy T*S    EENTRO =         0.00518806
  eigenvalues    EBANDS =       -67.66359147
  atomic energy  EATOM  =      1782.84253489
  Solvation  Ediel_sol  =         0.00000000
  ---------------------------------------------------
  free energy    TOTEN  =       -24.79270843 eV

  energy without entropy =      -24.79789649  energy(sigma->0) =      -24.79443778


--------------------------------------------------------------------------------------------------------




--------------------------------------- Iteration      1(   4)  ---------------------------------------


     EDDAV:  cpu time    0.1978: real time    0.1992
       DOS:  cpu time    0.0023: real time    0.0023
    --------------------------------------------
      LOOP:  cpu time    0.2001: real time    0.2015

 eigenvalue-minimisations  :  1403
 total energy-change (2. order) :-0.4983572E-01  (-0.4979199E-01)
 number of electron      24.0000000 magnetization       9.0000000
 augmentation part       24.0000000 magnetization       9.0000000

 Free energy of the ion-electron system (eV)
  ---------------------------------------------------
  alpha Z        PSCENC =        60.06277960
  Ewald energy   TEWEN  =      1526.23768055
  -Hartree energ DENC   =     -3316.15930329
  -exchange      EXHF   =         0.00000000
  -V(xc)+E(xc)   XCENC  =        13.06006398
  PAW double counting   =      1661.27780056    -1684.45586133
  entropy T*S    EENTRO =         0.00514959
  eigenvalues    EBANDS =       -67.71338871
  atomic energy  EATOM  =      1782.84253489
  Solvation  Ediel_sol  =         0.00000000
  ---------------------------------------------------
  free energy    TOTEN  =       -24.84254414 eV

  energy without entropy =      -24.84769373  energy(sigma->0) =      -24.84426067


--------------------------------------------------------------------------------------------------------




--------------------------------------- Iteration      1(   5)  ---------------------------------------


     EDDAV:  cpu time    0.2072: real time    0.2086
       DOS:  cpu time    0.0023: real time    0.0022
    CHARGE:  cpu time    0.0179: real time    0.0179
    MIXING:  cpu time    0.0005: real time    0.0005
    --------------------------------------------
      LOOP:  cpu time    0.2278: real time    0.2292

 eigenvalue-minimisations  :  1526
 total energy-change (2. order) :-0.5607105E-03  (-0.5606180E-03)
 number of electron      23.9999948 magnetization       8.9248604
 augmentation part       11.3136233 magnetization       6.0628968

 Broyden mixing:
  rms(total) = 0.18541E+01    rms(broyden)= 0.18526E+01
  rms(prec ) = 0.21181E+01
  weight for this iteration     100.00

 Free energy of the ion-electron system (eV)
  ---------------------------------------------------
  alpha Z        PSCENC =        60.06277960
  Ewald energy   TEWEN  =      1526.23768055
  -Hartree energ DENC   =     -3316.15930329
  -exchange      EXHF   =         0.00000000
  -V(xc)+E(xc)   XCENC  =        13.06006398
  PAW double counting   =      1661.27780056    -1684.45586133
  entropy T*S    EENTRO =         0.00514857
  eigenvalues    EBANDS =       -67.71394840
  atomic energy  EATOM  =      1782.84253489
  Solvation  Ediel_sol  =         0.00000000
  ---------------------------------------------------
  free energy    TOTEN  =       -24.84310485 eV

  energy without entropy =      -24.84825342  energy(sigma->0) =      -24.84482104


--------------------------------------------------------------------------------------------------------




--------------------------------------- Iteration      1(   6)  ---------------------------------------


    POTLOK:  cpu time    0.0138: real time    0.0140
    SETDIJ:  cpu time    0.0032: real time    0.0032
     EDDAV:  cpu time    0.2159: real time    0.2174
       DOS:  cpu time    0.0024: real time    0.0024
    CHARGE:  cpu time    0.0185: real time    0.0185
    MIXING:  cpu time    0.0007: real time    0.0008
    --------------------------------------------
      LOOP:  cpu time    0.2555: real time    0.2563

 eigenvalue-minimisations  :  1603
 total energy-change (2. order) :-0.1024748E+02  (-0.3307931E+01)
 number of electron      23.9999936 magnetization       8.5429259
 augmentation part       13.2248877 magnetization       8.2162413

 Broyden mixing:
  rms(total) = 0.58050E+01    rms(broyden)= 0.58046E+01
  rms(prec ) = 0.70132E+01
  weight for this iteration     100.00

 eigenvalues of (default mixing * dielectric matrix)
  average eigenvalue GAMMA=   0.1872
  0.1872

 Free energy of the ion-electron system (eV)
  ---------------------------------------------------
  alpha Z        PSCENC =        60.06277960
  Ewald energy   TEWEN  =      1526.23768055
  -Hartree energ DENC   =     -3289.67830935
  -exchange      EXHF   =         0.00000000
  -V(xc)+E(xc)   XCENC  =        12.89647640
  PAW double counting   =      1767.87459855    -1786.64320294
  entropy T*S    EENTRO =        -0.00528109
  eigenvalues    EBANDS =      -108.67786440
  atomic energy  EATOM  =      1782.84253489
  Solvation  Ediel_sol  =         0.00000000
  ---------------------------------------------------
  free energy    TOTEN  =       -35.09058779 eV

  energy without entropy =      -35.08530670  energy(sigma->0) =      -35.08882743


--------------------------------------------------------------------------------------------------------




--------------------------------------- Iteration      1(   7)  ---------------------------------------


    POTLOK:  cpu time    0.0138: real time    0.0140
    SETDIJ:  cpu time    0.0032: real time    0.0032
     EDDAV:  cpu time    0.2176: real time    0.2188
       DOS:  cpu time    0.0024: real time    0.0024
    CHARGE:  cpu time    0.0191: real time    0.0192
    MIXING:  cpu time    0.0006: real time    0.0006
    --------------------------------------------
      LOOP:  cpu time    0.2559: real time    0.2582

 eigenvalue-minimisations  :  1608
 total energy-change (2. order) : 0.1157763E+02  (-0.7785699E+01)
 number of electron      23.9999933 magnetization       8.2161957
 augmentation part       13.0921966 magnetization       5.7660128

 Broyden mixing:
  rms(total) = 0.17980E+01    rms(broyden)= 0.17969E+01
  rms(prec ) = 0.22376E+01
  weight for this iteration     100.00

 eigenvalues of (default mixing * dielectric matrix)
  average eigenvalue GAMMA=   0.4772
  0.8225  0.1319

 Free energy of the ion-electron system (eV)
  ---------------------------------------------------
  alpha Z        PSCENC =        60.06277960
  Ewald energy   TEWEN  =      1526.23768055
  -Hartree energ DENC   =     -3285.59005326
  -exchange      EXHF   =         0.00000000
  -V(xc)+E(xc)   XCENC  =        11.76609332
  PAW double counting   =      1794.40797127    -1814.20498409
  entropy T*S    EENTRO =         0.00169000
  eigenvalues    EBANDS =       -99.03666798
  atomic energy  EATOM  =      1782.84253489
  Solvation  Ediel_sol  =         0.00000000
  ---------------------------------------------------
  free energy    TOTEN  =       -23.51295570 eV

  energy without entropy =      -23.51464570  energy(sigma->0) =      -23.51351904


--------------------------------------------------------------------------------------------------------




--------------------------------------- Iteration      1(   8)  ---------------------------------------


    POTLOK:  cpu time    0.0142: real time    0.0144
    SETDIJ:  cpu time    0.0033: real time    0.0033
     EDDAV:  cpu time    0.2290: real time    0.2306
       DOS:  cpu time    0.0026: real time    0.0025
    CHARGE:  cpu time    0.0178: real time    0.0179
    MIXING:  cpu time    0.0007: real time    0.0006
    --------------------------------------------
      LOOP:  cpu time    0.2676: real time    0.2694

 eigenvalue-minimisations  :  1640
 total energy-change (2. order) : 0.2073724E+01  (-0.4734465E+00)
 number of electron      23.9999944 magnetization       8.1094414
 augmentation part       12.3438729 magnetization       5.7893227

 Broyden mixing:
  rms(total) = 0.65296E+00    rms(broyden)= 0.65186E+00
  rms(prec ) = 0.67862E+00
  weight for this iteration     100.00

 eigenvalues of (default mixing * dielectric matrix)
  average eigenvalue GAMMA=   0.5401
  1.0869  0.1306  0.4027

 Free energy of the ion-electron system (eV)
  ---------------------------------------------------
  alpha Z        PSCENC =        60.06277960
  Ewald energy   TEWEN  =      1526.23768055
  -Hartree energ DENC   =     -3304.90048479
  -exchange      EXHF   =         0.00000000
  -V(xc)+E(xc)   XCENC  =        12.36781448
  PAW double counting   =      1893.71771820    -1918.36043767
  entropy T*S    EENTRO =         0.00581985
  eigenvalues    EBANDS =       -73.41265660
  atomic energy  EATOM  =      1782.84253489
  Solvation  Ediel_sol  =         0.00000000
  ---------------------------------------------------
  free energy    TOTEN  =       -21.43923148 eV

  energy without entropy =      -21.44505133  energy(sigma->0) =      -21.44117143


--------------------------------------------------------------------------------------------------------




--------------------------------------- Iteration      1(   9)  ---------------------------------------


    POTLOK:  cpu time    0.0143: real time    0.0144
    SETDIJ:  cpu time    0.0033: real time    0.0032
     EDDAV:  cpu time    0.1928: real time    0.1942
       DOS:  cpu time    0.0024: real time    0.0024
    CHARGE:  cpu time    0.0176: real time    0.0176
    MIXING:  cpu time    0.0006: real time    0.0007
    --------------------------------------------
      LOOP:  cpu time    0.2319: real time    0.2324

 eigenvalue-minimisations  :  1340
 total energy-change (2. order) :-0.3892191E+00  (-0.1053561E+00)
 number of electron      23.9999946 magnetization       8.0748444
 augmentation part       12.4246037 magnetization       5.8564673

 Broyden mixing:
  rms(total) = 0.38784E+00    rms(broyden)= 0.38767E+00
  rms(prec ) = 0.41992E+00
  weight for this iteration     100.00

 eigenvalues of (default mixing * dielectric matrix)
  average eigenvalue GAMMA=   0.6410
  1.2281  0.1302  0.6029  0.6029

 Free energy of the ion-electron system (eV)
  ---------------------------------------------------
  alpha Z        PSCENC =        60.06277960
  Ewald energy   TEWEN  =      1526.23768055
  -Hartree energ DENC   =     -3304.99554291
  -exchange      EXHF   =         0.00000000
  -V(xc)+E(xc)   XCENC  =        12.50141298
  PAW double counting   =      1932.93647330    -1958.34240651
  entropy T*S    EENTRO =         0.00165427
  eigenvalues    EBANDS =       -73.07303671
  atomic energy  EATOM  =      1782.84253489
  Solvation  Ediel_sol  =         0.00000000
  ---------------------------------------------------
  free energy    TOTEN  =       -21.82845053 eV

  energy without entropy =      -21.83010480  energy(sigma->0) =      -21.82900195


--------------------------------------------------------------------------------------------------------




--------------------------------------- Iteration      1(  10)  ---------------------------------------


    POTLOK:  cpu time    0.0137: real time    0.0139
    SETDIJ:  cpu time    0.0033: real time    0.0032
     EDDAV:  cpu time    0.2183: real time    0.2196
       DOS:  cpu time    0.0026: real time    0.0026
    CHARGE:  cpu time    0.0185: real time    0.0185
    MIXING:  cpu time    0.0007: real time    0.0007
    --------------------------------------------
      LOOP:  cpu time    0.2562: real time    0.2586

 eigenvalue-minimisations  :  1547
 total energy-change (2. order) :-0.2497098E+00  (-0.2664628E-01)
 number of electron      23.9999946 magnetization       8.1324126
 augmentation part       12.5342895 magnetization       6.0610056

 Broyden mixing:
  rms(total) = 0.26948E+00    rms(broyden)= 0.26931E+00
  rms(prec ) = 0.27453E+00
  weight for this iteration     100.00

 eigenvalues of (default mixing * dielectric matrix)
  average eigenvalue GAMMA=   0.7487
  0.1302  1.3531  0.8902  0.8902  0.4801

 Free energy of the ion-electron system (eV)
  ---------------------------------------------------
  alpha Z        PSCENC =        60.06277960
  Ewald energy   TEWEN  =      1526.23768055
  -Hartree energ DENC   =     -3305.88909908
  -exchange      EXHF   =         0.00000000
  -V(xc)+E(xc)   XCENC  =        12.49932136
  PAW double counting   =      1973.42890313    -1999.41923013
  entropy T*S    EENTRO =         0.00060783
  eigenvalues    EBANDS =       -71.84165848
  atomic energy  EATOM  =      1782.84253489
  Solvation  Ediel_sol  =         0.00000000
  ---------------------------------------------------
  free energy    TOTEN  =       -22.07816031 eV

  energy without entropy =      -22.07876814  energy(sigma->0) =      -22.07836292


--------------------------------------------------------------------------------------------------------




--------------------------------------- Iteration      1(  11)  ---------------------------------------


    POTLOK:  cpu time    0.0143: real time    0.0144
    SETDIJ:  cpu time    0.0033: real time    0.0033
     EDDAV:  cpu time    0.2364: real time    0.2378
       DOS:  cpu time    0.0025: real time    0.0025
    CHARGE:  cpu time    0.0191: real time    0.0191
    MIXING:  cpu time    0.0008: real time    0.0008
    --------------------------------------------
      LOOP:  cpu time    0.2765: real time    0.2780

 eigenvalue-minimisations  :  1702
 total energy-change (2. order) :-0.1447220E+00  (-0.1084811E-01)
 number of electron      23.9999946 magnetization       8.2240558
 augmentation part       12.5747023 magnetization       6.2479979

 Broyden mixing:
  rms(total) = 0.13466E+00    rms(broyden)= 0.13445E+00
  rms(prec ) = 0.14326E+00
  weight for this iteration     100.00

 eigenvalues of (default mixing * dielectric matrix)
  average eigenvalue GAMMA=   0.8826
  1.5754  1.5754  0.1302  0.8814  0.5666  0.5666

 Free energy of the ion-electron system (eV)
  ---------------------------------------------------
  alpha Z        PSCENC =        60.06277960
  Ewald energy   TEWEN  =      1526.23768055
  -Hartree energ DENC   =     -3307.36249368
  -exchange      EXHF   =         0.00000000
  -V(xc)+E(xc)   XCENC  =        12.71735024
  PAW double counting   =      1998.52654005    -2025.00870702
  entropy T*S    EENTRO =         0.00090865
  eigenvalues    EBANDS =       -70.23947559
  atomic energy  EATOM  =      1782.84253489
  Solvation  Ediel_sol  =         0.00000000
  ---------------------------------------------------
  free energy    TOTEN  =       -22.22288229 eV

  energy without entropy =      -22.22379094  energy(sigma->0) =      -22.22318517


--------------------------------------------------------------------------------------------------------




--------------------------------------- Iteration      1(  12)  ---------------------------------------


    POTLOK:  cpu time    0.0143: real time    0.0144
    SETDIJ:  cpu time    0.0034: real time    0.0035
     EDDAV:  cpu time    0.2195: real time    0.2208
       DOS:  cpu time    0.0026: real time    0.0026
    CHARGE:  cpu time    0.0186: real time    0.0186
    MIXING:  cpu time    0.0008: real time    0.0008
    --------------------------------------------
      LOOP:  cpu time    0.2591: real time    0.2606

 eigenvalue-minimisations  :  1546
 total energy-change (2. order) : 0.4631538E-02  (-0.2945493E-02)
 number of electron      23.9999946 magnetization       8.3018060
 augmentation part       12.5666167 magnetization       6.3416448

 Broyden mixing:
  rms(total) = 0.73891E-01    rms(broyden)= 0.73856E-01
  rms(prec ) = 0.80875E-01
  weight for this iteration     100.00

 eigenvalues of (default mixing * dielectric matrix)
  average eigenvalue GAMMA=   1.0344
  1.8416  1.7130  1.7130  0.1302  0.6269  0.6269  0.5894

 Free energy of the ion-electron system (eV)
  ---------------------------------------------------
  alpha Z        PSCENC =        60.06277960
  Ewald energy   TEWEN  =      1526.23768055
  -Hartree energ DENC   =     -3308.53068690
  -exchange      EXHF   =         0.00000000
  -V(xc)+E(xc)   XCENC  =        12.82648822
  PAW double counting   =      2005.47816884    -2032.15791523
  entropy T*S    EENTRO =         0.00132688
  eigenvalues    EBANDS =       -68.97862761
  atomic energy  EATOM  =      1782.84253489
  Solvation  Ediel_sol  =         0.00000000
  ---------------------------------------------------
  free energy    TOTEN  =       -22.21825075 eV

  energy without entropy =      -22.21957763  energy(sigma->0) =      -22.21869304


--------------------------------------------------------------------------------------------------------




--------------------------------------- Iteration      1(  13)  ---------------------------------------


    POTLOK:  cpu time    0.0142: real time    0.0144
    SETDIJ:  cpu time    0.0033: real time    0.0033
     EDDAV:  cpu time    0.2011: real time    0.2024
       DOS:  cpu time    0.0026: real time    0.0026
    CHARGE:  cpu time    0.0193: real time    0.0193
    MIXING:  cpu time    0.0009: real time    0.0009
    --------------------------------------------
      LOOP:  cpu time    0.2414: real time    0.2429

 eigenvalue-minimisations  :  1377
 total energy-change (2. order) :-0.6008228E-02  (-0.7979758E-03)
 number of electron      23.9999946 magnetization       8.3214028
 augmentation part       12.5605129 magnetization       6.3492383

 Broyden mixing:
  rms(total) = 0.61251E-01    rms(broyden)= 0.61222E-01
  rms(prec ) = 0.77696E-01
  weight for this iteration     100.00

 eigenvalues of (default mixing * dielectric matrix)
  average eigenvalue GAMMA=   1.0042
  2.0075  1.7245  1.7245  0.1302  0.6672  0.6672  0.5564  0.5564

 Free energy of the ion-electron system (eV)
  ---------------------------------------------------
  alpha Z        PSCENC =        60.06277960
  Ewald energy   TEWEN  =      1526.23768055
  -Hartree energ DENC   =     -3310.05567738
  -exchange      EXHF   =         0.00000000
  -V(xc)+E(xc)   XCENC  =        12.83237662
  PAW double counting   =      2015.78611240    -2042.64363859
  entropy T*S    EENTRO =         0.00173287
  eigenvalues    EBANDS =       -67.28815994
  atomic energy  EATOM  =      1782.84253489
  Solvation  Ediel_sol  =         0.00000000
  ---------------------------------------------------
  free energy    TOTEN  =       -22.22425898 eV

  energy without entropy =      -22.22599185  energy(sigma->0) =      -22.22483660


--------------------------------------------------------------------------------------------------------




--------------------------------------- Iteration      1(  14)  ---------------------------------------


    POTLOK:  cpu time    0.0142: real time    0.0144
    SETDIJ:  cpu time    0.0033: real time    0.0033
     EDDAV:  cpu time    0.2050: real time    0.2065
       DOS:  cpu time    0.0025: real time    0.0025
    CHARGE:  cpu time    0.0186: real time    0.0186
    MIXING:  cpu time    0.0009: real time    0.0009
    --------------------------------------------
      LOOP:  cpu time    0.2445: real time    0.2462

 eigenvalue-minimisations  :  1406
 total energy-change (2. order) :-0.6348835E-02  (-0.3538006E-03)
 number of electron      23.9999946 magnetization       8.3785808
 augmentation part       12.5705530 magnetization       6.4067762

 Broyden mixing:
  rms(total) = 0.32473E-01    rms(broyden)= 0.32440E-01
  rms(prec ) = 0.37637E-01
  weight for this iteration     100.00

 eigenvalues of (default mixing * dielectric matrix)
  average eigenvalue GAMMA=   1.0500
  2.4550  1.7869  1.2308  1.2308  0.1302  0.8198  0.6232  0.6232  0.5497

 Free energy of the ion-electron system (eV)
  ---------------------------------------------------
  alpha Z        PSCENC =        60.06277960
  Ewald energy   TEWEN  =      1526.23768055
  -Hartree energ DENC   =     -3310.61461164
  -exchange      EXHF   =         0.00000000
  -V(xc)+E(xc)   XCENC  =        12.82826203
  PAW double counting   =      2019.04998831    -2045.91232573
  entropy T*S    EENTRO =         0.00170099
  eigenvalues    EBANDS =       -66.72661684
  atomic energy  EATOM  =      1782.84253489
  Solvation  Ediel_sol  =         0.00000000
  ---------------------------------------------------
  free energy    TOTEN  =       -22.23060781 eV

  energy without entropy =      -22.23230881  energy(sigma->0) =      -22.23117481


--------------------------------------------------------------------------------------------------------




--------------------------------------- Iteration      1(  15)  ---------------------------------------


    POTLOK:  cpu time    0.0143: real time    0.0144
    SETDIJ:  cpu time    0.0033: real time    0.0033
     EDDAV:  cpu time    0.2194: real time    0.2207
       DOS:  cpu time    0.0026: real time    0.0026
    CHARGE:  cpu time    0.0188: real time    0.0189
    MIXING:  cpu time    0.0010: real time    0.0010
    --------------------------------------------
      LOOP:  cpu time    0.2594: real time    0.2608

 eigenvalue-minimisations  :  1548
 total energy-change (2. order) :-0.2457001E-02  (-0.2111500E-03)
 number of electron      23.9999946 magnetization       8.4049853
 augmentation part       12.5778292 magnetization       6.4385930

 Broyden mixing:
  rms(total) = 0.11125E-01    rms(broyden)= 0.11022E-01
  rms(prec ) = 0.15395E-01
  weight for this iteration     100.00

 eigenvalues of (default mixing * dielectric matrix)
  average eigenvalue GAMMA=   1.1057
  2.4533  2.4533  1.3152  1.3152  0.1302  0.7360  0.7360  0.7283  0.5946  0.5946

 Free energy of the ion-electron system (eV)
  ---------------------------------------------------
  alpha Z        PSCENC =        60.06277960
  Ewald energy   TEWEN  =      1526.23768055
  -Hartree energ DENC   =     -3311.90378930
  -exchange      EXHF   =         0.00000000
  -V(xc)+E(xc)   XCENC  =        12.88706760
  PAW double counting   =      2021.64744642    -2048.51237985
  entropy T*S    EENTRO =         0.00169357
  eigenvalues    EBANDS =       -65.49609831
  atomic energy  EATOM  =      1782.84253489
  Solvation  Ediel_sol  =         0.00000000
  ---------------------------------------------------
  free energy    TOTEN  =       -22.23306481 eV

  energy without entropy =      -22.23475839  energy(sigma->0) =      -22.23362934


--------------------------------------------------------------------------------------------------------




--------------------------------------- Iteration      1(  16)  ---------------------------------------


    POTLOK:  cpu time    0.0143: real time    0.0147
    SETDIJ:  cpu time    0.0033: real time    0.0033
     EDDAV:  cpu time    0.1887: real time    0.1900
       DOS:  cpu time    0.0024: real time    0.0025
    CHARGE:  cpu time    0.0180: real time    0.0181
    MIXING:  cpu time    0.0012: real time    0.0012
    --------------------------------------------
      LOOP:  cpu time    0.2281: real time    0.2297

 eigenvalue-minimisations  :  1290
 total energy-change (2. order) :-0.1027076E-02  (-0.9736034E-04)
 number of electron      23.9999946 magnetization       8.4143315
 augmentation part       12.5774607 magnetization       6.4433683

 Broyden mixing:
  rms(total) = 0.90797E-02    rms(broyden)= 0.90737E-02
  rms(prec ) = 0.11304E-01
  weight for this iteration     100.00

 eigenvalues of (default mixing * dielectric matrix)
  average eigenvalue GAMMA=   1.1722
  2.8634  2.8634  1.3921  1.3921  0.1302  1.0002  0.7302  0.7302  0.6163  0.6163
  0.5600

 Free energy of the ion-electron system (eV)
  ---------------------------------------------------
  alpha Z        PSCENC =        60.06277960
  Ewald energy   TEWEN  =      1526.23768055
  -Hartree energ DENC   =     -3312.94453017
  -exchange      EXHF   =         0.00000000
  -V(xc)+E(xc)   XCENC  =        12.90545541
  PAW double counting   =      2019.60495198    -2046.42269149
  entropy T*S    EENTRO =         0.00176354
  eigenvalues    EBANDS =       -64.52203621
  atomic energy  EATOM  =      1782.84253489
  Solvation  Ediel_sol  =         0.00000000
  ---------------------------------------------------
  free energy    TOTEN  =       -22.23409189 eV

  energy without entropy =      -22.23585543  energy(sigma->0) =      -22.23467974


--------------------------------------------------------------------------------------------------------




--------------------------------------- Iteration      1(  17)  ---------------------------------------


    POTLOK:  cpu time    0.0142: real time    0.0143
    SETDIJ:  cpu time    0.0032: real time    0.0033
     EDDAV:  cpu time    0.1789: real time    0.1800
       DOS:  cpu time    0.0025: real time    0.0025
    CHARGE:  cpu time    0.0183: real time    0.0183
    MIXING:  cpu time    0.0012: real time    0.0012
    --------------------------------------------
      LOOP:  cpu time    0.2182: real time    0.2196

 eigenvalue-minimisations  :  1171
 total energy-change (2. order) :-0.5022110E-03  (-0.2416620E-04)
 number of electron      23.9999946 magnetization       8.4199530
 augmentation part       12.5760621 magnetization       6.4452137

 Broyden mixing:
  rms(total) = 0.43582E-02    rms(broyden)= 0.43535E-02
  rms(prec ) = 0.63501E-02
  weight for this iteration     100.00

 eigenvalues of (default mixing * dielectric matrix)
  average eigenvalue GAMMA=   1.2152
  3.1669  3.1669  1.4675  1.4675  0.1302  1.0953  0.8115  0.8115  0.6450  0.6450
  0.5878  0.5878

 Free energy of the ion-electron system (eV)
  ---------------------------------------------------
  alpha Z        PSCENC =        60.06277960
  Ewald energy   TEWEN  =      1526.23768055
  -Hartree energ DENC   =     -3313.58244849
  -exchange      EXHF   =         0.00000000
  -V(xc)+E(xc)   XCENC  =        12.90542978
  PAW double counting   =      2017.81396073    -2044.60362612
  entropy T*S    EENTRO =         0.00176857
  eigenvalues    EBANDS =       -63.91267363
  atomic energy  EATOM  =      1782.84253489
  Solvation  Ediel_sol  =         0.00000000
  ---------------------------------------------------
  free energy    TOTEN  =       -22.23459410 eV

  energy without entropy =      -22.23636268  energy(sigma->0) =      -22.23518363


--------------------------------------------------------------------------------------------------------




--------------------------------------- Iteration      1(  18)  ---------------------------------------


    POTLOK:  cpu time    0.0142: real time    0.0143
    SETDIJ:  cpu time    0.0033: real time    0.0033
     EDDAV:  cpu time    0.1661: real time    0.1673
       DOS:  cpu time    0.0025: real time    0.0025
    CHARGE:  cpu time    0.0182: real time    0.0183
    MIXING:  cpu time    0.0012: real time    0.0012
    --------------------------------------------
      LOOP:  cpu time    0.2057: real time    0.2070

 eigenvalue-minimisations  :  1028
 total energy-change (2. order) :-0.2551518E-03  (-0.1014885E-04)
 number of electron      23.9999946 magnetization       8.4144630
 augmentation part       12.5749523 magnetization       6.4401132

 Broyden mixing:
  rms(total) = 0.51495E-02    rms(broyden)= 0.51483E-02
  rms(prec ) = 0.58627E-02
  weight for this iteration     100.00

 eigenvalues of (default mixing * dielectric matrix)
  average eigenvalue GAMMA=   1.2407
  3.6048  2.8818  1.6171  1.4261  1.4261  0.1302  1.0140  0.7616  0.7616  0.6480
  0.6480  0.6048  0.6048

 Free energy of the ion-electron system (eV)
  ---------------------------------------------------
  alpha Z        PSCENC =        60.06277960
  Ewald energy   TEWEN  =      1526.23768055
  -Hartree energ DENC   =     -3314.01611202
  -exchange      EXHF   =         0.00000000
  -V(xc)+E(xc)   XCENC  =        12.91020371
  PAW double counting   =      2017.89147422    -2044.69639792
  entropy T*S    EENTRO =         0.00177623
  eigenvalues    EBANDS =       -63.46878852
  atomic energy  EATOM  =      1782.84253489
  Solvation  Ediel_sol  =         0.00000000
  ---------------------------------------------------
  free energy    TOTEN  =       -22.23484925 eV

  energy without entropy =      -22.23662548  energy(sigma->0) =      -22.23544133


--------------------------------------------------------------------------------------------------------




--------------------------------------- Iteration      1(  19)  ---------------------------------------


    POTLOK:  cpu time    0.0142: real time    0.0144
    SETDIJ:  cpu time    0.0033: real time    0.0033
     EDDAV:  cpu time    0.1612: real time    0.1625
       DOS:  cpu time    0.0024: real time    0.0024
    CHARGE:  cpu time    0.0176: real time    0.0176
    MIXING:  cpu time    0.0012: real time    0.0013
    --------------------------------------------
      LOOP:  cpu time    0.2000: real time    0.2015

 eigenvalue-minimisations  :   991
 total energy-change (2. order) :-0.1450829E-03  (-0.8833294E-05)
 number of electron      23.9999946 magnetization       8.4092930
 augmentation part       12.5751089 magnetization       6.4356788

 Broyden mixing:
  rms(total) = 0.26854E-02    rms(broyden)= 0.26839E-02
  rms(prec ) = 0.32137E-02
  weight for this iteration     100.00

 eigenvalues of (default mixing * dielectric matrix)
  average eigenvalue GAMMA=   1.3315
  4.3605  2.6783  2.6783  1.4380  1.4380  0.1302  0.9994  0.9994  0.7164  0.7164
  0.5918  0.6127  0.6127  0.6684

 Free energy of the ion-electron system (eV)
  ---------------------------------------------------
  alpha Z        PSCENC =        60.06277960
  Ewald energy   TEWEN  =      1526.23768055
  -Hartree energ DENC   =     -3314.16749770
  -exchange      EXHF   =         0.00000000
  -V(xc)+E(xc)   XCENC  =        12.90538143
  PAW double counting   =      2018.05947099    -2044.87939143
  entropy T*S    EENTRO =         0.00183164
  eigenvalues    EBANDS =       -63.29778431
  atomic energy  EATOM  =      1782.84253489
  Solvation  Ediel_sol  =         0.00000000
  ---------------------------------------------------
  free energy    TOTEN  =       -22.23499434 eV

  energy without entropy =      -22.23682598  energy(sigma->0) =      -22.23560488


--------------------------------------------------------------------------------------------------------




--------------------------------------- Iteration      1(  20)  ---------------------------------------


    POTLOK:  cpu time    0.0138: real time    0.0139
    SETDIJ:  cpu time    0.0033: real time    0.0033
     EDDAV:  cpu time    0.1531: real time    0.1549
       DOS:  cpu time    0.0025: real time    0.0024
    --------------------------------------------
      LOOP:  cpu time    0.1726: real time    0.1745

 eigenvalue-minimisations  :   894
 total energy-change (2. order) :-0.6825295E-04  (-0.3617281E-05)
 number of electron      23.9999946 magnetization       8.4092930
 augmentation part       12.5751089 magnetization       6.4356788

 Free energy of the ion-electron system (eV)
  ---------------------------------------------------
  alpha Z        PSCENC =        60.06277960
  Ewald energy   TEWEN  =      1526.23768055
  -Hartree energ DENC   =     -3314.31297237
  -exchange      EXHF   =         0.00000000
  -V(xc)+E(xc)   XCENC  =        12.90348244
  PAW double counting   =      2017.64395024    -2044.46665232
  entropy T*S    EENTRO =         0.00185516
  eigenvalues    EBANDS =       -63.14772079
  atomic energy  EATOM  =      1782.84253489
  Solvation  Ediel_sol  =         0.00000000
  ---------------------------------------------------
  free energy    TOTEN  =       -22.23506259 eV

  energy without entropy =      -22.23691775  energy(sigma->0) =      -22.23568098


--------------------------------------------------------------------------------------------------------




 average (electrostatic) potential at core
  the test charge radii are     1.0103
  (the norm of the test charge is              1.0000)
       1 -49.8117       2 -49.3944       3 -49.8117
 
 
 
 E-fermi :  -0.2778     XC(G=0):  -6.0265     alpha+bet : -4.4902


 spin component 1

 k-point     1 :       0.0500    0.0500    0.0000
  band No.  band energies     occupation 
      1      -7.5435      1.00000
      2      -5.0413      1.00000
      3      -4.7747      1.00000
      4      -4.7547      1.00000
      5      -3.6368      1.00000
      6      -2.8945      1.00000
      7      -2.8916      1.00000
      8      -2.8704      1.00000
      9      -2.6876      1.00000
     10      -2.5457      1.00000
     11      -2.4537      1.00000
     12      -2.1070      1.00000
     13      -2.0886      1.00000
     14      -2.0636      1.00000
     15      -1.2183      1.00000
     16      -1.2071      1.00000
     17      -0.9283      1.00002
     18      -0.0797     -0.02413
     19       2.7012     -0.00000
     20       3.1851     -0.00000
     21       6.2531      0.00000

 k-point     2 :       0.1500    0.0500    0.0000
  band No.  band energies     occupation 
      1      -7.1633      1.00000
      2      -4.8183      1.00000
      3      -4.6953      1.00000
      4      -4.5406      1.00000
      5      -3.5723      1.00000
      6      -3.1564      1.00000
      7      -2.9503      1.00000
      8      -2.9162      1.00000
      9      -2.8882      1.00000
     10      -2.4375      1.00000
     11      -2.3631      1.00000
     12      -2.1757      1.00000
     13      -1.9919      1.00000
     14      -1.9142      1.00000
     15      -1.3820      1.00000
     16      -1.0312      1.00000
     17      -0.9891      1.00000
     18       0.2507     -0.00060
     19       3.0978     -0.00000
     20       3.5558     -0.00000
     21       6.6733      0.00000

 k-point     3 :       0.2500    0.0500    0.0000
  band No.  band energies     occupation 
      1      -6.4731      1.00000
      2      -4.6252      1.00000
      3      -4.5927      1.00000
      4      -4.1750      1.00000
      5      -3.3830      1.00000
      6      -3.2174      1.00000
      7      -3.1051      1.00000
      8      -3.0812      1.00000
      9      -2.9140      1.00000
     10      -2.4442      1.00000
     11      -2.3729      1.00000
     12      -2.0545      1.00000
     13      -1.8969      1.00000
     14      -1.7860      1.00000
     15      -1.4689      1.00000
     16      -1.0259      1.00000
     17      -0.8337      1.00030
     18       0.8980     -0.00000
     19       3.7645     -0.00000
     20       4.2711     -0.00000
     21       5.3470      0.00000

 k-point     4 :       0.3500    0.0500    0.0000
  band No.  band energies     occupation 
      1      -5.6861      1.00000
      2      -4.5986      1.00000
      3      -4.4947      1.00000
      4      -3.8156      1.00000
      5      -3.5062      1.00000
      6      -3.3220      1.00000
      7      -3.0781      1.00000
      8      -2.9922      1.00000
      9      -2.5577      1.00000
     10      -2.5190      1.00000
     11      -2.3463      1.00000
     12      -1.9951      1.00000
     13      -1.9451      1.00000
     14      -1.4806      1.00000
     15      -1.1978      1.00000
     16      -0.9990      1.00000
     17      -0.5966      1.02335
     18       1.6753     -0.00000
     19       2.9668     -0.00000
     20       4.0484     -0.00000
     21       5.3617      0.00000

 k-point     5 :       0.4500    0.0500    0.0000
  band No.  band energies     occupation 
      1      -5.2281      1.00000
      2      -4.6179      1.00000
      3      -4.3450      1.00000
      4      -3.6661      1.00000
      5      -3.4722      1.00000
      6      -3.4451      1.00000
      7      -3.0632      1.00000
      8      -2.9995      1.00000
      9      -2.4647      1.00000
     10      -2.3405      1.00000
     11      -2.2999      1.00000
     12      -2.0855      1.00000
     13      -1.7545      1.00000
     14      -1.1083      1.00000
     15      -0.9221      1.00003
     16      -0.7117      1.00446
     17       0.1112     -0.00951
     18       0.6140     -0.00000
     19       2.6973     -0.00000
     20       2.8864     -0.00000
     21       6.2342      0.00000

 k-point     6 :       0.1500    0.1500    0.0000
  band No.  band energies     occupation 
      1      -6.7932      1.00000
      2      -4.5362      1.00000
      3      -4.5159      1.00000
      4      -4.4253      1.00000
      5      -3.6317      1.00000
      6      -3.4398      1.00000
      7      -2.9118      1.00000
      8      -2.9108      1.00000
      9      -2.8699      1.00000
     10      -2.6149      1.00000
     11      -2.4914      1.00000
     12      -2.0989      1.00000
     13      -1.9369      1.00000
     14      -1.8462      1.00000
     15      -1.1531      1.00000
     16      -1.1019      1.00000
     17      -1.0420      1.00000
     18       0.6786     -0.00000
     19       3.4994     -0.00000
     20       3.9308     -0.00000
     21       7.0995      0.00000

 k-point     7 :       0.2500    0.1500    0.0000
  band No.  band energies     occupation 
      1      -6.1298      1.00000
      2      -4.3769      1.00000
      3      -4.2947      1.00000
      4      -4.1185      1.00000
      5      -3.6629      1.00000
      6      -3.4555      1.00000
      7      -3.0913      1.00000
      8      -2.9540      1.00000
      9      -2.8731      1.00000
     10      -2.6581      1.00000
     11      -2.5215      1.00000
     12      -2.0864      1.00000
     13      -1.8806      1.00000
     14      -1.7289      1.00000
     15      -1.1841      1.00000
     16      -1.1819      1.00000
     17      -0.6129      1.01963
     18       1.4114     -0.00000
     19       4.1970     -0.00000
     20       4.6589     -0.00000
     21       5.7035      0.00000

 k-point     8 :       0.3500    0.1500    0.0000
  band No.  band energies     occupation 
      1      -5.3934      1.00000
      2      -4.3214      1.00000
      3      -4.3019      1.00000
      4      -3.8988      1.00000
      5      -3.6591      1.00000
      6      -3.5035      1.00000
      7      -3.0398      1.00000
      8      -2.9399      1.00000
      9      -2.6846      1.00000
     10      -2.5377      1.00000
     11      -2.4219      1.00000
     12      -2.0599      1.00000
     13      -1.8412      1.00000
     14      -1.6230      1.00000
     15      -1.2259      1.00000
     16      -1.0697      1.00000
     17       0.0586     -0.01934
     18       2.2925     -0.00000
     19       3.2820     -0.00000
     20       4.5843     -0.00000
     21       5.7439      0.00000

 k-point     9 :       0.4500    0.1500    0.0000
  band No.  band energies     occupation 
      1      -4.9717      1.00000
      2      -4.3743      1.00000
      3      -4.2651      1.00000
      4      -3.7544      1.00000
      5      -3.6496      1.00000
      6      -3.5330      1.00000
      7      -3.2070      1.00000
      8      -2.9754      1.00000
      9      -2.5673      1.00000
     10      -2.2953      1.00000
     11      -2.1229      1.00000
     12      -1.8775      1.00000
     13      -1.7358      1.00000
     14      -1.5132      1.00000
     15      -1.3852      1.00000
     16      -0.4510      1.00511
     17       1.0134     -0.00000
     18       1.0835     -0.00000
     19       3.1144     -0.00000
     20       3.4229     -0.00000
     21       6.5748      0.00000

 k-point    10 :       0.2500    0.2500    0.0000
  band No.  band energies     occupation 
      1      -5.5421      1.00000
      2      -4.0885      1.00000
      3      -4.0335      1.00000
      4      -3.8972      1.00000
      5      -3.7964      1.00000
      6      -3.6953      1.00000
      7      -3.2908      1.00000
      8      -2.8854      1.00000
      9      -2.7908      1.00000
     10      -2.7500      1.00000
     11      -2.5481      1.00000
     12      -2.1467      1.00000
     13      -1.8232      1.00000
     14      -1.6008      1.00000
     15      -1.3094      1.00000
     16      -1.1107      1.00000
     17       0.0116     -0.02994
     18       2.2442     -0.00000
     19       4.9684     -0.00000
     20       5.4137      0.00000
     21       5.6346      0.00000

 k-point    11 :       0.3500    0.2500    0.0000
  band No.  band energies     occupation 
      1      -4.9517      1.00000
      2      -4.1922      1.00000
      3      -3.9554      1.00000
      4      -3.9380      1.00000
      5      -3.7712      1.00000
      6      -3.7069      1.00000
      7      -3.1653      1.00000
      8      -2.8618      1.00000
      9      -2.7288      1.00000
     10      -2.5501      1.00000
     11      -2.2932      1.00000
     12      -2.1429      1.00000
     13      -1.6754      1.00000
     14      -1.5974      1.00000
     15      -1.1652      1.00000
     16      -1.0994      1.00000
     17       0.9158     -0.00000
     18       3.2607     -0.00000
     19       3.7194     -0.00000
     20       5.5597      0.00000
     21       6.5003      0.00000

 k-point    12 :       0.4500    0.2500    0.0000
  band No.  band energies     occupation 
      1      -4.6039      1.00000
      2      -4.3790      1.00000
      3      -4.0495      1.00000
      4      -3.9186      1.00000
      5      -3.8426      1.00000
      6      -3.5988      1.00000
      7      -3.1362      1.00000
      8      -2.8854      1.00000
      9      -2.6753      1.00000
     10      -2.2549      1.00000
     11      -1.9284      1.00000
     12      -1.9178      1.00000
     13      -1.7183      1.00000
     14      -1.5907      1.00000
     15      -1.3320      1.00000
     16      -0.1415      0.04677
     17       1.5495     -0.00000
     18       2.1554     -0.00000
     19       3.9186     -0.00000
     20       4.4033     -0.00000
     21       7.2473      0.00000

 k-point    13 :       0.3500    0.3500    0.0000
  band No.  band energies     occupation 
      1      -4.6808      1.00000
      2      -4.2798      1.00000
      3      -3.9118      1.00000
      4      -3.8752      1.00000
      5      -3.8376      1.00000
      6      -3.7860      1.00000
      7      -3.3542      1.00000
      8      -2.5364      1.00000
      9      -2.4457      1.00000
     10      -2.4355      1.00000
     11      -2.2102      1.00000
     12      -2.1026      1.00000
     13      -1.4899      1.00000
     14      -1.4239      1.00000
     15      -1.1865      1.00000
     16      -0.8033      1.00064
     17       1.9728     -0.00000
     18       3.4780     -0.00000
     19       4.4523     -0.00000
     20       6.8350      0.00000
     21       6.8817      0.00000

 k-point    14 :       0.4500    0.3500    0.0000
  band No.  band energies     occupation 
      1      -4.6382      1.00000
      2      -4.3844      1.00000
      3      -3.9624      1.00000
      4      -3.9284      1.00000
      5      -3.9208      1.00000
      6      -3.6408      1.00000
      7      -3.4666      1.00000
      8      -2.4460      1.00000
      9      -2.2948      1.00000
     10      -2.1872      1.00000
     11      -1.9370      1.00000
     12      -1.9029      1.00000
     13      -1.4912      1.00000
     14      -1.4063      1.00000
     15      -1.3259      1.00000
     16       0.3587     -0.00003
     17       2.0038     -0.00000
     18       3.3236     -0.00000
     19       5.0352     -0.00000
     20       5.6779      0.00000
     21       7.7217      0.00000

 k-point    15 :       0.4500    0.4500    0.0000
  band No.  band energies     occupation 
      1      -4.7399      1.00000
      2      -4.5011      1.00000
      3      -3.9829      1.00000
      4      -3.9448      1.00000
      5      -3.7288      1.00000
      6      -3.7176      1.00000
      7      -3.7032      1.00000
      8      -2.2577      1.00000
      9      -2.0288      1.00000
     10      -1.9429      1.00000
     11      -1.8208      1.00000
     12      -1.7507      1.00000
     13      -1.4572      1.00000
     14      -1.3452      1.00000
     15      -1.2838      1.00000
     16       1.1606     -0.00000
     17       1.9364     -0.00000
     18       4.6808     -0.00000
     19       5.9273      0.00000
     20       6.5980      0.00000
     21       7.1618      0.00000

 spin component 2

 k-point     1 :       0.0500    0.0500    0.0000
  band No.  band energies     occupation 
      1      -7.2704      1.00000
      2      -4.2926      1.00000
      3      -2.9250      1.00000
      4      -2.6874      1.00000
      5      -1.1759      1.00000
      6      -0.4981      1.03272
      7      -0.4684      1.01956
      8      -0.3884      0.89782
      9      -0.0879     -0.01903
     10       0.0046     -0.03132
     11       0.0565     -0.01980
     12       0.3723     -0.00002
     13       0.7024     -0.00000
     14       0.7840     -0.00000
     15       1.3978     -0.00000
     16       1.4126     -0.00000
     17       1.7582     -0.00000
     18       1.7932     -0.00000
     19       3.4776     -0.00000
     20       3.5479     -0.00000
     21       6.6804      0.00000

 k-point     2 :       0.1500    0.0500    0.0000
  band No.  band energies     occupation 
      1      -6.8822      1.00000
      2      -3.9901      1.00000
      3      -2.7397      1.00000
      4      -2.5686      1.00000
      5      -1.2642      1.00000
      6      -0.7357      1.00281
      7      -0.5914      1.02453
      8      -0.3674      0.84019
      9      -0.3119      0.64201
     10       0.0916     -0.01270
     11       0.2533     -0.00056
     12       0.6230     -0.00000
     13       0.6590     -0.00000
     14       0.9001     -0.00000
     15       1.1581     -0.00000
     16       1.6154     -0.00000
     17       1.6772     -0.00000
     18       1.8710     -0.00000
     19       3.8500     -0.00000
     20       3.9054     -0.00000
     21       7.1573      0.00000

 k-point     3 :       0.2500    0.0500    0.0000
  band No.  band energies     occupation 
      1      -6.1483      1.00000
      2      -3.5184      1.00000
      3      -2.6520      1.00000
      4      -2.2137      1.00000
      5      -1.1883      1.00000
      6      -1.0230      1.00000
      7      -0.7963      1.00076
      8      -0.5940      1.02393
      9      -0.2610      0.42928
     10       0.2809     -0.00028
     11       0.2896     -0.00023
     12       0.6842     -0.00000
     13       0.9206     -0.00000
     14       0.9267     -0.00000
     15       0.9756     -0.00000
     16       1.6555     -0.00000
     17       1.7994     -0.00000
     18       2.2202     -0.00000
     19       4.4992     -0.00000
     20       4.5606     -0.00000
     21       6.4777      0.00000

 k-point     4 :       0.3500    0.0500    0.0000
  band No.  band energies     occupation 
      1      -5.1728      1.00000
      2      -3.1515      1.00000
      3      -2.7940      1.00000
      4      -1.7494      1.00000
      5      -1.2318      1.00000
      6      -1.0339      1.00000
      7      -0.6908      1.00644
      8      -0.6500      1.01220
      9      -0.3504      0.78599
     10       0.1588     -0.00424
     11       0.4684     -0.00000
     12       0.7902     -0.00000
     13       0.7907     -0.00000
     14       0.9122     -0.00000
     15       1.3182     -0.00000
     16       1.7397     -0.00000
     17       1.9225     -0.00000
     18       2.8129     -0.00000
     19       4.4072     -0.00000
     20       4.9523     -0.00000
     21       5.6699      0.00000

 k-point     5 :       0.4500    0.0500    0.0000
  band No.  band energies     occupation 
      1      -4.1874      1.00000
      2      -3.1940      1.00000
      3      -3.0152      1.00000
      4      -1.3867      1.00000
      5      -1.2922      1.00000
      6      -1.1645      1.00000
      7      -0.7610      1.00167
      8      -0.4881      1.02967
      9       0.0975     -0.01167
     10       0.1112     -0.00951
     11       0.5496     -0.00000
     12       0.6431     -0.00000
     13       0.8004     -0.00000
     14       1.0093     -0.00000
     15       1.6080     -0.00000
     16       1.9282     -0.00000
     17       2.0489     -0.00000
     18       2.5436     -0.00000
     19       4.0323     -0.00000
     20       4.1311     -0.00000
     21       6.6521      0.00000

 k-point     6 :       0.1500    0.1500    0.0000
  band No.  band energies     occupation 
      1      -6.5027      1.00000
      2      -3.6732      1.00000
      3      -2.5072      1.00000
      4      -2.4856      1.00000
      5      -1.4065      1.00000
      6      -1.1047      1.00000
      7      -0.5992      1.02275
      8      -0.2817      0.51646
      9      -0.1559      0.07579
     10      -0.0200     -0.03488
     11       0.0483     -0.02166
     12       0.6831     -0.00000
     13       0.6975     -0.00000
     14       1.0276     -0.00000
     15       1.4200     -0.00000
     16       1.4758     -0.00000
     17       1.5537     -0.00000
     18       2.1942     -0.00000
     19       4.2361     -0.00000
     20       4.2756     -0.00000
     21       7.6256      0.00000

 k-point     7 :       0.2500    0.1500    0.0000
  band No.  band energies     occupation 
      1      -5.7892      1.00000
      2      -3.1804      1.00000
      3      -2.4225      1.00000
      4      -2.1377      1.00000
      5      -1.4337      1.00000
      6      -1.4009      1.00000
      7      -0.8871      1.00007
      8      -0.3038      0.60899
      9      -0.1934      0.17571
     10       0.0277     -0.02642
     11       0.0773     -0.01540
     12       0.7769     -0.00000
     13       0.7843     -0.00000
     14       1.1251     -0.00000
     15       1.3484     -0.00000
     16       1.4955     -0.00000
     17       1.7679     -0.00000
     18       2.7655     -0.00000
     19       4.9149     -0.00000
     20       4.9661     -0.00000
     21       6.8513      0.00000

 k-point     8 :       0.3500    0.1500    0.0000
  band No.  band energies     occupation 
      1      -4.8498      1.00000
      2      -2.8372      1.00000
      3      -2.5693      1.00000
      4      -1.8281      1.00000
      5      -1.4984      1.00000
      6      -1.2889      1.00000
      7      -0.9556      1.00001
      8      -0.4124      0.95019
      9      -0.2384      0.33678
     10       0.0942     -0.01223
     11       0.1900     -0.00231
     12       0.8217     -0.00000
     13       0.9833     -0.00000
     14       1.0733     -0.00000
     15       1.3381     -0.00000
     16       1.6553     -0.00000
     17       2.1726     -0.00000
     18       3.5042     -0.00000
     19       4.7073     -0.00000
     20       5.4935      0.00000
     21       6.0565      0.00000

 k-point     9 :       0.4500    0.1500    0.0000
  band No.  band energies     occupation 
      1      -3.9005      1.00000
      2      -3.0091      1.00000
      3      -2.7481      1.00000
      4      -1.6376      1.00000
      5      -1.5061      1.00000
      6      -1.4212      1.00000
      7      -0.5392      1.03453
      8      -0.5160      1.03527
      9      -0.1603      0.08559
     10       0.2431     -0.00072
     11       0.3342     -0.00007
     12       0.8584     -0.00000
     13       0.8617     -0.00000
     14       1.2345     -0.00000
     15       1.2870     -0.00000
     16       2.0191     -0.00000
     17       2.7635     -0.00000
     18       2.9162     -0.00000
     19       4.5368     -0.00000
     20       4.5800     -0.00000
     21       7.0187      0.00000

 k-point    10 :       0.2500    0.2500    0.0000
  band No.  band energies     occupation 
      1      -5.1265      1.00000
      2      -2.6320      1.00000
      3      -2.1400      1.00000
      4      -2.0221      1.00000
      5      -1.7425      1.00000
      6      -1.6607      1.00000
      7      -1.1525      1.00000
      8      -0.1698      0.10873
      9      -0.0932     -0.01518
[...]
     10       0.9113     -0.00000
     11       1.0414     -0.00000
     12       1.1251     -0.00000
     13       1.4739     -0.00000
     14       1.4915     -0.00000
     15       1.6280     -0.00000
     16       2.1459     -0.00000
     17       2.9236     -0.00000
     18       5.9962      0.00000
     19       7.0774      0.00000
     20       8.1824      0.00000
     21       8.3882      0.00000


--------------------------------------------------------------------------------------------------------


 soft charge-density along one line, spin component           1
         0         1         2         3         4         5         6         7         8         9
 total charge-density along one line
 
 soft charge-density along one line, spin component           2
         0         1         2         3         4         5         6         7         8         9
 total charge-density along one line
 
 pseudopotential strength for first ion, spin component:           1
 -9.931   0.000   0.000   0.000   0.000   0.000   0.000   0.000  -0.000   0.000 -10.343   0.000   0.000   0.000   0.000   0.000
  0.000   0.000 -10.009   0.000   0.000   0.000   0.000   0.000  -0.000   0.000   0.000   0.000 -10.420   0.000   0.000   0.000
  0.000   0.000   0.000   0.000 -10.099   0.000  -0.000   0.000  -0.000   0.000   0.000   0.000   0.000   0.000 -10.507   0.000
  0.000   0.000   0.000   0.000  -0.000   0.000 -10.009   0.000  -0.000   0.000   0.000   0.000   0.000   0.000  -0.000   0.000
 -0.000   0.000  -0.000   0.000  -0.000   0.000  -0.000   0.000  -9.959   0.000  -0.000   0.000  -0.000   0.000  -0.000   0.000
-10.343   0.000   0.000   0.000   0.000   0.000   0.000   0.000  -0.000   0.000 -10.716   0.000   0.000   0.000   0.000   0.000
  0.000   0.000 -10.420   0.000   0.000   0.000   0.000   0.000  -0.000   0.000   0.000   0.000 -10.791   0.000   0.000   0.000
  0.000   0.000   0.000   0.000 -10.507   0.000  -0.000   0.000  -0.000   0.000   0.000   0.000   0.000   0.000 -10.876   0.000
  0.000   0.000   0.000   0.000  -0.000   0.000 -10.420   0.000  -0.000   0.000   0.000   0.000   0.000   0.000  -0.000   0.000
 -0.000   0.000  -0.000   0.000  -0.000   0.000  -0.000   0.000 -10.370   0.000  -0.000   0.000  -0.000   0.000  -0.000   0.000
 -0.000   0.000  -0.000   0.000   0.014   0.000   0.000   0.000  -0.000   0.000  -0.000   0.000  -0.000   0.000   0.014   0.000
 -0.000   0.000  -0.000   0.000   0.025   0.000   0.000   0.000  -0.000   0.000  -0.000   0.000  -0.000   0.000   0.025   0.000
 -0.000   0.000  -0.007   0.000   0.000   0.000  -0.000   0.000   0.000   0.000  -0.000   0.000  -0.006   0.000   0.000   0.000
 -0.000   0.000  -0.000   0.000  -0.002   0.000  -0.000   0.000   0.000   0.000  -0.000   0.000  -0.000   0.000  -0.002   0.000
 -0.000   0.000  -0.000   0.000   0.000   0.000  -0.007   0.000  -0.000   0.000  -0.000   0.000  -0.000   0.000   0.000   0.000
 -0.000   0.000  -0.016   0.000   0.000   0.000  -0.000   0.000   0.000   0.000  -0.000   0.000  -0.015   0.000   0.000   0.000
 -0.000   0.000  -0.000   0.000  -0.013   0.000  -0.000   0.000   0.000   0.000  -0.000   0.000  -0.000   0.000  -0.011   0.000
 -0.000   0.000  -0.000   0.000   0.000   0.000  -0.016   0.000  -0.000   0.000  -0.000   0.000  -0.000   0.000   0.000   0.000
 pseudopotential strength for first ion, spin component:           2
 -7.945   0.000   0.000   0.000   0.000   0.000   0.000   0.000   0.000   0.000  -8.420   0.000   0.000   0.000   0.000   0.000
  0.000   0.000  -7.987   0.000   0.000   0.000   0.000   0.000  -0.000   0.000   0.000   0.000  -8.461   0.000   0.000   0.000
  0.000   0.000   0.000   0.000  -7.918   0.000   0.000   0.000  -0.000   0.000   0.000   0.000   0.000   0.000  -8.393   0.000
  0.000   0.000   0.000   0.000   0.000   0.000  -7.987   0.000   0.000   0.000   0.000   0.000   0.000   0.000   0.000   0.000
  0.000   0.000  -0.000   0.000  -0.000   0.000   0.000   0.000  -7.909   0.000   0.000   0.000  -0.000   0.000  -0.000   0.000
 -8.420   0.000   0.000   0.000   0.000   0.000   0.000   0.000   0.000   0.000  -8.854   0.000   0.000   0.000   0.000   0.000
  0.000   0.000  -8.461   0.000   0.000   0.000   0.000   0.000  -0.000   0.000   0.000   0.000  -8.894   0.000   0.000   0.000
  0.000   0.000   0.000   0.000  -8.393   0.000   0.000   0.000  -0.000   0.000   0.000   0.000   0.000   0.000  -8.827   0.000
  0.000   0.000   0.000   0.000   0.000   0.000  -8.461   0.000   0.000   0.000   0.000   0.000   0.000   0.000   0.000   0.000
  0.000   0.000  -0.000   0.000  -0.000   0.000   0.000   0.000  -8.384   0.000   0.000   0.000  -0.000   0.000  -0.000   0.000
 -0.000   0.000  -0.000   0.000   0.001   0.000  -0.000   0.000  -0.000   0.000  -0.000   0.000  -0.000   0.000   0.000   0.000
 -0.000   0.000  -0.000   0.000   0.000   0.000  -0.000   0.000  -0.000   0.000  -0.000   0.000  -0.000   0.000  -0.000   0.000
 -0.000   0.000   0.026   0.000   0.000   0.000  -0.000   0.000   0.000   0.000  -0.000   0.000   0.026   0.000   0.000   0.000
 -0.000   0.000  -0.000   0.000   0.035   0.000  -0.000   0.000   0.000   0.000  -0.000   0.000  -0.000   0.000   0.035   0.000
 -0.000   0.000  -0.000   0.000   0.000   0.000   0.026   0.000  -0.000   0.000  -0.000   0.000  -0.000   0.000   0.000   0.000
 -0.000   0.000   0.029   0.000   0.000   0.000  -0.000   0.000   0.000   0.000  -0.000   0.000   0.028   0.000   0.000   0.000
 -0.000   0.000  -0.000   0.000   0.038   0.000  -0.000   0.000   0.000   0.000  -0.000   0.000  -0.000   0.000   0.037   0.000
 -0.000   0.000  -0.000   0.000   0.000   0.000   0.029   0.000  -0.000   0.000  -0.000   0.000  -0.000   0.000   0.000   0.000
 total augmentation occupancy for first ion, spin component:           1
  2.637  -0.000   0.000   0.000   0.000  -1.258  -0.000   0.000   0.000  -0.000  -0.000  -0.000  -0.000  -0.000   0.000   0.000
 -0.000   2.803   0.000   0.000   0.000   0.000  -1.353   0.000   0.000   0.000   0.000   0.000   0.161  -0.000   0.000   0.018
  0.000   0.000   3.107   0.000   0.000   0.000   0.000  -1.642   0.000   0.000   0.131   0.042   0.000   0.183  -0.000  -0.000
 -0.000   0.000   0.000   2.803  -0.000   0.000   0.000   0.000  -1.353   0.000   0.000   0.000   0.000  -0.000   0.161   0.000
  0.000   0.000   0.000  -0.000   3.020  -0.000   0.000   0.000   0.000  -1.636   0.000   0.000   0.000   0.000  -0.000  -0.000
 -1.258  -0.000   0.000   0.000  -0.000   1.249   0.000   0.000   0.000   0.000   0.000   0.000  -0.000   0.000   0.000  -0.000
  0.000  -1.353  -0.000   0.000  -0.000   0.000   1.266   0.000   0.000   0.000   0.000  -0.000  -0.270  -0.000   0.000   0.015
  0.000   0.000  -1.642  -0.000   0.000   0.000   0.000   1.454   0.000   0.000  -0.197  -0.010   0.000  -0.263   0.000  -0.000
  0.000   0.000   0.000  -1.353  -0.000  -0.000   0.000   0.000   1.266  -0.000  -0.000  -0.000  -0.000  -0.000  -0.270   0.000
  0.000  -0.000  -0.000  -0.000  -1.636   0.000   0.000   0.000  -0.000   1.582   0.000   0.000   0.000   0.000  -0.000   0.000
  0.000   0.000   0.131   0.000   0.000   0.000   0.000  -0.197   0.000   0.000   1.980  -0.171   0.000  -0.257   0.000   0.000
 -0.000  -0.000   0.042   0.000   0.000   0.000  -0.000  -0.010  -0.000   0.000  -0.171   0.023  -0.000   0.031   0.000   0.000
  0.000   0.161   0.000   0.000   0.000   0.000  -0.270  -0.000   0.000   0.000   0.000   0.000   0.199   0.000   0.000  -0.016
  0.000   0.000   0.183   0.000   0.000   0.000  -0.000  -0.263  -0.000  -0.000  -0.257   0.031  -0.000   0.137   0.000   0.000
  0.000   0.000  -0.000   0.161   0.000  -0.000  -0.000   0.000  -0.270   0.000   0.000   0.000  -0.000   0.000   0.199   0.000
  0.000   0.018  -0.000   0.000  -0.000  -0.000   0.015  -0.000   0.000   0.000  -0.000  -0.000  -0.016   0.000   0.000   0.002
  0.000  -0.000   0.032   0.000  -0.000   0.000  -0.000   0.009   0.000  -0.000   0.038  -0.003  -0.000  -0.014  -0.000   0.000
 -0.000  -0.000  -0.000   0.018   0.000   0.000   0.000  -0.000   0.015  -0.000   0.000  -0.000   0.000   0.000  -0.016   0.000
 total augmentation occupancy for first ion, spin component:           2
  2.476   0.000   0.000  -0.000   0.000  -1.053  -0.000   0.000  -0.000   0.000   0.000  -0.000  -0.000   0.000  -0.000  -0.000
  0.000   2.501   0.000   0.000  -0.000   0.000  -1.063   0.000   0.000  -0.000   0.000   0.000   0.046  -0.000   0.000   0.031
  0.000   0.000   2.781   0.000   0.000   0.000  -0.000  -1.144   0.000   0.000   0.032   0.049   0.000   0.057   0.000   0.000
  0.000  -0.000   0.000   2.501  -0.000   0.000   0.000   0.000  -1.063   0.000   0.000   0.000  -0.000   0.000   0.046  -0.000
 -0.000   0.000   0.000  -0.000   2.682   0.000   0.000   0.000   0.000  -1.155   0.000   0.000   0.000   0.000   0.000   0.000
 -1.053  -0.000   0.000   0.000  -0.000   0.248   0.000   0.000   0.000  -0.000   0.000   0.000  -0.000   0.000  -0.000  -0.000
 -0.000  -1.063  -0.000   0.000   0.000  -0.000   0.280   0.000  -0.000   0.000  -0.000  -0.000   0.021  -0.000  -0.000  -0.020
  0.000   0.000  -1.144   0.000   0.000  -0.000  -0.000   0.279  -0.000  -0.000   0.017  -0.027   0.000   0.015   0.000  -0.000
 -0.000   0.000  -0.000  -1.063  -0.000  -0.000   0.000  -0.000   0.280   0.000   0.000  -0.000   0.000   0.000   0.021  -0.000
  0.000   0.000   0.000  -0.000  -1.155  -0.000   0.000   0.000  -0.000   0.291   0.000   0.000  -0.000   0.000   0.000   0.000
  0.000   0.000   0.032   0.000   0.000   0.000   0.000   0.017   0.000   0.000  -0.271   0.101   0.000   0.055   0.000   0.000
  0.000   0.000   0.049  -0.000   0.000   0.000   0.000  -0.027  -0.000   0.000   0.101  -0.012  -0.000  -0.012   0.000   0.000
  0.000   0.046   0.000  -0.000  -0.000   0.000   0.021  -0.000   0.000   0.000   0.000  -0.000  -0.014  -0.000   0.000   0.005
  0.000  -0.000   0.057  -0.000   0.000  -0.000   0.000   0.015   0.000   0.000   0.055  -0.012   0.000  -0.009  -0.000   0.000
 -0.000   0.000   0.000   0.046  -0.000   0.000  -0.000   0.000   0.021   0.000  -0.000   0.000   0.000  -0.000  -0.014   0.000
 -0.000   0.031   0.000   0.000   0.000  -0.000  -0.020   0.000   0.000  -0.000  -0.000   0.000   0.005  -0.000   0.000  -0.000
  0.000   0.000   0.047  -0.000  -0.000   0.000   0.000  -0.028   0.000   0.000  -0.004   0.003  -0.000   0.004  -0.000   0.000
  0.000   0.000   0.000   0.031  -0.000  -0.000   0.000  -0.000  -0.020   0.000  -0.000   0.000   0.000  -0.000   0.005   0.000


------------------------ aborting loop because EDIFF is reached ----------------------------------------


    CHARGE:  cpu time    0.0178: real time    0.0179
    FORLOC:  cpu time    0.0007: real time    0.0007
    FORNL :  cpu time    0.0593: real time    0.0595
    STRESS:  cpu time    0.0627: real time    0.0628
    FORCOR:  cpu time    0.0135: real time    0.0135
    FORHAR:  cpu time    0.0021: real time    0.0021
    MIXING:  cpu time    0.0006: real time    0.0006
    OFIELD:  cpu time    0.0000: real time    0.0000

  FORCE on cell =-STRESS in cart. coord.  units (eV):
  Direction    XX          YY          ZZ          XY          YZ          ZX
  --------------------------------------------------------------------------------------
  Alpha Z    60.06278    60.06278    60.06278
  Ewald    2682.46908  2682.46908 -3799.18751    -0.00000     0.00000    -0.00000
  Hartree  3130.64256  3130.64256 -2908.54242    -0.00000    -0.00000    -0.00000
  E(xc)    -118.81013  -118.81013  -119.01240     0.00000     0.00000    -0.00000
  Local   -6007.59183 -6007.59183  6517.03501     0.00000     0.00000    -0.00000
  n-local   -84.06863   -78.50388   -82.59880     1.00684    -0.00000     0.00000
  augment   116.79591   116.79591   115.55013     0.00000    -0.00000    -0.00000
  Kinetic   216.82642   212.75324   215.84768     1.32673     0.00000    -0.00000
  Fock        0.00000     0.00000     0.00000     0.00000     0.00000     0.00000
  -------------------------------------------------------------------------------------
  Total      -2.92805    -2.92805    -0.84552     0.00000     0.00000    -0.00000
  in kB     -45.29887   -45.29887   -13.08081     0.00000     0.00000    -0.00000
  external pressure =      -34.56 kB  Pullay stress =        0.00 kB


 VOLUME and BASIS-vectors are now :
 -----------------------------------------------------------------------------
  energy-cutoff  :      268.00
  volume of cell :      103.56
      direct lattice vectors                 reciprocal lattice vectors
     2.840000000  0.000000000  0.000000000     0.352112676  0.000000000  0.000000000
     0.000000000  2.840000000  0.000000000     0.000000000  0.352112676  0.000000000
     0.000000000  0.000000000 12.840000000     0.000000000  0.000000000  0.077881620

  length of vectors
     2.840000000  2.840000000 12.840000000     0.352112676  0.352112676  0.077881620


 FORCES acting on ions
    electron-ion (+dipol)            ewald-force                    non-local-force                 convergence-correction
 -----------------------------------------------------------------------------------------------
   0.172E-12 0.305E-12 -.886E+03   0.758E-14 0.630E-14 0.880E+03   0.212E-21 0.000E+00 0.605E+01   -.250E-14 -.127E-13 -.358E+00
   -.629E-14 -.109E-13 -.775E-14   0.383E-14 0.317E-14 0.114E-12   0.000E+00 0.000E+00 0.000E+00   -.285E-14 0.644E-14 0.405E-14
   0.158E-12 0.571E-13 0.886E+03   0.817E-16 0.314E-16 -.880E+03   -.212E-21 0.000E+00 -.605E+01   -.600E-15 0.230E-13 0.358E+00
 -----------------------------------------------------------------------------------------------
   0.323E-12 0.351E-12 0.185E-11   0.115E-13 0.951E-14 0.000E+00   0.000E+00 0.000E+00 0.000E+00   -.594E-14 0.167E-13 0.178E-14
 
 
 POSITION                                       TOTAL-FORCE (eV/Angst)
 -----------------------------------------------------------------------------------
      1.42000      1.42000      1.39749         0.000000      0.000000     -0.000065
     -0.00000     -0.00000      0.00000         0.000000      0.000000      0.000000
      1.42000      1.42000     11.44251        -0.000000      0.000000      0.000065
 -----------------------------------------------------------------------------------
    total drift:                                0.000000      0.000000      0.000000


--------------------------------------------------------------------------------------------------------



  FREE ENERGIE OF THE ION-ELECTRON SYSTEM (eV)
  ---------------------------------------------------
  free  energy   TOTEN  =       -22.23754512 eV

  energy  without entropy=      -22.23892400  energy(sigma->0) =      -22.23800475
 
 d Force = 0.1553671E-02[ 0.190E-05, 0.311E-02]  d Energy = 0.6541434E-03 0.900E-03
 d Force =-0.2567407E+02[-0.257E+02,-0.256E+02]  d Ewald  =-0.2567416E+02 0.814E-04


--------------------------------------------------------------------------------------------------------


    POTLOK:  cpu time    0.0169: real time    0.0169


--------------------------------------------------------------------------------------------------------




--------------------------------------------------------------------------------------------------------


  
 reached required accuracy - stopping structural energy minimisation
 writing wavefunctions
     LOOP+:  cpu time    1.4729: real time    1.4846
    4ORBIT:  cpu time    0.0000: real time    0.0000

volume of typ            1:    26.8 %
 
total charge     
 
# of ion       s       p       d       tot
------------------------------------------
    1        0.385   0.272   6.090   6.746
    2        0.407   0.417   6.199   7.023
    3        0.385   0.272   6.090   6.746
--------------------------------------------------
tot           1.18    0.96   18.38   20.52
 
magnetization (x)
 
# of ion       s       p       d       tot
------------------------------------------
    1        0.014  -0.003   2.937   2.949
    2       -0.015  -0.039   2.403   2.348
    3        0.014  -0.003   2.937   2.949
--------------------------------------------------
tot           0.01   -0.04    8.28    8.25
 
orbital moment (x)
 
# of ion     s             p             d             tot
-----------------------------------------------------------------
    1     0.000000E+00  0.279001E-02  0.262612E-01  0.290512E-01
    2     0.000000E+00  0.105930E-09 -0.103559E-08 -0.929659E-09
    3     0.000000E+00 -0.279001E-02 -0.262612E-01 -0.290512E-01
------------------------------------------------------------------------------
tot        0.000000E+00 -0.744298E-09 -0.139270E-08 -0.213700E-08
 
orbital moment (y)
 
# of ion     s             p             d             tot
-----------------------------------------------------------------
    1     0.000000E+00  0.103524E-02 -0.569129E-01 -0.558777E-01
    2     0.000000E+00 -0.106007E-09  0.100433E-08  0.898323E-09
    3     0.000000E+00 -0.103524E-02  0.569129E-01  0.558777E-01
------------------------------------------------------------------------------
tot        0.000000E+00  0.741304E-09  0.134559E-08  0.208689E-08
 
orbital moment (z)
 
# of ion     s             p             d             tot
-----------------------------------------------------------------
    1     0.000000E+00  0.166418E-11 -0.626333E-10 -0.609691E-10
    2     0.000000E+00  0.231192E-13  0.572129E-12  0.595248E-12
    3     0.000000E+00 -0.383435E-11  0.469919E-10  0.431576E-10
------------------------------------------------------------------------------
tot        0.000000E+00 -0.214706E-11 -0.150692E-10 -0.172163E-10
 
orbital moment (x)
 
# of ion     s             p             d             tot
-----------------------------------------------------------------
    1     0.000000E+00  0.111482E-01 -0.181343E+00 -0.170194E+00
    2     0.000000E+00  0.128999E-10  0.390653E-06  0.390666E-06
    3     0.000000E+00 -0.111482E-01  0.181342E+00  0.170194E+00
------------------------------------------------------------------------------
tot        0.000000E+00  0.308795E-07 -0.215238E-06 -0.184358E-06
 
orbital moment (y)
 
# of ion     s             p             d             tot
-----------------------------------------------------------------
    1     0.000000E+00  0.383770E-03  0.278084E+00  0.278468E+00
    2     0.000000E+00 -0.140428E-10  0.394777E-06  0.394763E-06
    3     0.000000E+00 -0.383738E-03 -0.278085E+00 -0.278468E+00
------------------------------------------------------------------------------
tot        0.000000E+00  0.318037E-07 -0.214930E-06 -0.183126E-06
 
orbital moment (z)
 
# of ion     s             p             d             tot
-----------------------------------------------------------------
    1     0.000000E+00  0.530778E-08  0.548395E-07  0.601472E-07
    2     0.000000E+00  0.381429E-12  0.767598E-11  0.805741E-11
    3     0.000000E+00 -0.530565E-08 -0.549357E-07 -0.602413E-07
------------------------------------------------------------------------------
tot        0.000000E+00  0.251257E-11 -0.885367E-10 -0.860241E-10
 

 total amount of memory used by VASP MPI-rank0    36733. kBytes
=======================================================================

   base      :      30000. kBytes
   nonl-proj :        593. kBytes
   fftplans  :       1102. kBytes
   grid      :       2115. kBytes
   one-center:         31. kBytes
   wavefun   :       2892. kBytes
 
  
  
 General timing and accounting informations for this job:
 ========================================================
  
                  Total CPU time used (sec):        8.800
                            User time (sec):        8.042
                          System time (sec):        0.757
                         Elapsed time (sec):        9.276
  
                   Maximum memory used (kb):       63972.
                   Average memory used (kb):           0.
  
                          Minor page faults:        28825
                          Major page faults:           70
                 Voluntary context switches:         2071
