PROCAR new format
# of k-points:   15         # of bands:   21         # of ions:    3

 k-point     1 :    0.05000000 0.05000000 0.00000000     weight = 0.04000000

band     1 # energy   -7.58744556 # occ.  1.00000000
 
ion      s      p      d    tot
    1  0.140  0.016  0.001  0.156
    2  0.257  0.003  0.010  0.270
    3  0.140  0.016  0.001  0.156
tot    0.536  0.034  0.012  0.582
 
band     2 # energy   -5.03934023 # occ.  1.00000000
 
ion      s      p      d    tot
    1  0.125  0.002  0.119  0.246
    2  0.000  0.073  0.011  0.083
    3  0.125  0.002  0.119  0.246
tot    0.250  0.076  0.248  0.575
 
band     3 # energy   -4.83847980 # occ.  1.00000000
 
ion      s      p      d    tot
    1  0.000  0.001  0.241  0.241
    2  0.000  0.002  0.384  0.386
    3  0.000  0.001  0.241  0.241
tot    0.000  0.003  0.865  0.868
 
band     4 # energy   -4.78060663 # occ.  1.00000000
 
ion      s      p      d    tot
    1  0.004  0.010  0.249  0.263
    2  0.001  0.000  0.301  0.303
    3  0.004  0.010  0.249  0.263
tot    0.010  0.021  0.799  0.829
 
band     5 # energy   -3.64833910 # occ.  1.00000000
 
ion      s      p      d    tot
    1  0.000  0.001  0.440  0.441
    2  0.000  0.000  0.023  0.023
    3  0.000  0.001  0.440  0.441
tot    0.000  0.002  0.902  0.904
 
band     6 # energy   -2.92348748 # occ.  1.00000000
 
ion      s      p      d    tot
    1  0.001  0.001  0.369  0.371
    2  0.001  0.005  0.190  0.197
    3  0.001  0.001  0.369  0.371
tot    0.004  0.008  0.927  0.939
 
band     7 # energy   -2.90337238 # occ.  1.00000000
 
ion      s      p      d    tot
    1  0.000  0.001  0.321  0.322
    2  0.000  0.000  0.319  0.319
    3  0.000  0.001  0.321  0.322
tot    0.000  0.003  0.961  0.964
 
band     8 # energy   -2.89997807 # occ.  1.00000000
 
ion      s      p      d    tot
    1  0.000  0.002  0.321  0.323
    2  0.000  0.001  0.311  0.312
    3  0.000  0.002  0.321  0.323
tot    0.000  0.005  0.954  0.959
 
band     9 # energy   -2.72859413 # occ.  1.00000000
 
ion      s      p      d    tot
    1  0.000  0.000  0.462  0.463
    2  0.000  0.013  0.014  0.026
    3  0.000  0.000  0.462  0.463
tot    0.000  0.013  0.938  0.951
 
band    10 # energy   -2.58965641 # occ.  1.00000000
 
ion      s      p      d    tot
    1  0.001  0.001  0.383  0.385
    2  0.001  0.005  0.170  0.176
    3  0.001  0.001  0.383  0.385
tot    0.004  0.008  0.935  0.947
 
band    11 # energy   -2.43759004 # occ.  1.00000000
 
ion      s      p      d    tot
    1  0.032  0.011  0.300  0.342
    2  0.000  0.003  0.021  0.024
    3  0.032  0.011  0.300  0.342
tot    0.064  0.024  0.620  0.709
 
band    12 # energy   -2.10346334 # occ.  1.00000000
 
ion      s      p      d    tot
    1  0.001  0.000  0.478  0.479
    2  0.000  0.000  0.010  0.010
    3  0.001  0.000  0.478  0.479
tot    0.002  0.001  0.965  0.967
 
band    13 # energy   -2.07016360 # occ.  1.00000000
 
ion      s      p      d    tot
    1  0.005  0.016  0.219  0.240
    2  0.005  0.002  0.320  0.328
    3  0.005  0.016  0.219  0.240
tot    0.015  0.034  0.758  0.807
 
band    14 # energy   -2.06367497 # occ.  1.00000000
 
ion      s      p      d    tot
    1  0.000  0.000  0.222  0.222
    2  0.000  0.000  0.506  0.507
    3  0.000  0.000  0.222  0.222
tot    0.000  0.000  0.950  0.951
 
band    15 # energy   -1.20991760 # occ.  1.00000000
 
ion      s      p      d    tot
    1  0.000  0.006  0.180  0.186
    2  0.000  0.000  0.590  0.590
    3  0.000  0.006  0.180  0.186
tot    0.000  0.011  0.951  0.962
 
band    16 # energy   -1.20518878 # occ.  1.00000000
 
ion      s      p      d    tot
    1  0.000  0.005  0.175  0.181
    2  0.000  0.000  0.604  0.604
    3  0.000  0.005  0.175  0.181
tot    0.000  0.011  0.954  0.965
 
band    17 # energy   -0.88328601 # occ.  1.00009589
 
ion      s      p      d    tot
    1  0.000  0.000  0.177  0.178
    2  0.000  0.000  0.624  0.624
    3  0.000  0.000  0.177  0.178
tot    0.000  0.001  0.979  0.980
 
band    18 # energy   -0.02338609 # occ. -0.03458634
 
ion      s      p      d    tot
    1  0.004  0.048  0.018  0.070
    2  0.051  0.001  0.283  0.335
    3  0.004  0.048  0.018  0.070
tot    0.058  0.098  0.319  0.475
 
band    19 # energy    2.77256403 # occ. -0.00000000
 
ion      s      p      d    tot
    1  0.028  0.021  0.056  0.105
    2  0.000  0.064  0.004  0.068
    3  0.028  0.021  0.056  0.105
tot    0.055  0.106  0.116  0.277
 
band    20 # energy    3.21947411 # occ. -0.00000000
 
ion      s      p      d    tot
    1  0.005  0.013  0.002  0.019
    2  0.009  0.000  0.015  0.024
    3  0.005  0.013  0.002  0.019
tot    0.018  0.025  0.019  0.062
 
band    21 # energy    6.30200967 # occ.  0.00000000
 
ion      s      p      d    tot
    1  0.003  0.054  0.014  0.071
    2  0.000  0.068  0.001  0.069
    3  0.003  0.054  0.014  0.071
tot    0.006  0.177  0.029  0.212
 

 k-point     2 :    0.15000000 0.05000000 0.00000000     weight = 0.08000000

band     1 # energy   -7.20771229 # occ.  1.00000000
 
ion      s      p      d    tot
    1  0.132  0.021  0.005  0.158
    2  0.248  0.013  0.011  0.272
    3  0.132  0.021  0.005  0.158
tot    0.513  0.054  0.022  0.588
 
band     2 # energy   -4.82450210 # occ.  1.00000000
 
ion      s      p      d    tot
    1  0.111  0.004  0.130  0.246
    2  0.000  0.060  0.066  0.126
    3  0.111  0.004  0.130  0.246
tot    0.222  0.069  0.327  0.618
 
band     3 # energy   -4.75106583 # occ.  1.00000000
 
ion      s      p      d    tot
    1  0.002  0.003  0.240  0.245
    2  0.001  0.006  0.360  0.367
    3  0.002  0.003  0.240  0.245
tot    0.006  0.011  0.841  0.858
 
band     4 # energy   -4.57536554 # occ.  1.00000000
 
ion      s      p      d    tot
    1  0.002  0.010  0.254  0.267
    2  0.000  0.004  0.304  0.308
    3  0.002  0.010  0.254  0.267
tot    0.005  0.025  0.811  0.841
 
band     5 # energy   -3.58378291 # occ.  1.00000000
 
ion      s      p      d    tot
    1  0.003  0.006  0.401  0.409
    2  0.000  0.005  0.068  0.073
    3  0.003  0.006  0.401  0.409
tot    0.006  0.016  0.869  0.891
 
band     6 # energy   -3.21170986 # occ.  1.00000000
 
ion      s      p      d    tot
    1  0.003  0.001  0.349  0.353
    2  0.002  0.004  0.204  0.210
    3  0.003  0.001  0.349  0.353
tot    0.008  0.006  0.902  0.917
 
band     7 # energy   -2.96733059 # occ.  1.00000000
 
ion      s      p      d    tot
    1  0.000  0.002  0.310  0.311
    2  0.000  0.000  0.337  0.338
    3  0.000  0.002  0.310  0.311
tot    0.000  0.004  0.957  0.960
 
band     8 # energy   -2.95802980 # occ.  1.00000000
 
ion      s      p      d    tot
    1  0.002  0.001  0.411  0.414
    2  0.001  0.008  0.083  0.092
    3  0.002  0.001  0.411  0.414
tot    0.006  0.010  0.905  0.921
 
band     9 # energy   -2.88911826 # occ.  1.00000000
 
ion      s      p      d    tot
    1  0.000  0.001  0.383  0.385
    2  0.000  0.005  0.167  0.171
    3  0.000  0.001  0.383  0.385
tot    0.001  0.007  0.933  0.941
 
band    10 # energy   -2.47303097 # occ.  1.00000000
 
ion      s      p      d    tot
    1  0.001  0.000  0.436  0.437
    2  0.001  0.009  0.073  0.083
    3  0.001  0.000  0.436  0.437
tot    0.002  0.010  0.945  0.957
 
band    11 # energy   -2.36711277 # occ.  1.00000000
 
ion      s      p      d    tot
    1  0.015  0.008  0.368  0.391
    2  0.000  0.002  0.046  0.049
    3  0.015  0.008  0.368  0.391
tot    0.031  0.018  0.782  0.830
 
band    12 # energy   -2.16854840 # occ.  1.00000000
 
ion      s      p      d    tot
    1  0.024  0.004  0.393  0.421
    2  0.000  0.006  0.002  0.009
    3  0.024  0.004  0.393  0.421
tot    0.047  0.014  0.788  0.850
 
band    13 # energy   -1.96411252 # occ.  1.00000000
 
ion      s      p      d    tot
    1  0.001  0.006  0.210  0.217
    2  0.003  0.002  0.470  0.475
    3  0.001  0.006  0.210  0.217
tot    0.005  0.014  0.890  0.908
 
band    14 # energy   -1.90093243 # occ.  1.00000000
 
ion      s      p      d    tot
    1  0.001  0.004  0.228  0.234
    2  0.000  0.003  0.460  0.463
    3  0.001  0.004  0.228  0.234
tot    0.002  0.012  0.916  0.930
 
band    15 # energy   -1.36815513 # occ.  1.00000000
 
ion      s      p      d    tot
    1  0.000  0.009  0.154  0.163
    2  0.000  0.000  0.612  0.612
    3  0.000  0.009  0.154  0.163
tot    0.000  0.017  0.921  0.938
 
band    16 # energy   -1.01483907 # occ.  1.00000153
 
ion      s      p      d    tot
    1  0.000  0.004  0.193  0.198
    2  0.000  0.000  0.575  0.575
    3  0.000  0.004  0.193  0.198
tot    0.000  0.008  0.961  0.970
 
band    17 # energy   -0.94645726 # occ.  1.00001476
 
ion      s      p      d    tot
    1  0.000  0.002  0.171  0.173
    2  0.000  0.000  0.626  0.627
    3  0.000  0.002  0.171  0.173
tot    0.000  0.004  0.968  0.972
 
band    18 # energy    0.29699274 # occ. -0.00015636
 
ion      s      p      d    tot
    1  0.004  0.056  0.026  0.086
    2  0.046  0.007  0.200  0.253
    3  0.004  0.056  0.026  0.086
tot    0.055  0.118  0.252  0.425
 
band    19 # energy    3.15778109 # occ. -0.00000000
 
ion      s      p      d    tot
    1  0.022  0.023  0.051  0.096
    2  0.000  0.062  0.011  0.074
    3  0.022  0.023  0.051  0.096
tot    0.045  0.108  0.114  0.266
 
band    20 # energy    3.58983570 # occ. -0.00000000
 
ion      s      p      d    tot
    1  0.004  0.013  0.003  0.020
    2  0.008  0.001  0.014  0.023
    3  0.004  0.013  0.003  0.020
tot    0.016  0.028  0.019  0.064
 
band    21 # energy    6.71518094 # occ.  0.00000000
 
ion      s      p      d    tot
    1  0.001  0.056  0.017  0.074
    2  0.000  0.069  0.003  0.072
    3  0.001  0.056  0.017  0.074
tot    0.003  0.181  0.036  0.220
 

 k-point     3 :    0.25000000 0.05000000 0.00000000     weight = 0.08000000

band     1 # energy   -6.51953474 # occ.  1.00000000
 
ion      s      p      d    tot
    1  0.114  0.029  0.023  0.165
    2  0.229  0.028  0.022  0.279
    3  0.114  0.029  0.023  0.165
tot    0.457  0.085  0.068  0.610
 
band     2 # energy   -4.64935040 # occ.  1.00000000
 
ion      s      p      d    tot
    1  0.011  0.002  0.239  0.251
    2  0.001  0.017  0.322  0.340
    3  0.011  0.002  0.239  0.251
tot    0.023  0.021  0.799  0.843
 
band     3 # energy   -4.64716344 # occ.  1.00000000
 
ion      s      p      d    tot
    1  0.078  0.003  0.172  0.253
    2  0.000  0.030  0.193  0.223
    3  0.078  0.003  0.172  0.253
tot    0.156  0.037  0.536  0.729
 
band     4 # energy   -4.20887797 # occ.  1.00000000
 
ion      s      p      d    tot
    1  0.000  0.014  0.270  0.284
    2  0.002  0.010  0.270  0.282
    3  0.000  0.014  0.270  0.284
tot    0.003  0.037  0.810  0.851
 
band     5 # energy   -3.44287742 # occ.  1.00000000
 
ion      s      p      d    tot
    1  0.003  0.002  0.318  0.323
    2  0.001  0.001  0.271  0.273
    3  0.003  0.002  0.318  0.323
tot    0.007  0.005  0.907  0.919
 
band     6 # energy   -3.23353508 # occ.  1.00000000
 
ion      s      p      d    tot
    1  0.008  0.010  0.316  0.334
    2  0.000  0.011  0.218  0.229
    3  0.008  0.010  0.316  0.334
tot    0.015  0.032  0.850  0.897
 
band     7 # energy   -3.14671667 # occ.  1.00000000
 
ion      s      p      d    tot
    1  0.006  0.003  0.391  0.400
    2  0.000  0.005  0.082  0.086
    3  0.006  0.003  0.391  0.400
tot    0.012  0.010  0.864  0.887
 
band     8 # energy   -3.10217200 # occ.  1.00000000
 
ion      s      p      d    tot
    1  0.004  0.008  0.354  0.366
    2  0.000  0.008  0.158  0.166
    3  0.004  0.008  0.354  0.366
tot    0.008  0.023  0.866  0.897
 
band     9 # energy   -2.91280034 # occ.  1.00000000
 
ion      s      p      d    tot
    1  0.000  0.001  0.427  0.428
    2  0.000  0.010  0.063  0.072
    3  0.000  0.001  0.427  0.428
tot    0.000  0.012  0.917  0.929
 
band    10 # energy   -2.47134034 # occ.  1.00000000
 
ion      s      p      d    tot
    1  0.001  0.000  0.462  0.463
    2  0.000  0.011  0.020  0.031
    3  0.001  0.000  0.462  0.463
tot    0.003  0.012  0.943  0.957
 
band    11 # energy   -2.38521883 # occ.  1.00000000
 
ion      s      p      d    tot
    1  0.002  0.002  0.451  0.455
    2  0.000  0.000  0.029  0.029
    3  0.002  0.002  0.451  0.455
tot    0.003  0.004  0.931  0.939
 
band    12 # energy   -2.01699378 # occ.  1.00000000
 
ion      s      p      d    tot
    1  0.044  0.007  0.325  0.375
    2  0.000  0.018  0.026  0.045
    3  0.044  0.007  0.325  0.375
tot    0.087  0.032  0.676  0.795
 
band    13 # energy   -1.87001211 # occ.  1.00000000
 
ion      s      p      d    tot
    1  0.000  0.002  0.202  0.203
    2  0.001  0.002  0.546  0.549
    3  0.000  0.002  0.202  0.203
tot    0.001  0.005  0.950  0.956
 
band    14 # energy   -1.76625596 # occ.  1.00000000
 
ion      s      p      d    tot
    1  0.000  0.006  0.198  0.204
    2  0.005  0.003  0.520  0.528
    3  0.000  0.006  0.198  0.204
tot    0.005  0.015  0.916  0.935
 
band    15 # energy   -1.45290782 # occ.  1.00000000
 
ion      s      p      d    tot
    1  0.005  0.019  0.101  0.125
    2  0.000  0.004  0.591  0.595
    3  0.005  0.019  0.101  0.125
tot    0.010  0.042  0.793  0.845
 
band    16 # energy   -0.98801794 # occ.  1.00000383
 
ion      s      p      d    tot
    1  0.000  0.004  0.176  0.179
    2  0.000  0.000  0.609  0.610
    3  0.000  0.004  0.176  0.179
tot    0.000  0.007  0.961  0.968
 
band    17 # energy   -0.80296145 # occ.  1.00075430
 
ion      s      p      d    tot
    1  0.002  0.003  0.188  0.193
    2  0.000  0.001  0.578  0.578
    3  0.002  0.003  0.188  0.193
tot    0.004  0.007  0.953  0.964
 
band    18 # energy    0.93442018 # occ. -0.00000000
 
ion      s      p      d    tot
    1  0.004  0.067  0.031  0.102
    2  0.034  0.021  0.115  0.170
    3  0.004  0.067  0.031  0.102
tot    0.043  0.155  0.177  0.375
 
band    19 # energy    3.81169317 # occ. -0.00000000
 
ion      s      p      d    tot
    1  0.011  0.034  0.044  0.089
    2  0.000  0.065  0.011  0.076
    3  0.011  0.034  0.044  0.089
tot    0.021  0.134  0.098  0.253
 
band    20 # energy    4.30312246 # occ. -0.00000000
 
ion      s      p      d    tot
    1  0.002  0.018  0.004  0.024
    2  0.002  0.010  0.015  0.027
    3  0.002  0.018  0.004  0.024
tot    0.005  0.045  0.023  0.074
 
band    21 # energy    5.33748845 # occ.  0.00000000
 
ion      s      p      d    tot
    1  0.041  0.088  0.058  0.187
    2  0.068  0.112  0.066  0.246
    3  0.041  0.088  0.058  0.187
tot    0.151  0.288  0.182  0.620
 

 k-point     4 :    0.35000000 0.05000000 0.00000000     weight = 0.08000000

band     1 # energy   -5.73961102 # occ.  1.00000000
 
ion      s      p      d    tot
    1  0.070  0.033  0.084  0.187
    2  0.194  0.033  0.081  0.309
    3  0.070  0.033  0.084  0.187
tot    0.335  0.098  0.250  0.683
 
band     2 # energy   -4.63038096 # occ.  1.00000000
 
ion      s      p      d    tot
    1  0.055  0.002  0.196  0.253
    2  0.000  0.009  0.295  0.304
    3  0.055  0.002  0.196  0.253
tot    0.110  0.013  0.687  0.809
 
band     3 # energy   -4.54950034 # occ.  1.00000000
 
ion      s      p      d    tot
    1  0.040  0.002  0.227  0.269
    2  0.000  0.050  0.209  0.259
    3  0.040  0.002  0.227  0.269
tot    0.080  0.054  0.664  0.798
 
band     4 # energy   -3.84715478 # occ.  1.00000000
 
ion      s      p      d    tot
    1  0.000  0.012  0.329  0.341
    2  0.007  0.008  0.178  0.193
    3  0.000  0.012  0.329  0.341
tot    0.008  0.031  0.836  0.875
 
band     5 # energy   -3.57188008 # occ.  1.00000000
 
ion      s      p      d    tot
    1  0.001  0.004  0.278  0.282
    2  0.000  0.002  0.366  0.368
    3  0.001  0.004  0.278  0.282
tot    0.001  0.010  0.921  0.932
 
band     6 # energy   -3.36082166 # occ.  1.00000000
 
ion      s      p      d    tot
    1  0.000  0.001  0.304  0.304
    2  0.000  0.000  0.337  0.337
    3  0.000  0.001  0.304  0.304
tot    0.000  0.001  0.944  0.946
 
band     7 # energy   -3.11334982 # occ.  1.00000000
 
ion      s      p      d    tot
    1  0.007  0.015  0.323  0.345
    2  0.007  0.002  0.130  0.138
    3  0.007  0.015  0.323  0.345
tot    0.021  0.032  0.775  0.828
 
band     8 # energy   -2.99736148 # occ.  1.00000000
 
ion      s      p      d    tot
    1  0.000  0.001  0.440  0.442
    2  0.000  0.006  0.019  0.026
    3  0.000  0.001  0.440  0.442
tot    0.000  0.009  0.900  0.909
 
band     9 # energy   -2.55334228 # occ.  1.00000000
 
ion      s      p      d    tot
    1  0.001  0.014  0.427  0.441
    2  0.000  0.013  0.008  0.022
    3  0.001  0.014  0.427  0.441
tot    0.001  0.041  0.862  0.904
 
band    10 # energy   -2.54180794 # occ.  1.00000000
 
ion      s      p      d    tot
    1  0.003  0.002  0.450  0.454
    2  0.000  0.012  0.021  0.033
    3  0.003  0.002  0.450  0.454
tot    0.006  0.015  0.921  0.942
 
band    11 # energy   -2.35689718 # occ.  1.00000000
 
ion      s      p      d    tot
    1  0.000  0.001  0.465  0.466
    2  0.000  0.000  0.026  0.026
    3  0.000  0.001  0.465  0.466
tot    0.000  0.002  0.957  0.959
 
band    12 # energy   -1.96289093 # occ.  1.00000000
 
ion      s      p      d    tot
    1  0.000  0.000  0.174  0.174
    2  0.003  0.001  0.604  0.608
    3  0.000  0.000  0.174  0.174
tot    0.003  0.002  0.952  0.956
 
band    13 # energy   -1.89970565 # occ.  1.00000000
 
ion      s      p      d    tot
    1  0.029  0.006  0.278  0.312
    2  0.000  0.016  0.250  0.266
    3  0.029  0.006  0.278  0.312
tot    0.057  0.027  0.806  0.890
 
band    14 # energy   -1.46661816 # occ.  1.00000000
 
ion      s      p      d    tot
    1  0.004  0.007  0.200  0.211
    2  0.010  0.011  0.507  0.528
    3  0.004  0.007  0.200  0.211
tot    0.018  0.024  0.908  0.951
 
band    15 # energy   -1.17566350 # occ.  1.00000000
 
ion      s      p      d    tot
    1  0.022  0.041  0.076  0.139
    2  0.000  0.033  0.394  0.426
    3  0.022  0.041  0.076  0.139
tot    0.044  0.115  0.546  0.705
 
band    16 # energy   -0.96545016 # occ.  1.00000806
 
ion      s      p      d    tot
    1  0.001  0.004  0.189  0.194
    2  0.001  0.000  0.577  0.578
    3  0.001  0.004  0.189  0.194
tot    0.003  0.009  0.956  0.967
 
band    17 # energy   -0.55493493 # occ.  1.03332604
 
ion      s      p      d    tot
    1  0.014  0.014  0.148  0.175
    2  0.000  0.012  0.508  0.520
    3  0.014  0.014  0.148  0.175
tot    0.027  0.039  0.804  0.870
 
band    18 # energy    1.70266638 # occ. -0.00000000
 
ion      s      p      d    tot
    1  0.000  0.089  0.022  0.111
    2  0.003  0.073  0.098  0.174
    3  0.000  0.089  0.022  0.111
tot    0.003  0.250  0.142  0.395
 
band    19 # energy    2.96151615 # occ. -0.00000000
 
ion      s      p      d    tot
    1  0.055  0.062  0.080  0.197
    2  0.094  0.047  0.075  0.216
    3  0.055  0.062  0.080  0.197
tot    0.205  0.171  0.234  0.610
 
band    20 # energy    4.08194480 # occ. -0.00000000
 
ion      s      p      d    tot
    1  0.009  0.084  0.043  0.136
    2  0.000  0.074  0.007  0.082
    3  0.009  0.084  0.043  0.136
tot    0.018  0.242  0.093  0.353
 
band    21 # energy    5.39257476 # occ.  0.00000000
 
ion      s      p      d    tot
    1  0.008  0.015  0.003  0.027
    2  0.004  0.003  0.004  0.011
    3  0.008  0.015  0.003  0.027
tot    0.021  0.034  0.009  0.065
 

 k-point     5 :    0.45000000 0.05000000 0.00000000     weight = 0.08000000

band     1 # energy   -5.29293560 # occ.  1.00000000
 
ion      s      p      d    tot
    1  0.009  0.024  0.186  0.219
    2  0.147  0.007  0.207  0.361
    3  0.009  0.024  0.186  0.219
tot    0.165  0.056  0.578  0.799
 
band     2 # energy   -4.65329848 # occ.  1.00000000
 
ion      s      p      d    tot
    1  0.047  0.002  0.199  0.248
    2  0.000  0.001  0.342  0.343
    3  0.047  0.002  0.199  0.248
tot    0.094  0.005  0.741  0.839
 
band     3 # energy   -4.39225128 # occ.  1.00000000
 
ion      s      p      d    tot
    1  0.084  0.008  0.203  0.295
    2  0.000  0.104  0.040  0.145
    3  0.084  0.008  0.203  0.295
tot    0.169  0.120  0.446  0.734
 
band     4 # energy   -3.71994129 # occ.  1.00000000
 
ion      s      p      d    tot
    1  0.000  0.004  0.320  0.324
    2  0.001  0.000  0.281  0.282
    3  0.000  0.004  0.320  0.324
tot    0.001  0.008  0.921  0.930
 
band     5 # energy   -3.51951109 # occ.  1.00000000
 
ion      s      p      d    tot
    1  0.000  0.004  0.379  0.383
    2  0.002  0.005  0.143  0.151
    3  0.000  0.004  0.379  0.383
tot    0.003  0.012  0.902  0.917
 
band     6 # energy   -3.48691032 # occ.  1.00000000
 
ion      s      p      d    tot
    1  0.000  0.000  0.311  0.311
    2  0.000  0.000  0.318  0.318
    3  0.000  0.000  0.311  0.311
tot    0.000  0.000  0.939  0.940
 
band     7 # energy   -3.06919332 # occ.  1.00000000
 
ion      s      p      d    tot
    1  0.000  0.001  0.442  0.443
    2  0.000  0.008  0.014  0.022
    3  0.000  0.001  0.442  0.443
tot    0.000  0.009  0.898  0.907
 
band     8 # energy   -3.02261216 # occ.  1.00000000
 
ion      s      p      d    tot
    1  0.001  0.026  0.221  0.248
    2  0.027  0.003  0.284  0.314
    3  0.001  0.026  0.221  0.248
tot    0.029  0.056  0.725  0.810
 
band     9 # energy   -2.48755049 # occ.  1.00000000
 
ion      s      p      d    tot
    1  0.002  0.014  0.347  0.363
    2  0.007  0.009  0.149  0.165
    3  0.002  0.014  0.347  0.363
tot    0.010  0.038  0.843  0.892
 
band    10 # energy   -2.32838492 # occ.  1.00000000
 
ion      s      p      d    tot
    1  0.000  0.000  0.463  0.464
    2  0.000  0.000  0.038  0.038
    3  0.000  0.000  0.463  0.464
tot    0.001  0.001  0.964  0.965
 
band    11 # energy   -2.29406929 # occ.  1.00000000
 
ion      s      p      d    tot
    1  0.005  0.003  0.455  0.462
    2  0.000  0.000  0.009  0.009
    3  0.005  0.003  0.455  0.462
tot    0.010  0.005  0.919  0.934
 
band    12 # energy   -2.05125944 # occ.  1.00000000
 
ion      s      p      d    tot
    1  0.000  0.000  0.162  0.162
    2  0.002  0.000  0.620  0.622
    3  0.000  0.000  0.162  0.162
tot    0.002  0.001  0.943  0.947
 
band    13 # energy   -1.73236012 # occ.  1.00000000
 
ion      s      p      d    tot
    1  0.006  0.003  0.277  0.287
    2  0.000  0.002  0.390  0.392
    3  0.006  0.003  0.277  0.287
tot    0.013  0.009  0.943  0.965
 
band    14 # energy   -1.08732209 # occ.  1.00000011
 
ion      s      p      d    tot
    1  0.008  0.008  0.234  0.251
    2  0.004  0.017  0.430  0.450
    3  0.008  0.008  0.234  0.251
tot    0.021  0.034  0.899  0.953
 
band    15 # energy   -0.88315332 # occ.  1.00009624
 
ion      s      p      d    tot
    1  0.002  0.028  0.130  0.160
    2  0.000  0.025  0.515  0.540
    3  0.002  0.028  0.130  0.160
tot    0.005  0.080  0.775  0.860
 
band    16 # energy   -0.69781350 # occ.  1.00637981
 
ion      s      p      d    tot
    1  0.022  0.014  0.177  0.214
    2  0.024  0.025  0.426  0.475
    3  0.022  0.014  0.177  0.214
tot    0.069  0.054  0.780  0.903
 
band    17 # energy    0.15056472 # occ. -0.00437952
 
ion      s      p      d    tot
    1  0.017  0.086  0.055  0.158
    2  0.000  0.081  0.165  0.246
    3  0.017  0.086  0.055  0.158
tot    0.035  0.253  0.275  0.563
 
band    18 # energy    0.61346138 # occ. -0.00000000
 
ion      s      p      d    tot
    1  0.031  0.057  0.088  0.176
    2  0.062  0.066  0.259  0.388
    3  0.031  0.057  0.088  0.176
tot    0.124  0.180  0.435  0.739
 
band    19 # energy    2.72142996 # occ. -0.00000000
 
ion      s      p      d    tot
    1  0.084  0.053  0.048  0.184
    2  0.000  0.021  0.075  0.097
    3  0.084  0.053  0.048  0.184
tot    0.168  0.127  0.171  0.465
 
band    20 # energy    2.90847447 # occ. -0.00000000
 
ion      s      p      d    tot
    1  0.028  0.089  0.020  0.137
    2  0.014  0.029  0.005  0.048
    3  0.028  0.089  0.020  0.137
tot    0.070  0.207  0.044  0.322
 
band    21 # energy    6.26106801 # occ.  0.00000000
 
ion      s      p      d    tot
    1  0.004  0.011  0.032  0.047
    2  0.032  0.008  0.007  0.046
    3  0.004  0.011  0.032  0.047
tot    0.039  0.030  0.072  0.141
 

 k-point     6 :    0.15000000 0.15000000 0.00000000     weight = 0.04000000

band     1 # energy   -6.83804456 # occ.  1.00000000
 
ion      s      p      d    tot
    1  0.125  0.025  0.011  0.161
    2  0.239  0.023  0.011  0.273
    3  0.125  0.025  0.011  0.161
tot    0.489  0.073  0.032  0.594
 
band     2 # energy   -4.57737374 # occ.  1.00000000
 
ion      s      p      d    tot
    1  0.000  0.005  0.236  0.241
    2  0.000  0.016  0.369  0.385
    3  0.000  0.005  0.236  0.241
tot    0.000  0.027  0.841  0.867
 
band     3 # energy   -4.54660547 # occ.  1.00000000
 
ion      s      p      d    tot
    1  0.103  0.009  0.127  0.239
    2  0.000  0.056  0.103  0.159
    3  0.103  0.009  0.127  0.239
tot    0.205  0.075  0.356  0.637
 
band     4 # energy   -4.45452738 # occ.  1.00000000
 
ion      s      p      d    tot
    1  0.004  0.010  0.263  0.277
    2  0.000  0.002  0.279  0.281
    3  0.004  0.010  0.263  0.277
tot    0.008  0.023  0.804  0.835
 
band     5 # energy   -3.64717764 # occ.  1.00000000
 
ion      s      p      d    tot
    1  0.000  0.007  0.353  0.360
    2  0.000  0.000  0.190  0.190
    3  0.000  0.007  0.353  0.360
tot    0.000  0.015  0.895  0.910
 
band     6 # energy   -3.50002872 # occ.  1.00000000
 
ion      s      p      d    tot
    1  0.004  0.001  0.327  0.333
    2  0.004  0.002  0.235  0.241
    3  0.004  0.001  0.327  0.333
tot    0.013  0.004  0.889  0.906
 
band     7 # energy   -2.92652076 # occ.  1.00000000
 
ion      s      p      d    tot
    1  0.000  0.002  0.340  0.342
    2  0.000  0.009  0.256  0.265
    3  0.000  0.002  0.340  0.342
tot    0.000  0.014  0.935  0.949
 
band     8 # energy   -2.91666972 # occ.  1.00000000
 
ion      s      p      d    tot
    1  0.000  0.000  0.394  0.394
    2  0.000  0.000  0.162  0.162
    3  0.000  0.000  0.394  0.394
tot    0.000  0.000  0.951  0.951
 
band     9 # energy   -2.90287354 # occ.  1.00000000
 
ion      s      p      d    tot
    1  0.000  0.000  0.456  0.456
    2  0.000  0.010  0.015  0.025
    3  0.000  0.000  0.456  0.456
tot    0.000  0.010  0.927  0.937
 
band    10 # energy   -2.62727860 # occ.  1.00000000
 
ion      s      p      d    tot
    1  0.005  0.006  0.410  0.421
    2  0.000  0.000  0.019  0.019
    3  0.005  0.006  0.410  0.421
tot    0.010  0.012  0.839  0.861
 
band    11 # energy   -2.52356992 # occ.  1.00000000
 
ion      s      p      d    tot
    1  0.006  0.001  0.418  0.424
    2  0.001  0.008  0.076  0.086
    3  0.006  0.001  0.418  0.424
tot    0.012  0.010  0.912  0.934
 
band    12 # energy   -2.07058721 # occ.  1.00000000
 
ion      s      p      d    tot
    1  0.035  0.004  0.361  0.400
    2  0.000  0.013  0.014  0.027
    3  0.035  0.004  0.361  0.400
tot    0.069  0.021  0.737  0.827
 
band    13 # energy   -1.93578505 # occ.  1.00000000
 
ion      s      p      d    tot
    1  0.001  0.010  0.187  0.198
    2  0.001  0.003  0.497  0.501
    3  0.001  0.010  0.187  0.198
tot    0.003  0.023  0.871  0.897
 
band    14 # energy   -1.81372215 # occ.  1.00000000
 
ion      s      p      d    tot
    1  0.000  0.000  0.223  0.223
    2  0.000  0.001  0.517  0.518
    3  0.000  0.000  0.223  0.223
tot    0.000  0.001  0.963  0.964
 
band    15 # energy   -1.14810930 # occ.  1.00000001
 
ion      s      p      d    tot
    1  0.000  0.006  0.187  0.192
    2  0.000  0.000  0.583  0.583
    3  0.000  0.006  0.187  0.192
tot    0.000  0.011  0.957  0.968
 
band    16 # energy   -1.05715227 # occ.  1.00000033
 
ion      s      p      d    tot
    1  0.000  0.004  0.156  0.161
    2  0.000  0.001  0.632  0.632
    3  0.000  0.004  0.156  0.161
tot    0.000  0.010  0.944  0.954
 
band    17 # energy   -1.01038984 # occ.  1.00000179
 
ion      s      p      d    tot
    1  0.005  0.011  0.160  0.176
    2  0.000  0.001  0.534  0.535
    3  0.005  0.011  0.160  0.176
tot    0.010  0.024  0.854  0.887
 
band    18 # energy    0.71909616 # occ. -0.00000000
 
ion      s      p      d    tot
    1  0.004  0.057  0.044  0.106
    2  0.044  0.010  0.152  0.206
    3  0.004  0.057  0.044  0.106
tot    0.053  0.124  0.240  0.417
 
band    19 # energy    3.55215025 # occ. -0.00000000
 
ion      s      p      d    tot
    1  0.019  0.023  0.047  0.090
    2  0.000  0.060  0.019  0.079
    3  0.019  0.023  0.047  0.090
tot    0.039  0.106  0.113  0.258
 
band    20 # energy    3.96499807 # occ. -0.00000000
 
ion      s      p      d    tot
    1  0.004  0.014  0.004  0.022
    2  0.007  0.002  0.013  0.022
    3  0.004  0.014  0.004  0.022
tot    0.016  0.030  0.020  0.066
 
band    21 # energy    7.13703137 # occ.  0.00000000
 
ion      s      p      d    tot
    1  0.001  0.056  0.019  0.076
    2  0.000  0.070  0.006  0.076
    3  0.001  0.056  0.019  0.076
tot    0.001  0.182  0.044  0.227
 

 k-point     7 :    0.25000000 0.15000000 0.00000000     weight = 0.08000000

band     1 # energy   -6.17646580 # occ.  1.00000000
 
ion      s      p      d    tot
    1  0.108  0.032  0.031  0.171
    2  0.217  0.039  0.020  0.276
    3  0.108  0.032  0.031  0.171
tot    0.432  0.102  0.083  0.618
 
band     2 # energy   -4.43446088 # occ.  1.00000000
 
ion      s      p      d    tot
    1  0.007  0.006  0.239  0.252
    2  0.000  0.025  0.324  0.349
    3  0.007  0.006  0.239  0.252
tot    0.013  0.037  0.802  0.852
 
band     3 # energy   -4.31740917 # occ.  1.00000000
 
ion      s      p      d    tot
    1  0.068  0.010  0.164  0.242
    2  0.000  0.029  0.233  0.262
    3  0.068  0.010  0.164  0.242
tot    0.136  0.049  0.562  0.747
 
band     4 # energy   -4.15005435 # occ.  1.00000000
 
ion      s      p      d    tot
    1  0.001  0.013  0.275  0.289
    2  0.003  0.008  0.260  0.272
    3  0.001  0.013  0.275  0.289
tot    0.005  0.035  0.811  0.850
 
band     5 # energy   -3.72621680 # occ.  1.00000000
 
ion      s      p      d    tot