<?xml version="1.0" encoding="ISO-8859-1"?>
<modeling>
 <generator>
  <i name="program" type="string">vasp </i>
  <i name="version" type="string">5.4.4.18Apr17-6-g9f103f2a35  </i>
  <i name="subversion" type="string">(build May 18 2018 14:42:58) complex            parallel </i>
  <i name="platform" type="string">LinuxIFC </i>
  <i name="date" type="string">2020 07 01 </i>
  <i name="time" type="string">22:11:20 </i>
 </generator>
 <incar>
  <i type="string" name="SYSTEM"> BCC Fe</i>
  <i type="string" name="PREC">normal</i>
  <i type="int" name="ISPIN">     2</i>
  <i type="int" name="IBRION">     2</i>
  <i name="EDIFFG">     -0.01000000</i>
  <i type="int" name="NSW">    50</i>
  <i name="ENCUT">    268.00000000</i>
  <v name="RWIGS">      1.30200000</v>
  <v name="MAGMOM">      3.00000000      3.00000000      3.00000000</v>
  <i type="logical" name="LVHAR"> T  </i>
  <v type="int" name="KPOINT_BSE">    -1     0     0     0</v>
 </incar>
 <structure name="primitive_cell" >
  <crystal>
   <varray name="basis" >
    <v>       2.84000000       0.00000000       0.00000000 </v>
    <v>       0.00000000       2.84000000       0.00000000 </v>
    <v>       0.00000000       0.00000000      12.84000000 </v>
   </varray>
   <i name="volume">    103.56230400 </i>
   <varray name="rec_basis" >
    <v>       0.35211268       0.00000000       0.00000000 </v>
    <v>       0.00000000       0.35211268       0.00000000 </v>
    <v>       0.00000000       0.00000000       0.07788162 </v>
   </varray>
  </crystal>
  <varray name="positions" >
   <v>      -0.50000000      -0.50000000       0.11059190 </v>
   <v>       0.00000000       0.00000000       0.00000000 </v>
   <v>      -0.50000000      -0.50000000      -0.11059190 </v>
  </varray>
 </structure>
 <varray name="primitive_index" >
  <v type="int" >        1 </v>
  <v type="int" >        2 </v>
  <v type="int" >        3 </v>
 </varray>
 <kpoints>
  <generation param="Monkhorst-Pack">
   <v type="int" name="divisions">      10       10        1 </v>
   <v name="usershift">      0.00000000       0.00000000       0.00000000 </v>
   <v name="genvec1">      0.10000000       0.00000000       0.00000000 </v>
   <v name="genvec2">      0.00000000       0.10000000       0.00000000 </v>
   <v name="genvec3">      0.00000000       0.00000000       1.00000000 </v>
   <v name="shift">      0.50000000       0.50000000       0.00000000 </v>
  </generation>
  <varray name="kpointlist" >
   <v>       0.05000000       0.05000000       0.00000000 </v>
   <v>       0.15000000       0.05000000       0.00000000 </v>
   <v>       0.25000000       0.05000000       0.00000000 </v>
   <v>       0.35000000       0.05000000       0.00000000 </v>
   <v>       0.45000000       0.05000000       0.00000000 </v>
   <v>       0.15000000       0.15000000       0.00000000 </v>
   <v>       0.25000000       0.15000000       0.00000000 </v>
   <v>       0.35000000       0.15000000       0.00000000 </v>
   <v>       0.45000000       0.15000000       0.00000000 </v>
   <v>       0.25000000       0.25000000       0.00000000 </v>
   <v>       0.35000000       0.25000000       0.00000000 </v>
   <v>       0.45000000       0.25000000       0.00000000 </v>
   <v>       0.35000000       0.35000000       0.00000000 </v>
   <v>       0.45000000       0.35000000       0.00000000 </v>
   <v>       0.45000000       0.45000000       0.00000000 </v>
  </varray>
  <varray name="weights" >
   <v>       0.04000000 </v>
   <v>       0.08000000 </v>
   <v>       0.08000000 </v>
   <v>       0.08000000 </v>
   <v>       0.08000000 </v>
   <v>       0.04000000 </v>
   <v>       0.08000000 </v>
   <v>       0.08000000 </v>
   <v>       0.08000000 </v>
   <v>       0.04000000 </v>
   <v>       0.08000000 </v>
   <v>       0.08000000 </v>
   <v>       0.04000000 </v>
   <v>       0.08000000 </v>
   <v>       0.04000000 </v>
  </varray>
 </kpoints>
 <parameters>
  <separator name="general" >
   <i type="string" name="SYSTEM">BCC Fe</i>
   <i type="logical" name="LCOMPAT"> F  </i>
  </separator>
  <separator name="electronic" >
   <i type="string" name="PREC">normal</i>
   <i name="ENMAX">    268.00000000</i>
   <i name="ENAUG">    511.36800000</i>
   <i name="EDIFF">      0.00010000</i>
   <i type="int" name="IALGO">    38</i>
   <i type="int" name="IWAVPR">    11</i>
   <i type="int" name="NBANDS">    21</i>
   <i name="NELECT">     24.00000000</i>
   <i type="int" name="TURBO">     0</i>
   <i type="int" name="IRESTART">     0</i>
   <i type="int" name="NREBOOT">     0</i>
   <i type="int" name="NMIN">     0</i>
   <i name="EREF">      0.00000000</i>
   <separator name="electronic smearing" >
    <i type="int" name="ISMEAR">     1</i>
    <i name="SIGMA">      0.20000000</i>
    <i name="KSPACING">      0.50000000</i>
    <i type="logical" name="KGAMMA"> T  </i>
   </separator>
   <separator name="electronic projectors" >
    <i type="logical" name="LREAL"> F  </i>
    <v name="ROPT">      0.00000000</v>
    <i type="int" name="LMAXPAW">  -100</i>
    <i type="int" name="LMAXMIX">     2</i>
    <i type="logical" name="NLSPLINE"> F  </i>
   </separator>
   <separator name="electronic startup" >
    <i type="int" name="ISTART">     0</i>
    <i type="int" name="ICHARG">     2</i>
    <i type="int" name="INIWAV">     1</i>
   </separator>
   <separator name="electronic spin" >
    <i type="int" name="ISPIN">     2</i>
    <i type="logical" name="LNONCOLLINEAR"> F  </i>
    <v name="MAGMOM">      3.00000000      3.00000000      3.00000000</v>
    <i name="NUPDOWN">     -1.00000000</i>
    <i type="logical" name="LSORBIT"> F  </i>
    <v name="SAXIS">      0.00000000      0.00000000      1.00000000</v>
    <i type="logical" name="LSPIRAL"> F  </i>
    <v name="QSPIRAL">      0.00000000      0.00000000      0.00000000</v>
    <i type="logical" name="LZEROZ"> F  </i>
   </separator>
   <separator name="electronic exchange-correlation" >
    <i type="logical" name="LASPH"> F  </i>
    <i type="logical" name="LMETAGGA"> F  </i>
   </separator>
   <separator name="electronic convergence" >
    <i type="int" name="NELM">    60</i>
    <i type="int" name="NELMDL">    -5</i>
    <i type="int" name="NELMIN">     2</i>
    <i name="ENINI">    268.00000000</i>
    <separator name="electronic convergence detail" >
     <i type="logical" name="LDIAG"> T  </i>
     <i type="logical" name="LSUBROT"> F  </i>
     <i name="WEIMIN">      0.00100000</i>
     <i name="EBREAK">      0.00000119</i>
     <i name="DEPER">      0.30000000</i>
     <i type="int" name="NRMM">     4</i>
     <i name="TIME">      0.40000000</i>
    </separator>
   </separator>
   <separator name="electronic mixer" >
    <i name="AMIX">      0.40000000</i>
    <i name="BMIX">      1.00000000</i>
    <i name="AMIN">      0.10000000</i>
    <i name="AMIX_MAG">      1.60000000</i>
    <i name="BMIX_MAG">      1.00000000</i>
    <separator name="electronic mixer details" >
     <i type="int" name="IMIX">     4</i>
     <i type="logical" name="MIXFIRST"> F  </i>
     <i type="int" name="MAXMIX">   -45</i>
     <i name="WC">    100.00000000</i>
     <i type="int" name="INIMIX">     1</i>
     <i type="int" name="MIXPRE">     1</i>
     <i type="int" name="MREMOVE">     5</i>
    </separator>
   </separator>
   <separator name="electronic dipolcorrection" >
    <i type="logical" name="LDIPOL"> F  </i>
    <i type="logical" name="LMONO"> F  </i>
    <i type="int" name="IDIPOL">     0</i>
    <i name="EPSILON">      1.00000000</i>
    <v name="DIPOL">   -100.00000000   -100.00000000   -100.00000000</v>
    <i name="EFIELD">      0.00000000</i>
   </separator>
  </separator>
  <separator name="grids" >
   <i type="int" name="NGX">    12</i>
   <i type="int" name="NGY">    12</i>
   <i type="int" name="NGZ">    54</i>
   <i type="int" name="NGXF">    24</i>
   <i type="int" name="NGYF">    24</i>
   <i type="int" name="NGZF">   108</i>
   <i type="logical" name="ADDGRID"> F  </i>
  </separator>
  <separator name="ionic" >
   <i type="int" name="NSW">    50</i>
   <i type="int" name="IBRION">     2</i>
   <i type="int" name="MDALGO">     0</i>
   <i type="int" name="ISIF">     2</i>
   <i name="PSTRESS">      0.00000000</i>
   <i name="EDIFFG">     -0.01000000</i>
   <i type="int" name="NFREE">     1</i>
   <i name="POTIM">      0.50000000</i>
   <i name="SMASS">     -3.00000000</i>
   <i name="SCALEE">      1.00000000</i>
  </separator>
  <separator name="ionic md" >
   <i name="TEBEG">      0.00010000</i>
   <i name="TEEND">      0.00010000</i>
   <i type="int" name="NBLOCK">     1</i>
   <i type="int" name="KBLOCK">    50</i>
   <i type="int" name="NPACO">   256</i>
   <i name="APACO">     16.00000000</i>
  </separator>
  <separator name="symmetry" >
   <i type="int" name="ISYM">     2</i>
   <i name="SYMPREC">      0.00001000</i>
  </separator>
  <separator name="dos" >
   <i type="int" name="LORBIT">     0</i>
   <v name="RWIGS">      1.30200000</v>
   <i type="int" name="NEDOS">   301</i>
   <i name="EMIN">     10.00000000</i>
   <i name="EMAX">    -10.00000000</i>
   <i name="EFERMI">      0.00000000</i>
  </separator>
  <separator name="writing" >
   <i type="int" name="NWRITE">     2</i>
   <i type="logical" name="LWAVE"> T  </i>
   <i type="logical" name="LDOWNSAMPLE"> F  </i>
   <i type="logical" name="LCHARG"> T  </i>
   <i type="logical" name="LPARD"> F  </i>
   <i type="logical" name="LVTOT"> F  </i>
   <i type="logical" name="LVHAR"> T  </i>
   <i type="logical" name="LELF"> F  </i>
   <i type="logical" name="LOPTICS"> F  </i>
   <v name="STM">      0.00000000      0.00000000      0.00000000      0.00000000      0.00000000      0.00000000      0.00000000</v>
  </separator>
  <separator name="performance" >
   <i type="int" name="NPAR">     1</i>
   <i type="int" name="NSIM">     4</i>
   <i type="int" name="NBLK">    -1</i>
   <i type="logical" name="LPLANE"> T  </i>
   <i type="logical" name="LSCALAPACK"> T  </i>
   <i type="logical" name="LSCAAWARE"> F  </i>
   <i type="logical" name="LSCALU"> F  </i>
   <i type="logical" name="LASYNC"> F  </i>
   <i type="logical" name="LORBITALREAL"> F  </i>
  </separator>
  <separator name="miscellaneous" >
   <i type="int" name="IDIOT">     3</i>
   <i type="int" name="ISPECIAL">     0</i>
   <i type="logical" name="LMUSIC"> F  </i>
   <v name="POMASS">     55.84700000</v>
   <v name="DARWINR">      0.00000000</v>
   <v name="DARWINV">      1.00000000</v>
   <i type="logical" name="LCORR"> T  </i>
  </separator>
  <i type="logical" name="GGA_COMPAT"> T  </i>
  <i type="logical" name="LBERRY"> F  </i>
  <i type="int" name="ICORELEVEL">     0</i>
  <i type="logical" name="LDAU"> F  </i>
  <i type="int" name="I_CONSTRAINED_M">     0</i>
  <separator name="electronic exchange-correlation" >
   <i type="string" name="GGA">--</i>
   <i type="int" name="VOSKOWN">     0</i>
   <i type="logical" name="LHFCALC"> F  </i>
   <i type="string" name="PRECFOCK"></i>
   <i type="logical" name="LSYMGRAD"> F  </i>
   <i type="logical" name="LHFONE"> F  </i>
   <i type="logical" name="LRHFCALC"> F  </i>
   <i type="logical" name="LTHOMAS"> F  </i>
   <i type="logical" name="LMODELHF"> F  </i>
   <i name="ENCUT4O">     -1.00000000</i>
   <i type="int" name="EXXOEP">     0</i>
   <i type="int" name="FOURORBIT">     0</i>
   <i name="AEXX">      0.00000000</i>
   <i name="HFALPHA">      0.00000000</i>
   <i name="MCALPHA">      0.00000000</i>
   <i name="ALDAX">      1.00000000</i>
   <i name="AGGAX">      1.00000000</i>
   <i name="ALDAC">      1.00000000</i>
   <i name="AGGAC">      1.00000000</i>
   <i type="int" name="NKREDX">     1</i>
   <i type="int" name="NKREDY">     1</i>
   <i type="int" name="NKREDZ">     1</i>
   <i type="logical" name="SHIFTRED"> F  </i>
   <i type="logical" name="ODDONLY"> F  </i>
   <i type="logical" name="EVENONLY"> F  </i>
   <i type="int" name="LMAXFOCK">     0</i>
   <i type="int" name="NMAXFOCKAE">     0</i>
   <i type="logical" name="LFOCKAEDFT"> F  </i>
   <i name="HFSCREEN">      0.00000000</i>
   <i name="HFSCREENC">      0.00000000</i>
   <i type="int" name="NBANDSGWLOW">     0</i>
  </separator>
  <separator name="vdW DFT" >
   <i type="logical" name="LUSE_VDW"> F  </i>
   <i name="Zab_VDW">     -0.84910000</i>
   <i name="PARAM1">      0.12340000</i>
   <i name="PARAM2">      1.00000000</i>
   <i name="PARAM3">      0.00000000</i>
  </separator>
  <separator name="model GW" >
   <i type="int" name="MODEL_GW">     0</i>
   <i name="MODEL_EPS0">     20.71246080</i>
   <i name="MODEL_ALPHA">      1.00000000</i>
  </separator>
  <separator name="linear response parameters" >
   <i type="logical" name="LEPSILON"> F  </i>
   <i type="logical" name="LRPA"> F  </i>
   <i type="logical" name="LNABLA"> F  </i>
   <i type="logical" name="LVEL"> F  </i>
   <i type="int" name="KINTER">     0</i>
   <i name="CSHIFT">      0.10000000</i>
   <i name="OMEGAMAX">     -1.00000000</i>
   <i name="DEG_THRESHOLD">      0.00200000</i>
   <i name="RTIME">     -0.10000000</i>
   <i name="WPLASMAI">      0.00000000</i>
   <v name="DFIELD">      0.00000000      0.00000000      0.00000000</v>
   <v name="WPLASMA">      0.00000000      0.00000000      0.00000000      0.00000000      0.00000000      0.00000000      0.00000000      0.00000000      0.00000000</v>
  </separator>
  <separator name="orbital magnetization" >
   <i type="logical" name="NUCIND"> F  </i>
   <v name="MAGPOS">      0.00000000      0.00000000      0.00000000</v>
   <i type="logical" name="LNICSALL"> T  </i>
   <i type="logical" name="ORBITALMAG"> F  </i>
   <i type="logical" name="LMAGBLOCH"> F  </i>
   <i type="logical" name="LCHIMAG"> F  </i>
   <i type="logical" name="LGAUGE"> T  </i>
   <i type="int" name="MAGATOM">     0</i>
   <v name="MAGDIPOL">      0.00000000      0.00000000      0.00000000</v>
   <v name="AVECCONST">      0.00000000      0.00000000      0.00000000</v>
  </separator>
  <separator name="response functions" >
   <i type="logical" name="LADDER"> F  </i>
   <i type="logical" name="LRPAFORCE"> F  </i>
   <i type="logical" name="LFXC"> F  </i>
   <i type="logical" name="LHARTREE"> T  </i>
   <i type="int" name="IBSE">     0</i>
   <v type="int" name="KPOINT">    -1     0     0     0</v>
   <i type="logical" name="LTCTE"> F  </i>
   <i type="logical" name="LTETE"> F  </i>
   <i type="logical" name="LTRIPLET"> F  </i>
   <i type="logical" name="LFXCEPS"> F  </i>
   <i type="logical" name="LFXHEG"> F  </i>
   <i type="int" name="NATURALO">     2</i>
   <i type="logical" name="L2ORDER"> F  </i>
   <i type="logical" name="LMP2LT"> F  </i>
   <i type="logical" name="LUSEW"> F  </i>
   <i name="ENCUTGW">     -2.00000000</i>
   <i name="ENCUTGWSOFT">     -2.00000000</i>
   <i name="ENCUTLF">     -1.00000000</i>
   <i type="int" name="LMAXMP2">    -1</i>
   <i name="SCISSOR">      0.00000000</i>
   <i type="int" name="NOMEGA">     0</i>
   <i type="int" name="NOMEGAR">     0</i>
   <i type="int" name="NBANDSGW">    -1</i>
   <i type="int" name="NBANDSO">    -1</i>
   <i type="int" name="NBANDSV">    -1</i>
   <i type="int" name="NELM">     1</i>
   <i type="int" name="NELMHF">     1</i>
   <i type="int" name="DIM">     3</i>
   <i type="int" name="ANTIRES">     0</i>
   <i name="OMEGAMAX">    -30.00000000</i>
   <i name="OMEGAMIN">    -30.00000000</i>
   <i name="OMEGATL">   -200.00000000</i>
   <i type="int" name="OMEGAGRID">   140</i>
   <i name="CSHIFT">     -0.10000000</i>
   <i type="logical" name="SELFENERGY"> F  </i>
   <i type="logical" name="LSPECTRAL"> F  </i>
   <i type="logical" name="LSPECTRALGW"> F  </i>
   <i type="logical" name="LSINGLES"> F  </i>
   <i type="logical" name="LFERMIGW"> F  </i>
   <i type="logical" name="ODDONLYGW"> F  </i>
   <i type="logical" name="EVENONLYGW"> F  </i>
   <i type="int" name="NKREDLFX">     1</i>
   <i type="int" name="NKREDLFY">     1</i>
   <i type="int" name="NKREDLFZ">     1</i>
   <i type="int" name="MAXMEM">  2800</i>
   <i type="int" name="TELESCOPE">     0</i>
   <i type="int" name="TAUPAR">     1</i>
   <i type="int" name="OMEGAPAR">    -1</i>
   <i name="LAMBDA">      1.00000000</i>
  </separator>
  <separator name="External order field" >
   <i name="OFIELD_KAPPA">      0.00000000</i>
   <v name="OFIELD_K">      0.00000000      0.00000000      0.00000000</v>
   <i name="OFIELD_Q6_NEAR">      0.00000000</i>
   <i name="OFIELD_Q6_FAR">      0.00000000</i>
   <i name="OFIELD_A">      0.00000000</i>
  </separator>
 </parameters>
 <atominfo>
  <atoms>       3 </atoms>
  <types>       1 </types>
  <array name="atoms" >
   <dimension dim="1">ion</dimension>
   <field type="string">element</field>
   <field type="int">atomtype</field>
   <set>
    <rc><c>Fe</c><c>   1</c></rc>
    <rc><c>Fe</c><c>   1</c></rc>
    <rc><c>Fe</c><c>   1</c></rc>
   </set>
  </array>
  <array name="atomtypes" >
   <dimension dim="1">type</dimension>
   <field type="int">atomspertype</field>
   <field type="string">element</field>
   <field>mass</field>
   <field>valence</field>
   <field type="string">pseudopotential</field>
   <set>
    <rc><c>   3</c><c>Fe</c><c>     55.84700000</c><c>      8.00000000</c><c>  PAW_PBE Fe 06Sep2000                  </c></rc>
   </set>
  </array>
 </atominfo>
 <structure name="initialpos" >
  <crystal>
   <varray name="basis" >
    <v>       2.84000000       0.00000000       0.00000000 </v>
    <v>       0.00000000       2.84000000       0.00000000 </v>
    <v>       0.00000000       0.00000000      12.84000000 </v>
   </varray>
   <i name="volume">    103.56230400 </i>
   <varray name="rec_basis" >
    <v>       0.35211268       0.00000000       0.00000000 </v>
    <v>       0.00000000       0.35211268       0.00000000 </v>
    <v>       0.00000000       0.00000000       0.07788162 </v>
   </varray>
  </crystal>
  <varray name="positions" >
   <v>       0.50000000       0.50000000       0.11059190 </v>
   <v>       0.00000000       0.00000000       0.00000000 </v>
   <v>       0.50000000       0.50000000       0.88940810 </v>
  </varray>
 </structure>
 <calculation>
  <scstep>
   <time name="dav">    0.19    0.20</time>
   <time name="total">    0.21    0.22</time>
   <energy>
    <i name="alphaZ">     60.06277960 </i>
    <i name="ewald">   1526.23768055 </i>
    <i name="hartreedc">  -3316.15930329 </i>
    <i name="XCdc">     13.06006398 </i>
    <i name="pawpsdc">   1661.27780056 </i>
    <i name="pawaedc">  -1684.45586133 </i>
    <i name="eentropy">     -0.00226841 </i>
    <i name="bandstr">     71.48113895 </i>
    <i name="atom">   1782.84253489 </i>
    <i name="e_fr_energy">    114.34456552 </i>
    <i name="e_wo_entrp">    114.34683393 </i>
    <i name="e_0_energy">    114.34532165 </i>
   </energy>
  </scstep>
  <scstep>
   <time name="dav">    0.18    0.19</time>
   <time name="total">    0.19    0.19</time>
   <energy>
    <i name="e_fr_energy">    -20.21949366 </i>
    <i name="e_wo_entrp">    -20.21817060 </i>
    <i name="e_0_energy">    -20.21905264 </i>
   </energy>
  </scstep>
  <scstep>
   <time name="dav">    0.20    0.20</time>
   <time name="total">    0.20    0.21</time>
   <energy>
    <i name="e_fr_energy">    -24.79270843 </i>
    <i name="e_wo_entrp">    -24.79789649 </i>
    <i name="e_0_energy">    -24.79443778 </i>
   </energy>
  </scstep>
  <scstep>
   <time name="dav">    0.20    0.20</time>
   <time name="total">    0.20    0.20</time>
   <energy>
    <i name="e_fr_energy">    -24.84254414 </i>
    <i name="e_wo_entrp">    -24.84769373 </i>
    <i name="e_0_energy">    -24.84426067 </i>
   </energy>
  </scstep>
  <scstep>
   <time name="dav">    0.21    0.21</time>
   <time name="total">    0.23    0.23</time>
   <energy>
    <i name="e_fr_energy">    -24.84310485 </i>
    <i name="e_wo_entrp">    -24.84825342 </i>
    <i name="e_0_energy">    -24.84482104 </i>
   </energy>
  </scstep>
  <scstep>
   <time name="dav">    0.22    0.22</time>
   <time name="total">    0.26    0.26</time>
   <energy>
    <i name="e_fr_energy">    -35.09058779 </i>
    <i name="e_wo_entrp">    -35.08530670 </i>
    <i name="e_0_energy">    -35.08882743 </i>
   </energy>
  </scstep>
  <scstep>
   <time name="dav">    0.22    0.22</time>
   <time name="total">    0.26    0.26</time>
   <energy>
    <i name="e_fr_energy">    -23.51295570 </i>
    <i name="e_wo_entrp">    -23.51464570 </i>
    <i name="e_0_energy">    -23.51351904 </i>
   </energy>
  </scstep>
  <scstep>
   <time name="dav">    0.23    0.23</time>
   <time name="total">    0.27    0.27</time>
   <energy>
    <i name="e_fr_energy">    -21.43923148 </i>
    <i name="e_wo_entrp">    -21.44505133 </i>
    <i name="e_0_energy">    -21.44117143 </i>
   </energy>
  </scstep>
  <scstep>
   <time name="dav">    0.19    0.19</time>
   <time name="total">    0.23    0.23</time>
   <energy>
    <i name="e_fr_energy">    -21.82845053 </i>
    <i name="e_wo_entrp">    -21.83010480 </i>
    <i name="e_0_energy">    -21.82900195 </i>
   </energy>
  </scstep>
  <scstep>
   <time name="dav">    0.22    0.22</time>
   <time name="total">    0.26    0.26</time>
   <energy>
    <i name="e_fr_energy">    -22.07816031 </i>
    <i name="e_wo_entrp">    -22.07876814 </i>
    <i name="e_0_energy">    -22.07836292 </i>
   </energy>
  </scstep>
  <scstep>
   <time name="dav">    0.24    0.24</time>
   <time name="total">    0.28    0.28</time>
   <energy>
    <i name="e_fr_energy">    -22.22288229 </i>
    <i name="e_wo_entrp">    -22.22379094 </i>
    <i name="e_0_energy">    -22.22318517 </i>
   </energy>
  </scstep>
  <scstep>
   <time name="dav">    0.22    0.22</time>
   <time name="total">    0.26    0.26</time>
   <energy>
    <i name="e_fr_energy">    -22.21825075 </i>
    <i name="e_wo_entrp">    -22.21957763 </i>
    <i name="e_0_energy">    -22.21869304 </i>
   </energy>
  </scstep>
  <scstep>
   <time name="dav">    0.20    0.20</time>
   <time name="total">    0.24    0.24</time>
   <energy>
    <i name="e_fr_energy">    -22.22425898 </i>
    <i name="e_wo_entrp">    -22.22599185 </i>
    <i name="e_0_energy">    -22.22483660 </i>
   </energy>
  </scstep>
  <scstep>
   <time name="dav">    0.20    0.21</time>
   <time name="total">    0.24    0.25</time>
   <energy>
    <i name="e_fr_energy">    -22.23060781 </i>
    <i name="e_wo_entrp">    -22.23230881 </i>
    <i name="e_0_energy">    -22.23117481 </i>
   </energy>
  </scstep>
  <scstep>
   <time name="dav">    0.22    0.22</time>
   <time name="total">    0.26    0.26</time>
   <energy>
    <i name="e_fr_energy">    -22.23306481 </i>
    <i name="e_wo_entrp">    -22.23475839 </i>
    <i name="e_0_energy">    -22.23362934 </i>
   </energy>
  </scstep>
  <scstep>
   <time name="dav">    0.19    0.19</time>
   <time name="total">    0.23    0.23</time>
   <energy>
    <i name="e_fr_energy">    -22.23409189 </i>
    <i name="e_wo_entrp">    -22.23585543 </i>
    <i name="e_0_energy">    -22.23467974 </i>
   </energy>
  </scstep>
  <scstep>
   <time name="dav">    0.18    0.18</time>
   <time name="total">    0.22    0.22</time>
   <energy>
    <i name="e_fr_energy">    -22.23459410 </i>
    <i name="e_wo_entrp">    -22.23636268 </i>
    <i name="e_0_energy">    -22.23518363 </i>
   </energy>
  </scstep>
  <scstep>
   <time name="dav">    0.17    0.17</time>
   <time name="total">    0.21    0.21</time>
   <energy>
    <i name="e_fr_energy">    -22.23484925 </i>
    <i name="e_wo_entrp">    -22.23662548 </i>
    <i name="e_0_energy">    -22.23544133 </i>
   </energy>
  </scstep>
  <scstep>
   <time name="dav">    0.16    0.16</time>
   <time name="total">    0.20    0.20</time>
   <energy>
    <i name="e_fr_energy">    -22.23499434 </i>
    <i name="e_wo_entrp">    -22.23682598 </i>
    <i name="e_0_energy">    -22.23560488 </i>
   </energy>
  </scstep>
  <scstep>
   <time name="dav">    0.15    0.15</time>
   <time name="total">    0.17    0.17</time>
   <energy>
    <i name="alphaZ">     60.06277960 </i>
    <i name="ewald">   1526.23768055 </i>
    <i name="hartreedc">  -3314.31297237 </i>
    <i name="XCdc">     12.90348244 </i>
    <i name="pawpsdc">   2017.64395024 </i>
    <i name="pawaedc">  -2044.46665232 </i>
    <i name="eentropy">      0.00185516 </i>
    <i name="bandstr">    -63.14772079 </i>
    <i name="atom">   1782.84253489 </i>
    <i name="e_fr_energy">    -22.23506259 </i>
    <i name="e_wo_entrp">    -22.23691775 </i>
    <i name="e_0_energy">    -22.23568098 </i>
   </energy>
  </scstep>
  <structure>
   <crystal>
    <varray name="basis" >
     <v>       2.84000000       0.00000000       0.00000000 </v>
     <v>       0.00000000       2.84000000       0.00000000 </v>
     <v>       0.00000000       0.00000000      12.84000000 </v>
    </varray>
    <i name="volume">    103.56230400 </i>
    <varray name="rec_basis" >
     <v>       0.35211268       0.00000000       0.00000000 </v>
     <v>       0.00000000       0.35211268       0.00000000 </v>
     <v>       0.00000000       0.00000000       0.07788162 </v>
    </varray>
   </crystal>
   <varray name="positions" >
    <v>       0.50000000       0.50000000       0.11059190 </v>
    <v>       0.00000000       0.00000000       0.00000000 </v>
    <v>       0.50000000       0.50000000       0.88940810 </v>
   </varray>
  </structure>
  <varray name="forces" >
   <v>       0.00000000      -0.00000000      -0.16367486 </v>
   <v>      -0.00000000      -0.00000000       0.00000000 </v>
   <v>      -0.00000000       0.00000000       0.16367486 </v>
  </varray>
  <varray name="stress" >
   <v>     -52.68103898       0.00000000      -0.00000000 </v>
   <v>       0.00000000     -52.68103898       0.00000000 </v>
   <v>       0.00000000      -0.00000000     -19.57745056 </v>
  </varray>
  <energy>
   <i name="e_fr_energy">    -22.23506259 </i>
   <i name="e_wo_entrp">    -22.23568098 </i>
   <i name="e_0_energy">      0.00185516 </i>
  </energy>
  <time name="totalsc">    4.96    5.00</time>
 </calculation>
 <calculation>
  <scstep>
   <time name="dav">    0.18    0.18</time>
   <time name="total">    0.22    0.22</time>
   <energy>
    <i name="alphaZ">     60.06277960 </i>
    <i name="ewald">   1540.07673644 </i>
    <i name="hartreedc">  -3327.97032472 </i>
    <i name="XCdc">     12.93222345 </i>
    <i name="pawpsdc">   2017.67053671 </i>
    <i name="pawaedc">  -2044.49215305 </i>
    <i name="eentropy">      0.00170189 </i>
    <i name="bandstr">    -63.35803273 </i>
    <i name="atom">   1782.84253489 </i>
    <i name="e_fr_energy">    -22.23399751 </i>
    <i name="e_wo_entrp">    -22.23569941 </i>
    <i name="e_0_energy">    -22.23456481 </i>
   </energy>
  </scstep>
  <scstep>
   <time name="dav">    0.23    0.23</time>
   <time name="total">    0.27    0.27</time>
   <energy>
    <i name="e_fr_energy">    -22.24213042 </i>
    <i name="e_wo_entrp">    -22.24328466 </i>
    <i name="e_0_energy">    -22.24251517 </i>
   </energy>
  </scstep>
  <scstep>
   <time name="dav">    0.24    0.24</time>
   <time name="total">    0.28    0.28</time>
   <energy>
    <i name="e_fr_energy">    -22.23787683 </i>
    <i name="e_wo_entrp">    -22.23965252 </i>
    <i name="e_0_energy">    -22.23846873 </i>
   </energy>
  </scstep>
  <scstep>
   <time name="dav">    0.23    0.23</time>
   <time name="total">    0.27    0.27</time>
   <energy>
    <i name="e_fr_energy">    -22.23697237 </i>
    <i name="e_wo_entrp">    -22.23872231 </i>
    <i name="e_0_energy">    -22.23755568 </i>
   </energy>
  </scstep>
  <scstep>
   <time name="dav">    0.18    0.18</time>
   <time name="total">    0.20    0.20</time>
   <energy>
    <i name="alphaZ">     60.06277960 </i>
    <i name="ewald">   1540.07673644 </i>
    <i name="hartreedc">  -3328.01068508 </i>
    <i name="XCdc">     12.92827067 </i>
    <i name="pawpsdc">   2021.34312710 </i>
    <i name="pawaedc">  -2048.19600103 </i>
    <i name="eentropy">      0.00170662 </i>
    <i name="bandstr">    -63.28536019 </i>
    <i name="atom">   1782.84253489 </i>
    <i name="e_fr_energy">    -22.23689098 </i>
    <i name="e_wo_entrp">    -22.23859760 </i>
    <i name="e_0_energy">    -22.23745985 </i>
   </energy>
  </scstep>
  <structure>
   <crystal>
    <varray name="basis" >
     <v>       2.84000000       0.00000000       0.00000000 </v>
     <v>       0.00000000       2.84000000       0.00000000 </v>
     <v>       0.00000000       0.00000000      12.84000000 </v>
    </varray>
    <i name="volume">    103.56230400 </i>
    <varray name="rec_basis" >
     <v>       0.35211268       0.00000000       0.00000000 </v>
     <v>       0.00000000       0.35211268       0.00000000 </v>
     <v>       0.00000000       0.00000000       0.07788162 </v>
    </varray>
   </crystal>
   <varray name="positions" >
    <v>       0.50000000       0.50000000       0.10997694 </v>
    <v>      -0.00000000      -0.00000000       0.00000000 </v>
    <v>       0.50000000       0.50000000       0.89002306 </v>
   </varray>
  </structure>
  <varray name="forces" >
   <v>       0.00000000       0.00000000      -0.10625773 </v>
   <v>       0.00000000      -0.00000000      -0.00000000 </v>
   <v>       0.00000000       0.00000000       0.10625773 </v>
  </varray>
  <varray name="stress" >
   <v>     -49.88752416       0.00000000       0.00000000 </v>
   <v>       0.00000000     -49.88752416       0.00000000 </v>
   <v>       0.00000000       0.00000000     -17.19672411 </v>
  </varray>
  <energy>
   <i name="e_fr_energy">    -22.23689098 </i>
   <i name="e_wo_entrp">    -22.23745985 </i>
   <i name="e_0_energy">      0.00170662 </i>
  </energy>
  <time name="totalsc">    1.43    1.44</time>
 </calculation>
 <calculation>
  <scstep>
   <time name="dav">    0.19    0.19</time>
   <time name="total">    0.23    0.23</time>
   <energy>
    <i name="alphaZ">     60.06277960 </i>
    <i name="ewald">   1565.75089175 </i>
    <i name="hartreedc">  -3353.26477515 </i>
    <i name="XCdc">     12.98499722 </i>
    <i name="pawpsdc">   2022.45599252 </i>
    <i name="pawaedc">  -2049.31581579 </i>
    <i name="eentropy">      0.00139520 </i>
    <i name="bandstr">    -63.74557174 </i>
    <i name="atom">   1782.84253489 </i>
    <i name="e_fr_energy">    -22.22757149 </i>
    <i name="e_wo_entrp">    -22.22896670 </i>
    <i name="e_0_energy">    -22.22803656 </i>
   </energy>
  </scstep>
  <scstep>
   <time name="dav">    0.24    0.24</time>
   <time name="total">    0.28    0.28</time>
   <energy>
    <i name="e_fr_energy">    -22.25611178 </i>
    <i name="e_wo_entrp">    -22.25526870 </i>
    <i name="e_0_energy">    -22.25583076 </i>
   </energy>
  </scstep>
  <scstep>
   <time name="dav">    0.24    0.24</time>
   <time name="total">    0.28    0.28</time>
   <energy>
    <i name="e_fr_energy">    -22.24046853 </i>
    <i name="e_wo_entrp">    -22.24198528 </i>
    <i name="e_0_energy">    -22.24097411 </i>
   </energy>
  </scstep>
  <scstep>
   <time name="dav">    0.23    0.23</time>
   <time name="total">    0.26    0.27</time>
   <energy>
    <i name="e_fr_energy">    -22.23747152 </i>
    <i name="e_wo_entrp">    -22.23892442 </i>
    <i name="e_0_energy">    -22.23795582 </i>
   </energy>
  </scstep>
  <scstep>
   <time name="dav">    0.20    0.20</time>
   <time name="total">    0.22    0.22</time>
   <energy>
    <i name="alphaZ">     60.06277960 </i>
    <i name="ewald">   1565.75089175 </i>
    <i name="hartreedc">  -3353.32527137 </i>
    <i name="XCdc">     12.97695715 </i>
    <i name="pawpsdc">   2028.98213926 </i>
    <i name="pawaedc">  -2055.90436372 </i>
    <i name="eentropy">      0.00137888 </i>
    <i name="bandstr">    -63.62459156 </i>
    <i name="atom">   1782.84253489 </i>
    <i name="e_fr_energy">    -22.23754512 </i>
    <i name="e_wo_entrp">    -22.23892400 </i>
    <i name="e_0_energy">    -22.23800475 </i>
   </energy>
  </scstep>
  <structure>
   <crystal>
    <varray name="basis" >
     <v>       2.84000000       0.00000000       0.00000000 </v>
     <v>       0.00000000       2.84000000       0.00000000 </v>
     <v>       0.00000000       0.00000000      12.84000000 </v>
    </varray>
    <i name="volume">    103.56230400 </i>
    <varray name="rec_basis" >
     <v>       0.35211268       0.00000000       0.00000000 </v>
     <v>       0.00000000       0.35211268       0.00000000 </v>
     <v>       0.00000000       0.00000000       0.07788162 </v>
    </varray>
   </crystal>
   <varray name="positions" >
    <v>       0.50000000       0.50000000       0.10883887 </v>
    <v>      -0.00000000      -0.00000000       0.00000000 </v>
    <v>       0.50000000       0.50000000       0.89116113 </v>
   </varray>
  </structure>
  <varray name="forces" >
   <v>       0.00000000       0.00000000      -0.00006514 </v>
   <v>       0.00000000       0.00000000       0.00000000 </v>
   <v>      -0.00000000       0.00000000       0.00006514 </v>
  </varray>
  <varray name="stress" >
   <v>     -45.29886874       0.00000000      -0.00000000 </v>
   <v>       0.00000000     -45.29886874       0.00000000 </v>
   <v>      -0.00000000       0.00000000     -13.08081321 </v>
  </varray>
  <energy>
   <i name="e_fr_energy">    -22.23754512 </i>
   <i name="e_wo_entrp">    -22.23800475 </i>
   <i name="e_0_energy">      0.00137888 </i>
  </energy>
  <time name="totalsc">    1.47    1.48</time>
  <eigenvalues>
   <array>
    <dimension dim="1">band</dimension>
    <dimension dim="2">kpoint</dimension>
    <dimension dim="3">spin</dimension>
    <field>eigene</field>
    <field>occ</field>
    <set>
     <set comment="spin 1">
      <set comment="kpoint 1">
       <r>   -7.5874    1.0000 </r>
       <r>   -5.0393    1.0000 </r>
       <r>   -4.8385    1.0000 </r>
       <r>   -4.7806    1.0000 </r>
       <r>   -3.6483    1.0000 </r>
       <r>   -2.9235    1.0000 </r>
       <r>   -2.9034    1.0000 </r>
       <r>   -2.9000    1.0000 </r>
       <r>   -2.7286    1.0000 </r>
       <r>   -2.5897    1.0000 </r>
       <r>   -2.4376    1.0000 </r>
       <r>   -2.1035    1.0000 </r>
       <r>   -2.0702    1.0000 </r>
       <r>   -2.0637    1.0000 </r>
       <r>   -1.2099    1.0000 </r>
       <r>   -1.2052    1.0000 </r>
       <r>   -0.8833    1.0001 </r>
       <r>   -0.0234   -0.0346 </r>
       <r>    2.7726   -0.0000 </r>
       <r>    3.2195   -0.0000 </r>
       <r>    6.3020    0.0000 </r>
      </set>
      <set comment="kpoint 2">
       <r>   -7.2077    1.0000 </r>
       <r>   -4.8245    1.0000 </r>
       <r>   -4.7511    1.0000 </r>
       <r>   -4.5754    1.0000 </r>
       <r>   -3.5838    1.0000 </r>
       <r>   -3.2117    1.0000 </r>
       <r>   -2.9673    1.0000 </r>
       <r>   -2.9580    1.0000 </r>
       <r>   -2.8891    1.0000 </r>
       <r>   -2.4730    1.0000 </r>
       <r>   -2.3671    1.0000 </r>
       <r>   -2.1685    1.0000 </r>
       <r>   -1.9641    1.0000 </r>
       <r>   -1.9009    1.0000 </r>
       <r>   -1.3682    1.0000 </r>
       <r>   -1.0148    1.0000 </r>
       <r>   -0.9465    1.0000 </r>
       <r>    0.2970   -0.0002 </r>
       <r>    3.1578   -0.0000 </r>
       <r>    3.5898   -0.0000 </r>
       <r>    6.7152    0.0000 </r>
      </set>
      <set comment="kpoint 3">
       <r>   -6.5195    1.0000 </r>
       <r>   -4.6494    1.0000 </r>
       <r>   -4.6472    1.0000 </r>
       <r>   -4.2089    1.0000 </r>
       <r>   -3.4429    1.0000 </r>
       <r>   -3.2335    1.0000 </r>
       <r>   -3.1467    1.0000 </r>
       <r>   -3.1022    1.0000 </r>
       <r>   -2.9128    1.0000 </r>
       <r>   -2.4713    1.0000 </r>
       <r>   -2.3852    1.0000 </r>
       <r>   -2.0170    1.0000 </r>
       <r>   -1.8700    1.0000 </r>
       <r>   -1.7663    1.0000 </r>
       <r>   -1.4529    1.0000 </r>
       <r>   -0.9880    1.0000 </r>
       <r>   -0.8030    1.0008 </r>
       <r>    0.9344   -0.0000 </r>
       <r>    3.8117   -0.0000 </r>
       <r>    4.3031   -0.0000 </r>
       <r>    5.3375    0.0000 </r>
      </set>
      <set comment="kpoint 4">
       <r>   -5.7396    1.0000 </r>
       <r>   -4.6304    1.0000 </r>
       <r>   -4.5495    1.0000 </r>
       <r>   -3.8472    1.0000 </r>
       <r>   -3.5719    1.0000 </r>
       <r>   -3.3608    1.0000 </r>
       <r>   -3.1133    1.0000 </r>
       <r>   -2.9974    1.0000 </r>
       <r>   -2.5533    1.0000 </r>
       <r>   -2.5418    1.0000 </r>
       <r>   -2.3569    1.0000 </r>
       <r>   -1.9629    1.0000 </r>
       <r>   -1.8997    1.0000 </r>
       <r>   -1.4666    1.0000 </r>
       <r>   -1.1757    1.0000 </r>
       <r>   -0.9655    1.0000 </r>
       <r>   -0.5549    1.0333 </r>
       <r>    1.7027   -0.0000 </r>
       <r>    2.9615   -0.0000 </r>
       <r>    4.0819   -0.0000 </r>
       <r>    5.3926    0.0000 </r>
      </set>
      <set comment="kpoint 5">
       <r>   -5.2929    1.0000 </r>
       <r>   -4.6533    1.0000 </r>
       <r>   -4.3923    1.0000 </r>
       <r>   -3.7199    1.0000 </r>
       <r>   -3.5195    1.0000 </r>
       <r>   -3.4869    1.0000 </r>
       <r>   -3.0692    1.0000 </r>
       <r>   -3.0226    1.0000 </r>
       <r>   -2.4876    1.0000 </r>
       <r>   -2.3284    1.0000 </r>
       <r>   -2.2941    1.0000 </r>
       <r>   -2.0513    1.0000 </r>
       <r>   -1.7324    1.0000 </r>
       <r>   -1.0873    1.0000 </r>
       <r>   -0.8832    1.0001 </r>
       <r>   -0.6978    1.0064 </r>
       <r>    0.1506   -0.0044 </r>
       <r>    0.6135   -0.0000 </r>
       <r>    2.7214   -0.0000 </r>
       <r>    2.9085   -0.0000 </r>
       <r>    6.2611    0.0000 </r>
      </set>
      <set comment="kpoint 6">
       <r>   -6.8380    1.0000 </r>
       <r>   -4.5774    1.0000 </r>
       <r>   -4.5466    1.0000 </r>
       <r>   -4.4545    1.0000 </r>
       <r>   -3.6472    1.0000 </r>
       <r>   -3.5000    1.0000 </r>
       <r>   -2.9265    1.0000 </r>
       <r>   -2.9167    1.0000 </r>
       <r>   -2.9029    1.0000 </r>
       <r>   -2.6273    1.0000 </r>
       <r>   -2.5236    1.0000 </r>
       <r>   -2.0706    1.0000 </r>
       <r>   -1.9358    1.0000 </r>
       <r>   -1.8137    1.0000 </r>
       <r>   -1.1481    1.0000 </r>
       <r>   -1.0572    1.0000 </r>
       <r>   -1.0104    1.0000 </r>
       <r>    0.7191   -0.0000 </r>
       <r>    3.5522   -0.0000 </r>
       <r>    3.9650   -0.0000 </r>
       <r>    7.1370    0.0000 </r>
      </set>
      <set comment="kpoint 7">
       <r>   -6.1765    1.0000 </r>
       <r>   -4.4345    1.0000 </r>
       <r>   -4.3174    1.0000 </r>
       <r>   -4.1501    1.0000 </r>
       <r>   -3.7262    1.0000 </r>
       <r>   -3.4729    1.0000 </r>
       <r>   -3.1098    1.0000 </r>
       <r>   -2.9877    1.0000 </r>
       <r>   -2.8789    1.0000 </r>
       <r>   -2.6656    1.0000 </r>
       <r>   -2.5445    1.0000 </r>
       <r>   -2.0432    1.0000 </r>
       <r>   -1.8815    1.0000 </r>
       <r>   -1.6988    1.0000 </r>
       <r>   -1.1738    1.0000 </r>
       <r>   -1.1432    1.0000 </r>
       <r>   -0.5754    1.0296 </r>
       <r>    1.4478   -0.0000 </r>
       <r>    4.2412   -0.0000 </r>
       <r>    4.6922   -0.0000 </r>
       <r>    5.6947    0.0000 </r>
      </set>
      <set comment="kpoint 8">
       <r>   -5.4460    1.0000 </r>
       <r>   -4.3589    1.0000 </r>
       <r>   -4.3510    1.0000 </r>
       <r>   -3.9328    1.0000 </r>
       <r>   -3.7163    1.0000 </r>
       <r>   -3.5357    1.0000 </r>
       <r>   -3.0714    1.0000 </r>
       <r>   -2.9382    1.0000 </r>
       <r>   -2.6942    1.0000 </r>
       <r>   -2.5457    1.0000 </r>
       <r>   -2.4430    1.0000 </r>
       <r>   -2.0119    1.0000 </r>
       <r>   -1.8258    1.0000 </r>
       <r>   -1.6059    1.0000 </r>
       <r>   -1.2149    1.0000 </r>
       <r>   -1.0405    1.0000 </r>
       <r>    0.1026   -0.0098 </r>
       <r>    2.3242   -0.0000 </r>
       <r>    3.2772   -0.0000 </r>
       <r>    4.6192   -0.0000 </r>
       <r>    5.7759    0.0000 </r>
      </set>
      <set comment="kpoint 9">
       <r>   -5.0345    1.0000 </r>
       <r>   -4.4063    1.0000 </r>
       <r>   -4.3147    1.0000 </r>
       <r>   -3.8050    1.0000 </r>
       <r>   -3.6821    1.0000 </r>
       <r>   -3.5655    1.0000 </r>
       <r>   -3.2429    1.0000 </r>
       <r>   -2.9788    1.0000 </r>
       <r>   -2.5692    1.0000 </r>
       <r>   -2.2756    1.0000 </r>
       <r>   -2.1350    1.0000 </r>
       <r>   -1.8550    1.0000 </r>
       <r>   -1.7150    1.0000 </r>
       <r>   -1.5032    1.0000 </r>
       <r>   -1.3714    1.0000 </r>
       <r>   -0.4393    0.9834 </r>
       <r>    1.0136   -0.0000 </r>
       <r>    1.1296   -0.0000 </r>
       <r>    3.1432   -0.0000 </r>
       <r>    3.4498   -0.0000 </r>
       <r>    6.6036    0.0000 </r>
      </set>
      <set comment="kpoint 10">
       <r>   -5.5892    1.0000 </r>
       <r>   -4.1483    1.0000 </r>
       <r>   -4.0606    1.0000 </r>
       <r>   -3.9628    1.0000 </r>
       <r>   -3.8254    1.0000 </r>
       <r>   -3.7075    1.0000 </r>
       <r>   -3.3076    1.0000 </r>
       <r>   -2.9139    1.0000 </r>
       <r>   -2.8008    1.0000 </r>
       <r>   -2.7572    1.0000 </r>
       <r>   -2.5683    1.0000 </r>
       <r>   -2.1005    1.0000 </r>
       <r>   -1.8335    1.0000 </r>
       <r>   -1.5765    1.0000 </r>
       <r>   -1.2688    1.0000 </r>
       <r>   -1.1041    1.0000 </r>
       <r>    0.0546   -0.0188 </r>
       <r>    2.2810   -0.0000 </r>
       <r>    5.0084   -0.0000 </r>
       <r>    5.4484    0.0000 </r>
       <r>    5.6204    0.0000 </r>
      </set>
      <set comment="kpoint 11">
       <r>   -4.9996    1.0000 </r>
       <r>   -4.2474    1.0000 </r>
       <r>   -3.9911    1.0000 </r>
       <r>   -3.9585    1.0000 </r>
       <r>   -3.8296    1.0000 </r>
       <r>   -3.7333    1.0000 </r>
       <r>   -3.1604    1.0000 </r>
       <r>   -2.8884    1.0000 </r>
       <r>   -2.7415    1.0000 </r>
       <r>   -2.5665    1.0000 </r>
       <r>   -2.3130    1.0000 </r>
       <r>   -2.1018    1.0000 </r>
       <r>   -1.6821    1.0000 </r>
       <r>   -1.5712    1.0000 </r>
       <r>   -1.1593    1.0000 </r>
       <r>   -1.0771    1.0000 </r>
       <r>    0.9629   -0.0000 </r>
       <r>    3.2945   -0.0000 </r>
       <r>    3.7126   -0.0000 </r>
       <r>    5.5959    0.0000 </r>
       <r>    6.5339    0.0000 </r>
      </set>
      <set comment="kpoint 12">
       <r>   -4.6557    1.0000 </r>
       <r>   -4.4295    1.0000 </r>
       <r>   -4.0705    1.0000 </r>
       <r>   -3.9493    1.0000 </r>
       <r>   -3.8678    1.0000 </r>
       <r>   -3.6604    1.0000 </r>
       <r>   -3.1280    1.0000 </r>
       <r>   -2.9129    1.0000 </r>
       <r>   -2.6845    1.0000 </r>
       <r>   -2.2397    1.0000 </r>
       <r>   -1.9257    1.0000 </r>
       <r>   -1.9234    1.0000 </r>
       <r>   -1.7098    1.0000 </r>
       <r>   -1.5840    1.0000 </r>
       <r>   -1.3269    1.0000 </r>
       <r>   -0.1378    0.0294 </r>
       <r>    1.5453   -0.0000 </r>
       <r>    2.2028   -0.0000 </r>
       <r>    3.9547   -0.0000 </r>
       <r>    4.4350   -0.0000 </r>
       <r>    7.2797    0.0000 </r>
      </set>
      <set comment="kpoint 13">
       <r>   -4.7220    1.0000 </r>
       <r>   -4.3150    1.0000 </r>
       <r>   -3.9674    1.0000 </r>
       <r>   -3.8988    1.0000 </r>
       <r>   -3.8445    1.0000 </r>
       <r>   -3.8416    1.0000 </r>
       <r>   -3.3483    1.0000 </r>
       <r>   -2.5565    1.0000 </r>
       <r>   -2.4667    1.0000 </r>
       <r>   -2.4526    1.0000 </r>
       <r>   -2.2336    1.0000 </r>
       <r>   -2.0741    1.0000 </r>
       <r>   -1.4815    1.0000 </r>
       <r>   -1.4103    1.0000 </r>
       <r>   -1.1844    1.0000 </r>
       <r>   -0.8009    1.0008 </r>
       <r>    2.0218   -0.0000 </r>
       <r>    3.4601   -0.0000 </r>
       <r>    4.4891   -0.0000 </r>
       <r>    6.8903    0.0000 </r>
       <r>    6.9125    0.0000 </r>
      </set>
      <set comment="kpoint 14">
       <r>   -4.6803    1.0000 </r>
       <r>   -4.4112    1.0000 </r>
       <r>   -3.9859    1.0000 </r>
       <r>   -3.9797    1.0000 </r>
       <r>   -3.9257    1.0000 </r>
       <r>   -3.6990    1.0000 </r>
       <r>   -3.4598    1.0000 </r>
       <r>   -2.4598    1.0000 </r>
       <r>   -2.3186    1.0000 </r>
       <r>   -2.1795    1.0000 </r>
       <r>   -1.9516    1.0000 </r>
       <r>   -1.9107    1.0000 </r>
       <r>   -1.4789    1.0000 </r>
       <r>   -1.4031    1.0000 </r>
       <r>   -1.3271    1.0000 </r>
       <r>    0.3495   -0.0000 </r>
       <r>    1.9887   -0.0000 </r>
       <r>    3.3713   -0.0000 </r>
       <r>    5.0798   -0.0000 </r>
       <r>    5.7092    0.0000 </r>
       <r>    7.7384    0.0000 </r>
      </set>
      <set comment="kpoint 15">
       <r>   -4.7806    1.0000 </r>
       <r>   -4.5245    1.0000 </r>
       <r>   -3.9903    1.0000 </r>
       <r>   -3.9442    1.0000 </r>
       <r>   -3.7856    1.0000 </r>
       <r>   -3.7590    1.0000 </r>
       <r>   -3.7192    1.0000 </r>
       <r>   -2.2451    1.0000 </r>
       <r>   -2.0520    1.0000 </r>
       <r>   -1.9606    1.0000 </r>
       <r>   -1.8334    1.0000 </r>
       <r>   -1.7653    1.0000 </r>
       <r>   -1.4651    1.0000 </r>
       <r>   -1.3399    1.0000 </r>
       <r>   -1.2762    1.0000 </r>
       <r>    1.1380   -0.0000 </r>
       <r>    1.9098   -0.0000 </r>
       <r>    4.7303   -0.0000 </r>
       <r>    5.9929    0.0000 </r>
       <r>    6.6109    0.0000 </r>
       <r>    7.1700    0.0000 </r>
      </set>
     </set>
     <set comment="spin 2">
      <set comment="kpoint 1">
       <r>   -7.3118    1.0000 </r>
       <r>   -4.2790    1.0000 </r>
       <r>   -2.9526    1.0000 </r>
       <r>   -2.7692    1.0000 </r>
       <r>   -1.1927    1.0000 </r>
       <r>   -0.5047    1.0327 </r>
       <r>   -0.4712    1.0170 </r>
       <r>   -0.4370    0.9801 </r>
       <r>   -0.1173    0.0016 </r>
       <r>    0.0126   -0.0283 </r>
       <r>    0.0260   -0.0253 </r>
       <r>    0.3557   -0.0000 </r>
       <r>    0.7446   -0.0000 </r>
       <r>    0.7674   -0.0000 </r>
       <r>    1.4072   -0.0000 </r>
       <r>    1.4145   -0.0000 </r>
       <r>    1.7953   -0.0000 </r>
       <r>    1.8477   -0.0000 </r>
       <r>    3.7136   -0.0000 </r>
       <r>    4.1857   -0.0000 </r>
       <r>    7.0443    0.0000 </r>
      </set>
      <set comment="kpoint 2">
       <r>   -6.9236    1.0000 </r>
       <r>   -3.9813    1.0000 </r>
       <r>   -2.7846    1.0000 </r>
       <r>   -2.6343    1.0000 </r>
       <r>   -1.2816    1.0000 </r>
       <r>   -0.7922    1.0010 </r>
       <r>   -0.6129    1.0211 </r>
       <r>   -0.4035    0.9184 </r>
       <r>   -0.3034    0.5806 </r>
       <r>    0.0920   -0.0115 </r>
       <r>    0.2235   -0.0010 </r>
       <r>    0.6283   -0.0000 </r>
       <r>    0.6577   -0.0000 </r>
       <r>    0.9300   -0.0000 </r>
       <r>    1.1805   -0.0000 </r>
       <r>    1.6267   -0.0000 </r>
       <r>    1.7121   -0.0000 </r>
       <r>    1.9294   -0.0000 </r>
       <r>    4.0597   -0.0000 </r>
       <r>    4.5553   -0.0000 </r>
       <r>    7.5111    0.0000 </r>
      </set>
      <set comment="kpoint 3">
       <r>   -6.1903    1.0000 </r>
       <r>   -3.5231    1.0000 </r>
       <r>   -2.7214    1.0000 </r>
       <r>   -2.2551    1.0000 </r>
       <r>   -1.1977    1.0000 </r>
       <r>   -1.0914    1.0000 </r>
       <r>   -0.8347    1.0003 </r>
       <r>   -0.6301    1.0173 </r>
       <r>   -0.2421    0.3261 </r>
       <r>    0.2500   -0.0005 </r>
       <r>    0.2888   -0.0002 </r>
       <r>    0.6948   -0.0000 </r>
       <r>    0.9499   -0.0000 </r>
       <r>    0.9604   -0.0000 </r>
       <r>    0.9852   -0.0000 </r>
       <r>    1.6864   -0.0000 </r>
       <r>    1.8227   -0.0000 </r>
       <r>    2.2826   -0.0000 </r>
       <r>    4.6370   -0.0000 </r>
       <r>    5.2477    0.0000 </r>
       <r>    6.4951    0.0000 </r>
      </set>
      <set comment="kpoint 4">
       <r>   -5.2178    1.0000 </r>
       <r>   -3.1760    1.0000 </r>
       <r>   -2.8613    1.0000 </r>
       <r>   -1.7890    1.0000 </r>
       <r>   -1.3075    1.0000 </r>
       <r>   -1.0830    1.0000 </r>
       <r>   -0.6900    1.0073 </r>
       <r>   -0.6885    1.0075 </r>
       <r>   -0.3182    0.6415 </r>
       <r>    0.1296   -0.0063 </r>
       <r>    0.4771   -0.0000 </r>
       <r>    0.8221   -0.0000 </r>
       <r>    0.8251   -0.0000 </r>
       <r>    0.9245   -0.0000 </r>
       <r>    1.3239   -0.0000 </r>
       <r>    1.7664   -0.0000 </r>
       <r>    1.9576   -0.0000 </r>
       <r>    2.8650   -0.0000 </r>
       <r>    4.4312   -0.0000 </r>
       <r>    5.0336   -0.0000 </r>
       <r>    6.3334    0.0000 </r>
      </set>
      <set comment="kpoint 5">
       <r>   -4.2412    1.0000 </r>
       <r>   -3.2508    1.0000 </r>
       <r>   -3.0504    1.0000 </r>
       <r>   -1.4547    1.0000 </r>
       <r>   -1.3384    1.0000 </r>
       <r>   -1.2177    1.0000 </r>
       <r>   -0.8068    1.0007 </r>
       <r>   -0.4810    1.0234 </r>
       <r>    0.0818   -0.0133 </r>
       <r>    0.1420   -0.0051 </r>
       <r>    0.5655   -0.0000 </r>
       <r>    0.6808   -0.0000 </r>
       <r>    0.8390   -0.0000 </r>
       <r>    1.0093   -0.0000 </r>
       <r>    1.6180   -0.0000 </r>
       <r>    1.9421   -0.0000 </r>
       <r>    2.0930   -0.0000 </r>
       <r>    2.5480   -0.0000 </r>
       <r>    4.0767   -0.0000 </r>
       <r>    4.1633   -0.0000 </r>
       <r>    7.0257    0.0000 </r>
      </set>
      <set comment="kpoint 6">
       <r>   -6.5441    1.0000 </r>
       <r>   -3.6673    1.0000 </r>
       <r>   -2.5635    1.0000 </r>
       <r>   -2.5409    1.0000 </r>
       <r>   -1.4256    1.0000 </r>
       <r>   -1.1671    1.0000 </r>
       <r>   -0.6300    1.0173 </r>
       <r>   -0.2797    0.4807 </r>
       <r>   -0.1799    0.1182 </r>
       <r>   -0.0088   -0.0326 </r>
       <r>    0.0145   -0.0279 </r>
       <r>    0.6740   -0.0000 </r>
       <r>    0.7163   -0.0000 </r>
       <r>    1.0597   -0.0000 </r>
       <r>    1.4516   -0.0000 </r>
       <r>    1.4796   -0.0000 </r>
       <r>    1.5913   -0.0000 </r>
       <r>    2.2603   -0.0000 </r>
       <r>    4.4251   -0.0000 </r>
       <r>    4.9363   -0.0000 </r>
       <r>    7.9746    0.0000 </r>
      </set>
      <set comment="kpoint 7">
       <r>   -5.8311    1.0000 </r>
       <r>   -3.1847    1.0000 </r>
       <r>   -2.4936    1.0000 </r>
       <r>   -2.1765    1.0000 </r>
       <r>   -1.4702    1.0000 </r>
       <r>   -1.4471    1.0000 </r>
       <r>   -0.9223    1.0000 </r>
       <r>   -0.3329    0.6993 </r>
       <r>   -0.1840    0.1293 </r>
       <r>    0.0377   -0.0226 </r>
       <r>    0.0489   -0.0201 </r>
       <r>    0.7708   -0.0000 </r>
       <r>    0.8041   -0.0000 </r>
       <r>    1.1562   -0.0000 </r>
       <r>    1.3631   -0.0000 </r>
       <r>    1.5278   -0.0000 </r>
       <r>    1.7965   -0.0000 </r>
       <r>    2.8402   -0.0000 </r>
       <r>    5.0551   -0.0000 </r>
       <r>    5.6531    0.0000 </r>
       <r>    6.8615    0.0000 </r>
      </set>
      <set comment="kpoint 8">
       <r>   -4.8944    1.0000 </r>
       <r>   -2.8597    1.0000 </r>
       <r>   -2.6362    1.0000 </r>
       <r>   -1.8660    1.0000 </r>
       <r>   -1.5715    1.0000 </r>
       <r>   -1.3221    1.0000 </r>
       <r>   -0.9497    1.0000 </r>
       <r>   -0.4480    0.9947 </r>
       <r>   -0.2300    0.2798 </r>
       <r>    0.0672   -0.0161 </r>
       <r>    0.1989   -0.0017 </r>
       <r>    0.8506   -0.0000 </r>
       <r>    0.9848   -0.0000 </r>
       <r>    1.0936   -0.0000 </r>
       <r>    1.3470   -0.0000 </r>
       <r>    1.6750   -0.0000 </r>
       <r>    2.2146   -0.0000 </r>
       <r>    3.5714   -0.0000 </r>
       <r>    4.7248   -0.0000 </r>
       <r>    5.5828    0.0000 </r>
       <r>    6.7240    0.0000 </r>
      </set>
      <set comment="kpoint 9">
       <r>   -3.9524    1.0000 </r>
       <r>   -3.0663    1.0000 </r>
       <r>   -2.7799    1.0000 </r>
       <r>   -1.6954    1.0000 </r>
       <r>   -1.5574    1.0000 </r>
       <r>   -1.4600    1.0000 </r>
       <r>   -0.5844    1.0276 </r>
       <r>   -0.4712    1.0170 </r>
       <r>   -0.1744    0.1041 </r>
       <r>    0.2557   -0.0005 </r>
       <r>    0.3108   -0.0001 </r>
       <r>    0.8840   -0.0000 </r>
       <r>    0.8876   -0.0000 </r>
       <r>    1.2336   -0.0000 </r>
       <r>    1.2909   -0.0000 </r>
       <r>    2.0266   -0.0000 </r>
       <r>    2.8155   -0.0000 </r>
       <r>    2.9216   -0.0000 </r>
       <r>    4.5745   -0.0000 </r>
       <r>    4.6381   -0.0000 </r>
       <r>    7.3627    0.0000 </r>
      </set>
      <set comment="kpoint 10">
       <r>   -5.1689    1.0000 </r>
       <r>   -2.6374    1.0000 </r>
       <r>   -2.2110    1.0000 </r>
       <r>   -2.0567    1.0000 </r>
       <r>   -1.8156    1.0000 </r>
       <r>   -1.6738    1.0000 </r>
       <r>   -1.1836    1.0000 </r>
       <r>   -0.1932    0.1554 </r>
       <r>   -0.0754   -0.0291 </r>
       <r>   -0.0529   -0.0347 </r>
       <r>   -0.0477   -0.0352 </r>
       <r>    0.7395   -0.0000 </r>
       <r>    0.8490   -0.0000 </r>
       <r>    1.3470   -0.0000 </r>
       <r>    1.3952   -0.0000 </r>
       <r>    1.5765   -0.0000 </r>
       <r>    2.1363   -0.0000 </r>
       <r>    3.6130   -0.0000 </r>
       <r>    5.7857    0.0000 </r>
       <r>    6.4181    0.0000 </r>
       <r>    6.7733    0.0000 </r>
      </set>
      <set comment="kpoint 11">
       <r>   -4.3309    1.0000 </r>
       <r>   -2.3914    1.0000 </r>
       <r>   -2.3456    1.0000 </r>
       <r>   -1.9985    1.0000 </r>
       <r>   -1.7611    1.0000 </r>
       <r>   -1.6359    1.0000 </r>
       <r>   -1.3032    1.0000 </r>
       <r>   -0.2068    0.1979 </r>
       <r>   -0.1105   -0.0056 </r>
       <r>    0.1082   -0.0090 </r>
       <r>    0.1849   -0.0022 </r>
       <r>    0.9003   -0.0000 </r>
       <r>    0.9297   -0.0000 </r>
       <r>    1.2421   -0.0000 </r>
       <r>    1.5575   -0.0000 </r>
       <r>    1.5931   -0.0000 </r>
       <r>    2.8248   -0.0000 </r>
       <r>    4.5235   -0.0000 </r>
       <r>    5.0674   -0.0000 </r>
       <r>    6.5434    0.0000 </r>
       <r>    7.4864    0.0000 </r>
      </set>
      <set comment="kpoint 12">
       <r>   -3.5155    1.0000 </r>
       <r>   -2.8731    1.0000 </r>
       <r>   -2.3754    1.0000 </r>
       <r>   -1.8927    1.0000 </r>
       <r>   -1.7212    1.0000 </r>
       <r>   -1.7187    1.0000 </r>
       <r>   -1.0362    1.0000 </r>
       <r>   -0.2425    0.3276 </r>
       <r>    0.0258   -0.0254 </r>
       <r>    0.1964   -0.0018 </r>
       <r>    0.6425   -0.0000 </r>
       <r>    0.9478   -0.0000 </r>
       <r>    1.0469   -0.0000 </r>
       <r>    1.1634   -0.0000 </r>
       <r>    1.4737   -0.0000 </r>
       <r>    2.0602   -0.0000 </r>
       <r>    3.2486   -0.0000 </r>
       <r>    3.7546   -0.0000 </r>
       <r>    5.3271    0.0000 </r>
       <r>    5.6370    0.0000 </r>
       <r>    8.0225    0.0000 </r>
      </set>
      <set comment="kpoint 13">
       <r>   -3.7126    1.0000 </r>
       <r>   -2.5189    1.0000 </r>
       <r>   -1.9856    1.0000 </r>
       <r>   -1.8817    1.0000 </r>
       <r>   -1.8769    1.0000 </r>
       <r>   -1.8701    1.0000 </r>
       <r>   -1.5013    1.0000 </r>
       <r>    0.0042   -0.0301 </r>
       <r>    0.2242   -0.0010 </r>
       <r>    0.2551   -0.0005 </r>
       <r>    0.3903   -0.0000 </r>
       <r>    0.9624   -0.0000 </r>
       <r>    1.1013   -0.0000 </r>
       <r>    1.3927   -0.0000 </r>
       <r>    1.5317   -0.0000 </r>
       <r>    1.5992   -0.0000 </r>
       <r>    3.6767   -0.0000 </r>
       <r>    4.6774   -0.0000 </r>
       <r>    5.6690    0.0000 </r>
       <r>    7.7816    0.0000 </r>
       <r>    8.1551    0.0000 </r>
      </set>
      <set comment="kpoint 14">
       <r>   -3.2762    1.0000 </r>
       <r>   -2.7442    1.0000 </r>
       <r>   -2.0873    1.0000 </r>
       <r>   -1.9304    1.0000 </r>
       <r>   -1.9104    1.0000 </r>
       <r>   -1.7208    1.0000 </r>
       <r>   -1.4680    1.0000 </r>
       <r>    0.2215   -0.0010 </r>
       <r>    0.3721   -0.0000 </r>
       <r>    0.4359   -0.0000 </r>
       <r>    0.8991   -0.0000 </r>
       <r>    1.0080   -0.0000 </r>
       <r>    1.2224   -0.0000 </r>
       <r>    1.3732   -0.0000 </r>
       <r>    1.5358   -0.0000 </r>
       <r>    2.0415   -0.0000 </r>
       <r>    3.3509   -0.0000 </r>
       <r>    4.7943   -0.0000 </r>
       <r>    6.3263    0.0000 </r>
       <r>    6.9004    0.0000 </r>
       <r>    8.8358    0.0000 </r>
      </set>
      <set comment="kpoint 15">
       <r>   -3.2721    1.0000 </r>
       <r>   -2.7225    1.0000 </r>
       <r>   -2.0178    1.0000 </r>
       <r>   -1.9957    1.0000 </r>
       <r>   -1.7570    1.0000 </r>
       <r>   -1.7220    1.0000 </r>
       <r>   -1.6907    1.0000 </r>
       <r>    0.5555   -0.0000 </r>
       <r>    0.5970   -0.0000 </r>
       <r>    0.9113   -0.0000 </r>
       <r>    1.0414   -0.0000 </r>
       <r>    1.1251   -0.0000 </r>
       <r>    1.4739   -0.0000 </r>
       <r>    1.4915   -0.0000 </r>
       <r>    1.6280   -0.0000 </r>
       <r>    2.1459   -0.0000 </r>
       <r>    2.9236   -0.0000 </r>
       <r>    5.9962    0.0000 </r>
       <r>    7.0774    0.0000 </r>
       <r>    8.1824    0.0000 </r>
       <r>    8.3882    0.0000 </r>
      </set>
     </set>
    </set>
   </array>
  </eigenvalues>
  <separator name="orbital magnetization" >
   <v name="MAGDIPOLOUT">      0.00000000      0.00000000      0.00000000</v>
  </separator>
  <dos>
   <i name="efermi">     -0.28422833 </i>
   <total>
    <array>
     <dimension dim="1">gridpoints</dimension>
     <dimension dim="2">spin</dimension>
     <field>energy</field>
     <field>total</field>
     <field>integrated</field>
     <set>
      <set comment="spin 1">
       <r>    -9.5874     0.0000     0.0000 </r>
       <r>    -9.5194     0.0000     0.0000 </r>
       <r>    -9.4513     0.0000     0.0000 </r>
       <r>    -9.3832     0.0000     0.0000 </r>
       <r>    -9.3151     0.0000     0.0000 </r>
       <r>    -9.2471    -0.0000    -0.0000 </r>
       <r>    -9.1790    -0.0000    -0.0000 </r>
       <r>    -9.1109    -0.0000    -0.0000 </r>
       <r>    -9.0428    -0.0000    -0.0000 </r>
       <r>    -8.9747    -0.0000    -0.0000 </r>
       <r>    -8.9067    -0.0000    -0.0000 </r>
       <r>    -8.8386    -0.0000    -0.0000 </r>
       <r>    -8.7705    -0.0000    -0.0000 </r>
       <r>    -8.7024    -0.0000    -0.0000 </r>
       <r>    -8.6344    -0.0000    -0.0000 </r>
       <r>    -8.5663    -0.0000    -0.0000 </r>
       <r>    -8.4982    -0.0000    -0.0000 </r>
       <r>    -8.4301    -0.0000    -0.0000 </r>
       <r>    -8.3621    -0.0000    -0.0000 </r>
       <r>    -8.2940    -0.0000    -0.0000 </r>
       <r>    -8.2259    -0.0000    -0.0000 </r>
       <r>    -8.1578    -0.0001    -0.0000 </r>
       <r>    -8.0897    -0.0005    -0.0000 </r>
       <r>    -8.0217    -0.0020    -0.0002 </r>
       <r>    -7.9536    -0.0052    -0.0005 </r>
       <r>    -7.8855    -0.0087    -0.0011 </r>
       <r>    -7.8174    -0.0038    -0.0014 </r>
       <r>    -7.7494     0.0243     0.0003 </r>
       <r>    -7.6813     0.0802     0.0057 </r>
       <r>    -7.6132     0.1376     0.0151 </r>
       <r>    -7.5451     0.1522     0.0255 </r>
       <r>    -7.4770     0.1138     0.0332 </r>
       <r>    -7.4090     0.0753     0.0383 </r>
       <r>    -7.3409     0.1065     0.0456 </r>
       <r>    -7.2728     0.2118     0.0600 </r>
       <r>    -7.2047     0.3070     0.0809 </r>
       <r>    -7.1367     0.3020     0.1015 </r>
       <r>    -7.0686     0.2031     0.1153 </r>
       <r>    -7.0005     0.1048     0.1224 </r>
       <r>    -6.9324     0.0808     0.1279 </r>
       <r>    -6.8644     0.1130     0.1356 </r>
       <r>    -6.7963     0.1355     0.1448 </r>
       <r>    -6.7282     0.1291     0.1536 </r>
       <r>    -6.6601     0.1436     0.1634 </r>
       <r>    -6.5920     0.2155     0.1781 </r>
       <r>    -6.5240     0.2944     0.1981 </r>
       <r>    -6.4559     0.2957     0.2183 </r>
       <r>    -6.3878     0.2209     0.2333 </r>
       <r>    -6.3197     0.1688     0.2448 </r>
       <r>    -6.2517     0.2098     0.2591 </r>
       <r>    -6.1836     0.2906     0.2789 </r>
       <r>    -6.1155     0.2998     0.2993 </r>
       <r>    -6.0474     0.2036     0.3131 </r>
       <r>    -5.9793     0.0816     0.3187 </r>
       <r>    -5.9113     0.0393     0.3214 </r>
       <r>    -5.8432     0.1141     0.3291 </r>
       <r>    -5.7751     0.2532     0.3464 </r>
       <r>    -5.7070     0.3645     0.3712 </r>
       <r>    -5.6390     0.4025     0.3986 </r>
       <r>    -5.5709     0.4032     0.4260 </r>
       <r>    -5.5028     0.4243     0.4549 </r>
       <r>    -5.4347     0.4693     0.4869 </r>
       <r>    -5.3666     0.4894     0.5202 </r>
       <r>    -5.2986     0.4473     0.5506 </r>
       <r>    -5.2305     0.3777     0.5763 </r>
       <r>    -5.1624     0.3790     0.6021 </r>
       <r>    -5.0943     0.5070     0.6366 </r>
       <r>    -5.0263     0.6872     0.6834 </r>
       <r>    -4.9582     0.8257     0.7396 </r>
       <r>    -4.8901     1.0017     0.8078 </r>
       <r>    -4.8220     1.4210     0.9046 </r>
       <r>    -4.7540     2.1336     1.0498 </r>
       <r>    -4.6859     2.8893     1.2465 </r>
       <r>    -4.6178     3.3492     1.4745 </r>
       <r>    -4.5497     3.4450     1.7091 </r>
       <r>    -4.4816     3.4231     1.9421 </r>
       <r>    -4.4136     3.4581     2.1775 </r>
       <r>    -4.3455     3.3793     2.4076 </r>
       <r>    -4.2774     2.9547     2.6087 </r>
       <r>    -4.2093     2.3277     2.7672 </r>
       <r>    -4.1413     1.9865     2.9024 </r>
       <r>    -4.0732     2.3146     3.0600 </r>
       <r>    -4.0051     3.2161     3.2789 </r>
       <r>    -3.9370     4.1854     3.5639 </r>
       <r>    -3.8689     4.7744     3.8889 </r>
       <r>    -3.8009     4.9318     4.2246 </r>
       <r>    -3.7328     4.8426     4.5543 </r>
       <r>    -3.6647     4.6214     4.8689 </r>
       <r>    -3.5966     4.2820     5.1604 </r>
       <r>    -3.5286     3.8163     5.4202 </r>
       <r>    -3.4605     3.2041     5.6384 </r>
       <r>    -3.3924     2.5181     5.8098 </r>
       <r>    -3.3243     2.0390     5.9486 </r>
       <r>    -3.2563     2.0865     6.0906 </r>
       <r>    -3.1882     2.7195     6.2758 </r>
       <r>    -3.1201     3.7099     6.5283 </r>
       <r>    -3.0520     4.7429     6.8512 </r>
       <r>    -2.9839     5.4771     7.2241 </r>
       <r>    -2.9159     5.5258     7.6003 </r>
       <r>    -2.8478     4.7496     7.9236 </r>
       <r>    -2.7797     3.6203     8.1701 </r>
       <r>    -2.7116     2.9676     8.3721 </r>
       <r>    -2.6436     3.2404     8.5927 </r>
       <r>    -2.5755     4.1395     8.8745 </r>
       <r>    -2.5074     4.9585     9.2121 </r>
       <r>    -2.4393     5.1934     9.5656 </r>
       <r>    -2.3712     4.8459     9.8955 </r>
       <r>    -2.3032     4.2505    10.1849 </r>
       <r>    -2.2351     3.7733    10.4418 </r>
       <r>    -2.1670     3.6913    10.6930 </r>
       <r>    -2.0989     4.1214    10.9736 </r>
       <r>    -2.0309     4.8997    11.3072 </r>
       <r>    -1.9628     5.6025    11.6886 </r>
       <r>    -1.8947     5.7978    12.0833 </r>
       <r>    -1.8266     5.3464    12.4473 </r>
       <r>    -1.7585     4.4893    12.7529 </r>
       <r>    -1.6905     3.6381    13.0005 </r>
       <r>    -1.6224     3.1039    13.2118 </r>
       <r>    -1.5543     2.9823    13.4149 </r>
       <r>    -1.4862     3.1522    13.6295 </r>
       <r>    -1.4182     3.3607    13.8583 </r>
       <r>    -1.3501     3.4400    14.0924 </r>
       <r>    -1.2820     3.4652    14.3283 </r>
       <r>    -1.2139     3.6041    14.5737 </r>
       <r>    -1.1459     3.8301    14.8344 </r>
       <r>    -1.0778     3.9042    15.1002 </r>
       <r>    -1.0097     3.6284    15.3472 </r>
       <r>    -0.9416     3.0212    15.5529 </r>
       <r>    -0.8735     2.2690    15.7074 </r>
       <r>    -0.8055     1.5887    15.8155 </r>
       <r>    -0.7374     1.1279    15.8923 </r>
       <r>    -0.6693     0.9260    15.9554 </r>
       <r>    -0.6012     0.9076    16.0171 </r>
       <r>    -0.5332     0.9159    16.0795 </r>
       <r>    -0.4651     0.8099    16.1346 </r>
       <r>    -0.3970     0.5720    16.1736 </r>
       <r>    -0.3289     0.3156    16.1951 </r>
       <r>    -0.2608     0.1797    16.2073 </r>
       <r>    -0.1928     0.2119    16.2217 </r>
       <r>    -0.1247     0.3526    16.2457 </r>
       <r>    -0.0566     0.5240    16.2814 </r>
       <r>     0.0115     0.6957    16.3288 </r>
       <r>     0.0795     0.8478    16.3865 </r>
       <r>     0.1476     0.9351    16.4501 </r>
       <r>     0.2157     0.9338    16.5137 </r>
       <r>     0.2838     0.8618    16.5724 </r>
       <r>     0.3519     0.7278    16.6219 </r>
       <r>     0.4199     0.5410    16.6587 </r>
       <r>     0.4880     0.3752    16.6843 </r>
       <r>     0.5561     0.3174    16.7059 </r>
       <r>     0.6242     0.3474    16.7295 </r>
       <r>     0.6922     0.3650    16.7544 </r>
       <r>     0.7603     0.3525    16.7784 </r>
       <r>     0.8284     0.4220    16.8071 </r>
       <r>     0.8965     0.6566    16.8518 </r>
       <r>     0.9645     0.9607    16.9172 </r>
       <r>     1.0326     1.1316    16.9943 </r>
       <r>     1.1007     1.0525    17.0659 </r>
       <r>     1.1688     0.7721    17.1185 </r>
       <r>     1.2369     0.4436    17.1487 </r>
       <r>     1.3049     0.2347    17.1646 </r>
       <r>     1.3730     0.2373    17.1808 </r>
       <r>     1.4411     0.4004    17.2081 </r>
       <r>     1.5092     0.5727    17.2470 </r>
       <r>     1.5772     0.6356    17.2903 </r>
       <r>     1.6453     0.5800    17.3298 </r>
       <r>     1.7134     0.4679    17.3617 </r>
       <r>     1.7815     0.3752    17.3872 </r>
       <r>     1.8496     0.3690    17.4123 </r>
       <r>     1.9176     0.4605    17.4437 </r>
       <r>     1.9857     0.5704    17.4825 </r>
       <r>     2.0538     0.6120    17.5242 </r>
       <r>     2.1219     0.6080    17.5656 </r>
       <r>     2.1899     0.6429    17.6093 </r>
       <r>     2.2580     0.7081    17.6575 </r>
       <r>     2.3261     0.6865    17.7043 </r>
       <r>     2.3942     0.5078    17.7388 </r>
       <r>     2.4622     0.2516    17.7560 </r>
       <r>     2.5303     0.0763    17.7612 </r>
       <r>     2.5984     0.0814    17.7667 </r>
       <r>     2.6665     0.2443    17.7833 </r>
       <r>     2.7346     0.4585    17.8145 </r>
       <r>     2.8026     0.6262    17.8572 </r>
       <r>     2.8707     0.7136    17.9057 </r>
       <r>     2.9388     0.7341    17.9557 </r>
       <r>     3.0069     0.7345    18.0057 </r>
       <r>     3.0749     0.7997    18.0602 </r>
       <r>     3.1430     0.9851    18.1272 </r>
       <r>     3.2111     1.2286    18.2109 </r>
       <r>     3.2792     1.3961    18.3059 </r>
       <r>     3.3473     1.4124    18.4021 </r>
       <r>     3.4153     1.3057    18.4909 </r>
       <r>     3.4834     1.1470    18.5690 </r>
       <r>     3.5515     0.9896    18.6364 </r>
       <r>     3.6196     0.8598    18.6949 </r>
       <r>     3.6876     0.7694    18.7473 </r>
       <r>     3.7557     0.7207    18.7964 </r>
       <r>     3.8238     0.7094    18.8447 </r>
       <r>     3.8919     0.7267    18.8941 </r>
       <r>     3.9600     0.7466    18.9450 </r>
       <r>     4.0280     0.7318    18.9948 </r>
       <r>     4.0961     0.6824    19.0412 </r>
       <r>     4.1642     0.6541    19.0858 </r>
       <r>     4.2323     0.6879    19.1326 </r>
       <r>     4.3003     0.7477    19.1835 </r>
       <r>     4.3684     0.7674    19.2357 </r>
       <r>     4.4365     0.7377    19.2859 </r>
       <r>     4.5046     0.7136    19.3345 </r>
       <r>     4.5726     0.7444    19.3852 </r>
       <r>     4.6407     0.7982    19.4395 </r>
       <r>     4.7088     0.7674    19.4918 </r>
       <r>     4.7769     0.5894    19.5319 </r>
       <r>     4.8450     0.3524    19.5559 </r>
       <r>     4.9130     0.2237    19.5711 </r>
       <r>     4.9811     0.2668    19.5893 </r>
       <r>     5.0492     0.3752    19.6148 </r>
       <r>     5.1173     0.4110    19.6428 </r>
       <r>     5.1853     0.3777    19.6685 </r>
       <r>     5.2534     0.4022    19.6959 </r>
       <r>     5.3215     0.5428    19.7329 </r>
       <r>     5.3896     0.7004    19.7805 </r>
       <r>     5.4577     0.7736    19.8332 </r>
       <r>     5.5257     0.8208    19.8891 </r>
       <r>     5.5938     0.9625    19.9546 </r>
       <r>     5.6619     1.1635    20.0338 </r>
       <r>     5.7300     1.2285    20.1175 </r>
       <r>     5.7980     1.0306    20.1876 </r>
       <r>     5.8661     0.6637    20.2328 </r>
       <r>     5.9342     0.3324    20.2554 </r>
       <r>     6.0023     0.1521    20.2658 </r>
       <r>     6.0703     0.1138    20.2735 </r>
       <r>     6.1384     0.1803    20.2858 </r>
       <r>     6.2065     0.3115    20.3070 </r>
       <r>     6.2746     0.4230    20.3358 </r>
       <r>     6.3427     0.4426    20.3659 </r>
       <r>     6.4107     0.4258    20.3949 </r>
       <r>     6.4788     0.5092    20.4296 </r>
       <r>     6.5469     0.7174    20.4784 </r>
       <r>     6.6150     0.9009    20.5398 </r>
       <r>     6.6830     0.9068    20.6015 </r>
       <r>     6.7511     0.7458    20.6523 </r>
       <r>     6.8192     0.5481    20.6896 </r>
       <r>     6.8873     0.4063    20.7172 </r>
       <r>     6.9554     0.3227    20.7392 </r>
       <r>     7.0234     0.2893    20.7589 </r>
       <r>     7.0915     0.3313    20.7815 </r>
       <r>     7.1596     0.4414    20.8115 </r>
       <r>     7.2277     0.5337    20.8478 </r>
       <r>     7.2957     0.5118    20.8827 </r>
       <r>     7.3638     0.3628    20.9074 </r>
       <r>     7.4319     0.1683    20.9188 </r>
       <r>     7.5000     0.0345    20.9212 </r>
       <r>     7.5681     0.0231    20.9228 </r>
       <r>     7.6361     0.1248    20.9313 </r>
       <r>     7.7042     0.2617    20.9491 </r>
       <r>     7.7723     0.3282    20.9714 </r>
       <r>     7.8404     0.2740    20.9901 </r>
       <r>     7.9084     0.1482    21.0001 </r>
       <r>     7.9765     0.0393    21.0028 </r>
       <r>     8.0446    -0.0106    21.0021 </r>
       <r>     8.1127    -0.0169    21.0009 </r>
       <r>     8.1807    -0.0094    21.0003 </r>
       <r>     8.2488    -0.0034    21.0001 </r>
       <r>     8.3169    -0.0009    21.0000 </r>
       <r>     8.3850    -0.0002    21.0000 </r>
       <r>     8.4531    -0.0000    21.0000 </r>
       <r>     8.5211    -0.0000    21.0000 </r>
       <r>     8.5892    -0.0000    21.0000 </r>
       <r>     8.6573    -0.0000    21.0000 </r>
       <r>     8.7254    -0.0000    21.0000 </r>
       <r>     8.7934    -0.0000    21.0000 </r>
       <r>     8.8615    -0.0000    21.0000 </r>
       <r>     8.9296    -0.0000    21.0000 </r>
       <r>     8.9977    -0.0000    21.0000 </r>
       <r>     9.0658     0.0000    21.0000 </r>
       <r>     9.1338     0.0000    21.0000 </r>
       <r>     9.2019     0.0000    21.0000 </r>
       <r>     9.2700     0.0000    21.0000 </r>
       <r>     9.3381     0.0000    21.0000 </r>
       <r>     9.4061     0.0000    21.0000 </r>
       <r>     9.4742     0.0000    21.0000 </r>
       <r>     9.5423     0.0000    21.0000 </r>
       <r>     9.6104     0.0000    21.0000 </r>
       <r>     9.6784     0.0000    21.0000 </r>
       <r>     9.7465     0.0000    21.0000 </r>
       <r>     9.8146     0.0000    21.0000 </r>
       <r>     9.8827     0.0000    21.0000 </r>
       <r>     9.9508     0.0000    21.0000 </r>
       <r>    10.0188     0.0000    21.0000 </r>
       <r>    10.0869     0.0000    21.0000 </r>
       <r>    10.1550     0.0000    21.0000 </r>
       <r>    10.2231     0.0000    21.0000 </r>
       <r>    10.2911     0.0000    21.0000 </r>
       <r>    10.3592     0.0000    21.0000 </r>
       <r>    10.4273     0.0000    21.0000 </r>
       <r>    10.4954     0.0000    21.0000 </r>
       <r>    10.5635     0.0000    21.0000 </r>
       <r>    10.6315     0.0000    21.0000 </r>
       <r>    10.6996     0.0000    21.0000 </r>
       <r>    10.7677     0.0000    21.0000 </r>
       <r>    10.8358     0.0000    21.0000 </r>
      </set>
      <set comment="spin 2">
       <r>    -9.5874     0.0000     0.0000 </r>
       <r>    -9.5194     0.0000     0.0000 </r>
       <r>    -9.4513     0.0000     0.0000 </r>
       <r>    -9.3832     0.0000     0.0000 </r>
       <r>    -9.3151     0.0000     0.0000 </r>
       <r>    -9.2471     0.0000     0.0000 </r>
       <r>    -9.1790     0.0000     0.0000 </r>
       <r>    -9.1109     0.0000     0.0000 </r>
       <r>    -9.0428     0.0000     0.0000 </r>
       <r>    -8.9747    -0.0000    -0.0000 </r>
       <r>    -8.9067    -0.0000    -0.0000 </r>
       <r>    -8.8386    -0.0000    -0.0000 </r>
       <r>    -8.7705    -0.0000    -0.0000 </r>
       <r>    -8.7024    -0.0000    -0.0000 </r>
       <r>    -8.6344    -0.0000    -0.0000 </r>
       <r>    -8.5663    -0.0000    -0.0000 </r>
       <r>    -8.4982    -0.0000    -0.0000 </r>
       <r>    -8.4301    -0.0000    -0.0000 </r>
       <r>    -8.3621    -0.0000    -0.0000 </r>
       <r>    -8.2940    -0.0000    -0.0000 </r>
       <r>    -8.2259    -0.0000    -0.0000 </r>
       <r>    -8.1578    -0.0000    -0.0000 </r>
       <r>    -8.0897    -0.0000    -0.0000 </r>
       <r>    -8.0217    -0.0000    -0.0000 </r>
       <r>    -7.9536    -0.0000    -0.0000 </r>
       <r>    -7.8855    -0.0001    -0.0000 </r>
       <r>    -7.8174    -0.0005    -0.0000 </r>
       <r>    -7.7494    -0.0018    -0.0002 </r>
       <r>    -7.6813    -0.0050    -0.0005 </r>
       <r>    -7.6132    -0.0086    -0.0011 </r>
       <r>    -7.5451    -0.0045    -0.0014 </r>
       <r>    -7.4770     0.0223     0.0001 </r>
       <r>    -7.4090     0.0774     0.0054 </r>
       <r>    -7.3409     0.1362     0.0147 </r>
       <r>    -7.2728     0.1539     0.0251 </r>
       <r>    -7.2047     0.1160     0.0330 </r>
       <r>    -7.1367     0.0704     0.0378 </r>
       <r>    -7.0686     0.0897     0.0439 </r>
       <r>    -7.0005     0.1900     0.0569 </r>
       <r>    -6.9324     0.2968     0.0771 </r>
       <r>    -6.8644     0.3123     0.0983 </r>
       <r>    -6.7963     0.2225     0.1135 </r>
       <r>    -6.7282     0.1132     0.1212 </r>
       <r>    -6.6601     0.0727     0.1261 </r>
       <r>    -6.5920     0.1031     0.1331 </r>
       <r>    -6.5240     0.1364     0.1424 </r>
       <r>    -6.4559     0.1243     0.1509 </r>
       <r>    -6.3878     0.0973     0.1575 </r>
       <r>    -6.3197     0.1250     0.1660 </r>
       <r>    -6.2517     0.2199     0.1810 </r>
       <r>    -6.1836     0.3023     0.2016 </r>
       <r>    -6.1155     0.2880     0.2212 </r>
       <r>    -6.0474     0.1985     0.2347 </r>
       <r>    -5.9793     0.1443     0.2445 </r>
       <r>    -5.9113     0.1933     0.2577 </r>
       <r>    -5.8432     0.2877     0.2773 </r>
       <r>    -5.7751     0.3136     0.2986 </r>
       <r>    -5.7070     0.2304     0.3143 </r>
       <r>    -5.6390     0.1002     0.3211 </r>
       <r>    -5.5709     0.0010     0.3212 </r>
       <r>    -5.5028    -0.0408     0.3184 </r>
       <r>    -5.4347    -0.0248     0.3167 </r>
       <r>    -5.3666     0.0644     0.3211 </r>
       <r>    -5.2986     0.2302     0.3368 </r>
       <r>    -5.2305     0.4035     0.3643 </r>
       <r>    -5.1624     0.4716     0.3964 </r>
       <r>    -5.0943     0.4044     0.4239 </r>
       <r>    -5.0263     0.3041     0.4446 </r>
       <r>    -4.9582     0.2783     0.4635 </r>
       <r>    -4.8901     0.3065     0.4844 </r>
       <r>    -4.8220     0.2883     0.5040 </r>
       <r>    -4.7540     0.1863     0.5167 </r>
       <r>    -4.6859     0.0573     0.5206 </r>
       <r>    -4.6178    -0.0311     0.5185 </r>
       <r>    -4.5497    -0.0456     0.5154 </r>
       <r>    -4.4816     0.0427     0.5183 </r>
       <r>    -4.4136     0.2556     0.5357 </r>
       <r>    -4.3455     0.5355     0.5722 </r>
       <r>    -4.2774     0.7260     0.6216 </r>
       <r>    -4.2093     0.7103     0.6700 </r>
       <r>    -4.1413     0.5646     0.7084 </r>
       <r>    -4.0732     0.4857     0.7415 </r>
       <r>    -4.0051     0.5442     0.7785 </r>
       <r>    -3.9370     0.6051     0.8197 </r>
       <r>    -3.8689     0.5365     0.8562 </r>
       <r>    -3.8009     0.3953     0.8831 </r>
       <r>    -3.7328     0.3396     0.9062 </r>
       <r>    -3.6647     0.4330     0.9357 </r>
       <r>    -3.5966     0.5950     0.9762 </r>
       <r>    -3.5286     0.6937     1.0235 </r>
       <r>    -3.4605     0.6837     1.0700 </r>
       <r>    -3.3924     0.6864     1.1167 </r>
       <r>    -3.3243     0.8699     1.1759 </r>
       <r>    -3.2563     1.2108     1.2584 </r>
       <r>    -3.1882     1.4742     1.3587 </r>
       <r>    -3.1201     1.4813     1.4596 </r>
       <r>    -3.0520     1.3180     1.5493 </r>
       <r>    -2.9839     1.2560     1.6348 </r>
       <r>    -2.9159     1.5045     1.7372 </r>
       <r>    -2.8478     2.0120     1.8742 </r>
       <r>    -2.7797     2.4862     2.0435 </r>
       <r>    -2.7116     2.6399     2.2232 </r>
       <r>    -2.6436     2.4266     2.3884 </r>
       <r>    -2.5755     2.0343     2.5269 </r>
       <r>    -2.5074     1.6942     2.6422 </r>
       <r>    -2.4393     1.5143     2.7453 </r>
       <r>    -2.3712     1.4464     2.8437 </r>
       <r>    -2.3032     1.3801     2.9377 </r>
       <r>    -2.2351     1.2794     3.0248 </r>
       <r>    -2.1670     1.2343     3.1088 </r>
       <r>    -2.0989     1.3845     3.2031 </r>
       <r>    -2.0309     1.7919     3.3251 </r>
       <r>    -1.9628     2.3751     3.4868 </r>
       <r>    -1.8947     2.9642     3.6886 </r>
       <r>    -1.8266     3.4068     3.9205 </r>
       <r>    -1.7585     3.5972     4.1654 </r>
       <r>    -1.6905     3.4820     4.4024 </r>
       <r>    -1.6224     3.1588     4.6175 </r>
       <r>    -1.5543     2.8895     4.8142 </r>
       <r>    -1.4862     2.8543     5.0085 </r>
       <r>    -1.4182     2.9681     5.2106 </r>
       <r>    -1.3501     3.0360     5.4172 </r>
       <r>    -1.2820     2.9598     5.6187 </r>
       <r>    -1.2139     2.7338     5.8048 </r>
       <r>    -1.1459     2.3869     5.9673 </r>
       <r>    -1.0778     1.9934     6.1030 </r>
       <r>    -1.0097     1.6632     6.2163 </r>
       <r>    -0.9416     1.4848     6.3173 </r>
       <r>    -0.8735     1.4812     6.4182 </r>
       <r>    -0.8055     1.6133     6.5280 </r>
       <r>    -0.7374     1.8183     6.6518 </r>
       <r>    -0.6693     2.0365     6.7904 </r>
       <r>    -0.6012     2.2199     6.9416 </r>
       <r>    -0.5332     2.3535     7.1018 </r>
       <r>    -0.4651     2.4744     7.2702 </r>
       <r>    -0.3970     2.6586     7.4512 </r>
       <r>    -0.3289     2.9539     7.6523 </r>
       <r>    -0.2608     3.2726     7.8751 </r>
       <r>    -0.1928     3.4255     8.1083 </r>
       <r>    -0.1247     3.3917     8.3392 </r>
       <r>    -0.0566     3.4499     8.5741 </r>
       <r>     0.0115     3.8586     8.8368 </r>
       <r>     0.0795     4.4937     9.1427 </r>
       <r>     0.1476     4.9491     9.4796 </r>
       <r>     0.2157     4.8933     9.8127 </r>
       <r>     0.2838     4.2609    10.1028 </r>
[...]
        <r>  0.0000  0.0007  0.5682 </r>
        <r>  0.0000  0.0002  0.1998 </r>
       </set>
       <set comment="band 15">
        <r>  0.0000  0.0030  0.1515 </r>
        <r>  0.0000  0.0004  0.6289 </r>
        <r>  0.0000  0.0030  0.1515 </r>
       </set>
       <set comment="band 16">
        <r>  0.0000  0.0042  0.2880 </r>
        <r>  0.0000  0.0000  0.3811 </r>
        <r>  0.0000  0.0042  0.2880 </r>
       </set>
       <set comment="band 17">
        <r>  0.0121  0.0154  0.1935 </r>
        <r>  0.0000  0.0042  0.3740 </r>
        <r>  0.0121  0.0154  0.1935 </r>
       </set>
       <set comment="band 18">
        <r>  0.0018  0.0389  0.1100 </r>
        <r>  0.0221  0.0142  0.1334 </r>
        <r>  0.0018  0.0389  0.1100 </r>
       </set>
       <set comment="band 19">
        <r>  0.0103  0.0205  0.0613 </r>
        <r>  0.0000  0.0449  0.0397 </r>
        <r>  0.0103  0.0205  0.0613 </r>
       </set>
       <set comment="band 20">
        <r>  0.0038  0.0211  0.0140 </r>
        <r>  0.0053  0.0066  0.0240 </r>
        <r>  0.0038  0.0211  0.0140 </r>
       </set>
       <set comment="band 21">
        <r>  0.0000  0.1120  0.0937 </r>
        <r>  0.0000  0.1479  0.1039 </r>
        <r>  0.0000  0.1120  0.0937 </r>
       </set>
      </set>
      <set comment="kpoint 11">
       <set comment="band 1">
        <r>  0.0776  0.0451  0.0523 </r>
        <r>  0.1590  0.0754  0.0476 </r>
        <r>  0.0776  0.0451  0.0523 </r>
       </set>
       <set comment="band 2">
        <r>  0.0129  0.0234  0.1860 </r>
        <r>  0.0299  0.0424  0.2974 </r>
        <r>  0.0129  0.0234  0.1860 </r>
       </set>
       <set comment="band 3">
        <r>  0.0514  0.0280  0.0790 </r>
        <r>  0.0000  0.0220  0.4252 </r>
        <r>  0.0514  0.0280  0.0790 </r>
       </set>
       <set comment="band 4">
        <r>  0.0002  0.0175  0.2232 </r>
        <r>  0.0052  0.0382  0.2754 </r>
        <r>  0.0002  0.0175  0.2232 </r>
       </set>
       <set comment="band 5">
        <r>  0.0001  0.0080  0.2547 </r>
        <r>  0.0000  0.0386  0.2602 </r>
        <r>  0.0001  0.0080  0.2547 </r>
       </set>
       <set comment="band 6">
        <r>  0.0034  0.0152  0.1757 </r>
        <r>  0.0000  0.0012  0.5144 </r>
        <r>  0.0034  0.0152  0.1757 </r>
       </set>
       <set comment="band 7">
        <r>  0.0071  0.0257  0.2626 </r>
        <r>  0.0000  0.0512  0.0943 </r>
        <r>  0.0071  0.0257  0.2626 </r>
       </set>
       <set comment="band 8">
        <r>  0.0045  0.0053  0.4272 </r>
        <r>  0.0005  0.0037  0.0064 </r>
        <r>  0.0045  0.0053  0.4272 </r>
       </set>
       <set comment="band 9">
        <r>  0.0050  0.0044  0.4065 </r>
        <r>  0.0000  0.0077  0.0127 </r>
        <r>  0.0050  0.0044  0.4065 </r>
       </set>
       <set comment="band 10">
        <r>  0.0001  0.0093  0.4274 </r>
        <r>  0.0000  0.0009  0.0148 </r>
        <r>  0.0001  0.0093  0.4274 </r>
       </set>
       <set comment="band 11">
        <r>  0.0130  0.0160  0.3602 </r>
        <r>  0.0000  0.0136  0.0497 </r>
        <r>  0.0130  0.0160  0.3602 </r>
       </set>
       <set comment="band 12">
        <r>  0.0064  0.0018  0.4293 </r>
        <r>  0.0000  0.0005  0.0330 </r>
        <r>  0.0064  0.0018  0.4293 </r>
       </set>
       <set comment="band 13">
        <r>  0.0020  0.0139  0.2459 </r>
        <r>  0.0000  0.0008  0.3311 </r>
        <r>  0.0020  0.0139  0.2459 </r>
       </set>
       <set comment="band 14">
        <r>  0.0000  0.0009  0.1582 </r>
        <r>  0.0000  0.0009  0.6341 </r>
        <r>  0.0000  0.0009  0.1582 </r>
       </set>
       <set comment="band 15">
        <r>  0.0002  0.0042  0.3184 </r>
        <r>  0.0000  0.0002  0.3202 </r>
        <r>  0.0002  0.0042  0.3184 </r>
       </set>
       <set comment="band 16">
        <r>  0.0017  0.0034  0.1522 </r>
        <r>  0.0029  0.0009  0.6323 </r>
        <r>  0.0017  0.0034  0.1522 </r>
       </set>
       <set comment="band 17">
        <r>  0.0232  0.0222  0.1576 </r>
        <r>  0.0000  0.0107  0.3426 </r>
        <r>  0.0232  0.0222  0.1576 </r>
       </set>
       <set comment="band 18">
        <r>  0.0003  0.0512  0.0929 </r>
        <r>  0.0094  0.0396  0.1229 </r>
        <r>  0.0003  0.0512  0.0929 </r>
       </set>
       <set comment="band 19">
        <r>  0.0207  0.0792  0.1160 </r>
        <r>  0.0347  0.0808  0.1038 </r>
        <r>  0.0207  0.0792  0.1160 </r>
       </set>
       <set comment="band 20">
        <r>  0.0003  0.0504  0.0653 </r>
        <r>  0.0000  0.0545  0.0421 </r>
        <r>  0.0003  0.0504  0.0653 </r>
       </set>
       <set comment="band 21">
        <r>  0.0059  0.0244  0.0119 </r>
        <r>  0.0039  0.0072  0.0163 </r>
        <r>  0.0060  0.0244  0.0119 </r>
       </set>
      </set>
      <set comment="kpoint 12">
       <set comment="band 1">
        <r>  0.0504  0.0418  0.1005 </r>
        <r>  0.1136  0.0727  0.1206 </r>
        <r>  0.0504  0.0418  0.1005 </r>
       </set>
       <set comment="band 2">
        <r>  0.0312  0.0314  0.1450 </r>
        <r>  0.0573  0.0571  0.2352 </r>
        <r>  0.0312  0.0314  0.1450 </r>
       </set>
       <set comment="band 3">
        <r>  0.0337  0.0232  0.1025 </r>
        <r>  0.0000  0.0019  0.5128 </r>
        <r>  0.0337  0.0232  0.1025 </r>
       </set>
       <set comment="band 4">
        <r>  0.0004  0.0056  0.2569 </r>
        <r>  0.0058  0.0295  0.2315 </r>
        <r>  0.0004  0.0056  0.2569 </r>
       </set>
       <set comment="band 5">
        <r>  0.0031  0.0160  0.2636 </r>
        <r>  0.0001  0.0724  0.2048 </r>
        <r>  0.0031  0.0160  0.2636 </r>
       </set>
       <set comment="band 6">
        <r>  0.0002  0.0029  0.2444 </r>
        <r>  0.0000  0.0021  0.3967 </r>
        <r>  0.0002  0.0029  0.2444 </r>
       </set>
       <set comment="band 7">
        <r>  0.0020  0.0376  0.2450 </r>
        <r>  0.0000  0.0738  0.1292 </r>
        <r>  0.0020  0.0376  0.2450 </r>
       </set>
       <set comment="band 8">
        <r>  0.0051  0.0076  0.4208 </r>
        <r>  0.0001  0.0006  0.0083 </r>
        <r>  0.0051  0.0076  0.4208 </r>
       </set>
       <set comment="band 9">
        <r>  0.0074  0.0089  0.3868 </r>
        <r>  0.0000  0.0002  0.0421 </r>
        <r>  0.0074  0.0089  0.3868 </r>
       </set>
       <set comment="band 10">
        <r>  0.0001  0.0235  0.3321 </r>
        <r>  0.0000  0.0009  0.1094 </r>
        <r>  0.0001  0.0235  0.3321 </r>
       </set>
       <set comment="band 11">
        <r>  0.0030  0.0297  0.2566 </r>
        <r>  0.0011  0.0128  0.2294 </r>
        <r>  0.0030  0.0297  0.2566 </r>
       </set>
       <set comment="band 12">
        <r>  0.0056  0.0019  0.4406 </r>
        <r>  0.0000  0.0000  0.0249 </r>
        <r>  0.0056  0.0019  0.4406 </r>
       </set>
       <set comment="band 13">
        <r>  0.0002  0.0110  0.3017 </r>
        <r>  0.0000  0.0015  0.2780 </r>
        <r>  0.0002  0.0110  0.3017 </r>
       </set>
       <set comment="band 14">
        <r>  0.0002  0.0008  0.1503 </r>
        <r>  0.0000  0.0029  0.6539 </r>
        <r>  0.0002  0.0008  0.1503 </r>
       </set>
       <set comment="band 15">
        <r>  0.0020  0.0020  0.3731 </r>
        <r>  0.0000  0.0001  0.2192 </r>
        <r>  0.0020  0.0020  0.3731 </r>
       </set>
       <set comment="band 16">
        <r>  0.0099  0.0207  0.1221 </r>
        <r>  0.0165  0.0132  0.5428 </r>
        <r>  0.0099  0.0207  0.1221 </r>
       </set>
       <set comment="band 17">
        <r>  0.0268  0.0474  0.1728 </r>
        <r>  0.0188  0.0581  0.2125 </r>
        <r>  0.0268  0.0474  0.1728 </r>
       </set>
       <set comment="band 18">
        <r>  0.0231  0.0408  0.1324 </r>
        <r>  0.0000  0.0249  0.2764 </r>
        <r>  0.0231  0.0408  0.1324 </r>
       </set>
       <set comment="band 19">
        <r>  0.0562  0.0526  0.0812 </r>
        <r>  0.0000  0.0179  0.1362 </r>
        <r>  0.0562  0.0526  0.0812 </r>
       </set>
       <set comment="band 20">
        <r>  0.0106  0.0673  0.0608 </r>
        <r>  0.0109  0.0311  0.0511 </r>
        <r>  0.0106  0.0673  0.0608 </r>
       </set>
       <set comment="band 21">
        <r>  0.0037  0.0163  0.0469 </r>
        <r>  0.0291  0.0159  0.0124 </r>
        <r>  0.0037  0.0163  0.0469 </r>
       </set>
      </set>
      <set comment="kpoint 13">
       <set comment="band 1">
        <r>  0.0657  0.0410  0.0776 </r>
        <r>  0.1050  0.0730  0.1320 </r>
        <r>  0.0657  0.0410  0.0776 </r>
       </set>
       <set comment="band 2">
        <r>  0.0066  0.0233  0.1904 </r>
        <r>  0.0567  0.0002  0.3193 </r>
        <r>  0.0066  0.0233  0.1904 </r>
       </set>
       <set comment="band 3">
        <r>  0.0229  0.0262  0.0940 </r>
        <r>  0.0000  0.0068  0.5680 </r>
        <r>  0.0229  0.0262  0.0940 </r>
       </set>
       <set comment="band 4">
        <r>  0.0000  0.0215  0.2614 </r>
        <r>  0.0000  0.1114  0.1382 </r>
        <r>  0.0000  0.0215  0.2614 </r>
       </set>
       <set comment="band 5">
        <r>  0.0000  0.0246  0.1503 </r>
        <r>  0.0000  0.0000  0.5464 </r>
        <r>  0.0000  0.0246  0.1503 </r>
       </set>
       <set comment="band 6">
        <r>  0.0001  0.0019  0.2851 </r>
        <r>  0.0001  0.0476  0.1988 </r>
        <r>  0.0001  0.0019  0.2851 </r>
       </set>
       <set comment="band 7">
        <r>  0.0081  0.0169  0.3108 </r>
        <r>  0.0000  0.0647  0.0000 </r>
        <r>  0.0081  0.0169  0.3108 </r>
       </set>
       <set comment="band 8">
        <r>  0.0112  0.0094  0.3812 </r>
        <r>  0.0000  0.0020  0.0238 </r>
        <r>  0.0112  0.0094  0.3812 </r>
       </set>
       <set comment="band 9">
        <r>  0.0000  0.0153  0.3945 </r>
        <r>  0.0000  0.0012  0.0542 </r>
        <r>  0.0000  0.0153  0.3945 </r>
       </set>
       <set comment="band 10">
        <r>  0.0000  0.0146  0.4155 </r>
        <r>  0.0000  0.0000  0.0157 </r>
        <r>  0.0000  0.0146  0.4155 </r>
       </set>
       <set comment="band 11">
        <r>  0.0172  0.0203  0.3645 </r>
        <r>  0.0005  0.0199  0.0239 </r>
        <r>  0.0172  0.0203  0.3645 </r>
       </set>
       <set comment="band 12">
        <r>  0.0050  0.0019  0.4403 </r>
        <r>  0.0000  0.0001  0.0283 </r>
        <r>  0.0050  0.0019  0.4403 </r>
       </set>
       <set comment="band 13">
        <r>  0.0084  0.0247  0.2147 </r>
        <r>  0.0007  0.0075  0.3140 </r>
        <r>  0.0084  0.0247  0.2147 </r>
       </set>
       <set comment="band 14">
        <r>  0.0009  0.0046  0.1081 </r>
        <r>  0.0032  0.0004  0.7031 </r>
        <r>  0.0009  0.0046  0.1081 </r>
       </set>
       <set comment="band 15">
        <r>  0.0000  0.0000  0.1561 </r>
        <r>  0.0000  0.0000  0.6644 </r>
        <r>  0.0000  0.0000  0.1561 </r>
       </set>
       <set comment="band 16">
        <r>  0.0000  0.0039  0.3497 </r>
        <r>  0.0000  0.0000  0.2634 </r>
        <r>  0.0000  0.0039  0.3497 </r>
       </set>
       <set comment="band 17">
        <r>  0.0343  0.0316  0.1223 </r>
        <r>  0.0000  0.0137  0.2949 </r>
        <r>  0.0343  0.0316  0.1223 </r>
       </set>
       <set comment="band 18">
        <r>  0.0000  0.1043  0.1144 </r>
        <r>  0.0000  0.1229  0.1175 </r>
        <r>  0.0000  0.1043  0.1144 </r>
       </set>
       <set comment="band 19">
        <r>  0.0034  0.0497  0.0781 </r>
        <r>  0.0210  0.0248  0.0670 </r>
        <r>  0.0034  0.0497  0.0781 </r>
       </set>
       <set comment="band 20">
        <r>  0.0000  0.0368  0.0513 </r>
        <r>  0.0000  0.0548  0.0343 </r>
        <r>  0.0000  0.0368  0.0513 </r>
       </set>
       <set comment="band 21">
        <r>  0.0129  0.0911  0.0620 </r>
        <r>  0.0115  0.0052  0.1571 </r>
        <r>  0.0129  0.0911  0.0620 </r>
       </set>
      </set>
      <set comment="kpoint 14">
       <set comment="band 1">
        <r>  0.0573  0.0310  0.0876 </r>
        <r>  0.0275  0.0414  0.3411 </r>
        <r>  0.0573  0.0310  0.0876 </r>
       </set>
       <set comment="band 2">
        <r>  0.0030  0.0234  0.2184 </r>
        <r>  0.1047  0.0173  0.1554 </r>
        <r>  0.0030  0.0234  0.2184 </r>
       </set>
       <set comment="band 3">
        <r>  0.0111  0.0270  0.1149 </r>
        <r>  0.0000  0.0003  0.5715 </r>
        <r>  0.0111  0.0270  0.1149 </r>
       </set>
       <set comment="band 4">
        <r>  0.0000  0.0056  0.2938 </r>
        <r>  0.0002  0.0762  0.1427 </r>
        <r>  0.0000  0.0056  0.2938 </r>
       </set>
       <set comment="band 5">
        <r>  0.0001  0.0114  0.2048 </r>
        <r>  0.0000  0.0024  0.4579 </r>
        <r>  0.0001  0.0114  0.2048 </r>
       </set>
       <set comment="band 6">
        <r>  0.0022  0.0201  0.2959 </r>
        <r>  0.0002  0.1185  0.0690 </r>
        <r>  0.0022  0.0201  0.2959 </r>
       </set>
       <set comment="band 7">
        <r>  0.0015  0.0211  0.2905 </r>
        <r>  0.0000  0.0652  0.0934 </r>
        <r>  0.0015  0.0211  0.2905 </r>
       </set>
       <set comment="band 8">
        <r>  0.0085  0.0147  0.3825 </r>
        <r>  0.0000  0.0001  0.0351 </r>
        <r>  0.0085  0.0147  0.3825 </r>
       </set>
       <set comment="band 9">
        <r>  0.0060  0.0185  0.3939 </r>
        <r>  0.0000  0.0088  0.0236 </r>
        <r>  0.0060  0.0185  0.3939 </r>
       </set>
       <set comment="band 10">
        <r>  0.0002  0.0261  0.3233 </r>
        <r>  0.0000  0.0001  0.1337 </r>
        <r>  0.0002  0.0261  0.3233 </r>
       </set>
       <set comment="band 11">
        <r>  0.0009  0.0145  0.3294 </r>
        <r>  0.0005  0.0065  0.2133 </r>
        <r>  0.0009  0.0145  0.3294 </r>
       </set>
       <set comment="band 12">
        <r>  0.0041  0.0019  0.4516 </r>
        <r>  0.0000  0.0000  0.0184 </r>
        <r>  0.0041  0.0019  0.4516 </r>
       </set>
       <set comment="band 13">
        <r>  0.0029  0.0277  0.1675 </r>
        <r>  0.0014  0.0122  0.4370 </r>
        <r>  0.0029  0.0277  0.1675 </r>
       </set>
       <set comment="band 14">
        <r>  0.0002  0.0006  0.1131 </r>
        <r>  0.0012  0.0014  0.7390 </r>
        <r>  0.0002  0.0006  0.1131 </r>
       </set>
       <set comment="band 15">
        <r>  0.0010  0.0023  0.4037 </r>
        <r>  0.0000  0.0000  0.1605 </r>
        <r>  0.0010  0.0023  0.4037 </r>
       </set>
       <set comment="band 16">
        <r>  0.0114  0.0406  0.1277 </r>
        <r>  0.0109  0.0312  0.4081 </r>
        <r>  0.0114  0.0406  0.1277 </r>
       </set>
       <set comment="band 17">
        <r>  0.0116  0.0798  0.1428 </r>
        <r>  0.0083  0.0856  0.1504 </r>
        <r>  0.0116  0.0798  0.1428 </r>
       </set>
       <set comment="band 18">
        <r>  0.0370  0.0497  0.0940 </r>
        <r>  0.0000  0.0178  0.2336 </r>
        <r>  0.0370  0.0497  0.0940 </r>
       </set>
       <set comment="band 19">
        <r>  0.0402  0.0729  0.0663 </r>
        <r>  0.0000  0.0144  0.1619 </r>
        <r>  0.0402  0.0729  0.0663 </r>
       </set>
       <set comment="band 20">
        <r>  0.0085  0.0635  0.0576 </r>
        <r>  0.0115  0.0337  0.0474 </r>
        <r>  0.0085  0.0635  0.0576 </r>
       </set>
       <set comment="band 21">
        <r>  0.0416  0.0115  0.0728 </r>
        <r>  0.0035  0.0426  0.0398 </r>
        <r>  0.0416  0.0115  0.0728 </r>
       </set>
      </set>
      <set comment="kpoint 15">
       <set comment="band 1">
        <r>  0.0506  0.0276  0.0827 </r>
        <r>  0.0018  0.0071  0.4780 </r>
        <r>  0.0506  0.0276  0.0827 </r>
       </set>
       <set comment="band 2">
        <r>  0.0001  0.0049  0.2691 </r>
        <r>  0.0950  0.0033  0.1231 </r>
        <r>  0.0001  0.0049  0.2691 </r>
       </set>
       <set comment="band 3">
        <r>  0.0017  0.0214  0.1554 </r>
        <r>  0.0000  0.0009  0.5357 </r>
        <r>  0.0017  0.0214  0.1554 </r>
       </set>
       <set comment="band 4">
        <r>  0.0000  0.0253  0.1421 </r>
        <r>  0.0000  0.0000  0.5633 </r>
        <r>  0.0000  0.0253  0.1421 </r>
       </set>
       <set comment="band 5">
        <r>  0.0005  0.0160  0.3196 </r>
        <r>  0.0017  0.1201  0.0280 </r>
        <r>  0.0005  0.0160  0.3196 </r>
       </set>
       <set comment="band 6">
        <r>  0.0000  0.0184  0.3201 </r>
        <r>  0.0000  0.1280  0.0166 </r>
        <r>  0.0000  0.0184  0.3201 </r>
       </set>
       <set comment="band 7">
        <r>  0.0004  0.0061  0.3433 </r>
        <r>  0.0000  0.0618  0.0323 </r>
        <r>  0.0004  0.0061  0.3433 </r>
       </set>
       <set comment="band 8">
        <r>  0.0027  0.0269  0.3123 </r>
        <r>  0.0000  0.0000  0.1545 </r>
        <r>  0.0027  0.0269  0.3123 </r>
       </set>
       <set comment="band 9">
        <r>  0.0000  0.0263  0.3291 </r>
        <r>  0.0000  0.0000  0.1408 </r>
        <r>  0.0000  0.0263  0.3291 </r>
       </set>
       <set comment="band 10">
        <r>  0.0011  0.0052  0.3681 </r>
        <r>  0.0000  0.0022  0.1998 </r>
        <r>  0.0011  0.0052  0.3681 </r>
       </set>
       <set comment="band 11">
        <r>  0.0027  0.0019  0.4622 </r>
        <r>  0.0000  0.0000  0.0098 </r>
        <r>  0.0027  0.0019  0.4622 </r>
       </set>
       <set comment="band 12">
        <r>  0.0000  0.0183  0.3965 </r>
        <r>  0.0000  0.0104  0.0663 </r>
        <r>  0.0000  0.0183  0.3965 </r>
       </set>
       <set comment="band 13">
        <r>  0.0000  0.0003  0.0906 </r>
        <r>  0.0030  0.0005  0.7895 </r>
        <r>  0.0000  0.0003  0.0906 </r>
       </set>
       <set comment="band 14">
        <r>  0.0000  0.0014  0.4596 </r>
        <r>  0.0000  0.0000  0.0575 </r>
        <r>  0.0000  0.0014  0.4596 </r>
       </set>
       <set comment="band 15">
        <r>  0.0000  0.0015  0.0796 </r>
        <r>  0.0000  0.0010  0.8116 </r>
        <r>  0.0000  0.0015  0.0796 </r>
       </set>
       <set comment="band 16">
        <r>  0.0090  0.1077  0.1083 </r>
        <r>  0.0060  0.0907  0.0438 </r>
        <r>  0.0090  0.1077  0.1083 </r>
       </set>
       <set comment="band 17">
        <r>  0.0000  0.1074  0.1168 </r>
        <r>  0.0000  0.1060  0.0867 </r>
        <r>  0.0000  0.1074  0.1168 </r>
       </set>
       <set comment="band 18">
        <r>  0.0363  0.0722  0.0600 </r>
        <r>  0.0000  0.0108  0.2082 </r>
        <r>  0.0363  0.0722  0.0600 </r>
       </set>
       <set comment="band 19">
        <r>  0.0000  0.1194  0.0352 </r>
        <r>  0.0000  0.0000  0.2286 </r>
        <r>  0.0000  0.1194  0.0352 </r>
       </set>
       <set comment="band 20">
        <r>  0.1045  0.0318  0.0498 </r>
        <r>  0.0245  0.0186  0.0218 </r>
        <r>  0.1044  0.0318  0.0498 </r>
       </set>
       <set comment="band 21">
        <r>  0.0330  0.0312  0.0940 </r>
        <r>  0.0471  0.0188  0.1865 </r>
        <r>  0.0338  0.0310  0.0950 </r>
       </set>
      </set>
     </set>
    </set>
   </array>
  </projected>
 </calculation>
 <structure name="finalpos" >
  <crystal>
   <varray name="basis" >
    <v>       2.84000000       0.00000000       0.00000000 </v>
    <v>       0.00000000       2.84000000       0.00000000 </v>
    <v>       0.00000000       0.00000000      12.84000000 </v>
   </varray>
   <i name="volume">    103.56230400 </i>
   <varray name="rec_basis" >
    <v>       0.35211268       0.00000000       0.00000000 </v>
    <v>       0.00000000       0.35211268       0.00000000 </v>
    <v>       0.00000000       0.00000000       0.07788162 </v>
   </varray>
  </crystal>
  <varray name="positions" >
   <v>       0.50000000       0.50000000       0.10883887 </v>
   <v>      -0.00000000      -0.00000000       0.00000000 </v>
   <v>       0.50000000       0.50000000       0.89116113 </v>
  </varray>
 </structure>
</modeling>
