BCC Fe                                  
           1
     2.840000    0.000000    0.000000
     0.000000    2.840000    0.000000
     0.000000    0.000000   12.840000
   Fe
   3
Direct configuration=     1
   0.50000000  0.50000000  0.11059190
   0.00000000  0.00000000  0.00000000
   0.50000000  0.50000000  0.88940810
Direct configuration=     2
   0.50000000  0.50000000  0.10997694
  -0.00000000 -0.00000000  0.00000000
   0.50000000  0.50000000  0.89002306
Direct configuration=     3
   0.50000000  0.50000000  0.10883887
  -0.00000000 -0.00000000  0.00000000
   0.50000000  0.50000000  0.89116113
