bcc Fe                                  
   2.82000000000000     
    -0.506173    0.506173    0.506173
     0.506173   -0.506173    0.506173
     0.506173    0.506173   -0.506173
   Fe
     1
Direct
  0.000000  0.000000  0.000000
 
   24   24   24
  95.019      91.175      80.619      65.801      49.606      34.464      22.002      13.061      7.7237      5.2936    
  4.4579      4.0388      3.8942      4.0388      4.4579      5.2936      7.7237      13.061      22.002      34.464    
  49.606      65.801      80.619      91.175      91.175      89.914      81.660      68.405      52.914      37.751    
  24.765      15.017      8.8207      5.7267      4.6003      4.1097      3.8762      3.9235      4.2477      4.8474    
  6.4747      10.510      17.886      28.796      42.675      58.200      73.255      85.122      80.619      81.660    
  76.119      65.371      51.794      37.850      25.463      15.825      9.4172      6.0027      4.6632      4.1225    
  3.8227      3.7804      3.9987      4.4593      5.4015      8.0120      13.401      22.049      33.700      47.370    
  61.340      73.255      65.801      68.405      65.371      57.477      46.560      34.772      23.935      15.260    
  9.3102      6.0019      4.6265      4.0706      3.7352      3.6249      3.7438      4.0897      4.6602      6.0679    
  9.4554      15.555      24.440      35.481      47.370      58.200      49.606      52.914      51.794      46.560    
  38.499      29.329      20.629      13.511      8.5353      5.7046      4.4827      3.9573      3.6183      3.4685    
  3.5090      3.7423      4.1663      4.8599      6.6182      10.322      16.348      24.440      33.700      42.675    
  34.464      37.751      37.850      34.772      29.329      22.783      16.390      11.079      7.3407      5.2030    
  4.2578      3.7955      3.4797      3.3192      3.3093      3.4502      3.7522      4.2132      4.9918      6.8307    
  10.322      15.555      22.049      28.796      22.002      24.765      25.463      23.935      20.629      16.390    
  12.132      8.5637      6.0629      4.6478      3.9970      3.6047      3.3307      3.1822      3.1489      3.2264    
  3.4246      3.7596      4.2287      4.9918      6.6182      9.4554      13.401      17.886      13.061      15.017    
  15.825      15.260      13.511      11.079      8.5637      6.4482      4.9864      4.1672      3.7309      3.4065    
  3.1839      3.0613      3.0253      3.0672      3.1922      3.4175      3.7596      4.2132      4.8599      6.0679    
  8.0120      10.510      7.7237      8.8207      9.4172      9.3102      8.5353      7.3407      6.0629      4.9864    
  4.2481      3.8031      3.4750      3.2206      3.0511      2.9600      2.9334      2.9612      3.0436      3.1922    
  3.4246      3.7522      4.1663      4.6602      5.4015      6.4747      5.2936      5.7267      6.0027      6.0019    
  5.7046      5.2030      4.6478      4.1672      3.8031      3.5015      3.2493      3.0616      2.9413      2.8811    
  2.8694      2.8971      2.9612      3.0672      3.2264      3.4502      3.7423      4.0897      4.4593      4.8474    
  4.4579      4.6003      4.6632      4.6265      4.4827      4.2578      3.9970      3.7309      3.4750      3.2493    
  3.0681      2.9386      2.8603      2.8277      2.8330      2.8694      2.9334      3.0253      3.1489      3.3093    
  3.5090      3.7438      3.9987      4.2477      4.0388      4.1097      4.1225      4.0706      3.9573      3.7955    
  3.6047      3.4065      3.2206      3.0616      2.9386      2.8553      2.8111      2.8032      2.8277      2.8811    
  2.9600      3.0613      3.1822      3.3192      3.4685      3.6249      3.7804      3.9235      3.8942      3.8762    
  3.8227      3.7352      3.6183      3.4797      3.3307      3.1839      3.0511      2.9413      2.8603      2.8111    
  2.7946      2.8111      2.8603      2.9413      3.0511      3.1839      3.3307      3.4797      3.6183      3.7352    
  3.8227      3.8762      4.0388      3.9235      3.7804      3.6249      3.4685      3.3192      3.1822      3.0613    
  2.9600      2.8811      2.8277      2.8032      2.8111      2.8553      2.9386      3.0616      3.2206      3.4065    
  3.6047      3.7955      3.9573      4.0706      4.1225      4.1097      4.4579      4.2477      3.9987      3.7438    
  3.5090      3.3093      3.1489      3.0253      2.9334      2.8694      2.8330      2.8277      2.8603      2.9386    
  3.0681      3.2493      3.4750      3.7309      3.9970      4.2578      4.4827      4.6265      4.6632      4.6003    
  5.2936      4.8474      4.4593      4.0897      3.7423      3.4502      3.2264      3.0672      2.9612      2.8971    
  2.8694      2.8811      2.9413      3.0616      3.2493      3.5015      3.8031      4.1672      4.6478      5.2030    
  5.7046      6.0019      6.0027      5.7267      7.7237      6.4747      5.4015      4.6602      4.1663      3.7522    
  3.4246      3.1922      3.0436      2.9612      2.9334      2.9600      3.0511      3.2206      3.4750      3.8031    
  4.2481      4.9864      6.0629      7.3407      8.5353      9.3102      9.4172      8.8207      13.061      10.510    
  8.0120      6.0679      4.8599      4.2132      3.7596      3.4175      3.1922      3.0672      3.0253      3.0613    
  3.1839      3.4065      3.7309      4.1672      4.9864      6.4482      8.5637      11.079      13.511      15.260    
  15.825      15.017      22.002      17.886      13.401      9.4554      6.6182      4.9918      4.2287      3.7596    
  3.4246      3.2264      3.1489      3.1822      3.3307      3.6047      3.9970      4.6478      6.0629      8.5637    
  12.132      16.390      20.629      23.935      25.463      24.765      34.464      28.796      22.049      15.555    
  10.322      6.8307      4.9918      4.2132      3.7522      3.4502      3.3093      3.3192      3.4797      3.7955    
  4.2578      5.2030      7.3407      11.079      16.390      22.783      29.329      34.772      37.850      37.751    
  49.606      42.675      33.700      24.440      16.348      10.322      6.6182      4.8599      4.1663      3.7423    
  3.5090      3.4685      3.6183      3.9573      4.4827      5.7046      8.5353      13.511      20.629      29.329    
  38.499      46.560      51.794      52.914      65.801      58.200      47.370      35.481      24.440      15.555    
  9.4554      6.0679      4.6602      4.0897      3.7438      3.6249      3.7352      4.0706      4.6265      6.0019    
  9.3102      15.260      23.935      34.772      46.560      57.477      65.371      68.405      80.619      73.255    
  61.340      47.370      33.700      22.049      13.401      8.0120      5.4015      4.4593      3.9987      3.7804    
  3.8227      4.1225      4.6632      6.0027      9.4172      15.825      25.463      37.850      51.794      65.371    
  76.119      81.660      91.175      85.122      73.255      58.200      42.675      28.796      17.886      10.510    
  6.4747      4.8474      4.2477      3.9235      3.8762      4.1097      4.6003      5.7267      8.8207      15.017    
  24.765      37.751      52.914      68.405      81.660      89.914      91.175      89.914      81.660      68.405    
  52.914      37.751      24.765      15.017      8.8207      5.7267      4.6003      4.1097      3.8762      3.9235    
  4.2477      4.8474      6.4747      10.510      17.886      28.796      42.675      58.200      73.255      85.122    
  89.914      91.175      85.122      73.255      58.200      42.675      28.796      17.886      10.510      6.4747    
  4.8473      4.2477      3.9235      3.8762      4.1098      4.6004      5.7268      8.8207      15.017      24.765    
  37.751      52.914      68.405      81.660      81.660      85.122      81.660      72.148      58.793      44.206    
  30.612      19.507      11.649      7.0618      5.0388      4.3218      3.9301      3.7962      3.9302      4.3219    
  5.0389      7.0619      11.649      19.508      30.612      44.207      58.793      72.148      68.405      73.255    
  72.148      65.371      54.558      41.979      29.759      19.441      11.886      7.2755      5.1076      4.3182    
  3.8906      3.6914      3.7333      4.0153      4.5183      5.6365      8.5487      14.171      22.781      33.950    
  46.554      58.793      52.914      58.200      58.793      54.558      46.560      36.589      26.498      17.732    
  11.155      7.0262      5.0065      4.2352      3.8044      3.5691      3.5398      3.7173      4.1000      4.7114    
  6.2438      9.7044      15.643      23.974      33.950      44.206      37.751      42.675      44.206      41.979    
  36.589      29.329      21.680      14.875      9.6895      6.3931      4.7503      4.0836      3.6777      3.4360    
  3.3633      3.4569      3.7232      4.1610      4.8762      6.6262      10.138      15.643      22.781      30.612    
  24.765      28.796      30.612      29.759      26.498      21.680      16.390      11.591      7.9119      5.5772    
  4.4102      3.8836      3.5230      3.2993      3.2102      3.2479      3.4173      3.7321      4.1911      4.9423    
  6.6262      9.7044      14.171      19.507      15.017      17.886      19.507      19.441      17.732      14.875    
  11.591      8.5637      6.2483      4.8000      4.0687      3.6598      3.3566      3.1669      3.0823      3.0909    
  3.1927      3.4020      3.7357      4.1911      4.8762      6.2437      8.5487      11.649      8.8207      10.510    
  11.649      11.886      11.155      9.6895      7.9119      6.2483      4.9864      4.2052      3.7650      3.4362    
  3.1951      3.0466      2.9789      2.9787      3.0416      3.1767      3.4020      3.7321      4.1611      4.7114    
  5.6365      7.0619      5.7267      6.4747      7.0618      7.2755      7.0262      6.3931      5.5772      4.8000    
  4.2052      3.8031      3.4877      3.2329      3.0526      2.9452      2.8993      2.9026      2.9489      3.0416    
  3.1927      3.4173      3.7232      4.1000      4.5183      5.0388      4.6003      4.8473      5.0388      5.1076    
  5.0065      4.7503      4.4102      4.0687      3.7650      3.4877      3.2493      3.0644      2.9384      2.8679    
  2.8440      2.8576      2.9026      2.9786      3.0909      3.2479      3.4569      3.7173      4.0153      4.3218    
  4.1097      4.2477      4.3218      4.3182      4.2352      4.0836      3.8836      3.6598      3.4362      3.2329    
  3.0644      2.9386      2.8574      2.8181      2.8155      2.8440      2.8993      2.9789      3.0823      3.2102    
  3.3632      3.5398      3.7333      3.9301      3.8762      3.9235      3.9301      3.8906      3.8044      3.6777    
  3.5230      3.3566      3.1951      3.0526      2.9384      2.8574      2.8111      2.7985      2.8181      2.8679    
  2.9452      3.0466      3.1669      3.2993      3.4360      3.5691      3.6914      3.7962      3.9235      3.8762    
  3.7962      3.6914      3.5691      3.4360      3.2993      3.1669      3.0466      2.9452      2.8679      2.8181    
  2.7985      2.8111      2.8574      2.9384      3.0526      3.1951      3.3566      3.5230      3.6777      3.8044    
  3.8906      3.9301      4.2477      4.1098      3.9302      3.7333      3.5398      3.3633      3.2102      3.0823    
  2.9789      2.8993      2.8440      2.8155      2.8181      2.8574      2.9386      3.0644      3.2329      3.4362    
  3.6599      3.8836      4.0836      4.2352      4.3182      4.3218      4.8474      4.6004      4.3219      4.0153    
  3.7173      3.4569      3.2479      3.0909      2.9787      2.9026      2.8576      2.8440      2.8679      2.9384    
  3.0644      3.2493      3.4877      3.7651      4.0687      4.4102      4.7502      5.0065      5.1076      5.0388    
  6.4747      5.7268      5.0389      4.5183      4.1000      3.7232      3.4173      3.1927      3.0416      2.9489    
  2.9026      2.8993      2.9452      3.0526      3.2329      3.4877      3.8031      4.2052      4.8000      5.5772    
  6.3930      7.0262      7.2755      7.0619      10.510      8.8207      7.0619      5.6365      4.7114      4.1610    
  3.7321      3.4020      3.1767      3.0416      2.9786      2.9789      3.0466      3.1951      3.4362      3.7651    
  4.2052      4.9863      6.2482      7.9118      9.6894      11.155      11.886      11.649      17.886      15.017    
  11.649      8.5487      6.2438      4.8762      4.1911      3.7357      3.4020      3.1927      3.0909      3.0823    
  3.1669      3.3566      3.6599      4.0687      4.8000      6.2482      8.5636      11.591      14.875      17.732    
  19.441      19.507      28.796      24.765      19.508      14.171      9.7044      6.6262      4.9423      4.1911    
  3.7321      3.4173      3.2479      3.2102      3.2993      3.5230      3.8836      4.4102      5.5772      7.9118    
  11.591      16.389      21.679      26.498      29.759      30.612      42.675      37.751      30.612      22.781    
  15.643      10.138      6.6262      4.8762      4.1611      3.7232      3.4569      3.3632      3.4360      3.6777    
  4.0836      4.7502      6.3930      9.6894      14.875      21.679      29.329      36.589      41.979      44.206    
  58.200      52.914      44.207      33.950      23.974      15.643      9.7044      6.2437      4.7114      4.1000    
  3.7173      3.5398      3.5691      3.8044      4.2352      5.0065      7.0262      11.155      17.732      26.498    
  36.589      46.560      54.558      58.793      73.255      68.405      58.793      46.554      33.950      22.781    
  14.171      8.5487      5.6365      4.5183      4.0153      3.7333      3.6914      3.8906      4.3182      5.1076    
  7.2755      11.886      19.441      29.759      41.979      54.558      65.372      72.148      85.122      81.660    
  72.148      58.793      44.206      30.612      19.507      11.649      7.0619      5.0388      4.3218      3.9301    
  3.7962      3.9301      4.3218      5.0388      7.0619      11.649      19.507      30.612      44.206      58.793    
  72.148      81.660      80.619      81.660      76.119      65.371      51.794      37.850      25.463      15.825    
  9.4172      6.0027      4.6632      4.1225      3.8227      3.7804      3.9987      4.4593      5.4015      8.0120    
  13.401      22.049      33.700      47.370      61.340      73.255      81.660      85.122      81.660      72.148    
  58.793      44.206      30.612      19.507      11.649      7.0618      5.0388      4.3218      3.9301      3.7962    
  3.9302      4.3219      5.0389      7.0619      11.649      19.508      30.612      44.207      58.793      72.148    
  76.119      81.660      80.618      73.255      61.340      47.370      33.699      22.049      13.401      8.0120    
  5.4014      4.4593      3.9987      3.7804      3.8227      4.1226      4.6633      6.0028      9.4173      15.825    
  25.463      37.851      51.794      65.372      65.371      72.148      73.255      68.405      58.793      46.554    
  33.950      22.781      14.171      8.5486      5.6365      4.5182      4.0153      3.7333      3.6914      3.8907    
  4.3183      5.1076      7.2755      11.887      19.442      29.759      41.979      54.558      51.794      58.793    
  61.340      58.793      51.794      41.979      31.318      21.520      13.736      8.4839      5.6417      4.4876    
  3.9728      3.6558      3.5499      3.6558      3.9728      4.4876      5.6417      8.4839      13.736      21.520    
  31.318      41.979      37.850      44.206      47.370      46.554      41.979      34.772      26.498      18.634    
  12.239      7.8370      5.3965      4.3640      3.8733      3.5513      3.4082      3.4411      3.6519      4.0421    
  4.6423      6.0872      9.2133      14.417      21.520      29.759      25.463      30.612      33.699      33.950    
  31.318      26.498      20.629      14.875      10.118      6.8180      4.9762      4.1681      3.7277      3.4265    
  3.2730      3.2593      3.3843      3.6586      4.0843      4.7431      6.2602      9.2133      13.736      19.441    
  15.825      19.507      22.049      22.781      21.520      18.634      14.875      11.080      7.9119      5.7219    
  4.5071      3.9343      3.5539      3.2914      3.1489      3.1139      3.1806      3.3585      3.6640      4.0980    
  4.7431      6.0872      8.4839      11.886      9.4172      11.649      13.401      14.171      13.736      12.239    
  10.118      7.9119      6.0629      4.8000      4.0950      3.6863      3.3719      3.1579      3.0395      3.0022    
  3.0368      3.1477      3.3512      3.6640      4.0844      4.6423      5.6417      7.2755      6.0027      7.0618    
  8.0120      8.5486      8.4839      7.8370      6.8180      5.7219      4.8000      4.1672      3.7650      3.4458    
  3.2001      3.0368      2.9480      2.9197      2.9419      3.0143      3.1477      3.3585      3.6587      4.0421    
  4.4876      5.1076      4.6632      5.0388      5.4014      5.6365      5.6417      5.3965      4.9762      4.5071    
  4.0950      3.7650      3.4750      3.2329      3.0528      2.9367      2.8772      2.8631      2.8856      2.9419    
  3.0368      3.1806      3.3843      3.6519      3.9728      4.3182      4.1225      4.3218      4.4593      4.5182    
  4.4876      4.3640      4.1681      3.9343      3.6863      3.4458      3.2329      3.0616      2.9384      2.8630    
  2.8299      2.8320      2.8631      2.9197      3.0022      3.1138      3.2593      3.4411      3.6558      3.8906    
  3.8227      3.9301      3.9987      4.0153      3.9728      3.8733      3.7277      3.5539      3.3719      3.2001    
  3.0528      2.9384      2.8603      2.8181      2.8091      2.8299      2.8772      2.9480      3.0395      3.1489    
  3.2730      3.4082      3.5499      3.6914      3.7804      3.7962      3.7804      3.7333      3.6558      3.5513    
  3.4265      3.2914      3.1579      3.0368      2.9367      2.8630      2.8181      2.8031      2.8181      2.8630    
  2.9367      3.0368      3.1579      3.2914      3.4264      3.5512      3.6558      3.7333      3.9987      3.9302    
  3.8227      3.6914      3.5499      3.4082      3.2730      3.1489      3.0395      2.9480      2.8772      2.8299    
  2.8091      2.8181      2.8603      2.9384      3.0528      3.2002      3.3719      3.5539      3.7277      3.8732    
  3.9728      4.0153      4.4593      4.3219      4.1226      3.8907      3.6558      3.4411      3.2593      3.1139    
  3.0022      2.9197      2.8631      2.8320      2.8299      2.8630      2.9384      3.0616      3.2329      3.4458    
  3.6863      3.9344      4.1681      4.3640      4.4876      4.5183      5.4015      5.0389      4.6633      4.3183    
  3.9728      3.6519      3.3843      3.1806      3.0368      2.9419      2.8856      2.8631      2.8772      2.9367    
  3.0528      3.2329      3.4750      3.7651      4.0951      4.5071      4.9762      5.3965      5.6417      5.6365    
  8.0120      7.0619      6.0028      5.1076      4.4876      4.0421      3.6586      3.3585      3.1477      3.0143    
  2.9419      2.9197      2.9480      3.0368      3.2002      3.4458      3.7651      4.1672      4.8000      5.7218    
  6.8179      7.8369      8.4839      8.5487      13.401      11.649      9.4173      7.2755      5.6417      4.6423    
  4.0843      3.6640      3.3512      3.1477      3.0368      3.0022      3.0395      3.1579      3.3719      3.6863    
  4.0951      4.8000      6.0629      7.9117      10.118      12.239      13.736      14.171      22.049      19.508    
  15.825      11.887      8.4839      6.0872      4.7431      4.0980      3.6640      3.3585      3.1806      3.1138    
  3.1489      3.2914      3.5539      3.9344      4.5071      5.7218      7.9117      11.079      14.875      18.634    
  21.520      22.781      33.700      30.612      25.463      19.442      13.736      9.2133      6.2602      4.7431    
  4.0844      3.6587      3.3843      3.2593      3.2730      3.4264      3.7277      4.1681      4.9762      6.8179    
  10.118      14.875      20.629      26.498      31.318      33.950      47.370      44.207      37.851      29.759    
  21.520      14.417      9.2133      6.0872      4.6423      4.0421      3.6519      3.4411      3.4082      3.5512    
  3.8732      4.3640      5.3965      7.8369      12.239      18.634      26.498      34.772      41.979      46.554    
  61.340      58.793      51.794      41.979      31.318      21.520      13.736      8.4839      5.6417      4.4876    
  3.9728      3.6558      3.5499      3.6558      3.9728      4.4876      5.6417      8.4839      13.736      21.520    
  31.318      41.979      51.794      58.793      73.255      72.148      65.372      54.558      41.979      29.759    
  19.441      11.886      7.2755      5.1076      4.3182      3.8906      3.6914      3.7333      4.0153      4.5183    
  5.6365      8.5487      14.171      22.781      33.950      46.554      58.793      68.405      65.801      68.405    
  65.371      57.477      46.560      34.772      23.935      15.260      9.3102      6.0019      4.6265      4.0706    
  3.7352      3.6249      3.7438      4.0897      4.6602      6.0679      9.4554      15.555      24.440      35.481    
  47.370      58.200      68.405      73.255      72.148      65.371      54.558      41.979      29.759      19.441    
  11.886      7.2755      5.1076      4.3182      3.8906      3.6914      3.7333      4.0153      4.5183      5.6365    
  8.5487      14.171      22.781      33.950      46.554      58.793      65.371      72.148      73.255      68.405    
  58.793      46.554      33.950      22.781      14.171      8.5486      5.6365      4.5182      4.0153      3.7333    
  3.6914      3.8907      4.3183      5.1076      7.2755      11.887      19.442      29.759      41.979      54.558    
  57.477      65.371      68.405      65.800      58.200      47.370      35.481      24.440      15.555      9.4554    
  6.0678      4.6602      4.0897      3.7438      3.6249      3.7353      4.0707      4.6265      6.0020      9.3102    
  15.260      23.935      34.772      46.560      46.560      54.558      58.793      58.200      52.914      44.207    
  33.950      23.974      15.643      9.7045      6.2438      4.7114      4.1000      3.7173      3.5398      3.5691    
  3.8044      4.2352      5.0065      7.0262      11.155      17.732      26.498      36.589      34.772      41.979    
  46.554      47.370      44.207      37.851      29.759      21.520      14.417      9.2134      6.0872      4.6423    
  4.0421      3.6519      3.4411      3.4082      3.5512      3.8732      4.3640      5.3965      7.8369      12.239    
  18.634      26.498      23.935      29.759      33.950      35.481      33.950      29.759      23.935      17.733    
  12.239      8.1434      5.6462      4.4614      3.9229      3.5515      3.3334      3.2627      3.3333      3.5514    
  3.9228      4.4613      5.6461      8.1433      12.239      17.732      15.260      19.441      22.781      24.440    
  23.974      21.520      17.733      13.511      9.6895      6.8179      5.0653      4.2142      3.7581      3.4256    
  3.2221      3.1372      3.1605      3.2951      3.5553      3.9471      4.4996      5.6461      7.8369      11.155    
  9.3102      11.886      14.171      15.555      15.643      14.417      12.239      9.6895      7.3406      5.5772    
  4.5071      3.9503      3.5689      3.2880      3.1137      3.0328      3.0319      3.1099      3.2791      3.5570    
  3.9471      4.4614      5.3965      7.0262      6.0019      7.2755      8.5486      9.4554      9.7045      9.2134    
  8.1434      6.8179      5.5772      4.6477      4.0686      3.6862      3.3767      3.1531      3.0150      2.9489    
  2.9414      2.9876      3.0948      3.2792      3.5553      3.9229      4.3640      5.0065      4.6265      5.1076    
  5.6365      6.0678      6.2438      6.0872      5.6462      5.0653      4.5071      4.0686      3.7308      3.4362    
  3.2001      3.0332      2.9320      2.8854      2.8817      2.9149      2.9876      3.1099      3.2951      3.5515    
  3.8732      4.2352      4.0706      4.3182      4.5182      4.6602      4.7114      4.6423      4.4614      4.2142    
  3.9503      3.6862      3.4362      3.2205      3.0526      2.9367      2.8694      2.8427      2.8486      2.8817    
  2.9414      3.0319      3.1605      3.3333      3.5512      3.8044      3.7352      3.8906      4.0153      4.0897    
  4.1000      4.0421      3.9229      3.7581      3.5689      3.3767      3.2001      3.0526      2.9413      2.8679    
  2.8299      2.8230      2.8427      2.8854      2.9489      3.0327      3.1372      3.2627      3.4082      3.5691    
  3.6249      3.6914      3.7333      3.7438      3.7173      3.6519      3.5515      3.4256      3.2880      3.1531    
  3.0332      2.9367      2.8679      2.8277      2.8155      2.8299      2.8694      2.9320      3.0149      3.1136    
  3.2221      3.3333      3.4411      3.5398      3.7438      3.7333      3.6914      3.6249      3.5398      3.4411    
  3.3334      3.2221      3.1137      3.0150      2.9320      2.8694      2.8299      2.8155      2.8277      2.8679    
  2.9367      3.0332      3.1531      3.2880      3.4256      3.5515      3.6519      3.7173      4.0897      4.0153    
  3.8907      3.7353      3.5691      3.4082      3.2627      3.1372      3.0328      2.9489      2.8854      2.8427    
  2.8230      2.8299      2.8679      2.9413      3.0526      3.2002      3.3767      3.5689      3.7581      3.9229    
  4.0421      4.1000      4.6602      4.5183      4.3183      4.0707      3.8044      3.5512      3.3333      3.1605    
  3.0319      2.9414      2.8817      2.8486      2.8427      2.8694      2.9367      3.0526      3.2206      3.4362    
  3.6863      3.9503      4.2142      4.4614      4.6423      4.7114      6.0679      5.6365      5.1076      4.6265    
  4.2352      3.8732      3.5514      3.2951      3.1099      2.9876      2.9149      2.8817      2.8854      2.9320    
  3.0332      3.2002      3.4362      3.7309      4.0687      4.5071      5.0653      5.6461      6.0872      6.2437    
  9.4554      8.5487      7.2755      6.0020      5.0065      4.3640      3.9228      3.5553      3.2791      3.0948    
  2.9876      2.9414      2.9489      3.0149      3.1531      3.3767      3.6863      4.0687      4.6477      5.5771    
  6.8178      8.1433      9.2133      9.7044      15.555      14.171      11.887      9.3102      7.0262      5.3965    
  4.4613      3.9471      3.5570      3.2792      3.1099      3.0319      3.0327      3.1136      3.2880      3.5689    
  3.9503      4.5071      5.5771      7.3406      9.6894      12.239      14.417      15.643      24.440      22.781    
  19.442      15.260      11.155      7.8369      5.6461      4.4996      3.9471      3.5553      3.2951      3.1605    
  3.1372      3.2221      3.4256      3.7581      4.2142      5.0653      6.8178      9.6894      13.511      17.732    
  21.520      23.974      35.481      33.950      29.759      23.935      17.732      12.239      8.1433      5.6461    
  4.4614      3.9229      3.5515      3.3333      3.2627      3.3333      3.5515      3.9229      4.4614      5.6461    
  8.1433      12.239      17.732      23.935      29.759      33.950      47.370      46.554      41.979      34.772    
  26.498      18.634      12.239      7.8369      5.3965      4.3640      3.8732      3.5512      3.4082      3.4411    
  3.6519      4.0421      4.6423      6.0872      9.2133      14.417      21.520      29.759      37.851      44.207    
  58.200      58.793      54.558      46.560      36.589      26.498      17.732      11.155      7.0262      5.0065    
  4.2352      3.8044      3.5691      3.5398      3.7173      4.1000      4.7114      6.2437      9.7044      15.643    
  23.974      33.950      44.207      52.914      49.606      52.914      51.794      46.560      38.499      29.329    
  20.629      13.511      8.5353      5.7046      4.4827      3.9573      3.6183      3.4685      3.5090      3.7423    
  4.1663      4.8599      6.6182      10.322      16.348      24.440      33.700      42.675      52.914      58.200    
  58.793      54.558      46.560      36.589      26.498      17.732      11.155      7.0262      5.0065      4.2352    
  3.8044      3.5691      3.5398      3.7173      4.1000      4.7114      6.2438      9.7044      15.643      23.974    
  33.950      44.206      51.794      58.793      61.340      58.793      51.794      41.979      31.318      21.520    
  13.736      8.4839      5.6417      4.4876      3.9728      3.6558      3.5499      3.6558      3.9728      4.4876    
  5.6417      8.4839      13.736      21.520      31.318      41.979      46.560      54.558      58.793      58.200    
  52.914      44.207      33.950      23.974      15.643      9.7045      6.2438      4.7114      4.1000      3.7173    
  3.5398      3.5691      3.8044      4.2352      5.0065      7.0262      11.155      17.732      26.498      36.589    
  38.499      46.560      51.794      52.914      49.606      42.675      33.700      24.440      16.348      10.322    
  6.6182      4.8599      4.1664      3.7424      3.5090      3.4686      3.6183      3.9573      4.4827      5.7046    
  8.5353      13.511      20.629      29.329      29.329      36.589      41.979      44.207      42.675      37.752    
  30.612      22.781      15.643      10.138      6.6263      4.8762      4.1611      3.7232      3.4569      3.3633    
  3.4360      3.6777      4.0836      4.7502      6.3930      9.6894      14.875      21.679      20.629      26.498    