bcc Fe                                  
   2.82000000000000     
    -0.503947    0.503947    0.503947
     0.503947   -0.503947    0.503947
     0.503947    0.503947   -0.503947
   Fe
     1
Direct
 -0.000000  0.000000 -0.000000
 
   24   24   24
 0.97396770429E+02 0.93394792640E+02 0.82418787857E+02 0.67052435975E+02 0.50318309815E+02
 0.34741379976E+02 0.21997592027E+02 0.12937343146E+02 0.76092254052E+01 0.52397683070E+01
 0.44222769516E+01 0.39937788103E+01 0.38471586668E+01 0.39937788103E+01 0.44222769516E+01
 0.52397683070E+01 0.76092254052E+01 0.12937343146E+02 0.21997592027E+02 0.34741379976E+02
 0.50318309815E+02 0.67052435975E+02 0.82418787857E+02 0.93394792640E+02 0.93394792640E+02
 0.92081297152E+02 0.83498414662E+02 0.69746451929E+02 0.53727511017E+02 0.38113902608E+02
 0.24813978386E+02 0.14909208695E+02 0.86948572926E+01 0.56566966147E+01 0.45684359999E+01
 0.40669096394E+01 0.38299013830E+01 0.38777517561E+01 0.42077038255E+01 0.48101850499E+01
 0.63833482370E+01 0.10377703183E+02 0.17813239878E+02 0.28933160833E+02 0.43176675587E+02
 0.59188024264E+02 0.74775203926E+02 0.87097357631E+02 0.82418787857E+02 0.83498414662E+02
 0.77740640306E+02 0.66596057590E+02 0.52561545851E+02 0.38207697684E+02 0.25522208003E+02
 0.15725264149E+02 0.92880451018E+01 0.59229390359E+01 0.46305513532E+01 0.40826733310E+01
 0.37782412845E+01 0.37355616665E+01 0.39564995547E+01 0.44276069048E+01 0.53417792584E+01
 0.78939332875E+01 0.13279357012E+02 0.22043384828E+02 0.33952731812E+02 0.48007344617E+02
 0.62431779867E+02 0.74775203926E+02 0.67052435975E+02 0.69746451929E+02 0.66596057590E+02
 0.58421607343E+02 0.47153419442E+02 0.35036951774E+02 0.23957489951E+02 0.15152872308E+02
 0.91813900557E+01 0.59203592102E+01 0.45932637427E+01 0.40335599362E+01 0.36932493487E+01
 0.35820559381E+01 0.37016085306E+01 0.40522851851E+01 0.46267403451E+01 0.59855060143E+01
 0.93266639884E+01 0.15453614081E+02 0.24478881244E+02 0.35778004026E+02 0.48007344617E+02
 0.59188024264E+02 0.50318309815E+02 0.53727511017E+02 0.52561545851E+02 0.47153419442E+02
 0.38853408729E+02 0.29453829314E+02 0.20586520548E+02 0.13387178534E+02 0.84110805937E+01
 0.56291919529E+01 0.44514447876E+01 0.39221571903E+01 0.35786021326E+01 0.34281511795E+01
 0.34684093316E+01 0.37028155172E+01 0.41339121180E+01 0.48172447395E+01 0.65219711532E+01
 0.10191114217E+02 0.16255149461E+02 0.24478881244E+02 0.33952731812E+02 0.43176675587E+02
 0.34741379976E+02 0.38113902608E+02 0.38207697684E+02 0.35036951774E+02 0.29453829314E+02
 0.22772363256E+02 0.16287132943E+02 0.10945367221E+02 0.72288203398E+01 0.51407906285E+01
 0.42301605561E+01 0.37612162614E+01 0.34418445433E+01 0.32810697990E+01 0.32708548132E+01
 0.34111290654E+01 0.37147034330E+01 0.41843424221E+01 0.49426097190E+01 0.67301209855E+01
 0.10191114217E+02 0.15453614081E+02 0.22043384828E+02 0.28933160833E+02 0.21997592027E+02
 0.24813978386E+02 0.25522208003E+02 0.23957489951E+02 0.20586520548E+02 0.16287132943E+02
 0.11998111006E+02 0.84374480664E+01 0.59737961618E+01 0.46030696995E+01 0.39713671945E+01
 0.35705970714E+01 0.32941534161E+01 0.31457722803E+01 0.31124775378E+01 0.31888517273E+01
 0.33860998385E+01 0.37230487573E+01 0.42008149230E+01 0.49426097190E+01 0.65219711532E+01
 0.93266639884E+01 0.13279357012E+02 0.17813239878E+02 0.12937343146E+02 0.14909208695E+02
 0.15725264149E+02 0.15152872308E+02 0.13387178534E+02 0.10945367221E+02 0.84374480664E+01
 0.63500107744E+01 0.49270336782E+01 0.41385018896E+01 0.37026091055E+01 0.33725056383E+01
 0.31484620933E+01 0.30262415269E+01 0.29903672119E+01 0.30314441626E+01 0.31549000133E+01
 0.33791884930E+01 0.37230487573E+01 0.41843424221E+01 0.48172447395E+01 0.59855060143E+01
 0.78939332875E+01 0.10377703183E+02 0.76092254052E+01 0.86948572926E+01 0.92880451018E+01
 0.91813900557E+01 0.84110805937E+01 0.72288203398E+01 0.59737961618E+01 0.49270336782E+01
 0.42156904432E+01 0.37793360303E+01 0.34443938382E+01 0.31869703895E+01 0.30168564655E+01
 0.29260298367E+01 0.28995817606E+01 0.29268164155E+01 0.30079302668E+01 0.31549000133E+01
 0.33860998385E+01 0.37147034330E+01 0.41339121180E+01 0.46267403451E+01 0.53417792584E+01
 0.63833482370E+01 0.52397683070E+01 0.56566966147E+01 0.59229390359E+01 0.59203592102E+01
 0.56291919529E+01 0.51407906285E+01 0.46030696995E+01 0.41385018896E+01 0.37793360303E+01
 0.34725288512E+01 0.32175481610E+01 0.30289045449E+01 0.29085168402E+01 0.28483445458E+01
 0.28365179020E+01 0.28635968106E+01 0.29268164155E+01 0.30314441626E+01 0.31888517273E+01
 0.34111290654E+01 0.37028155172E+01 0.40522851851E+01 0.44276069048E+01 0.48101850499E+01
 0.44222769516E+01 0.45684359999E+01 0.46305513532E+01 0.45932637427E+01 0.44514447876E+01
 0.42301605561E+01 0.39713671945E+01 0.37026091055E+01 0.34443938382E+01 0.32175481610E+01
 0.30362985209E+01 0.29070800295E+01 0.28290006994E+01 0.27961623909E+01 0.28008669281E+01
 0.28365179020E+01 0.28995817606E+01 0.29903672119E+01 0.31124775378E+01 0.32708548132E+01
 0.34684093316E+01 0.37016085306E+01 0.39564995547E+01 0.42077038255E+01 0.39937788103E+01
 0.40669096394E+01 0.40826733310E+01 0.40335599362E+01 0.39221571903E+01 0.37612162614E+01
 0.35705970714E+01 0.33725056383E+01 0.31869703895E+01 0.30289045449E+01 0.29070800295E+01
 0.28246752626E+01 0.27808289708E+01 0.27725282983E+01 0.27961623909E+01 0.28483445458E+01
 0.29260298367E+01 0.30262415269E+01 0.31457722803E+01 0.32810697990E+01 0.34281511795E+01
 0.35820559381E+01 0.37355616665E+01 0.38777517561E+01 0.38471586668E+01 0.38299013830E+01
 0.37782412845E+01 0.36932493487E+01 0.35786021326E+01 0.34418445433E+01 0.32941534161E+01
 0.31484620933E+01 0.30168564655E+01 0.29085168402E+01 0.28290006994E+01 0.27808289708E+01
 0.27647396955E+01 0.27808289708E+01 0.28290006994E+01 0.29085168402E+01 0.30168564655E+01
 0.31484620933E+01 0.32941534161E+01 0.34418445433E+01 0.35786021326E+01 0.36932493487E+01
 0.37782412845E+01 0.38299013830E+01 0.39937788103E+01 0.38777517561E+01 0.37355616665E+01
 0.35820559381E+01 0.34281511795E+01 0.32810697990E+01 0.31457722803E+01 0.30262415269E+01
 0.29260298367E+01 0.28483445458E+01 0.27961623909E+01 0.27725282983E+01 0.27808289708E+01
 0.28246752626E+01 0.29070800295E+01 0.30289045449E+01 0.31869703895E+01 0.33725056383E+01
 0.35705970714E+01 0.37612162614E+01 0.39221571903E+01 0.40335599362E+01 0.40826733310E+01
 0.40669096394E+01 0.44222769516E+01 0.42077038255E+01 0.39564995547E+01 0.37016085306E+01
 0.34684093316E+01 0.32708548132E+01 0.31124775378E+01 0.29903672119E+01 0.28995817606E+01
 0.28365179020E+01 0.28008669281E+01 0.27961623909E+01 0.28290006994E+01 0.29070800295E+01
 0.30362985209E+01 0.32175481610E+01 0.34443938382E+01 0.37026091055E+01 0.39713671945E+01
 0.42301605561E+01 0.44514447876E+01 0.45932637427E+01 0.46305513532E+01 0.45684359999E+01
 0.52397683070E+01 0.48101850499E+01 0.44276069048E+01 0.40522851851E+01 0.37028155172E+01
 0.34111290654E+01 0.31888517273E+01 0.30314441626E+01 0.29268164155E+01 0.28635968106E+01
 0.28365179020E+01 0.28483445458E+01 0.29085168402E+01 0.30289045449E+01 0.32175481610E+01
 0.34725288512E+01 0.37793360303E+01 0.41385018896E+01 0.46030696995E+01 0.51407906285E+01
 0.56291919529E+01 0.59203592102E+01 0.59229390359E+01 0.56566966147E+01 0.76092254052E+01
 0.63833482370E+01 0.53417792584E+01 0.46267403451E+01 0.41339121180E+01 0.37147034330E+01
 0.33860998385E+01 0.31549000133E+01 0.30079302668E+01 0.29268164155E+01 0.28995817606E+01
 0.29260298367E+01 0.30168564655E+01 0.31869703895E+01 0.34443938382E+01 0.37793360303E+01
 0.42156904432E+01 0.49270336782E+01 0.59737961618E+01 0.72288203398E+01 0.84110805937E+01
 0.91813900557E+01 0.92880451018E+01 0.86948572926E+01 0.12937343146E+02 0.10377703183E+02
 0.78939332875E+01 0.59855060143E+01 0.48172447395E+01 0.41843424221E+01 0.37230487573E+01
 0.33791884930E+01 0.31549000133E+01 0.30314441626E+01 0.29903672119E+01 0.30262415269E+01
 0.31484620933E+01 0.33725056383E+01 0.37026091055E+01 0.41385018896E+01 0.49270336782E+01
 0.63500107744E+01 0.84374480664E+01 0.10945367221E+02 0.13387178534E+02 0.15152872308E+02
 0.15725264149E+02 0.14909208695E+02 0.21997592027E+02 0.17813239878E+02 0.13279357012E+02
 0.93266639884E+01 0.65219711532E+01 0.49426097190E+01 0.42008149230E+01 0.37230487573E+01
 0.33860998385E+01 0.31888517273E+01 0.31124775378E+01 0.31457722803E+01 0.32941534161E+01
 0.35705970714E+01 0.39713671945E+01 0.46030696995E+01 0.59737961618E+01 0.84374480664E+01
 0.11998111006E+02 0.16287132943E+02 0.20586520548E+02 0.23957489951E+02 0.25522208003E+02
 0.24813978386E+02 0.34741379976E+02 0.28933160833E+02 0.22043384828E+02 0.15453614081E+02
 0.10191114217E+02 0.67301209855E+01 0.49426097190E+01 0.41843424221E+01 0.37147034330E+01
 0.34111290654E+01 0.32708548132E+01 0.32810697990E+01 0.34418445433E+01 0.37612162614E+01
 0.42301605561E+01 0.51407906285E+01 0.72288203398E+01 0.10945367221E+02 0.16287132943E+02
 0.22772363256E+02 0.29453829314E+02 0.35036951774E+02 0.38207697684E+02 0.38113902608E+02
 0.50318309815E+02 0.43176675587E+02 0.33952731812E+02 0.24478881244E+02 0.16255149461E+02
 0.10191114217E+02 0.65219711532E+01 0.48172447395E+01 0.41339121180E+01 0.37028155172E+01
 0.34684093316E+01 0.34281511795E+01 0.35786021326E+01 0.39221571903E+01 0.44514447876E+01
 0.56291919529E+01 0.84110805937E+01 0.13387178534E+02 0.20586520548E+02 0.29453829314E+02
 0.38853408729E+02 0.47153419442E+02 0.52561545851E+02 0.53727511017E+02 0.67052435975E+02
 0.59188024264E+02 0.48007344617E+02 0.35778004026E+02 0.24478881244E+02 0.15453614081E+02
 0.93266639884E+01 0.59855060143E+01 0.46267403451E+01 0.40522851851E+01 0.37016085306E+01
 0.35820559381E+01 0.36932493487E+01 0.40335599362E+01 0.45932637427E+01 0.59203592102E+01
 0.91813900557E+01 0.15152872308E+02 0.23957489951E+02 0.35036951774E+02 0.47153419442E+02
 0.58421607343E+02 0.66596057590E+02 0.69746451929E+02 0.82418787857E+02 0.74775203926E+02
 0.62431779867E+02 0.48007344617E+02 0.33952731812E+02 0.22043384828E+02 0.13279357012E+02
 0.78939332875E+01 0.53417792584E+01 0.44276069048E+01 0.39564995547E+01 0.37355616665E+01
 0.37782412845E+01 0.40826733310E+01 0.46305513532E+01 0.59229390359E+01 0.92880451018E+01
 0.15725264149E+02 0.25522208003E+02 0.38207697684E+02 0.52561545851E+02 0.66596057590E+02
 0.77740640306E+02 0.83498414662E+02 0.93394792640E+02 0.87097357631E+02 0.74775203926E+02
 0.59188024264E+02 0.43176675587E+02 0.28933160833E+02 0.17813239878E+02 0.10377703183E+02
 0.63833482370E+01 0.48101850499E+01 0.42077038255E+01 0.38777517561E+01 0.38299013830E+01
 0.40669096394E+01 0.45684359999E+01 0.56566966147E+01 0.86948572926E+01 0.14909208695E+02
 0.24813978386E+02 0.38113902608E+02 0.53727511017E+02 0.69746451929E+02 0.83498414662E+02
 0.92081297152E+02 0.93394792640E+02 0.92081297152E+02 0.83498414662E+02 0.69746451929E+02
 0.53727511017E+02 0.38113902608E+02 0.24813978386E+02 0.14909208695E+02 0.86948572926E+01
 0.56566966147E+01 0.45684359999E+01 0.40669096394E+01 0.38299013830E+01 0.38777517561E+01
 0.42077038255E+01 0.48101850499E+01 0.63833482370E+01 0.10377703183E+02 0.17813239878E+02
 0.28933160833E+02 0.43176675587E+02 0.59188024264E+02 0.74775203926E+02 0.87097357631E+02
 0.92081297152E+02 0.93394791972E+02 0.87097357823E+02 0.74775208391E+02 0.59188035897E+02
 0.43176694478E+02 0.28933183530E+02 0.17813260730E+02 0.10377717068E+02 0.63833531243E+01
 0.48101829172E+01 0.42076993661E+01 0.38777495906E+01 0.38299033550E+01 0.40669137402E+01
 0.45684375367E+01 0.56566909542E+01 0.86948426139E+01 0.14909187191E+02 0.24813955258E+02
 0.38113883458E+02 0.53727499155E+02 0.69746447117E+02 0.83498413937E+02 0.83498414662E+02
 0.87097357823E+02 0.83498414756E+02 0.73623915269E+02 0.59795377824E+02 0.44747865866E+02
 0.30788887759E+02 0.19458624771E+02 0.11518449079E+02 0.69577459399E+01 0.49934471200E+01
 0.42855625076E+01 0.38861949937E+01 0.37507201936E+01 0.38862011370E+01 0.42855691732E+01
 0.49934462985E+01 0.69577318619E+01 0.11518421624E+02 0.19458589767E+02 0.30788854067E+02
 0.44747840985E+02 0.59795364528E+02 0.73623911132E+02 0.69746451929E+02 0.74775208391E+02
 0.73623915269E+02 0.66596059125E+02 0.55410949391E+02 0.42445354040E+02 0.29908779537E+02
 0.19389147416E+02 0.11756820659E+02 0.71671386531E+01 0.50572726121E+01 0.42854265486E+01
 0.38490884165E+01 0.36478606915E+01 0.36899987495E+01 0.39754459748E+01 0.44880151087E+01
 0.55674011274E+01 0.84252753129E+01 0.14055663417E+02 0.22787576170E+02 0.34206082066E+02
 0.47162345499E+02 0.59795368143E+02 0.53727511017E+02 0.59188035897E+02 0.59795377824E+02
 0.55410949391E+02 0.47153419056E+02 0.36897062078E+02 0.26567945496E+02 0.17652069049E+02
 0.11022825473E+02 0.69211197041E+01 0.49569086080E+01 0.42046486028E+01 0.37651908168E+01
 0.35278795402E+01 0.34983700900E+01 0.36766749155E+01 0.40649787888E+01 0.46749313954E+01
 0.61560852690E+01 0.95748512706E+01 0.15541942286E+02 0.24002232130E+02 0.34206087524E+02
 0.44747850745E+02 0.38113902608E+02 0.43176694478E+02 0.44747865866E+02 0.42445354040E+02
 0.36897062078E+02 0.29453822702E+02 0.21652600325E+02 0.14760033467E+02 0.95583086918E+01
 0.62989139446E+01 0.47070489151E+01 0.40537176539E+01 0.36402063230E+01 0.33969666711E+01
 0.33240976716E+01 0.34173516803E+01 0.36848001046E+01 0.41303266056E+01 0.48315878371E+01
 0.65295166053E+01 0.10007342606E+02 0.15541947225E+02 0.22787587004E+02 0.30788870171E+02
 0.24813978386E+02 0.28933183530E+02 0.30788887759E+02 0.29908779537E+02 0.26567945496E+02
 0.21652600325E+02 0.16287120668E+02 0.11457079625E+02 0.77923335132E+01 0.55018244733E+01
 0.43766099644E+01 0.38531428718E+01 0.34865790042E+01 0.32620172426E+01 0.31730789147E+01
 0.32102142413E+01 0.33787315567E+01 0.36951875318E+01 0.41627266165E+01 0.48944282389E+01
 0.65295195151E+01 0.95748590118E+01 0.14055677223E+02 0.19458609359E+02 0.14909208695E+02
 0.17813260730E+02 0.19458624771E+02 0.19389147416E+02 0.17652069049E+02 0.14760033467E+02
 0.11457079625E+02 0.84374359798E+01 0.61545692399E+01 0.47483650880E+01 0.40431897491E+01
 0.36281834267E+01 0.33209448353E+01 0.31309201976E+01 0.30467063480E+01 0.30549330690E+01
 0.31554653071E+01 0.33637216816E+01 0.36992723927E+01 0.41627276955E+01 0.48315913363E+01
 0.61560928507E+01 0.84252882498E+01 0.11518439862E+02 0.86948572926E+01 0.10377717068E+02
 0.11518449079E+02 0.11756820659E+02 0.11022825473E+02 0.95583086918E+01 0.77923335132E+01
 0.61545692399E+01 0.49270272613E+01 0.41748265230E+01 0.37389089579E+01 0.34036425387E+01
 0.31603680994E+01 0.30117704548E+01 0.29444758542E+01 0.29440246703E+01 0.30059224350E+01
 0.31394786593E+01 0.33637219657E+01 0.36951884021E+01 0.41303288541E+01 0.46749362451E+01
 0.55674096727E+01 0.69577442245E+01 0.56566966147E+01 0.63833531243E+01 0.69577459399E+01
 0.71671386531E+01 0.69211197041E+01 0.62989139446E+01 0.55018244733E+01 0.47483650880E+01
 0.41748265230E+01 0.37793357668E+01 0.34578847564E+01 0.32001453778E+01 0.30189778372E+01
 0.29116181939E+01 0.28658869790E+01 0.28689799950E+01 0.29145199288E+01 0.30059226016E+01
 0.31554654601E+01 0.33787315725E+01 0.36848002542E+01 0.40649797881E+01 0.44880177552E+01
 0.49934508494E+01 0.45684359999E+01 0.48101829172E+01 0.49934471200E+01 0.50572726121E+01
 0.49569086080E+01 0.47070489151E+01 0.43766099644E+01 0.40431897491E+01 0.37389089579E+01
 0.34578847564E+01 0.32175507199E+01 0.30321039372E+01 0.29061486330E+01 0.28356351260E+01
 0.28115898421E+01 0.28246849494E+01 0.28689800834E+01 0.29440247635E+01 0.30549328227E+01
 0.32102133131E+01 0.34173500086E+01 0.36766728089E+01 0.39754439231E+01 0.42855674798E+01
 0.40669096394E+01 0.42076993661E+01 0.42855625076E+01 0.42854265486E+01 0.42046486028E+01
 0.40537176539E+01 0.38531428718E+01 0.36281834267E+01 0.34036425387E+01 0.32001453778E+01
 0.30321039372E+01 0.29070823974E+01 0.28264472168E+01 0.27871392170E+01 0.27839607210E+01
 0.28115897054E+01 0.28658868029E+01 0.29444755225E+01 0.30467055849E+01 0.31730774427E+01
 0.33240953693E+01 0.34983670493E+01 0.36899951985E+01 0.38861972834E+01 0.38299013830E+01
 0.38777495906E+01 0.38861949937E+01 0.38490884165E+01 0.37651908168E+01 0.36402063230E+01
 0.34865790042E+01 0.33209448353E+01 0.31603680994E+01 0.30189778372E+01 0.29061486330E+01
 0.28264472168E+01 0.27808304092E+01 0.27682823657E+01 0.27871388661E+01 0.28356345395E+01
 0.29116174628E+01 0.30117696167E+01 0.31309192436E+01 0.32620161460E+01 0.33969654129E+01
 0.35278781158E+01 0.36478590987E+01 0.37507184203E+01 0.38777517561E+01 0.38299033550E+01
 0.37507201936E+01 0.36478606915E+01 0.35278795402E+01 0.33969666711E+01 0.32620172426E+01
 0.31309201976E+01 0.30117704548E+01 0.29116181939E+01 0.28356351260E+01 0.27871392170E+01
 0.27682823657E+01 0.27808299798E+01 0.28264463825E+01 0.29061475566E+01 0.30189768007E+01
 0.31603674294E+01 0.33209448020E+01 0.34865797363E+01 0.36402077746E+01 0.37651927982E+01
 0.38490906709E+01 0.38861972834E+01 0.42077038255E+01 0.40669137402E+01 0.38862011370E+01
 0.36899987495E+01 0.34983700900E+01 0.33240976716E+01 0.31730789147E+01 0.30467063480E+01
 0.29444758542E+01 0.28658869790E+01 0.28115898421E+01 0.27839607210E+01 0.27871388661E+01
 0.28264463825E+01 0.29070812158E+01 0.30321028703E+01 0.32001450905E+01 0.34036436442E+01
 0.36281862262E+01 0.38531472221E+01 0.40537230302E+01 0.42046543224E+01 0.42854320384E+01
 0.42855674798E+01 0.48101850499E+01 0.45684375367E+01 0.42855691732E+01 0.39754459748E+01
 0.36766749155E+01 0.34173516803E+01 0.32102142413E+01 0.30549330690E+01 0.29440246703E+01
 0.28689799950E+01 0.28246849494E+01 0.28115897054E+01 0.28356345395E+01 0.29061475566E+01
 0.30321028703E+01 0.32175506684E+01 0.34578868628E+01 0.37389139585E+01 0.40431975398E+01
 0.43766195229E+01 0.47070586468E+01 0.49569169614E+01 0.50572786642E+01 0.49934508494E+01
 0.63833482370E+01 0.56566909542E+01 0.49934462985E+01 0.44880151087E+01 0.40649787888E+01
 0.36848001046E+01 0.33787315567E+01 0.31554653071E+01 0.30059224350E+01 0.29145199288E+01
 0.28689800834E+01 0.28658868029E+01 0.29116174628E+01 0.30189768007E+01 0.32001450905E+01
 0.34578868628E+01 0.37793418116E+01 0.41748370945E+01 0.47483792528E+01 0.55018398538E+01
 0.62989274800E+01 0.69211287749E+01 0.71671420499E+01 0.69577442245E+01 0.10377703183E+02
 0.86948426139E+01 0.69577318619E+01 0.55674011274E+01 0.46749313954E+01 0.41303266056E+01
 0.36951875318E+01 0.33637216816E+01 0.31394786593E+01 0.30059226016E+01 0.29440247635E+01
 0.29444755225E+01 0.30117696167E+01 0.31603674294E+01 0.34036436442E+01 0.37389139585E+01
 0.41748370945E+01 0.49270435698E+01 0.61545893454E+01 0.77923536581E+01 0.95583244612E+01
 0.11022833363E+02 0.11756819356E+02 0.11518439862E+02 0.17813239878E+02 0.14909187191E+02
 0.11518421624E+02 0.84252753129E+01 0.61560852690E+01 0.48315878371E+01 0.41627266165E+01
 0.36992723927E+01 0.33637219657E+01 0.31554654601E+01 0.30549328227E+01 0.30467055849E+01
 0.31309192436E+01 0.33209448020E+01 0.36281862262E+01 0.40431975398E+01 0.47483792528E+01
 0.61545893454E+01 0.84374592965E+01 0.11457101594E+02 0.14760049053E+02 0.17652074474E+02
 0.19389141510E+02 0.19458609359E+02 0.28933160833E+02 0.24813955258E+02 0.19458589767E+02
 0.14055663417E+02 0.95748512706E+01 0.65295166053E+01 0.48944282389E+01 0.41627276955E+01
 0.36951884021E+01 0.33787315725E+01 0.32102133131E+01 0.31730774427E+01 0.32620161460E+01
 0.34865797363E+01 0.38531472221E+01 0.43766195229E+01 0.55018398538E+01 0.77923536581E+01
 0.11457101594E+02 0.16287140160E+02 0.21652612871E+02 0.26567947903E+02 0.29908771000E+02
 0.30788870171E+02 0.43176675587E+02 0.38113883458E+02 0.30788854067E+02 0.22787576170E+02
 0.15541942286E+02 0.10007342606E+02 0.65295195151E+01 0.48315913363E+01 0.41303288541E+01
 0.36848002542E+01 0.34173500086E+01 0.33240953693E+01 0.33969654129E+01 0.36402077746E+01
 0.40537230302E+01 0.47070586468E+01 0.62989274800E+01 0.95583244612E+01 0.14760049053E+02
 0.21652612871E+02 0.29453829527E+02 0.36897061377E+02 0.42445345462E+02 0.44747850745E+02
 0.59188024264E+02 0.53727499155E+02 0.44747840985E+02 0.34206082066E+02 0.24002232130E+02
 0.15541947225E+02 0.95748590118E+01 0.61560928507E+01 0.46749362451E+01 0.40649797881E+01
 0.36766728089E+01 0.34983670493E+01 0.35278781158E+01 0.37651927982E+01 0.42046543224E+01
 0.49569169614E+01 0.69211287749E+01 0.11022833363E+02 0.17652074474E+02 0.26567947903E+02
 0.36897061377E+02 0.47153415269E+02 0.55410942535E+02 0.59795368143E+02 0.74775203926E+02
 0.69746447117E+02 0.59795364528E+02 0.47162345499E+02 0.34206087524E+02 0.22787587004E+02
 0.14055677223E+02 0.84252882498E+01 0.55674096727E+01 0.44880177552E+01 0.39754439231E+01
 0.36899951985E+01 0.36478590987E+01 0.38490906709E+01 0.42854320384E+01 0.50572786642E+01
 0.71671420499E+01 0.11756819356E+02 0.19389141510E+02 0.29908771000E+02 0.42445345462E+02
 0.55410942535E+02 0.66596054165E+02 0.73623911132E+02 0.87097357631E+02 0.83498413937E+02
 0.73623911132E+02 0.59795368143E+02 0.44747850745E+02 0.30788870171E+02 0.19458609359E+02
 0.11518439862E+02 0.69577442245E+01 0.49934508494E+01 0.42855674798E+01 0.38861972834E+01
 0.37507184203E+01 0.38861972834E+01 0.42855674798E+01 0.49934508494E+01 0.69577442245E+01
 0.11518439862E+02 0.19458609359E+02 0.30788870171E+02 0.44747850745E+02 0.59795368143E+02
 0.73623911132E+02 0.83498413937E+02 0.82418787857E+02 0.83498414662E+02 0.77740640306E+02
 0.66596057590E+02 0.52561545851E+02 0.38207697684E+02 0.25522208003E+02 0.15725264149E+02
 0.92880451018E+01 0.59229390359E+01 0.46305513532E+01 0.40826733310E+01 0.37782412845E+01
 0.37355616665E+01 0.39564995547E+01 0.44276069048E+01 0.53417792584E+01 0.78939332875E+01
 0.13279357012E+02 0.22043384828E+02 0.33952731812E+02 0.48007344617E+02 0.62431779867E+02
 0.74775203926E+02 0.83498414662E+02 0.87097357823E+02 0.83498414756E+02 0.73623915269E+02
 0.59795377824E+02 0.44747865866E+02 0.30788887759E+02 0.19458624771E+02 0.11518449079E+02
 0.69577459399E+01 0.49934471200E+01 0.42855625076E+01 0.38861949937E+01 0.37507201936E+01
 0.38862011370E+01 0.42855691732E+01 0.49934462985E+01 0.69577318619E+01 0.11518421624E+02
 0.19458589767E+02 0.30788854067E+02 0.44747840985E+02 0.59795364528E+02 0.73623911132E+02
 0.77740640306E+02 0.83498414756E+02 0.82418788397E+02 0.74775208668E+02 0.62431793249E+02
 0.48007368280E+02 0.33952762565E+02 0.22043415423E+02 0.13279379460E+02 0.78939428570E+01
 0.53417768832E+01 0.44275985351E+01 0.39564927495E+01 0.37355613064E+01 0.37782468152E+01
 0.40826790957E+01 0.46305498253E+01 0.59229251245E+01 0.92880191126E+01 0.15725231777E+02
 0.25522177443E+02 0.38207675565E+02 0.52561534329E+02 0.66596054165E+02 0.66596057590E+02
 0.73623915269E+02 0.74775208668E+02 0.69746454692E+02 0.59795377483E+02 0.47162364260E+02
 0.34206109148E+02 0.22787606033E+02 0.14055688284E+02 0.84252889351E+01 0.55674020001E+01
 0.44880072454E+01 0.39754367046E+01 0.36899946942E+01 0.36478641374E+01 0.38490960985E+01
 0.42854315181E+01 0.50572681317E+01 0.71671219380E+01 0.11756794412E+02 0.19389118387E+02
 0.29908755031E+02 0.42445338419E+02 0.55410942535E+02 0.52561545851E+02 0.59795377824E+02
 0.62431793249E+02 0.59795377483E+02 0.52561546740E+02 0.42445349552E+02 0.31502181435E+02
 0.21500395642E+02 0.13616086542E+02 0.83609457006E+01 0.55705589463E+01 0.44576588406E+01
 0.39352597781E+01 0.36145083165E+01 0.35081647080E+01 0.36145137070E+01 0.39352676339E+01
 0.44576648487E+01 0.55705596349E+01 0.83609401492E+01 0.13616076678E+02 0.21500385041E+02
 0.31502173378E+02 0.42445345462E+02 0.38207697684E+02 0.44747865866E+02 0.48007368280E+02
 0.47162364260E+02 0.42445349552E+02 0.35036942633E+02 0.26567935196E+02 0.18565116903E+02
 0.12109770115E+02 0.77199763546E+01 0.53308734885E+01 0.43354274660E+01 0.38373213623E+01
 0.35118857096E+01 0.33685594053E+01 0.34012853998E+01 0.36128176808E+01 0.40086815982E+01
 0.46061982897E+01 0.60022777741E+01 0.90855774358E+01 0.14302720556E+02 0.21500392953E+02
 0.29908771000E+02 0.25522208003E+02 0.30788887759E+02 0.33952762565E+02 0.34206109148E+02
 0.31502181435E+02 0.26567935196E+02 0.20586500009E+02 0.14760021435E+02 0.99858213751E+01
 0.67149006986E+01 0.49224871742E+01 0.41414730707E+01 0.36925551206E+01 0.33885881635E+01
 0.32352280919E+01 0.32213831687E+01 0.33457576252E+01 0.36211375682E+01 0.40540148740E+01
 0.47018542729E+01 0.61707198507E+01 0.90855831767E+01 0.13616090686E+02 0.19389141510E+02
 0.15725264149E+02 0.19458624771E+02 0.22043415423E+02 0.22787606033E+02 0.21500395642E+02
 0.18565116903E+02 0.14760021435E+02 0.10945345115E+02 0.77923265479E+01 0.56420009290E+01
 0.44686734037E+01 0.39068880099E+01 0.35189232394E+01 0.32546748131E+01 0.31125420334E+01
 0.30775868784E+01 0.31434601093E+01 0.33203999960E+01 0.36272472661E+01 0.40687819975E+01
 0.47018569465E+01 0.60022857667E+01 0.83609560484E+01 0.11756819356E+02 0.92880451018E+01
 0.11518449079E+02 0.13279379460E+02 0.14055688284E+02 0.13616086542E+02 0.12109770115E+02
 0.99858213751E+01 0.77923265479E+01 0.59737844672E+01 0.47483661380E+01 0.40688656665E+01
 0.36562012074E+01 0.33370461306E+01 0.31220793549E+01 0.30042039178E+01 0.29671213404E+01
 0.30010735469E+01 0.31106443547E+01 0.33131402378E+01 0.36272480668E+01 0.40540175796E+01
 0.46062049239E+01 0.55705724547E+01 0.71671420499E+01 0.59229390359E+01 0.69577459399E+01
 0.78939428570E+01 0.84252889351E+01 0.83609457006E+01 0.77199763546E+01 0.67149006986E+01
 0.56420009290E+01 0.47483661380E+01 0.41385035114E+01 0.37389150103E+01 0.34138238465E+01
 0.31658189749E+01 0.30020966854E+01 0.29136256972E+01 0.28855418863E+01 0.29072966226E+01
 0.29786876890E+01 0.31106447986E+01 0.33204005919E+01 0.36211386459E+01 0.40086844070E+01
 0.44576710533E+01 0.50572786642E+01 0.46305513532E+01 0.49934471200E+01 0.53417768832E+01
 0.55674020001E+01 0.55705589463E+01 0.53308734885E+01 0.49224871742E+01 0.44686734037E+01
 0.40688656665E+01 0.37389150103E+01 0.34444022460E+01 0.32001515270E+01 0.30194142317E+01
 0.29033305761E+01 0.28438731747E+01 0.28296678878E+01 0.28517273161E+01 0.29072972583E+01
 0.30010742077E+01 0.31434600304E+01 0.33457565568E+01 0.36128161904E+01 0.39352667785E+01
 0.42854320384E+01 0.40826733310E+01 0.42855625076E+01 0.44275985351E+01 0.44880072454E+01
 0.44576588406E+01 0.43354274660E+01 0.41414730707E+01 0.39068880099E+01 0.36562012074E+01
 0.34138238465E+01 0.32001515270E+01 0.30289123291E+01 0.29061526756E+01 0.28309317076E+01
 0.27976914591E+01 0.27992947774E+01 0.28296684431E+01 0.28855427371E+01 0.29671217115E+01
 0.30775859390E+01 0.32213805117E+01 0.34012812339E+01 0.36145086434E+01 0.38490906709E+01
 0.37782412845E+01 0.38861949937E+01 0.39564927495E+01 0.39754367046E+01 0.39352597781E+01
 0.38373213623E+01 0.36925551206E+01 0.35189232394E+01 0.33370461306E+01 0.31658189749E+01
 0.30194142317E+01 0.29061526756E+01 0.28290056919E+01 0.27871420313E+01 0.27777852190E+01
 0.27976916249E+01 0.28438735189E+01 0.29136258847E+01 0.30042034421E+01 0.31125404814E+01
 0.32352253357E+01 0.33685556127E+01 0.35081601816E+01 0.36478590987E+01 0.37355616665E+01
 0.37507201936E+01 0.37355613064E+01 0.36899946942E+01 0.36145083165E+01 0.35118857096E+01
 0.33885881635E+01 0.32546748131E+01 0.31220793549E+01 0.30020966854E+01 0.29033305761E+01
 0.28309317076E+01 0.27871420313E+01 0.27725321544E+01 0.27871418680E+01 0.28309313053E+01
 0.29033298562E+01 0.30020956625E+01 0.31220781893E+01 0.32546737756E+01 0.33885875213E+01
 0.35118855933E+01 0.36145086434E+01 0.36899951985E+01 0.39564995547E+01 0.38862011370E+01
 0.37782468152E+01 0.36478641374E+01 0.35081647080E+01 0.33685594053E+01 0.32352280919E+01
 0.31125420334E+01 0.30042039178E+01 0.29136256972E+01 0.28438731747E+01 0.27976914591E+01
 0.27777852190E+01 0.27871418680E+01 0.28290049592E+01 0.29061512131E+01 0.30194123471E+01
 0.31658174276E+01 0.33370458672E+01 0.35189250054E+01 0.36925591448E+01 0.38373272716E+01
 0.39352667785E+01 0.39754439231E+01 0.44276069048E+01 0.42855691732E+01 0.40826790957E+01
 0.38490960985E+01 0.36145137070E+01 0.34012853998E+01 0.32213831687E+01 0.30775868784E+01
 0.29671213404E+01 0.28855418863E+01 0.28296678878E+01 0.27992947774E+01 0.27976916249E+01
 0.28309313053E+01 0.29061512131E+01 0.30289100792E+01 0.32001496545E+01 0.34138240194E+01
 0.36562048634E+01 0.39068956557E+01 0.41414839881E+01 0.43354399876E+01 0.44576710533E+01
 0.44880177552E+01 0.53417792584E+01 0.49934462985E+01 0.46305498253E+01 0.42854315181E+01
 0.39352676339E+01 0.36128176808E+01 0.33457576252E+01 0.31434601093E+01 0.30010735469E+01
 0.29072966226E+01 0.28517273161E+01 0.28296684431E+01 0.28438735189E+01 0.29033298562E+01
 0.30194123471E+01 0.32001496545E+01 0.34444026353E+01 0.37389200450E+01 0.40688766318E+01
 0.44686896193E+01 0.49225060006E+01 0.53308912700E+01 0.55705724547E+01 0.55674096727E+01
 0.78939332875E+01 0.69577318619E+01 0.59229251245E+01 0.50572681317E+01 0.44576648487E+01
 0.40086815982E+01 0.36211375682E+01 0.33203999960E+01 0.31106443547E+01 0.29786876890E+01
 0.29072972583E+01 0.28855427371E+01 0.29136258847E+01 0.30020956625E+01 0.31658174276E+01
 0.34138240194E+01 0.37389200450E+01 0.41385159682E+01 0.47483864112E+01 0.56420264393E+01
 0.67149264147E+01 0.77199965278E+01 0.83609560484E+01 0.84252882498E+01 0.13279357012E+02
 0.11518421624E+02 0.92880191126E+01 0.71671219380E+01 0.55705596349E+01 0.46061982897E+01
 0.40540148740E+01 0.36272472661E+01 0.33131402378E+01 0.31106447986E+01 0.30010742077E+01
 0.29671217115E+01 0.30042034421E+01 0.31220781893E+01 0.33370458672E+01 0.36562048634E+01
 0.40688766318E+01 0.47483864112E+01 0.59738130459E+01 0.77923589182E+01 0.99858505774E+01
 0.12109789076E+02 0.13616090686E+02 0.14055677223E+02 0.22043384828E+02 0.19458589767E+02
 0.15725231777E+02 0.11756794412E+02 0.83609401492E+01 0.60022777741E+01 0.47018542729E+01
 0.40687819975E+01 0.36272480668E+01 0.33204005919E+01 0.31434600304E+01 0.30775859390E+01
 0.31125404814E+01 0.32546737756E+01 0.35189250054E+01 0.39068956557E+01 0.44686896193E+01
 0.56420264393E+01 0.77923589182E+01 0.10945378705E+02 0.14760048789E+02 0.18565131154E+02