   1   1   0   0
  0.1121288E+02  0.2442192E-09  0.2442192E-09  0.2442192E-09  0.5000000E-15
  1.000000000000000E-004
  CAR 
 bcc Fe                                  
     47.04309693     -4.81873824  301      5.75135516      1.00000000
     -4.819  0.0000E+00  0.0000E+00  0.0000E+00  0.0000E+00
     -4.646  0.0000E+00  0.0000E+00  0.0000E+00  0.0000E+00
     -4.473  0.0000E+00  0.0000E+00  0.0000E+00  0.0000E+00
     -4.300  0.0000E+00  0.0000E+00  0.0000E+00  0.0000E+00
     -4.127 -0.1208E-32  0.0000E+00 -0.2089E-33  0.0000E+00
     -3.954 -0.9195E-27 -0.2324E-33 -0.1590E-27 -0.4017E-34
     -3.782 -0.1549E-21 -0.2102E-27 -0.2678E-22 -0.3633E-28
     -3.609 -0.5604E-17 -0.4210E-22 -0.9688E-18 -0.7279E-23
     -3.436 -0.4499E-13 -0.1823E-17 -0.7779E-14 -0.3151E-18
     -3.263 -0.7808E-10 -0.1734E-13 -0.1351E-10 -0.2998E-14
     -3.090 -0.2840E-07 -0.3592E-10 -0.4923E-08 -0.6213E-11
     -2.917 -0.2010E-05 -0.1566E-07 -0.3524E-06 -0.2714E-08
     -2.744 -0.1965E-04 -0.1347E-05 -0.3749E-05 -0.2357E-06
     -2.571  0.9280E-04 -0.1741E-04  0.1229E-04 -0.3246E-05
     -2.399  0.4332E-03  0.5936E-04  0.8718E-04  0.7015E-05
     -2.226  0.2171E-03  0.4166E-03  0.1247E-03  0.7903E-04
     -2.053  0.4412E-03  0.2419E-03  0.2010E-03  0.1208E-03
     -1.880  0.3919E-03  0.3853E-03  0.2687E-03  0.1875E-03
     -1.707  0.1094E-02  0.4258E-03  0.4579E-03  0.2611E-03
     -1.534  0.1639E-02  0.8175E-03  0.7413E-03  0.4024E-03
     -1.361  0.1540E-03  0.1782E-02  0.7679E-03  0.7104E-03
     -1.188 -0.1643E-03  0.3654E-03  0.7395E-03  0.7736E-03
     -1.016  0.9101E-03 -0.1707E-03  0.8968E-03  0.7441E-03
     -0.843  0.2185E-02  0.3529E-03  0.1275E-02  0.8051E-03
     -0.670  0.1300E-02  0.2127E-02  0.1499E-02  0.1173E-02
     -0.497  0.1767E-02  0.1340E-02  0.1805E-02  0.1404E-02
     -0.324  0.1838E-02  0.1535E-02  0.2122E-02  0.1670E-02
     -0.151  0.1172E-02  0.1370E-02  0.2325E-02  0.1907E-02
      0.022 -0.2037E-03  0.1746E-02  0.2290E-02  0.2208E-02
      0.195  0.9466E-03  0.7186E-03  0.2453E-02  0.2333E-02
      0.367  0.4487E-02 -0.2504E-03  0.3229E-02  0.2289E-02
      0.540  0.3408E-02  0.1038E-02  0.3818E-02  0.2469E-02
      0.713  0.4699E-02  0.3789E-02  0.4631E-02  0.3124E-02
      0.886  0.5023E-02  0.2595E-02  0.5499E-02  0.3572E-02
      1.059  0.5552E-02  0.1797E-02  0.6459E-02  0.3883E-02
      1.232  0.1282E-01  0.3481E-02  0.8676E-02  0.4485E-02
      1.405  0.1758E-01  0.2017E-02  0.1171E-01  0.4833E-02
      1.578  0.1495E-01  0.1666E-02  0.1430E-01  0.5121E-02
      1.750  0.1913E-01  0.7155E-03  0.1761E-01  0.5245E-02
      1.923  0.1414E-01  0.1819E-02  0.2005E-01  0.5560E-02
      2.096  0.8624E-02  0.7771E-02  0.2154E-01  0.6903E-02
      2.269  0.1112E-01  0.8807E-02  0.2346E-01  0.8426E-02
      2.442  0.2623E-01  0.6136E-02  0.2800E-01  0.9486E-02
      2.615  0.3072E-01  0.4521E-02  0.3331E-01  0.1027E-01
      2.788  0.1729E-01  0.7878E-02  0.3630E-01  0.1163E-01
      2.961  0.2164E-01  0.7912E-02  0.4004E-01  0.1300E-01
      3.133  0.3443E-01  0.9785E-02  0.4599E-01  0.1469E-01
      3.306  0.2775E-01  0.1694E-01  0.5079E-01  0.1762E-01
      3.479  0.1433E-01  0.1073E-01  0.5326E-01  0.1947E-01
      3.652  0.6770E-02  0.5115E-02  0.5443E-01  0.2036E-01
      3.825  0.1326E-01  0.7215E-02  0.5673E-01  0.2160E-01
      3.998  0.1430E-01  0.8949E-02  0.5920E-01  0.2315E-01
      4.171  0.6534E-02  0.1853E-01  0.6033E-01  0.2635E-01
      4.344  0.1781E-01  0.3052E-01  0.6341E-01  0.3163E-01
      4.516  0.3274E-01  0.2272E-01  0.6907E-01  0.3556E-01
      4.689  0.3956E-01  0.2116E-01  0.7590E-01  0.3922E-01
      4.862  0.4756E-01  0.2370E-01  0.8413E-01  0.4331E-01
      5.035  0.4007E-01  0.2512E-01  0.9105E-01  0.4765E-01
      5.208  0.1773E-01  0.2409E-01  0.9412E-01  0.5182E-01
      5.381  0.1804E-01  0.1859E-01  0.9724E-01  0.5503E-01
      5.554  0.1992E-01  0.7426E-02  0.1007E+00  0.5632E-01
      5.727  0.1333E-01  0.1807E-02  0.1030E+00  0.5663E-01
      5.899  0.9020E-02  0.9087E-02  0.1045E+00  0.5820E-01
      6.072  0.5547E-02  0.9903E-02  0.1055E+00  0.5991E-01
      6.245  0.4444E-02  0.4197E-02  0.1063E+00  0.6064E-01
      6.418  0.3095E-02  0.4516E-02  0.1068E+00  0.6142E-01
      6.591  0.1894E-02  0.7470E-02  0.1071E+00  0.6271E-01
      6.764  0.2733E-02  0.1785E-01  0.1076E+00  0.6580E-01
      6.937  0.6649E-02  0.1841E-01  0.1088E+00  0.6898E-01
      7.109  0.4026E-02  0.1888E-01  0.1095E+00  0.7224E-01
      7.282  0.1775E-02  0.2739E-01  0.1098E+00  0.7698E-01
      7.455  0.2423E-02  0.2715E-01  0.1102E+00  0.8167E-01
      7.628  0.1987E-02  0.3670E-01  0.1105E+00  0.8802E-01
      7.801 -0.1514E-03  0.4629E-01  0.1105E+00  0.9602E-01
      7.974  0.5021E-03  0.2959E-01  0.1106E+00  0.1011E+00
      8.147  0.5165E-02  0.1511E-01  0.1115E+00  0.1037E+00
      8.320  0.4940E-02  0.9037E-02  0.1123E+00  0.1053E+00
      8.492  0.1489E-02  0.7967E-02  0.1126E+00  0.1067E+00
      8.665  0.3908E-02  0.3330E-02  0.1133E+00  0.1073E+00
      8.838  0.3469E-02  0.5867E-02  0.1139E+00  0.1083E+00
      9.011  0.2209E-02  0.6604E-02  0.1142E+00  0.1094E+00
      9.184  0.6844E-03  0.3755E-02  0.1144E+00  0.1101E+00
      9.357  0.5181E-03  0.2524E-02  0.1145E+00  0.1105E+00
      9.530  0.3264E-02  0.1706E-02  0.1150E+00  0.1108E+00
      9.703  0.2948E-02  0.3939E-02  0.1155E+00  0.1115E+00
      9.875  0.2171E-02  0.4542E-02  0.1159E+00  0.1123E+00
     10.048  0.3265E-02  0.2302E-02  0.1165E+00  0.1127E+00
     10.221  0.2314E-02  0.3373E-02  0.1169E+00  0.1132E+00
     10.394  0.1804E-03  0.2135E-02  0.1169E+00  0.1136E+00
     10.567  0.6333E-03  0.3117E-02  0.1170E+00  0.1142E+00
     10.740  0.5171E-03  0.1705E-02  0.1171E+00  0.1144E+00
     10.913  0.8915E-03  0.2042E-02  0.1173E+00  0.1148E+00
     11.086  0.3255E-02  0.5519E-02  0.1178E+00  0.1158E+00
     11.258  0.2006E-02  0.4401E-02  0.1182E+00  0.1165E+00
     11.431  0.1715E-02  0.2112E-02  0.1185E+00  0.1169E+00
     11.604  0.6782E-03  0.6464E-04  0.1186E+00  0.1169E+00
     11.777 -0.1536E-03  0.5483E-03  0.1185E+00  0.1170E+00
     11.950  0.8389E-03  0.6199E-03  0.1187E+00  0.1171E+00
     12.123  0.1685E-02  0.5245E-03  0.1190E+00  0.1172E+00
     12.296  0.1418E-02  0.3205E-02  0.1192E+00  0.1177E+00
     12.469  0.2525E-02  0.2155E-02  0.1197E+00  0.1181E+00
     12.641  0.1055E-02  0.1431E-02  0.1198E+00  0.1184E+00
     12.814 -0.1275E-03  0.1930E-02  0.1198E+00  0.1187E+00
     12.987  0.1238E-02  0.1700E-02  0.1200E+00  0.1190E+00
     13.160  0.2865E-02  0.5579E-03  0.1205E+00  0.1191E+00
     13.333  0.4156E-02  0.1582E-02  0.1213E+00  0.1194E+00
     13.506  0.3388E-02  0.1170E-02  0.1218E+00  0.1196E+00
     13.679  0.1873E-02  0.1103E-02  0.1222E+00  0.1197E+00
     13.852  0.5216E-02  0.5936E-03  0.1231E+00  0.1199E+00
     14.024  0.6630E-02 -0.7158E-04  0.1242E+00  0.1198E+00
     14.197  0.4447E-02 -0.2561E-03  0.1250E+00  0.1198E+00
     14.370  0.2476E-02  0.1047E-02  0.1254E+00  0.1200E+00
     14.543  0.4102E-02  0.5933E-02  0.1261E+00  0.1210E+00
     14.716  0.4929E-02  0.4384E-02  0.1270E+00  0.1218E+00
     14.889  0.9812E-03  0.2459E-02  0.1271E+00  0.1222E+00
     15.062  0.1036E-02  0.6363E-02  0.1273E+00  0.1233E+00
     15.235  0.3156E-02  0.8101E-02  0.1279E+00  0.1247E+00
     15.407  0.4314E-02  0.5668E-02  0.1286E+00  0.1257E+00
     15.580  0.2845E-02  0.4610E-02  0.1291E+00  0.1265E+00
     15.753  0.3590E-02  0.3651E-02  0.1297E+00  0.1271E+00
     15.926  0.7889E-02  0.4499E-03  0.1311E+00  0.1272E+00
     16.099  0.8495E-02  0.1049E-02  0.1326E+00  0.1274E+00
     16.272  0.2629E-02  0.3943E-02  0.1330E+00  0.1280E+00
     16.445 -0.1546E-03  0.6412E-02  0.1330E+00  0.1291E+00
     16.617  0.1023E-02  0.4167E-02  0.1332E+00  0.1299E+00
     16.790  0.3170E-02  0.4905E-02  0.1337E+00  0.1307E+00
     16.963  0.4472E-02  0.7187E-02  0.1345E+00  0.1320E+00
     17.136  0.2344E-02  0.5687E-02  0.1349E+00  0.1329E+00
     17.309  0.5615E-02  0.1287E-02  0.1359E+00  0.1332E+00
     17.482  0.9973E-02  0.1470E-02  0.1376E+00  0.1334E+00
     17.655  0.5648E-02  0.2369E-02  0.1386E+00  0.1338E+00
     17.828  0.1348E-02  0.4396E-02  0.1388E+00  0.1346E+00
     18.000 -0.1274E-03  0.4805E-02  0.1388E+00  0.1354E+00
     18.173 -0.2535E-03  0.6750E-02  0.1387E+00  0.1366E+00
     18.346  0.6614E-03  0.4948E-02  0.1388E+00  0.1374E+00
     18.519  0.4813E-02  0.5221E-02  0.1397E+00  0.1383E+00
     18.692  0.6091E-02  0.2494E-02  0.1407E+00  0.1388E+00
     18.865  0.4345E-02 -0.7798E-04  0.1415E+00  0.1388E+00
     19.038  0.1498E-02 -0.1312E-04  0.1417E+00  0.1388E+00
     19.211  0.4520E-02  0.3389E-02  0.1425E+00  0.1393E+00
     19.383  0.4742E-02  0.6835E-02  0.1433E+00  0.1405E+00
     19.556  0.5351E-02  0.5486E-02  0.1443E+00  0.1415E+00
     19.729  0.5662E-02  0.1122E-02  0.1452E+00  0.1417E+00
     19.902  0.6129E-02  0.2760E-02  0.1463E+00  0.1421E+00
     20.075  0.3318E-02  0.5245E-02  0.1469E+00  0.1430E+00
     20.248  0.7395E-03  0.5911E-02  0.1470E+00  0.1441E+00
     20.421 -0.5032E-04  0.7823E-02  0.1470E+00  0.1454E+00
     20.594  0.3702E-02  0.4990E-02  0.1476E+00  0.1463E+00
     20.766  0.6070E-02  0.2072E-02  0.1487E+00  0.1466E+00
     20.939  0.2878E-02  0.1511E-02  0.1492E+00  0.1469E+00
     21.112  0.1057E-02  0.1238E-02  0.1494E+00  0.1471E+00
     21.285  0.7571E-03  0.4250E-02  0.1495E+00  0.1479E+00
     21.458  0.6141E-02  0.5629E-02  0.1506E+00  0.1488E+00
     21.631  0.5743E-02  0.3153E-02  0.1515E+00  0.1494E+00
     21.804  0.5288E-03  0.1689E-03  0.1516E+00  0.1494E+00
     21.977  0.1010E-02  0.2602E-02  0.1518E+00  0.1498E+00
     22.149  0.3573E-02  0.5561E-02  0.1524E+00  0.1508E+00
     22.322  0.4002E-02  0.3705E-02  0.1531E+00  0.1514E+00
     22.495  0.3653E-02  0.8195E-03  0.1538E+00  0.1516E+00
     22.668  0.6237E-02  0.8695E-03  0.1548E+00  0.1517E+00
     22.841  0.5981E-02  0.2620E-02  0.1559E+00  0.1522E+00
     23.014  0.4656E-02  0.5665E-02  0.1567E+00  0.1532E+00
     23.187  0.8154E-02  0.7551E-02  0.1581E+00  0.1545E+00
     23.360  0.7093E-02  0.6111E-02  0.1593E+00  0.1555E+00
     23.532  0.3204E-02  0.5255E-02  0.1599E+00  0.1564E+00
     23.705  0.2390E-02  0.7017E-02  0.1603E+00  0.1577E+00
     23.878  0.3597E-02  0.8319E-02  0.1609E+00  0.1591E+00
     24.051  0.7627E-02  0.4769E-02  0.1622E+00  0.1599E+00
     24.224  0.8729E-02  0.4775E-02  0.1637E+00  0.1607E+00
     24.397  0.5961E-02  0.3300E-02  0.1648E+00  0.1613E+00
     24.570  0.2186E-02  0.4419E-02  0.1651E+00  0.1621E+00
     24.743 -0.1917E-03  0.8348E-02  0.1651E+00  0.1635E+00
     24.915  0.3224E-02  0.6470E-02  0.1657E+00  0.1646E+00
     25.088  0.6306E-02  0.4229E-02  0.1667E+00  0.1654E+00
     25.261  0.5061E-02  0.1392E-02  0.1676E+00  0.1656E+00
     25.434  0.3915E-02  0.8108E-03  0.1683E+00  0.1658E+00
     25.607  0.4989E-02  0.2637E-02  0.1692E+00  0.1662E+00
     25.780  0.8274E-02  0.7319E-02  0.1706E+00  0.1675E+00
     25.953  0.3555E-02  0.7245E-02  0.1712E+00  0.1687E+00
     26.125  0.6295E-02  0.6012E-02  0.1723E+00  0.1698E+00
     26.298  0.9581E-02  0.5122E-02  0.1739E+00  0.1707E+00
     26.471  0.4070E-02  0.5652E-02  0.1747E+00  0.1716E+00
     26.644  0.6395E-02  0.9630E-02  0.1758E+00  0.1733E+00
     26.817  0.6633E-02  0.6083E-02  0.1769E+00  0.1743E+00
     26.990  0.1463E-02  0.3506E-02  0.1772E+00  0.1750E+00
     27.163  0.1216E-03  0.4839E-02  0.1772E+00  0.1758E+00
     27.336  0.1598E-02  0.4989E-02  0.1775E+00  0.1766E+00
     27.508  0.1979E-02  0.2250E-02  0.1778E+00  0.1770E+00
     27.681  0.3054E-02  0.2914E-04  0.1783E+00  0.1770E+00
     27.854  0.6806E-02  0.1505E-02  0.1795E+00  0.1773E+00
     28.027  0.6578E-02  0.3608E-02  0.1806E+00  0.1779E+00
     28.200  0.3642E-02  0.6841E-02  0.1813E+00  0.1791E+00
     28.373 -0.1288E-03  0.6640E-02  0.1812E+00  0.1803E+00
     28.546  0.1111E-03  0.2775E-02  0.1813E+00  0.1807E+00
     28.719  0.2393E-02  0.1777E-02  0.1817E+00  0.1810E+00
     28.891  0.3587E-02  0.1883E-02  0.1823E+00  0.1814E+00
     29.064  0.5291E-02  0.3017E-02  0.1832E+00  0.1819E+00
     29.237  0.4908E-02  0.1793E-02  0.1841E+00  0.1822E+00
     29.410  0.2045E-02  0.1868E-02  0.1844E+00  0.1825E+00
     29.583  0.3887E-02  0.5440E-02  0.1851E+00  0.1835E+00
     29.756  0.3791E-02  0.5957E-02  0.1857E+00  0.1845E+00
     29.929  0.2443E-02  0.4317E-02  0.1862E+00  0.1852E+00
     30.102  0.3230E-02  0.6896E-03  0.1867E+00  0.1854E+00
     30.274  0.5914E-02  0.1949E-02  0.1877E+00  0.1857E+00
     30.447  0.1176E-01  0.2711E-02  0.1898E+00  0.1862E+00
     30.620  0.1101E-01  0.4990E-02  0.1917E+00  0.1870E+00
     30.793  0.5056E-02  0.7636E-02  0.1926E+00  0.1883E+00
     30.966  0.3710E-02  0.1441E-01  0.1932E+00  0.1908E+00
     31.139  0.4273E-02  0.1221E-01  0.1939E+00  0.1930E+00
     31.312  0.2390E-02  0.5073E-02  0.1943E+00  0.1938E+00
     31.485  0.3493E-02  0.1680E-02  0.1950E+00  0.1941E+00
     31.657  0.2677E-02 -0.5776E-04  0.1954E+00  0.1941E+00
     31.830  0.8738E-03  0.6087E-03  0.1956E+00  0.1942E+00
     32.003  0.2989E-03  0.3210E-02  0.1956E+00  0.1948E+00
     32.176  0.1128E-02  0.3489E-02  0.1958E+00  0.1954E+00
     32.349  0.1571E-02  0.2489E-02  0.1961E+00  0.1958E+00
     32.522  0.2617E-02  0.5870E-03  0.1965E+00  0.1959E+00
     32.695  0.3475E-02  0.1250E-02  0.1971E+00  0.1961E+00
     32.868  0.7553E-02  0.3141E-02  0.1984E+00  0.1967E+00
     33.040  0.1075E-01  0.9198E-02  0.2003E+00  0.1983E+00
     33.213  0.9179E-02  0.6114E-02  0.2019E+00  0.1993E+00
     33.386  0.4141E-02  0.3813E-03  0.2026E+00  0.1994E+00
     33.559  0.6381E-02  0.4693E-02  0.2037E+00  0.2002E+00
     33.732  0.1389E-01  0.7215E-02  0.2061E+00  0.2014E+00
     33.905  0.6963E-02  0.4749E-02  0.2073E+00  0.2023E+00
     34.078  0.1545E-02  0.1335E-01  0.2076E+00  0.2046E+00
     34.251  0.1982E-02  0.1173E-01  0.2079E+00  0.2066E+00
     34.423  0.4960E-02  0.3627E-02  0.2088E+00  0.2072E+00
     34.596  0.4319E-02  0.4152E-02  0.2095E+00  0.2079E+00
     34.769  0.6482E-02  0.1799E-02  0.2106E+00  0.2082E+00
     34.942  0.6604E-02  0.2116E-02  0.2118E+00  0.2086E+00
     35.115  0.2469E-02  0.9151E-02  0.2122E+00  0.2102E+00
     35.288  0.4439E-02  0.7158E-02  0.2130E+00  0.2114E+00
     35.461  0.1921E-02  0.4056E-02  0.2133E+00  0.2121E+00
     35.633  0.1050E-02  0.3657E-02  0.2135E+00  0.2128E+00
     35.806  0.3361E-02  0.2253E-02  0.2141E+00  0.2132E+00
     35.979  0.4584E-02  0.1992E-02  0.2149E+00  0.2135E+00
     36.152  0.5677E-02  0.2346E-02  0.2159E+00  0.2139E+00
     36.325  0.3422E-02  0.3393E-02  0.2164E+00  0.2145E+00
     36.498  0.5005E-02  0.5128E-02  0.2173E+00  0.2154E+00
     36.671  0.6681E-02  0.4982E-02  0.2185E+00  0.2162E+00
     36.844  0.6769E-02  0.7449E-02  0.2196E+00  0.2175E+00
     37.016  0.1025E-01  0.5836E-02  0.2214E+00  0.2185E+00
     37.189  0.1039E-01  0.4209E-02  0.2232E+00  0.2193E+00
     37.362  0.4980E-02  0.9146E-02  0.2241E+00  0.2208E+00
     37.535  0.3253E-02  0.6610E-02  0.2246E+00  0.2220E+00
     37.708  0.1877E-02  0.4151E-02  0.2249E+00  0.2227E+00
     37.881  0.4801E-03  0.8329E-02  0.2250E+00  0.2241E+00
     38.054  0.3694E-02  0.3287E-02  0.2257E+00  0.2247E+00
     38.227  0.1004E-01  0.1856E-02  0.2274E+00  0.2250E+00
     38.399  0.1017E-01  0.4220E-02  0.2292E+00  0.2258E+00
     38.572  0.3676E-02  0.6088E-02  0.2298E+00  0.2268E+00
     38.745  0.1603E-02  0.4865E-02  0.2301E+00  0.2277E+00
     38.918  0.3647E-02  0.4276E-02  0.2307E+00  0.2284E+00
     39.091  0.4057E-02  0.6437E-02  0.2314E+00  0.2295E+00
     39.264  0.3932E-02  0.9346E-02  0.2321E+00  0.2311E+00
     39.437  0.2586E-02  0.6611E-02  0.2325E+00  0.2323E+00
     39.610  0.1643E-02  0.3007E-03  0.2328E+00  0.2323E+00
     39.782  0.7161E-03  0.1309E-02  0.2329E+00  0.2325E+00
     39.955  0.1897E-02  0.1618E-02  0.2333E+00  0.2328E+00
     40.128  0.1882E-02  0.1069E-03  0.2336E+00  0.2328E+00
     40.301  0.6039E-02  0.2126E-02  0.2346E+00  0.2332E+00
     40.474  0.5346E-02  0.3323E-02  0.2356E+00  0.2338E+00
     40.647  0.5923E-03  0.2014E-02  0.2357E+00  0.2341E+00
     40.820 -0.2292E-03  0.2406E-02  0.2356E+00  0.2345E+00
     40.993  0.1720E-02  0.4305E-02  0.2359E+00  0.2353E+00
     41.165  0.2838E-02  0.4425E-02  0.2364E+00  0.2361E+00
     41.338  0.1975E-02  0.4680E-03  0.2368E+00  0.2361E+00
     41.511  0.3868E-03  0.6401E-03  0.2368E+00  0.2362E+00
     41.684  0.9684E-03  0.2357E-02  0.2370E+00  0.2367E+00
     41.857  0.4440E-02  0.2800E-02  0.2378E+00  0.2371E+00
     42.030  0.2467E-02  0.2098E-02  0.2382E+00  0.2375E+00
     42.203 -0.9155E-04  0.1502E-02  0.2382E+00  0.2378E+00
     42.376  0.2534E-03  0.2070E-02  0.2382E+00  0.2381E+00
     42.548  0.6839E-03  0.2898E-03  0.2383E+00  0.2382E+00
     42.721  0.1639E-02  0.1051E-03  0.2386E+00  0.2382E+00
     42.894  0.1076E-02  0.5626E-03  0.2388E+00  0.2383E+00
     43.067  0.1086E-02  0.1349E-03  0.2390E+00  0.2383E+00
     43.240  0.1599E-02  0.1304E-02  0.2393E+00  0.2385E+00
     43.413  0.1576E-03  0.2911E-02  0.2393E+00  0.2390E+00
     43.586 -0.6203E-04  0.1469E-02  0.2393E+00  0.2393E+00
     43.759 -0.4030E-05 -0.2206E-04  0.2393E+00  0.2393E+00
     43.931 -0.3131E-05 -0.5774E-04  0.2393E+00  0.2393E+00
     44.104 -0.4798E-04 -0.6287E-05  0.2393E+00  0.2393E+00
     44.277  0.2194E-04  0.2628E-03  0.2393E+00  0.2393E+00
     44.450  0.1559E-02  0.4262E-03  0.2395E+00  0.2394E+00
     44.623  0.2380E-02  0.1694E-02  0.2400E+00  0.2397E+00
     44.796  0.3599E-03  0.1760E-02  0.2400E+00  0.2400E+00
     44.969 -0.9714E-04  0.1012E-03  0.2400E+00  0.2400E+00
     45.141 -0.8354E-05 -0.6114E-04  0.2400E+00  0.2400E+00
     45.314 -0.1064E-06 -0.3715E-05  0.2400E+00  0.2400E+00
     45.487 -0.2672E-09 -0.4047E-07  0.2400E+00  0.2400E+00
     45.660 -0.1411E-12 -0.9541E-10  0.2400E+00  0.2400E+00
     45.833 -0.1618E-16 -0.5028E-13  0.2400E+00  0.2400E+00
     46.006  0.0000E+00 -0.6165E-17  0.2400E+00  0.2400E+00
     46.179  0.0000E+00  0.0000E+00  0.2400E+00  0.2400E+00
     46.352  0.0000E+00  0.0000E+00  0.2400E+00  0.2400E+00
     46.524  0.0000E+00  0.0000E+00  0.2400E+00  0.2400E+00
     46.697  0.0000E+00  0.0000E+00  0.2400E+00  0.2400E+00
     46.870  0.0000E+00  0.0000E+00  0.2400E+00  0.2400E+00
     47.043  0.0000E+00  0.0000E+00  0.2400E+00  0.2400E+00
