    1    1   50    2
  0.1121288E+02  0.2442192E-09  0.2442192E-09  0.2442192E-09  0.5000000E-15
  1.000000000000000E-004
  CAR 
 bcc Fe                                  
      8     44     12
 
  0.5000000E-01  0.5000000E-01  0.5000000E-01  0.8000000E-02
    1       -2.060963     -1.864567   1.000000   1.000000
    2        3.276032      5.336488   1.000000   1.006241
    3        3.276032      5.336488   1.000000   1.006241
    4        3.783456      5.911756   1.000000   0.009442
    5        4.615954      7.381691   1.000000  -0.000000
    6        4.615954      7.381691   1.000000  -0.000000
    7       28.038376     28.174072   0.000000   0.000000
    8       28.038376     28.174072   0.000000   0.000000
    9       31.180263     30.938263   0.000000   0.000000
   10       32.336287     33.273018   0.000000   0.000000
   11       36.030284     36.373118   0.000000   0.000000
   12       36.030284     36.373118   0.000000   0.000000
 
  0.1500000E+00  0.5000000E-01  0.5000000E-01  0.2400000E-01
    1       -0.950793     -0.722740   1.000000   1.000000
    2        2.981181      4.977211   1.000000   1.000000
    3        3.129833      5.119881   1.000000   1.000038
    4        4.445114      6.623194   1.000000  -0.000000
    5        4.511608      7.204932   1.000000  -0.000000
    6        4.690719      7.475232   1.000000  -0.000000
    7       23.819354     24.327658   0.000000   0.000000
    8       26.126958     26.415988   0.000000   0.000000
    9       28.976122     29.823221   0.000000   0.000000
   10       31.432994     31.353681   0.000000   0.000000
   11       35.706843     36.392934   0.000000   0.000000
   12       36.094526     36.399086   0.000000   0.000000
 
  0.2500000E+00  0.5000000E-01  0.5000000E-01  0.2400000E-01
    1        0.404168      0.861385   1.000000   1.000000
    2        2.655106      4.579690   1.000000   1.000000
    3        3.208512      4.904974   1.000000   1.000000
    4        4.570754      7.213743   1.000000  -0.000000
    5        4.769877      7.580003   1.000000  -0.000000
    6        5.370726      7.584030   1.010794  -0.000000
    7       19.217734     20.033996   0.000000   0.000000
    8       24.411673     24.719123   0.000000   0.000000
    9       26.579346     27.343393   0.000000   0.000000
   10       30.982556     31.169814   0.000000   0.000000
   11       34.778153     35.408314   0.000000   0.000000
   12       38.067119     38.328649   0.000000   0.000000
 
  0.3500000E+00  0.5000000E-01  0.5000000E-01  0.2400000E-01
    1        0.959598      2.070532   1.000000   1.000000
    2        2.411093      4.283939   1.000000   1.000000
    3        4.256980      5.316228   1.000000   1.004353
    4        4.712058      7.326330   1.000000  -0.000000
    5        4.834814      7.679293   1.000000  -0.000000
    6        6.497867      8.542167  -0.000001  -0.000000
    7       15.112305     16.252903   0.000000   0.000000
    8       23.232106     23.507418   0.000000   0.000000
    9       24.965309     25.655594   0.000000   0.000000
   10       30.578652     30.922387   0.000000   0.000000
   11       34.448431     35.086599   0.000000   0.000000
   12       40.324884     40.473900   0.000000   0.000000
 
  0.4500000E+00  0.5000000E-01  0.5000000E-01  0.1200000E-01
    1        0.982152      2.355890   1.000000   1.000000
    2        2.321478      4.175880   1.000000   1.000000
    3        4.729994      5.943255   1.000000  -0.020397
    4        4.861074      7.372895   1.000000  -0.000000
    5        5.012537      7.719055   1.000001  -0.000000
    6        7.446739      9.073936  -0.000000  -0.000000
    7       12.993584     14.448056   0.000000   0.000000
    8       22.812151     23.068949   0.000000   0.000000
    9       24.371935     25.025141   0.000000   0.000000
   10       30.440280     30.832909   0.000000   0.000000
   11       34.409335     35.065508   0.000000   0.000000
   12       40.234678     40.297038   0.000000   0.000000
 
 -0.5000000E-01  0.5000000E-01  0.5000000E-01  0.6000000E-02
    1       -2.461382     -2.268694   1.000000   1.000000
    2        3.400702      5.487016   1.000000   1.034193
    3        3.400705      5.487028   1.000000   1.034194
    4        3.457432      5.558534   1.000000   1.020990
    5        4.580062      7.340184   1.000000  -0.000000
    6        4.707151      7.504493   1.000000  -0.000000
    7       29.395404     29.290213   0.000000   0.000000
    8       30.403184     30.269379   0.000000   0.000000
    9       30.403194     30.269382   0.000000   0.000000
   10       33.982410     34.370274   0.000000   0.000000
   11       35.852469     36.740694   0.000000   0.000000
   12       35.852481     36.740696   0.000000   0.000000
 
  0.1500000E+00  0.1500000E+00  0.5000000E-01  0.2400000E-01
    1        0.303401      0.632156   1.000000   1.000000
    2        2.757857      4.673821   1.000000   1.000000
    3        2.787087      4.682376   1.000000   1.000000
    4        4.530655      7.206984   1.000000  -0.000000
    5        4.778904      7.540517   1.000000  -0.000000
    6        5.427866      7.631688   1.022261  -0.000000
    7       21.521258     22.145013   0.000000   0.000000
    8       22.413154     23.004029   0.000000   0.000000
    9       25.815498     26.531784   0.000000   0.000000
   10       32.744361     32.667462   0.000000   0.000000
   11       36.611720     37.011573   0.000000   0.000000
   12       38.128625     38.605560   0.000000   0.000000
 
  0.2500000E+00  0.1500000E+00  0.5000000E-01  0.4800000E-01
    1        1.317551      2.121408   1.000000   1.000000
    2        2.476118      4.311695   1.000000   1.000000
    3        3.018866      4.568790   1.000000   1.000000
    4        4.627341      7.286044   1.000000  -0.000000
    5        4.880573      7.682659   1.000000  -0.000000
    6        6.805220      8.817802  -0.000000  -0.000000
    7       17.448515     18.340027   0.000000   0.000000
    8       20.577384     21.209672   0.000000   0.000000
    9       24.047966     24.673675   0.000000   0.000000
   10       32.942985     33.040812   0.000000   0.000000
   11       37.390446     37.747511   0.000000   0.000000
   12       38.822463     39.269161   0.000000   0.000000
 
  0.3500000E+00  0.1500000E+00  0.5000000E-01  0.4800000E-01
    1        1.418204      2.787279   1.000000   1.000000
    2        2.342262      4.143337   1.000000   1.000000
    3        3.752902      5.025372   1.000000   1.000002
    4        4.739919      7.402363   1.000000  -0.000000
    5        4.974573      7.742719   1.000000  -0.000000
    6        8.590457     10.126205  -0.000000  -0.000000
    7       13.849212     15.084022   0.000000   0.000000
    8       19.751193     20.376006   0.000000   0.000000
    9       23.153384     23.735803   0.000000   0.000000
   10       32.802068     33.006465   0.000000   0.000000
   11       38.084813     38.540061   0.000000   0.000000
   12       39.077477     39.293752   0.000000   0.000000
 
 -0.1500000E+00  0.1500000E+00  0.5000000E-01  0.2400000E-01
    1       -1.674764     -1.471312   1.000000   1.000000
    2        3.218577      5.263223   1.000000   1.001503
    3        3.367193      5.416505   1.000000   1.019683
    4        3.860811      6.001709   1.000000  -0.035349
    5        4.381256      7.065661   1.000000  -0.000000
    6        4.768645      7.575596   1.000000  -0.000000
    7       26.092707     26.407065   0.000000   0.000000
    8       28.778118     28.875043   0.000000   0.000000
    9       29.489575     29.712997   0.000000   0.000000
   10       33.190671     33.582388   0.000000   0.000000
   11       33.410214     34.148639   0.000000   0.000000
   12       34.411756     35.006818   0.000000   0.000000
 
  0.2500000E+00  0.2500000E+00  0.5000000E-01  0.2400000E-01
    1        1.854944      3.192200   1.000000   1.000000
    2        2.405165      4.091254   1.000000   1.000000
    3        2.996270      4.453947   1.000000   1.000000
    4        4.729767      7.399830   1.000000  -0.000000
    5        4.961587      7.721549   1.000000  -0.000000
    6        8.956716     10.570727  -0.000000  -0.000000
    7       15.819323     16.776739   0.000000   0.000000
    8       16.835793     17.670018   0.000000   0.000000
    9       22.952635     23.556349   0.000000   0.000000
   10       34.315474     34.397793   0.000000   0.000000
   11       37.165019     37.389606   0.000000   0.000000
   12       43.095896     43.411513   0.000000   0.000000
 
  0.3500000E+00  0.2500000E+00  0.5000000E-01  0.2400000E-01
    1        1.901175      3.460821   1.000000   1.000000
    2        2.447081      4.102614   1.000000   1.000000
    3        3.063674      4.504829   1.000000   1.000000
    4        4.822550      7.508503   1.000000  -0.000000
    5        4.964513      7.687214   1.000000  -0.000000
    6       11.067063     12.287327  -0.000000   0.000000
    7       13.291068     14.487806   0.000000   0.000000
    8       16.109588     16.975511   0.000000   0.000000
    9       22.608616     23.216855   0.000000   0.000000
   10       34.843007     34.963674   0.000000   0.000000
   11       37.163236     37.252517   0.000000   0.000000
   12       42.693406     43.251635   0.000000   0.000000
 
 -0.2500000E+00  0.2500000E+00  0.5000000E-01  0.2400000E-01
    1       -0.337897     -0.042812   1.000000   1.000000
    2        2.906777      4.885263   1.000000   1.000000
    3        3.269505      5.172317   1.000000   1.000166
    4        4.377173      6.816888   1.000000  -0.000000
    5        4.592769      6.969023   1.000000  -0.000000
    6        4.843267      7.650046   1.000000  -0.000000
    7       21.479087     22.166712   0.000000   0.000000
    8       26.629427     26.776527   0.000000   0.000000
    9       28.017140     28.603388   0.000000   0.000000
   10       31.339636     31.902171   0.000000   0.000000
   11       33.038036     33.619067   0.000000   0.000000
   12       35.164222     35.464440   0.000000   0.000000
 
 -0.1500000E+00  0.2500000E+00  0.5000000E-01  0.2400000E-01
    1       -0.613144     -0.364296   1.000000   1.000000
    2        3.148939      5.135229   1.000000   1.000059
    3        3.151185      5.172385   1.000000   1.000166
    4        4.190206      6.592216   1.000000  -0.000000
    5        4.412770      6.765895   1.000000  -0.000000
    6        4.914692      7.722469   1.000000  -0.000000
    7       23.684650     24.186131   0.000000   0.000000
    8       24.919163     25.456393   0.000000   0.000000
    9       29.596638     29.806533   0.000000   0.000000
   10       30.480483     31.103320   0.000000   0.000000
   11       33.153097     33.558905   0.000000   0.000000
   12       36.426359     36.861808   0.000000   0.000000
 
 -0.3500000E+00  0.3500000E+00  0.5000000E-01  0.2400000E-01
    1        0.713876      1.490207   1.000000   1.000000
    2        2.606771      4.525532   1.000000   1.000000
    3        3.734195      5.150198   1.000000   1.000090
    4        4.614069      7.131108   1.000000  -0.000000
    5        5.079421      7.738018   1.000011  -0.000000
    6        5.405422      7.760850   1.017274  -0.000000
    7       17.006985     17.991905   0.000000   0.000000
    8       24.937530     25.068713   0.000000   0.000000
    9       26.298858     26.982873   0.000000   0.000000
   10       30.307343     30.842537   0.000000   0.000000
   11       32.949691     33.558510   0.000000   0.000000
   12       36.993142     37.275047   0.000000   0.000000
 
 -0.2500000E+00  0.3500000E+00  0.5000000E-01  0.4800000E-01
    1        0.667818      1.164913   1.000000   1.000000
    2        2.796732      4.736421   1.000000   1.000000
    3        3.112494      4.934524   1.000000   1.000000
    4        4.314560      6.806632   1.000000  -0.000000
    5        4.971917      7.472348   1.000000  -0.000000
    6        5.495954      7.933469   1.035066  -0.000000
    7       19.489124     20.292565   0.000000   0.000000
    8       22.645108     23.222917   0.000000   0.000000
    9       27.805606     28.243328   0.000000   0.000000
   10       30.218593     30.631077   0.000000   0.000000
   11       33.659134     34.085263   0.000000   0.000000
   12       37.006180     37.457406   0.000000   0.000000
 
 -0.4500000E+00  0.4500000E+00  0.5000000E-01  0.2400000E-01
    1        0.903951      2.217345   1.000000   1.000000
    2        2.426989      4.311674   1.000000   1.000000
    3        4.377272      5.829485   1.000000   0.195714
    4        4.679428      7.256829   1.000000  -0.000000
    5        5.960137      8.034998  -0.029104  -0.000000
    6        6.320316      8.379682  -0.000217  -0.000000
    7       13.584814     14.945256   0.000000   0.000000
    8       24.018785     24.123649   0.000000   0.000000
    9       25.161340     25.804093   0.000000   0.000000
   10       29.916622     30.492643   0.000000   0.000000
   11       33.071057     33.730698   0.000000   0.000000
   12       38.254192     38.383519   0.000000   0.000000
 
 -0.3500000E+00  0.4500000E+00  0.5000000E-01  0.4800000E-01
    1        1.194522      2.351609   1.000000   1.000000
    2        2.601995      4.481111   1.000000   1.000000
    3        3.471637      4.989143   1.000000   1.000000
    4        4.548880      7.050760   1.000000  -0.000000
    5        5.340120      7.862617   1.006640  -0.000000
    6        6.936087      8.854662  -0.000000  -0.000000
    7       15.325526     16.428175   0.000000   0.000000
    8       21.401750     21.981765   0.000000   0.000000
    9       26.212615     26.604501   0.000000   0.000000
   10       30.379567     30.878483   0.000000   0.000000
   11       34.777584     35.115719   0.000000   0.000000
   12       36.786521     37.254371   0.000000   0.000000
 
 -0.2500000E+00  0.4500000E+00  0.5000000E-01  0.2400000E-01
    1        1.551977      2.502721   1.000000   1.000000
    2        2.461177      4.312269   1.000000   1.000000
    3        3.108626      4.836455   1.000000   1.000000
    4        4.439013      6.911275   1.000000  -0.000000
    5        5.122411      7.730760   1.000041  -0.000000
    6        7.177502      9.121531  -0.000000  -0.000000
    7       17.654024     18.556639   0.000000   0.000000
    8       18.450290     19.217832   0.000000   0.000000
    9       27.393540     27.899804   0.000000   0.000000
   10       29.996608     30.251391   0.000000   0.000000
   11       33.585978     33.993044   0.000000   0.000000
   12       41.260580     41.653108   0.000000   0.000000
 
 -0.4500000E+00 -0.4500000E+00  0.5000000E-01  0.2400000E-01
    1        1.203131      2.636031   1.000000   1.000000
    2        2.537572      4.409367   1.000000   1.000000
    3        3.715805      5.256635   1.000000   1.001302
    4        4.580063      7.125248   1.000000  -0.000000
    5        5.633654      8.059766   0.914791  -0.000000
    6        8.246851      9.666665  -0.000000  -0.000000
    7       13.054441     14.464799   0.000000   0.000000
    8       20.952445     21.523287   0.000000   0.000000
    9       25.648810     26.012075   0.000000   0.000000
   10       30.418446     30.960832   0.000000   0.000000
   11       35.961259     36.088179   0.000000   0.000000
   12       36.120572     36.699252   0.000000   0.000000
 
 -0.3500000E+00 -0.4500000E+00  0.5000000E-01  0.4800000E-01
    1        1.768655      3.244202   1.000000   1.000000
    2        2.496605      4.262948   1.000000   1.000000
    3        3.027865      4.661559   1.000000   1.000000
    4        4.658177      7.153463   1.000000  -0.000000
    5        5.265240      7.778225   1.001570  -0.000000
    6        9.511935     10.957347  -0.000000  -0.000000
    7       14.132239     15.282600   0.000000   0.000000
    8       17.292277     18.094820   0.000000   0.000000
    9       26.708581     27.194521   0.000000   0.000000
   10       30.653088     30.975674   0.000000   0.000000
   11       33.748374     33.969830   0.000000   0.000000
   12       40.238822     40.988513   0.000000   0.000000
 
 -0.3500000E+00 -0.3500000E+00  0.5000000E-01  0.8000000E-02
    1        2.219912      3.917276   1.000000   1.000000
    2        2.518211      4.166367   1.000000   1.000000
    3        2.518214      4.166372   1.000000   1.000000
    4        4.994300      7.492272   1.000001  -0.000000
    5        4.994301      7.492282   1.000001  -0.000000
    6       12.466579     13.630371   0.000000   0.000000
    7       12.466589     13.630376   0.000000   0.000000
    8       15.052242     16.037529   0.000000   0.000000
    9       26.823162     27.388912   0.000000   0.000000
   10       32.083520     32.285305   0.000000   0.000000
   11       32.083535     32.285309   0.000000   0.000000
   12       39.797732     40.767761   0.000000   0.000000
 
  0.1500000E+00  0.1500000E+00  0.1500000E+00  0.8000000E-02
    1        1.535050      2.054368   1.000000   1.000000
    2        2.472065      4.284689   1.000000   1.000000
    3        2.472065      4.284689   1.000000   1.000000
    4        4.749245      7.522664   1.000000  -0.000000
    5        4.749245      7.522664   1.000000  -0.000000
    6        6.823856      8.857913  -0.000000  -0.000000
    7       19.863046     20.539922   0.000000   0.000000
    8       19.863046     20.539922   0.000000   0.000000
    9       21.536946     22.323116   0.000000   0.000000
   10       35.627600     35.392534   0.000000   0.000000
   11       39.471158     39.780739   0.000000   0.000000
   12       39.471158     39.780739   0.000000   0.000000
 
  0.2500000E+00  0.1500000E+00  0.1500000E+00  0.2400000E-01
    1        1.953344      3.178139   1.000000   1.000000
    2        2.313188      4.054510   1.000000   1.000000
    3        2.918901      4.287608   1.000000   1.000000
    4        4.801987      7.563654   1.000000  -0.000000
    5        4.852916      7.693201   1.000000  -0.000000
    6        8.758385     10.421093  -0.000000  -0.000000
    7       15.990726     16.927869   0.000000   0.000000
    8       18.819230     19.512304   0.000000   0.000000
    9       19.843562     20.569306   0.000000   0.000000
   10       36.650797     36.587340   0.000000   0.000000
   11       40.403121     40.730019   0.000000   0.000000
   12       41.742633     41.848973   0.000000   0.000000
 
  0.3500000E+00  0.1500000E+00  0.1500000E+00  0.1200000E-01
    1        1.865781      3.325278   1.000000   1.000000
    2        2.264266      3.980115   1.000000   1.000000
    3        3.361351      4.672304   1.000000   1.000000
    4        4.837092      7.596291   1.000000  -0.000000
    5        4.880720      7.745191   1.000000  -0.000000
    6       10.557481     11.789947  -0.000000   0.000000
    7       13.375063     14.614287   0.000000   0.000000
    8       18.462225     19.157333   0.000000   0.000000
    9       19.371371     20.079622   0.000000   0.000000
   10       36.659484     36.679814   0.000000   0.000000
   11       41.014045     41.512025   0.000000   0.000000
   12       41.871745     41.954308   0.000000   0.000000
 
 -0.1500000E+00  0.1500000E+00  0.1500000E+00  0.6000000E-02
    1       -0.940438     -0.714426   1.000000   1.000000
    2        3.462528      5.502709   1.000000   1.035407
    3        3.462530      5.502721   1.000000   1.035407
    4        3.875393      6.025500   1.000000  -0.032787
    5        3.898403      6.456346   1.000000  -0.000004
    6        4.980410      7.799557   1.000000  -0.000000
    7       25.657610     25.900041   0.000000   0.000000
    8       27.274480     27.816782   0.000000   0.000000
    9       27.274498     27.816791   0.000000   0.000000
   10       29.033720     29.471006   0.000000   0.000000
   11       35.792871     36.176815   0.000000   0.000000
   12       35.792872     36.176829   0.000000   0.000000
 
  0.2500000E+00  0.2500000E+00  0.1500000E+00  0.2400000E-01
    1        2.150977      3.722869   1.000000   1.000000
    2        2.455198      4.023637   1.000000   1.000000
    3        2.822171      4.212604   1.000000   1.000000
    4        4.864658      7.677891   1.000000  -0.000000
    5        4.890204      7.735894   1.000000  -0.000000
    6       11.364175     12.619656   0.000000   0.000000
    7       14.659141     15.639451   0.000000   0.000000
    8       15.832265     16.719890   0.000000   0.000000
    9       18.707459     19.422088   0.000000   0.000000
   10       39.244669     39.192827   0.000000   0.000000
   11       41.011317     41.070445   0.000000   0.000000
   12       44.502093     44.614376   0.000000   0.000000
 
 -0.2500000E+00  0.2500000E+00  0.1500000E+00  0.2400000E-01
    1        0.269840      0.623476   1.000000   1.000000
    2        3.169112      5.260548   1.000000   1.001418
    3        3.313578      5.317690   1.000000   1.004471
    4        3.919446      6.234029   1.000000  -0.001690
    5        4.506360      6.719484   1.000000  -0.000000
    6        5.260276      7.981639   1.001410  -0.000000
    7       22.040621     22.713975   0.000000   0.000000
    8       25.128417     25.749826   0.000000   0.000000
    9       25.372158     25.801296   0.000000   0.000000
   10       28.985468     29.446502   0.000000   0.000000
   11       35.157259     35.635360   0.000000   0.000000
   12       36.497821     36.884469   0.000000   0.000000
 
 -0.3500000E+00  0.3500000E+00  0.1500000E+00  0.2400000E-01
    1        1.190055      2.047665   1.000000   1.000000
    2        2.914515      4.770660   1.000000   1.000000
    3        3.068513      5.025308   1.000000   1.000002
    4        4.299636      6.614480   1.000000  -0.000000
    5        5.331666      7.651947   1.005742  -0.000000
    6        6.148439      8.388064  -0.008378  -0.000000
    7       17.526378     18.460378   0.000000   0.000000
    8       23.355038     24.039756   0.000000   0.000000
    9       24.142808     24.519612   0.000000   0.000000
   10       30.546834     30.951958   0.000000   0.000000
   11       34.058254     34.582297   0.000000   0.000000
   12       36.359181     36.823124   0.000000   0.000000
 
 -0.2500000E+00  0.3500000E+00  0.1500000E+00  0.2400000E-01
    1        1.245980      1.932869   1.000000   1.000000
    2        2.648138      4.713037   1.000000   1.000000
    3        3.443723      5.396279   1.000000   1.015396
    4        4.059202      6.289759   1.000000  -0.000471
    5        5.016112      7.351901   1.000001  -0.000000
    6        6.137885      8.426546  -0.009877  -0.000000
    7       20.043222     20.846678   0.000000   0.000000
    8       20.710781     21.415515   0.000000   0.000000
    9       26.230888     26.683203   0.000000   0.000000
   10       27.718399     28.182361   0.000000   0.000000
   11       34.691146     35.188093   0.000000   0.000000
   12       39.916446     40.295936   0.000000   0.000000
 
 -0.4500000E+00  0.4500000E+00  0.1500000E+00  0.2400000E-01
    1        1.310299      2.743857   1.000000   1.000000
    2        2.915210      4.774086   1.000000   1.000000
    3        3.111881      4.843101   1.000000   1.000000
    4        4.375296      6.779508   1.000000  -0.000000
    5        5.907781      8.319644   0.014667  -0.000000
    6        8.063062      9.514354  -0.000000  -0.000000
    7       13.850902     15.110413   0.000000   0.000000
    8       22.300462     22.946630   0.000000   0.000000
    9       23.474867     23.852631   0.000000   0.000000
   10       32.589162     32.872077   0.000000   0.000000
   11       33.493780     34.037425   0.000000   0.000000
   12       35.302972     35.848000   0.000000   0.000000
 
 -0.3500000E+00  0.4500000E+00  0.1500000E+00  0.4800000E-01
    1        1.674747      2.979314   1.000000   1.000000
    2        2.418944      4.255858   1.000000   1.000000
    3        3.251761      5.186140   1.000000   1.000239
    4        4.395854      6.681711   1.000000  -0.000000
    5        5.490483      7.876684   1.034583  -0.000000
    6        8.141084      9.789296  -0.000000  -0.000000
    7       16.000583     16.994447   0.000000   0.000000
    8       19.159624     19.898380   0.000000   0.000000
    9       25.680115     26.124440   0.000000   0.000000
   10       29.160523     29.558008   0.000000   0.000000
   11       33.656169     34.157867   0.000000   0.000000
   12       38.309131     39.047263   0.000000   0.000000
 
 -0.4500000E+00 -0.4500000E+00  0.1500000E+00  0.2400000E-01
    1        1.628556      3.258181   1.000000   1.000000
    2        2.581791      4.278667   1.000000   1.000000
    3        3.068969      4.990807   1.000000   1.000001
    4        4.487931      6.801592   1.000000  -0.000000
    5        5.746067      8.142537   0.522368  -0.000000
    6       10.091397     11.292624  -0.000000   0.000000
    7       13.308148     14.571481   0.000000   0.000000
    8       18.677867     19.400859   0.000000   0.000000
    9       25.320049     25.759587   0.000000   0.000000
   10       30.911800     31.160381   0.000000   0.000000
   11       32.405546     33.000282   0.000000   0.000000
   12       36.984522     37.806174   0.000000   0.000000
 
 -0.3500000E+00 -0.4500000E+00  0.1500000E+00  0.2400000E-01
    1        2.061435      3.724365   1.000000   1.000000
    2        2.105530      3.887339   1.000000   1.000000
    3        2.991246      4.850135   1.000000   1.000000
    4        4.886402      7.195717   1.000000  -0.000000
    5        5.399925      7.769444   1.016131  -0.000000
    6       10.975199     12.226746  -0.000000   0.000000
    7       14.489897     15.532437   0.000000   0.000000
    8       15.769745     16.643825   0.000000   0.000000
    9       27.690519     28.065742   0.000000   0.000000
   10       28.661000     29.046507   0.000000   0.000000
   11       31.622479     32.175883   0.000000   0.000000
   12       36.951862     37.823335   0.000000   0.000000
 
  0.2500000E+00  0.2500000E+00  0.2500000E+00  0.2000000E-02
    1        2.495651      4.018070   1.000000   1.000000
    2        2.495657      4.018082   1.000000   1.000000
    3        2.495657      4.018082   1.000000   1.000000
    4        4.892938      7.761498   1.000000  -0.000000
    5        4.892938      7.761498   1.000000  -0.000000
    6       14.261790     15.247953   0.000000   0.000000
    7       14.261795     15.247964   0.000000   0.000000
    8       14.261795     15.247964   0.000000   0.000000
    9       16.417144     17.217445   0.000000   0.000000
   10       44.506749     44.290997   0.000000   0.000000
   11       44.506755     44.290997   0.000000   0.000000
   12       44.506765     44.290998   0.000000   0.000000
 
 -0.2500000E+00  0.2500000E+00  0.2500000E+00  0.6000000E-02
    1        1.111730      1.716552   1.000000   1.000000
    2        2.791666      5.051959   1.000000   1.000004
    3        3.841563      5.865739   1.000000   0.092986
    4        3.841565      5.865750   1.000000   0.092959
    5        4.566043      6.801508   1.000000  -0.000000
    6        5.944451      8.353849  -0.021164  -0.000000
    7       22.654401     23.358231   0.000000   0.000000
    8       22.654419     23.358237   0.000000   0.000000
    9       23.182440     23.773609   0.000000   0.000000
   10       25.512428     25.983518   0.000000   0.000000
   11       39.436510     39.801889   0.000000   0.000000
   12       39.436518     39.801902   0.000000   0.000000
 
 -0.3500000E+00  0.3500000E+00  0.2500000E+00  0.2400000E-01
    1        1.606893      2.744683   1.000000   1.000000
    2        2.236924      4.294575   1.000000   1.000000
    3        3.879439      5.910627   1.000000   0.010889
    4        4.217947      6.335359   1.000000  -0.000145
    5        5.229093      7.536844   1.000694  -0.000000
    6        7.458042      9.232169  -0.000000  -0.000000
    7       18.480285     19.302437   0.000000   0.000000
    8       20.703613     21.376538   0.000000   0.000000
    9       23.154600     23.783106   0.000000   0.000000
   10       26.037169     26.545794   0.000000   0.000000
   11       37.113163     37.843696   0.000000   0.000000
   12       38.307724     38.804335   0.000000   0.000000
 
 -0.4500000E+00  0.4500000E+00  0.2500000E+00  0.2400000E-01
    1        1.593655      3.268685   1.000000   1.000000
    2        2.087050      3.879313   1.000000   1.000000
    3        3.797508      5.818860   1.000000   0.231602
    4        4.384779      6.544591   1.000000  -0.000000
    5        5.823803      8.223543   0.214607  -0.000000
    6        9.977400     11.182838  -0.000000  -0.000000
    7       14.517721     15.558921   0.000000   0.000000
    8       19.563126     20.177412   0.000000   0.000000
    9       22.843228     23.496771   0.000000   0.000000
   10       28.002143     28.403064   0.000000   0.000000
   11       33.682060     34.547573   0.000000   0.000000
   12       37.653222     38.150850   0.000000   0.000000
 
 -0.3500000E+00  0.4500000E+00  0.2500000E+00  0.2400000E-01
    1        1.691254      3.253475   1.000000   1.000000
    2        1.789528      3.746455   1.000000   1.000000
    3        3.955662      5.973923   1.000000  -0.033222
    4        4.745966      6.917755   1.000000  -0.000000
    5        5.544966      7.895638   1.028133  -0.000000
    6        9.785667     11.044739  -0.000000  -0.000000
    7       16.862508     17.707170   0.000000   0.000000
    8       17.365099     18.081457   0.000000   0.000000
    9       24.012690     24.627016   0.000000   0.000000
   10       25.645456     26.181886   0.000000   0.000000
   11       33.192376     34.027991   0.000000   0.000000
   12       38.514048     39.030170   0.000000   0.000000
 
 -0.4500000E+00 -0.4500000E+00  0.2500000E+00  0.2400000E-01
    1        1.584839      3.426183   1.000000   1.000000
    2        1.733249      3.526375   1.000000   1.000000