       N       E                     dE             d eps       ncg     rms          rms(c)
DAV:   1     0.135845255450E+02    0.13585E+02   -0.30508E+03  2388   0.588E+02
DAV:   2    -0.865476919437E+01   -0.22239E+02   -0.20517E+02  2224   0.107E+02
DAV:   3    -0.911370773005E+01   -0.45894E+00   -0.45645E+00  2460   0.176E+01
DAV:   4    -0.911515187598E+01   -0.14441E-02   -0.14441E-02  2360   0.915E-01
DAV:   5    -0.911515987714E+01   -0.80012E-05   -0.80008E-05  2204   0.707E-02    0.115E+01
DAV:   6    -0.831419423236E+01    0.80097E+00   -0.99496E+00  2388   0.404E+01    0.512E+00
DAV:   7    -0.825317955979E+01    0.61015E-01   -0.53456E-01  2456   0.910E+00    0.318E+00
DAV:   8    -0.824713051950E+01    0.60490E-02   -0.69207E-03  2556   0.537E-01    0.148E+00
DAV:   9    -0.824133684170E+01    0.57937E-02   -0.88618E-03  2788   0.565E-01    0.348E-01
DAV:  10    -0.824143300739E+01   -0.96166E-04   -0.60223E-04  2356   0.325E-01
   1 F= -.82414330E+01 E0= -.82410186E+01  d E =-.824143E+01  mag=     2.2761
       N       E                     dE             d eps       ncg     rms          rms(c)
DAV:   1    -0.835335580937E+01   -0.11202E+00   -0.19262E+00  2352   0.203E+01    0.321E+00
DAV:   2    -0.825403808941E+01    0.99318E-01   -0.10124E+00  2388   0.114E+01    0.302E+00
DAV:   3    -0.824572356766E+01    0.83145E-02   -0.57672E-02  2436   0.292E+00    0.109E+00
DAV:   4    -0.824447018185E+01    0.12534E-02   -0.60188E-04  2428   0.302E-01    0.260E-01
DAV:   5    -0.824341973734E+01    0.10504E-02   -0.14421E-03  2468   0.221E-01    0.480E-02
DAV:   6    -0.824344129938E+01   -0.21562E-04   -0.24243E-05  1160   0.438E-02
   2 F= -.82434413E+01 E0= -.82442052E+01  d E =-.200829E-02  mag=     2.3396
       N       E                     dE             d eps       ncg     rms          rms(c)
DAV:   1    -0.826041956216E+01   -0.17000E-01   -0.24447E-01  2356   0.707E+00    0.126E+00
DAV:   2    -0.824685890299E+01    0.13561E-01   -0.15472E-01  2364   0.458E+00    0.124E+00
DAV:   3    -0.824503119811E+01    0.18277E-02   -0.13009E-02  2404   0.137E+00    0.366E-01
DAV:   4    -0.824488335648E+01    0.14784E-03   -0.19515E-04  2020   0.187E-01    0.855E-02
DAV:   5    -0.824476753802E+01    0.11582E-03   -0.14521E-04  1740   0.131E-01    0.254E-02
DAV:   6    -0.824476692389E+01    0.61414E-06   -0.17640E-05  1080   0.419E-02
   3 F= -.82447669E+01 E0= -.82451171E+01  d E =-.333392E-02  mag=     2.3253
