 vasp.5.4.4.18Apr17-6-g9f103f2a35 (build Jul 01 2019 03:25:34) complex          
  
 executed on             LinuxIFC date 2020.07.08  14:43:07
 running on    4 total cores
 distrk:  each k-point on    4 cores,    1 groups
 distr:  one band on NCORES_PER_BAND=   1 cores,    4 groups


--------------------------------------------------------------------------------------------------------


 INCAR:
 POTCAR:    PAW_PBE Fe 06Sep2000                  
 POTCAR:    PAW_PBE Fe 06Sep2000                  
   VRHFIN =Fe:  d7 s1                                                           
   LEXCH  = PE                                                                  
   EATOM  =   594.3153 eV,   43.6809 Ry                                         
                                                                                
   TITEL  = PAW_PBE Fe 06Sep2000                                                
   LULTRA =        F    use ultrasoft PP ?                                      
   IUNSCR =        1    unscreen: 0-lin 1-nonlin 2-no                           
   RPACOR =    2.000    partial core radius                                     
   POMASS =   55.847; ZVAL   =    8.000    mass and valenz                      
   RCORE  =    2.300    outmost cutoff radius                                   
   RWIGS  =    2.460; RWIGS  =    1.302    wigner-seitz radius (au A)           
   ENMAX  =  267.882; ENMIN  =  200.911 eV                                      
   RCLOC  =    1.701    cutoff for local pot                                    
   LCOR   =        T    correct aug charges                                     
   LPAW   =        T    paw PP                                                  
   EAUG   =  511.368                                                            
   DEXC   =    0.000                                                            
   RMAX   =    2.356    core radius for proj-oper                               
   RAUG   =    1.300    factor for augmentation sphere                          
   RDEP   =    2.442    radius for radial grids                                 
   RDEPT  =    1.890    core radius for aug-charge                              
                                                                                
   Atomic configuration                                                         
    9 entries                                                                   
     n  l   j            E        occ.                                          
     1  0  0.50     -6993.8440   2.0000                                         
     2  0  0.50      -814.6047   2.0000                                         
     2  1  1.50      -693.3689   6.0000                                         
     3  0  0.50       -89.4732   2.0000                                         
     3  1  1.50       -55.6373   6.0000                                         
     3  2  2.50        -3.8151   7.0000                                         
     4  0  0.50        -4.2551   1.0000                                         
     4  1  1.50        -3.4015   0.0000                                         
     4  3  2.50        -1.3606   0.0000                                         
   Description                                                                  
     l       E           TYP  RCUT    TYP  RCUT                                 
     2     -3.8151135     23  2.300                                             
     2     -5.1756961     23  2.300                                             
     0     -4.2550963     23  2.300                                             
     0      7.2035603     23  2.300                                             
     1     -2.7211652     23  2.300                                             
     1     18.4316424     23  2.300                                             
  local pseudopotential read in
  partial core-charges read in
  partial kinetic energy density read in
  atomic valenz-charges read in
  non local Contribution for L=           2  read in
    real space projection operators read in
  non local Contribution for L=           2  read in
    real space projection operators read in
  non local Contribution for L=           0  read in
    real space projection operators read in
  non local Contribution for L=           0  read in
    real space projection operators read in
  non local Contribution for L=           1  read in
    real space projection operators read in
  non local Contribution for L=           1  read in
    real space projection operators read in
    PAW grid and wavefunctions read in
 
   number of l-projection  operators is LMAX  =           6
   number of lm-projection operators is LMMAX =          18
 
  PAW_PBE Fe 06Sep2000                  :
 energy of atom  1       EATOM= -594.3153
 kinetic energy error for atom=    0.0239 (will be added to EATOM!!)
 
 
 POSCAR: Fe bulk bcc                             
  positions in direct lattice
  No initial velocities read in
 exchange correlation table for  LEXCH =        8
   RHO(1)=    0.500       N(1)  =     2000
   RHO(2)=  100.500       N(2)  =     4000
 


--------------------------------------------------------------------------------------------------------


 ion  position               nearest neighbor table
   1  0.000  0.000  0.000-
 
  LATTYP: Found a body centered cubic cell.
 ALAT       =     2.8200000000
  
  Lattice vectors:
  
 A1 = (  -1.4100000000,   1.4100000000,   1.4100000000)
 A2 = (   1.4100000000,  -1.4100000000,   1.4100000000)
 A3 = (   1.4100000000,   1.4100000000,  -1.4100000000)


Analysis of symmetry for initial positions (statically):
=====================================================================
 Subroutine PRICEL returns:
 Original cell was already a primitive cell.
 

 Routine SETGRP: Setting up the symmetry group for a 
 body centered cubic supercell.


 Subroutine GETGRP returns: Found 48 space group operations
 (whereof 48 operations were pure point group operations)
 out of a pool of 48 trial point group operations.


The static configuration has the point symmetry O_h .


Analysis of symmetry for dynamics (positions and initial velocities):
=====================================================================
 Subroutine PRICEL returns:
 Original cell was already a primitive cell.
 

 Routine SETGRP: Setting up the symmetry group for a 
 body centered cubic supercell.


 Subroutine GETGRP returns: Found 48 space group operations
 (whereof 48 operations were pure point group operations)
 out of a pool of 48 trial point group operations.


The dynamic configuration has the point symmetry O_h .


Analysis of structural, dynamic, and magnetic symmetry:
=====================================================================
 Subroutine PRICEL returns:
 Original cell was already a primitive cell.
 

 Routine SETGRP: Setting up the symmetry group for a 
 body centered cubic supercell.


 Subroutine GETGRP returns: Found 48 space group operations
 (whereof 48 operations were pure point group operations)
 out of a pool of 48 trial point group operations.


The magnetic configuration has the point symmetry O_h .


 Subroutine INISYM returns: Found 48 space group operations
 (whereof 48 operations are pure point group operations),
 and found     1 'primitive' translations

 
 
 KPOINTS: 10x10x10                                

Automatic generation of k-mesh.
Space group operators:
 irot       det(A)        alpha          n_x          n_y          n_z        tau_x        tau_y        tau_z
    1     1.000000     0.000000     1.000000     0.000000     0.000000     0.000000     0.000000     0.000000
    2    -1.000000     0.000000     1.000000     0.000000     0.000000     0.000000     0.000000     0.000000
    3     1.000000   120.000000    -0.577350    -0.577350    -0.577350     0.000000     0.000000     0.000000
    4    -1.000000   120.000000    -0.577350    -0.577350    -0.577350     0.000000     0.000000     0.000000
    5     1.000000   120.000000     0.577350     0.577350     0.577350     0.000000     0.000000     0.000000
    6    -1.000000   120.000000     0.577350     0.577350     0.577350     0.000000     0.000000     0.000000
    7     1.000000    90.000000     0.000000     0.000000    -1.000000     0.000000     0.000000     0.000000
    8    -1.000000    90.000000     0.000000     0.000000    -1.000000     0.000000     0.000000     0.000000
    9     1.000000   180.000000     0.000000     0.707107     0.707107     0.000000     0.000000     0.000000
   10    -1.000000   180.000000     0.000000     0.707107     0.707107     0.000000     0.000000     0.000000
   11     1.000000    90.000000     0.000000     1.000000     0.000000     0.000000     0.000000     0.000000
   12    -1.000000    90.000000     0.000000     1.000000     0.000000     0.000000     0.000000     0.000000
   13     1.000000   179.999999     0.000000     0.000000     1.000000     0.000000     0.000000     0.000000
   14    -1.000000   179.999999     0.000000     0.000000     1.000000     0.000000     0.000000     0.000000
   15     1.000000   120.000000    -0.577350     0.577350     0.577350     0.000000     0.000000     0.000000
   16    -1.000000   120.000000    -0.577350     0.577350     0.577350     0.000000     0.000000     0.000000
   17     1.000000   120.000000    -0.577350     0.577350    -0.577350     0.000000     0.000000     0.000000
   18    -1.000000   120.000000    -0.577350     0.577350    -0.577350     0.000000     0.000000     0.000000
   19     1.000000    90.000000     0.000000     0.000000     1.000000     0.000000     0.000000     0.000000
   20    -1.000000    90.000000     0.000000     0.000000     1.000000     0.000000     0.000000     0.000000
   21     1.000000    90.000000    -1.000000     0.000000     0.000000     0.000000     0.000000     0.000000
   22    -1.000000    90.000000    -1.000000     0.000000     0.000000     0.000000     0.000000     0.000000
   23     1.000000   180.000000     0.707107     0.000000     0.707107     0.000000     0.000000     0.000000
   24    -1.000000   180.000000     0.707107     0.000000     0.707107     0.000000     0.000000     0.000000
   25     1.000000   120.000000     0.577350    -0.577350     0.577350     0.000000     0.000000     0.000000
   26    -1.000000   120.000000     0.577350    -0.577350     0.577350     0.000000     0.000000     0.000000
   27     1.000000   120.000000    -0.577350    -0.577350     0.577350     0.000000     0.000000     0.000000
   28    -1.000000   120.000000    -0.577350    -0.577350     0.577350     0.000000     0.000000     0.000000
   29     1.000000   180.000000     1.000000     0.000000     0.000000     0.000000     0.000000     0.000000
   30    -1.000000   180.000000     1.000000     0.000000     0.000000     0.000000     0.000000     0.000000
   31     1.000000    90.000000     0.000000    -1.000000     0.000000     0.000000     0.000000     0.000000
   32    -1.000000    90.000000     0.000000    -1.000000     0.000000     0.000000     0.000000     0.000000
   33     1.000000   180.000000     0.707107     0.707107     0.000000     0.000000     0.000000     0.000000
   34    -1.000000   180.000000     0.707107     0.707107     0.000000     0.000000     0.000000     0.000000
   35     1.000000    90.000000     1.000000     0.000000     0.000000     0.000000     0.000000     0.000000
   36    -1.000000    90.000000     1.000000     0.000000     0.000000     0.000000     0.000000     0.000000
   37     1.000000   120.000000     0.577350    -0.577350    -0.577350     0.000000     0.000000     0.000000
   38    -1.000000   120.000000     0.577350    -0.577350    -0.577350     0.000000     0.000000     0.000000
   39     1.000000   180.000000     0.000000     1.000000     0.000000     0.000000     0.000000     0.000000
   40    -1.000000   180.000000     0.000000     1.000000     0.000000     0.000000     0.000000     0.000000
   41     1.000000   120.000000     0.577350     0.577350    -0.577350     0.000000     0.000000     0.000000
   42    -1.000000   120.000000     0.577350     0.577350    -0.577350     0.000000     0.000000     0.000000
   43     1.000000   180.000000     0.000000    -0.707107     0.707107     0.000000     0.000000     0.000000
   44    -1.000000   180.000000     0.000000    -0.707107     0.707107     0.000000     0.000000     0.000000
   45     1.000000   180.000000     0.707107    -0.707107     0.000000     0.000000     0.000000     0.000000
   46    -1.000000   180.000000     0.707107    -0.707107     0.000000     0.000000     0.000000     0.000000
   47     1.000000   180.000000     0.707107     0.000000    -0.707107     0.000000     0.000000     0.000000
   48    -1.000000   180.000000     0.707107     0.000000    -0.707107     0.000000     0.000000     0.000000
 
 Subroutine IBZKPT returns following result:
 ===========================================
 
 Found     44 irreducible k-points:
 
 Following reciprocal coordinates:
            Coordinates               Weight
  0.050000  0.050000  0.050000      8.000000
  0.150000  0.050000  0.050000     24.000000
  0.250000  0.050000  0.050000     24.000000
  0.350000  0.050000  0.050000     24.000000
  0.450000  0.050000  0.050000     12.000000
 -0.050000  0.050000  0.050000      6.000000
  0.150000  0.150000  0.050000     24.000000
  0.250000  0.150000  0.050000     48.000000
  0.350000  0.150000  0.050000     48.000000
 -0.150000  0.150000  0.050000     24.000000
  0.250000  0.250000  0.050000     24.000000
  0.350000  0.250000  0.050000     24.000000
 -0.250000  0.250000  0.050000     24.000000
 -0.150000  0.250000  0.050000     24.000000
 -0.350000  0.350000  0.050000     24.000000
 -0.250000  0.350000  0.050000     48.000000
 -0.450000  0.450000  0.050000     24.000000
 -0.350000  0.450000  0.050000     48.000000
 -0.250000  0.450000  0.050000     24.000000
 -0.450000 -0.450000  0.050000     24.000000
 -0.350000 -0.450000  0.050000     48.000000
 -0.350000 -0.350000  0.050000      8.000000
  0.150000  0.150000  0.150000      8.000000
  0.250000  0.150000  0.150000     24.000000
  0.350000  0.150000  0.150000     12.000000
 -0.150000  0.150000  0.150000      6.000000
  0.250000  0.250000  0.150000     24.000000
 -0.250000  0.250000  0.150000     24.000000
 -0.350000  0.350000  0.150000     24.000000
 -0.250000  0.350000  0.150000     24.000000
 -0.450000  0.450000  0.150000     24.000000
 -0.350000  0.450000  0.150000     48.000000
 -0.450000 -0.450000  0.150000     24.000000
 -0.350000 -0.450000  0.150000     24.000000
  0.250000  0.250000  0.250000      2.000000
 -0.250000  0.250000  0.250000      6.000000
 -0.350000  0.350000  0.250000     24.000000
 -0.450000  0.450000  0.250000     24.000000
 -0.350000  0.450000  0.250000     24.000000
 -0.450000 -0.450000  0.250000     24.000000
 -0.350000  0.350000  0.350000      6.000000
 -0.450000  0.450000  0.350000     24.000000
 -0.450000 -0.450000  0.350000      8.000000
 -0.450000  0.450000  0.450000      6.000000
 
 Following cartesian coordinates:
            Coordinates               Weight
  0.100000  0.100000  0.100000      8.000000
  0.100000  0.200000  0.200000     24.000000
  0.100000  0.300000  0.300000     24.000000
  0.100000  0.400000  0.400000     24.000000
  0.100000  0.500000  0.500000     12.000000
  0.100000  0.000000  0.000000      6.000000
  0.200000  0.200000  0.300000     24.000000
  0.200000  0.300000  0.400000     48.000000
  0.200000  0.400000  0.500000     48.000000
  0.200000 -0.100000  0.000000     24.000000
  0.300000  0.300000  0.500000     24.000000
  0.300000  0.400000  0.600000     24.000000
  0.300000 -0.200000  0.000000     24.000000
  0.300000 -0.100000  0.100000     24.000000
  0.400000 -0.300000  0.000000     24.000000
  0.400000 -0.200000  0.100000     48.000000
  0.500000 -0.400000  0.000000     24.000000
  0.500000 -0.300000  0.100000     48.000000
  0.500000 -0.200000  0.200000     24.000000
 -0.400000 -0.400000 -0.900000     24.000000
 -0.400000 -0.300000 -0.800000     48.000000
 -0.300000 -0.300000 -0.700000      8.000000
  0.300000  0.300000  0.300000      8.000000
  0.300000  0.400000  0.400000     24.000000
  0.300000  0.500000  0.500000     12.000000
  0.300000  0.000000  0.000000      6.000000
  0.400000  0.400000  0.500000     24.000000
  0.400000 -0.100000  0.000000     24.000000
  0.500000 -0.200000  0.000000     24.000000
  0.500000 -0.100000  0.100000     24.000000
  0.600000 -0.300000  0.000000     24.000000
  0.600000 -0.200000  0.100000     48.000000
 -0.300000 -0.300000 -0.900000     24.000000
 -0.300000 -0.200000 -0.800000     24.000000
  0.500000  0.500000  0.500000      2.000000
  0.500000  0.000000  0.000000      6.000000
  0.600000 -0.100000  0.000000     24.000000
  0.700000 -0.200000  0.000000     24.000000
  0.700000 -0.100000  0.100000     24.000000
 -0.200000 -0.200000 -0.900000     24.000000
  0.700000  0.000000  0.000000      6.000000
  0.800000 -0.100000  0.000000     24.000000
 -0.100000 -0.100000 -0.900000      8.000000
  0.900000  0.000000  0.000000      6.000000
 


--------------------------------------------------------------------------------------------------------




 Dimension of arrays:
   k-points           NKPTS =     44   k-points in BZ     NKDIM =     44   number of bands    NBANDS=     12
   number of dos      NEDOS =    301   number of ions     NIONS =      1
   non local maximal  LDIM  =      6   non local SUM 2l+1 LMDIM =     18
   total plane-waves  NPLWV =   4096
   max r-space proj   IRMAX =      1   max aug-charges    IRDMAX=   5689
   dimension x,y,z NGX =    16 NGY =   16 NGZ =   16
   dimension x,y,z NGXF=    24 NGYF=   24 NGZF=   24
   support grid    NGXF=    24 NGYF=   24 NGZF=   24
   ions per type =               1
   NGX,Y,Z   is equivalent  to a cutoff of  10.89, 10.89, 10.89 a.u.
   NGXF,Y,Z  is equivalent  to a cutoff of  16.34, 16.34, 16.34 a.u.

 SYSTEM =  bcc Fe                                  
 POSCAR =  Fe bulk bcc                             

 Startparameter for this run:
   NWRITE =      2    write-flag & timer
   PREC   = high      normal or accurate (medium, high low for compatibility)
   ISTART =      0    job   : 0-new  1-cont  2-samecut
   ICHARG =      2    charge: 1-file 2-atom 10-const
   ISPIN  =      2    spin polarized calculation?
   LNONCOLLINEAR =      F non collinear calculations
   LSORBIT =      F    spin-orbit coupling
   INIWAV =      1    electr: 0-lowe 1-rand  2-diag
   LASPH  =      F    aspherical Exc in radial PAW
   METAGGA=      F    non-selfconsistent MetaGGA calc.

 Electronic Relaxation 1
   ENCUT  =  334.9 eV  24.61 Ry    4.96 a.u.   3.64  3.64  3.64*2*pi/ulx,y,z
   ENINI  =  334.9     initial cutoff
   ENAUG  =  511.4 eV  augmentation charge cutoff
   NELM   =     60;   NELMIN=  2; NELMDL= -5     # of ELM steps 
   EDIFF  = 0.1E-03   stopping-criterion for ELM
   LREAL  =      F    real-space projection
   NLSPLINE    = F    spline interpolate recip. space projectors
   LCOMPAT=      F    compatible to vasp.4.4
   GGA_COMPAT  = T    GGA compatible to vasp.4.4-vasp.4.6
   LMAXPAW     = -100 max onsite density
   LMAXMIX     =    2 max onsite mixed and CHGCAR
   VOSKOWN=      0    Vosko Wilk Nusair interpolation
   ROPT   =    0.00000
 Ionic relaxation
   EDIFFG = 0.1E-02   stopping-criterion for IOM
   NSW    =     50    number of steps for IOM
   NBLOCK =      1;   KBLOCK =     50    inner block; outer block 
   IBRION =      2    ionic relax: 0-MD 1-quasi-New 2-CG
   NFREE  =      1    steps in history (QN), initial steepest desc. (CG)
   ISIF   =      3    stress and relaxation
   IWAVPR =     11    prediction:  0-non 1-charg 2-wave 3-comb
   ISYM   =      2    0-nonsym 1-usesym 2-fastsym
   LCORR  =      T    Harris-Foulkes like correction to forces

   POTIM  = 0.5000    time-step for ionic-motion
   TEIN   =    0.0    initial temperature
   TEBEG  =    0.0;   TEEND  =   0.0 temperature during run
   SMASS  =  -3.00    Nose mass-parameter (am)
   estimated Nose-frequenzy (Omega)   =  0.10E-29 period in steps =****** mass=  -0.136E-27a.u.
   SCALEE = 1.0000    scale energy and forces
   NPACO  =    256;   APACO  = 16.0  distance and # of slots for P.C.
   PSTRESS=    0.0 pullay stress

  Mass of Ions in am
   POMASS =  55.85
  Ionic Valenz
   ZVAL   =   8.00
  Atomic Wigner-Seitz radii
   RWIGS  =  -1.00
  virtual crystal weights 
   VCA    =   1.00
   NELECT =       8.0000    total number of electrons
   NUPDOWN=      -1.0000    fix difference up-down

 DOS related values:
   EMIN   =  10.00;   EMAX   =-10.00  energy-range for DOS
   EFERMI =   0.00
   ISMEAR =     1;   SIGMA  =   0.20  broadening in eV -4-tet -1-fermi 0-gaus

 Electronic relaxation 2 (details)
   IALGO  =     38    algorithm
   LDIAG  =      T    sub-space diagonalisation (order eigenvalues)
   LSUBROT=      F    optimize rotation matrix (better conditioning)
   TURBO    =      0    0=normal 1=particle mesh
   IRESTART =      0    0=no restart 2=restart with 2 vectors
   NREBOOT  =      0    no. of reboots
   NMIN     =      0    reboot dimension
   EREF     =   0.00    reference energy to select bands
   IMIX   =      4    mixing-type and parameters
     AMIX     =   0.40;   BMIX     =  1.00
     AMIX_MAG =   1.60;   BMIX_MAG =  1.00
     AMIN     =   0.10
     WC   =   100.;   INIMIX=   1;  MIXPRE=   1;  MAXMIX= -45

 Intra band minimization:
   WEIMIN = 0.0010     energy-eigenvalue tresh-hold
   EBREAK =  0.21E-05  absolut break condition
   DEPER  =   0.30     relativ break condition  

   TIME   =   0.40     timestep for ELM

  volume/ion in A,a.u.               =      11.21        75.67
  Fermi-wavevector in a.u.,A,eV,Ry     =   1.462847  2.764381 29.115417  2.139923
  Thomas-Fermi vector in A             =   2.579012
 
 Write flags
   LWAVE        =      T    write WAVECAR
   LDOWNSAMPLE  =      F    k-point downsampling of WAVECAR
   LCHARG       =      T    write CHGCAR
   LVTOT        =      F    write LOCPOT, total local potential
   LVHAR        =      F    write LOCPOT, Hartree potential only
   LELF         =      F    write electronic localiz. function (ELF)
   LORBIT       =      0    0 simple, 1 ext, 2 COOP (PROOUT), +10 PAW based schemes


 Dipole corrections
   LMONO  =      F    monopole corrections only (constant potential shift)
   LDIPOL =      F    correct potential (dipole corrections)
   IDIPOL =      0    1-x, 2-y, 3-z, 4-all directions 
   EPSILON=  1.0000000 bulk dielectric constant

 Exchange correlation treatment:
   GGA     =    --    GGA type
   LEXCH   =     8    internal setting for exchange type
   VOSKOWN=      0    Vosko Wilk Nusair interpolation
   LHFCALC =     F    Hartree Fock is set to
   LHFONE  =     F    Hartree Fock one center treatment
   AEXX    =    0.0000 exact exchange contribution

 Linear response parameters
   LEPSILON=     F    determine dielectric tensor
   LRPA    =     F    only Hartree local field effects (RPA)
   LNABLA  =     F    use nabla operator in PAW spheres
   LVEL    =     F    velocity operator in full k-point grid
   LINTERFAST=   F  fast interpolation
   KINTER  =     0    interpolate to denser k-point grid
   CSHIFT  =0.1000    complex shift for real part using Kramers Kronig
   OMEGAMAX=  -1.0    maximum frequency
   DEG_THRESHOLD= 0.2000000E-02 threshold for treating states as degnerate
   RTIME   =   -0.100 relaxation time in fs
  (WPLASMAI=    0.000 imaginary part of plasma frequency in eV, 0.658/RTIME)
   DFIELD  = 0.0000000 0.0000000 0.0000000 field for delta impulse in time
 
 Orbital magnetization related:
   ORBITALMAG=     F  switch on orbital magnetization
   LCHIMAG   =     F  perturbation theory with respect to B field
   DQ        =  0.001000  dq finite difference perturbation B field
   LLRAUG    =     F  two centre corrections for induced B field



--------------------------------------------------------------------------------------------------------


 conjugate gradient relaxation of ions
 charge density and potential will be updated during run
 spin polarized calculation
 Variant of blocked Davidson
 Davidson routine will perform the subspace rotation
 perform sub-space diagonalisation
    after iterative eigenvector-optimisation
 modified Broyden-mixing scheme, WC =      100.0
 initial mixing is a Kerker type mixing with AMIX =  0.4000 and BMIX =      1.0000
 Hartree-type preconditioning will be used
 using additional bands            8
 reciprocal scheme for non local part
 use partial core corrections
 calculate Harris-corrections to forces 
   (improved forces if not selfconsistent)
 use gradient corrections 
 use of overlap-Matrix (Vanderbilt PP)
 Methfessel and Paxton  Order N= 1 SIGMA  =   0.20


--------------------------------------------------------------------------------------------------------


  energy-cutoff  :      334.85
  volume of cell :       11.21
      direct lattice vectors                 reciprocal lattice vectors
    -1.410000000  1.410000000  1.410000000     0.000000000  0.354609929  0.354609929
     1.410000000 -1.410000000  1.410000000     0.354609929  0.000000000  0.354609929
     1.410000000  1.410000000 -1.410000000     0.354609929  0.354609929  0.000000000

  length of vectors
     2.442191639  2.442191639  2.442191639     0.501494171  0.501494171  0.501494171


 
 k-points in units of 2pi/SCALE and weight: 10x10x10                                
   0.10000000  0.10000000  0.10000000       0.008
   0.10000000  0.20000000  0.20000000       0.024
   0.10000000  0.30000000  0.30000000       0.024
   0.10000000  0.40000000  0.40000000       0.024
   0.10000000  0.50000000  0.50000000       0.012
   0.10000000  0.00000000  0.00000000       0.006
   0.20000000  0.20000000  0.30000000       0.024
   0.20000000  0.30000000  0.40000000       0.048
   0.20000000  0.40000000  0.50000000       0.048
   0.20000000 -0.10000000  0.00000000       0.024
   0.30000000  0.30000000  0.50000000       0.024
   0.30000000  0.40000000  0.60000000       0.024
   0.30000000 -0.20000000  0.00000000       0.024
   0.30000000 -0.10000000  0.10000000       0.024
   0.40000000 -0.30000000  0.00000000       0.024
   0.40000000 -0.20000000  0.10000000       0.048
   0.50000000 -0.40000000  0.00000000       0.024
   0.50000000 -0.30000000  0.10000000       0.048
   0.50000000 -0.20000000  0.20000000       0.024
  -0.40000000 -0.40000000 -0.90000000       0.024
  -0.40000000 -0.30000000 -0.80000000       0.048
  -0.30000000 -0.30000000 -0.70000000       0.008
   0.30000000  0.30000000  0.30000000       0.008
   0.30000000  0.40000000  0.40000000       0.024
   0.30000000  0.50000000  0.50000000       0.012
   0.30000000  0.00000000  0.00000000       0.006
   0.40000000  0.40000000  0.50000000       0.024
   0.40000000 -0.10000000  0.00000000       0.024
   0.50000000 -0.20000000  0.00000000       0.024
   0.50000000 -0.10000000  0.10000000       0.024
   0.60000000 -0.30000000  0.00000000       0.024
   0.60000000 -0.20000000  0.10000000       0.048
  -0.30000000 -0.30000000 -0.90000000       0.024
  -0.30000000 -0.20000000 -0.80000000       0.024
   0.50000000  0.50000000  0.50000000       0.002
   0.50000000  0.00000000  0.00000000       0.006
   0.60000000 -0.10000000  0.00000000       0.024
   0.70000000 -0.20000000  0.00000000       0.024
   0.70000000 -0.10000000  0.10000000       0.024
  -0.20000000 -0.20000000 -0.90000000       0.024
   0.70000000  0.00000000  0.00000000       0.006
   0.80000000 -0.10000000  0.00000000       0.024
  -0.10000000 -0.10000000 -0.90000000       0.008
   0.90000000  0.00000000  0.00000000       0.006
 
 k-points in reciprocal lattice and weights: 10x10x10                                
   0.05000000  0.05000000  0.05000000       0.008
   0.15000000  0.05000000  0.05000000       0.024
   0.25000000  0.05000000  0.05000000       0.024
   0.35000000  0.05000000  0.05000000       0.024
   0.45000000  0.05000000  0.05000000       0.012
  -0.05000000  0.05000000  0.05000000       0.006
   0.15000000  0.15000000  0.05000000       0.024
   0.25000000  0.15000000  0.05000000       0.048
   0.35000000  0.15000000  0.05000000       0.048
  -0.15000000  0.15000000  0.05000000       0.024
   0.25000000  0.25000000  0.05000000       0.024
   0.35000000  0.25000000  0.05000000       0.024
  -0.25000000  0.25000000  0.05000000       0.024
  -0.15000000  0.25000000  0.05000000       0.024
  -0.35000000  0.35000000  0.05000000       0.024
  -0.25000000  0.35000000  0.05000000       0.048
  -0.45000000  0.45000000  0.05000000       0.024
  -0.35000000  0.45000000  0.05000000       0.048
  -0.25000000  0.45000000  0.05000000       0.024
  -0.45000000 -0.45000000  0.05000000       0.024
  -0.35000000 -0.45000000  0.05000000       0.048
  -0.35000000 -0.35000000  0.05000000       0.008
   0.15000000  0.15000000  0.15000000       0.008
   0.25000000  0.15000000  0.15000000       0.024
   0.35000000  0.15000000  0.15000000       0.012
  -0.15000000  0.15000000  0.15000000       0.006
   0.25000000  0.25000000  0.15000000       0.024
  -0.25000000  0.25000000  0.15000000       0.024
  -0.35000000  0.35000000  0.15000000       0.024
  -0.25000000  0.35000000  0.15000000       0.024
  -0.45000000  0.45000000  0.15000000       0.024
  -0.35000000  0.45000000  0.15000000       0.048
  -0.45000000 -0.45000000  0.15000000       0.024
  -0.35000000 -0.45000000  0.15000000       0.024
   0.25000000  0.25000000  0.25000000       0.002
  -0.25000000  0.25000000  0.25000000       0.006
  -0.35000000  0.35000000  0.25000000       0.024
  -0.45000000  0.45000000  0.25000000       0.024
  -0.35000000  0.45000000  0.25000000       0.024
  -0.45000000 -0.45000000  0.25000000       0.024
  -0.35000000  0.35000000  0.35000000       0.006
  -0.45000000  0.45000000  0.35000000       0.024
  -0.45000000 -0.45000000  0.35000000       0.008
  -0.45000000  0.45000000  0.45000000       0.006
 
 position of ions in fractional coordinates (direct lattice) 
   0.00000000  0.00000000  0.00000000
 
 position of ions in cartesian coordinates  (Angst):
   0.00000000  0.00000000  0.00000000
 


--------------------------------------------------------------------------------------------------------


 k-point  1 :   0.0500 0.0500 0.0500  plane waves:     156
 k-point  2 :   0.1500 0.0500 0.0500  plane waves:     159
 k-point  3 :   0.2500 0.0500 0.0500  plane waves:     159
 k-point  4 :   0.3500 0.0500 0.0500  plane waves:     157
 k-point  5 :   0.4500 0.0500 0.0500  plane waves:     154
 k-point  6 :  -0.0500 0.0500 0.0500  plane waves:     149
 k-point  7 :   0.1500 0.1500 0.0500  plane waves:     159
 k-point  8 :   0.2500 0.1500 0.0500  plane waves:     161
 k-point  9 :   0.3500 0.1500 0.0500  plane waves:     156
 k-point 10 :  -0.1500 0.1500 0.0500  plane waves:     157
 k-point 11 :   0.2500 0.2500 0.0500  plane waves:     158
 k-point 12 :   0.3500 0.2500 0.0500  plane waves:     154
 k-point 13 :  -0.2500 0.2500 0.0500  plane waves:     157
 k-point 14 :  -0.1500 0.2500 0.0500  plane waves:     155
 k-point 15 :  -0.3500 0.3500 0.0500  plane waves:     157
 k-point 16 :  -0.2500 0.3500 0.0500  plane waves:     159
 k-point 17 :  -0.4500 0.4500 0.0500  plane waves:     154
 k-point 18 :  -0.3500 0.4500 0.0500  plane waves:     160
 k-point 19 :  -0.2500 0.4500 0.0500  plane waves:     155
 k-point 20 :  -0.4500-0.4500 0.0500  plane waves:     156
 k-point 21 :  -0.3500-0.4500 0.0500  plane waves:     156
 k-point 22 :  -0.3500-0.3500 0.0500  plane waves:     152
 k-point 23 :   0.1500 0.1500 0.1500  plane waves:     156
 k-point 24 :   0.2500 0.1500 0.1500  plane waves:     154
 k-point 25 :   0.3500 0.1500 0.1500  plane waves:     154
 k-point 26 :  -0.1500 0.1500 0.1500  plane waves:     160
 k-point 27 :   0.2500 0.2500 0.1500  plane waves:     152
 k-point 28 :  -0.2500 0.2500 0.1500  plane waves:     160
 k-point 29 :  -0.3500 0.3500 0.1500  plane waves:     160
 k-point 30 :  -0.2500 0.3500 0.1500  plane waves:     157
 k-point 31 :  -0.4500 0.4500 0.1500  plane waves:     158
 k-point 32 :  -0.3500 0.4500 0.1500  plane waves:     153
 k-point 33 :  -0.4500-0.4500 0.1500  plane waves:     154
 k-point 34 :  -0.3500-0.4500 0.1500  plane waves:     149
 k-point 35 :   0.2500 0.2500 0.2500  plane waves:     152
 k-point 36 :  -0.2500 0.2500 0.2500  plane waves:     160
 k-point 37 :  -0.3500 0.3500 0.2500  plane waves:     153
 k-point 38 :  -0.4500 0.4500 0.2500  plane waves:     152
 k-point 39 :  -0.3500 0.4500 0.2500  plane waves:     149
 k-point 40 :  -0.4500-0.4500 0.2500  plane waves:     152
 k-point 41 :  -0.3500 0.3500 0.3500  plane waves:     156
 k-point 42 :  -0.4500 0.4500 0.3500  plane waves:     153
 k-point 43 :  -0.4500-0.4500 0.3500  plane waves:     158
 k-point 44 :  -0.4500 0.4500 0.4500  plane waves:     160

 maximum and minimum number of plane-waves per node :       161      149

 maximum number of plane-waves:       161
 maximum index in each direction: 
   IXMAX=    4   IYMAX=    4   IZMAX=    3
   IXMIN=   -4   IYMIN=   -4   IZMIN=   -4


 serial   3D FFT for wavefunctions
 parallel 3D FFT for charge:
    minimum data exchange during FFTs selected (reduces bandwidth)


 total amount of memory used by VASP MPI-rank0    32825. kBytes
=======================================================================

   base      :      30000. kBytes
   nonl-proj :       1041. kBytes
   fftplans  :        272. kBytes
   grid      :        704. kBytes
   one-center:         31. kBytes
   wavefun   :        777. kBytes
 
     INWAV:  cpu time    0.0000: real time    0.0000
 Broyden mixing: mesh for mixing (old mesh)
   NGX =  7   NGY =  7   NGZ =  7
  (NGX  = 24   NGY  = 24   NGZ  = 24)
  gives a total of    343 points

 initial charge density was supplied:
 charge density of overlapping atoms calculated
 number of electron       8.0000000 magnetization       3.0000000
 keeping initial charge density in first step


--------------------------------------------------------------------------------------------------------


 Maximum index for augmentation-charges         1275 (set IRDMAX)


--------------------------------------------------------------------------------------------------------


 First call to EWALD:  gamma=   0.792
 Maximum number of real-space cells 3x 3x 3
 Maximum number of reciprocal cells 3x 3x 3

    FEWALD:  cpu time    0.0013: real time    0.0013


--------------------------------------- Iteration      1(   1)  ---------------------------------------


    POTLOK:  cpu time    0.0065: real time    0.0074
    SETDIJ:  cpu time    0.0052: real time    0.0052
     EDDAV:  cpu time    0.1859: real time    0.1893
       DOS:  cpu time    0.0011: real time    0.0011
    --------------------------------------------
      LOOP:  cpu time    0.1987: real time    0.2031

 eigenvalue-minimisations  :  2388
 total energy-change (2. order) : 0.1358453E+02  (-0.3050799E+03)
 number of electron       8.0000000 magnetization       3.0000000
 augmentation part        8.0000000 magnetization       3.0000000

 Free energy of the ion-electron system (eV)
  ---------------------------------------------------
  alpha Z        PSCENC =        61.63782306
  Ewald energy   TEWEN  =      -594.65744246
  -Hartree energ DENC   =      -110.53762644
  -exchange      EXHF   =         0.00000000
  -V(xc)+E(xc)   XCENC  =         5.11560065
  PAW double counting   =       553.75926685     -561.48528711
  entropy T*S    EENTRO =        -0.00220710
  eigenvalues    EBANDS =        65.46301434
  atomic energy  EATOM  =       594.29138375
  Solvation  Ediel_sol  =         0.00000000
  ---------------------------------------------------
  free energy    TOTEN  =        13.58452554 eV

  energy without entropy =       13.58673264  energy(sigma->0) =       13.58526124


--------------------------------------------------------------------------------------------------------




--------------------------------------- Iteration      1(   2)  ---------------------------------------


     EDDAV:  cpu time    0.1736: real time    0.1770
       DOS:  cpu time    0.0012: real time    0.0012
    --------------------------------------------
      LOOP:  cpu time    0.1748: real time    0.1781

 eigenvalue-minimisations  :  2224
 total energy-change (2. order) :-0.2223929E+02  (-0.2051665E+02)
 number of electron       8.0000000 magnetization       3.0000000
 augmentation part        8.0000000 magnetization       3.0000000

 Free energy of the ion-electron system (eV)
  ---------------------------------------------------
  alpha Z        PSCENC =        61.63782306
  Ewald energy   TEWEN  =      -594.65744246
  -Hartree energ DENC   =      -110.53762644
  -exchange      EXHF   =         0.00000000
  -V(xc)+E(xc)   XCENC  =         5.11560065
  PAW double counting   =       553.75926685     -561.48528711
  entropy T*S    EENTRO =         0.00061468
  eigenvalues    EBANDS =        43.22089782
  atomic energy  EATOM  =       594.29138375
  Solvation  Ediel_sol  =         0.00000000
  ---------------------------------------------------
  free energy    TOTEN  =        -8.65476919 eV

  energy without entropy =       -8.65538388  energy(sigma->0) =       -8.65497409


--------------------------------------------------------------------------------------------------------




--------------------------------------- Iteration      1(   3)  ---------------------------------------


     EDDAV:  cpu time    0.1926: real time    0.1964
       DOS:  cpu time    0.0012: real time    0.0012
    --------------------------------------------
      LOOP:  cpu time    0.1939: real time    0.1976

 eigenvalue-minimisations  :  2460
 total energy-change (2. order) :-0.4589385E+00  (-0.4564472E+00)
 number of electron       8.0000000 magnetization       3.0000000
 augmentation part        8.0000000 magnetization       3.0000000

 Free energy of the ion-electron system (eV)
  ---------------------------------------------------
  alpha Z        PSCENC =        61.63782306
  Ewald energy   TEWEN  =      -594.65744246
  -Hartree energ DENC   =      -110.53762644
  -exchange      EXHF   =         0.00000000
  -V(xc)+E(xc)   XCENC  =         5.11560065
  PAW double counting   =       553.75926685     -561.48528711
  entropy T*S    EENTRO =         0.00090180
  eigenvalues    EBANDS =        42.76167216
  atomic energy  EATOM  =       594.29138375
  Solvation  Ediel_sol  =         0.00000000
  ---------------------------------------------------
  free energy    TOTEN  =        -9.11370773 eV

  energy without entropy =       -9.11460953  energy(sigma->0) =       -9.11400833


--------------------------------------------------------------------------------------------------------




--------------------------------------- Iteration      1(   4)  ---------------------------------------


     EDDAV:  cpu time    0.1930: real time    0.1966
       DOS:  cpu time    0.0013: real time    0.0013
    --------------------------------------------
      LOOP:  cpu time    0.1943: real time    0.1978

 eigenvalue-minimisations  :  2360
 total energy-change (2. order) :-0.1444146E-02  (-0.1444057E-02)
 number of electron       8.0000000 magnetization       3.0000000
 augmentation part        8.0000000 magnetization       3.0000000

 Free energy of the ion-electron system (eV)
  ---------------------------------------------------
  alpha Z        PSCENC =        61.63782306
  Ewald energy   TEWEN  =      -594.65744246
  -Hartree energ DENC   =      -110.53762644
  -exchange      EXHF   =         0.00000000
  -V(xc)+E(xc)   XCENC  =         5.11560065
  PAW double counting   =       553.75926685     -561.48528711
  entropy T*S    EENTRO =         0.00089663
  eigenvalues    EBANDS =        42.76023319
  atomic energy  EATOM  =       594.29138375
  Solvation  Ediel_sol  =         0.00000000
  ---------------------------------------------------
  free energy    TOTEN  =        -9.11515188 eV

  energy without entropy =       -9.11604851  energy(sigma->0) =       -9.11545075


--------------------------------------------------------------------------------------------------------




--------------------------------------- Iteration      1(   5)  ---------------------------------------


     EDDAV:  cpu time    0.1952: real time    0.1991
       DOS:  cpu time    0.0013: real time    0.0013
    CHARGE:  cpu time    0.0083: real time    0.0084
    MIXING:  cpu time    0.0005: real time    0.0004
    --------------------------------------------
      LOOP:  cpu time    0.2052: real time    0.2092

 eigenvalue-minimisations  :  2204
 total energy-change (2. order) :-0.8001159E-05  (-0.8000843E-05)
 number of electron       8.0000071 magnetization       1.8179295
 augmentation part        3.6340812 magnetization       1.1971041

 Broyden mixing:
  rms(total) = 0.11532E+01    rms(broyden)= 0.11527E+01
  rms(prec ) = 0.33885E+01
  weight for this iteration     100.00

 Free energy of the ion-electron system (eV)
  ---------------------------------------------------
  alpha Z        PSCENC =        61.63782306
  Ewald energy   TEWEN  =      -594.65744246
  -Hartree energ DENC   =      -110.53762644
  -exchange      EXHF   =         0.00000000
  -V(xc)+E(xc)   XCENC  =         5.11560065
  PAW double counting   =       553.75926685     -561.48528711
  entropy T*S    EENTRO =         0.00089660
  eigenvalues    EBANDS =        42.76022522
  atomic energy  EATOM  =       594.29138375
  Solvation  Ediel_sol  =         0.00000000
  ---------------------------------------------------
  free energy    TOTEN  =        -9.11515988 eV

  energy without entropy =       -9.11605648  energy(sigma->0) =       -9.11545874


--------------------------------------------------------------------------------------------------------




--------------------------------------- Iteration      1(   6)  ---------------------------------------


    POTLOK:  cpu time    0.0060: real time    0.0062
    SETDIJ:  cpu time    0.0050: real time    0.0050
     EDDAV:  cpu time    0.2027: real time    0.2069
       DOS:  cpu time    0.0013: real time    0.0013
    CHARGE:  cpu time    0.0069: real time    0.0069
    MIXING:  cpu time    0.0005: real time    0.0004
    --------------------------------------------
      LOOP:  cpu time    0.2224: real time    0.2268

 eigenvalue-minimisations  :  2388
 total energy-change (2. order) : 0.8009656E+00  (-0.9949629E+00)
 number of electron       8.0000084 magnetization       2.1503856
 augmentation part        4.2723215 magnetization       1.7815415

 Broyden mixing:
  rms(total) = 0.51152E+00    rms(broyden)= 0.51126E+00
  rms(prec ) = 0.71408E+00
  weight for this iteration     100.00

 eigenvalues of (default mixing * dielectric matrix)
  average eigenvalue GAMMA=   0.7228
  0.7228

 Free energy of the ion-electron system (eV)
  ---------------------------------------------------
  alpha Z        PSCENC =        61.63782306
  Ewald energy   TEWEN  =      -594.65744246
  -Hartree energ DENC   =       -94.24038578
  -exchange      EXHF   =         0.00000000
  -V(xc)+E(xc)   XCENC  =         3.98144015
  PAW double counting   =       611.76080402     -617.53609160
  entropy T*S    EENTRO =         0.00087396
  eigenvalues    EBANDS =        26.44740067
  atomic energy  EATOM  =       594.29138375
  Solvation  Ediel_sol  =         0.00000000
  ---------------------------------------------------
  free energy    TOTEN  =        -8.31419423 eV

  energy without entropy =       -8.31506819  energy(sigma->0) =       -8.31448555


--------------------------------------------------------------------------------------------------------




--------------------------------------- Iteration      1(   7)  ---------------------------------------


    POTLOK:  cpu time    0.0057: real time    0.0058
    SETDIJ:  cpu time    0.0047: real time    0.0047
     EDDAV:  cpu time    0.1958: real time    0.1992
       DOS:  cpu time    0.0012: real time    0.0012
    CHARGE:  cpu time    0.0082: real time    0.0082
    MIXING:  cpu time    0.0004: real time    0.0004
    --------------------------------------------
      LOOP:  cpu time    0.2159: real time    0.2194

 eigenvalue-minimisations  :  2456
 total energy-change (2. order) : 0.6101467E-01  (-0.5345627E-01)
 number of electron       8.0000081 magnetization       2.1886051
 augmentation part        4.1277187 magnetization       1.7957295

 Broyden mixing:
  rms(total) = 0.31817E+00    rms(broyden)= 0.31817E+00
  rms(prec ) = 0.41228E+00
  weight for this iteration     100.00

 eigenvalues of (default mixing * dielectric matrix)
  average eigenvalue GAMMA=   0.7847
  1.0223  0.5471

 Free energy of the ion-electron system (eV)
  ---------------------------------------------------
  alpha Z        PSCENC =        61.63782306
  Ewald energy   TEWEN  =      -594.65744246
  -Hartree energ DENC   =       -96.29007853
  -exchange      EXHF   =         0.00000000
  -V(xc)+E(xc)   XCENC  =         4.35502975
  PAW double counting   =       651.17157011     -658.69582395
  entropy T*S    EENTRO =        -0.00235422
  eigenvalues    EBANDS =        29.93671293
  atomic energy  EATOM  =       594.29138375
  Solvation  Ediel_sol  =         0.00000000
  ---------------------------------------------------
  free energy    TOTEN  =        -8.25317956 eV

  energy without entropy =       -8.25082534  energy(sigma->0) =       -8.25239482


--------------------------------------------------------------------------------------------------------




--------------------------------------- Iteration      1(   8)  ---------------------------------------


    POTLOK:  cpu time    0.0057: real time    0.0058
    SETDIJ:  cpu time    0.0046: real time    0.0047
     EDDAV:  cpu time    0.2006: real time    0.2043
       DOS:  cpu time    0.0012: real time    0.0012
    CHARGE:  cpu time    0.0083: real time    0.0083
    MIXING:  cpu time    0.0004: real time    0.0003
    --------------------------------------------
      LOOP:  cpu time    0.2208: real time    0.2246

 eigenvalue-minimisations  :  2556
 total energy-change (2. order) : 0.6049040E-02  (-0.6920658E-03)
 number of electron       8.0000081 magnetization       2.2823861
 augmentation part        4.1392360 magnetization       1.8821062

 Broyden mixing:
  rms(total) = 0.14802E+00    rms(broyden)= 0.14801E+00
  rms(prec ) = 0.21478E+00
  weight for this iteration     100.00

 eigenvalues of (default mixing * dielectric matrix)
  average eigenvalue GAMMA=   1.2027
  2.2080  0.7995  0.6005

 Free energy of the ion-electron system (eV)
  ---------------------------------------------------
  alpha Z        PSCENC =        61.63782306
  Ewald energy   TEWEN  =      -594.65744246
  -Hartree energ DENC   =       -95.49646554
  -exchange      EXHF   =         0.00000000
  -V(xc)+E(xc)   XCENC  =         4.36731685
  PAW double counting   =       675.66942951     -683.76938428
  entropy T*S    EENTRO =        -0.00241350
  eigenvalues    EBANDS =        29.71262210
  atomic energy  EATOM  =       594.29138375
  Solvation  Ediel_sol  =         0.00000000
  ---------------------------------------------------
  free energy    TOTEN  =        -8.24713052 eV

  energy without entropy =       -8.24471702  energy(sigma->0) =       -8.24632602


--------------------------------------------------------------------------------------------------------




--------------------------------------- Iteration      1(   9)  ---------------------------------------


    POTLOK:  cpu time    0.0053: real time    0.0054
    SETDIJ:  cpu time    0.0046: real time    0.0046
     EDDAV:  cpu time    0.2070: real time    0.2102
       DOS:  cpu time    0.0012: real time    0.0012
    CHARGE:  cpu time    0.0087: real time    0.0087
    MIXING:  cpu time    0.0004: real time    0.0005
    --------------------------------------------
      LOOP:  cpu time    0.2273: real time    0.2305

 eigenvalue-minimisations  :  2788
 total energy-change (2. order) : 0.5793678E-02  (-0.8861787E-03)
 number of electron       8.0000081 magnetization       2.2848578
 augmentation part        4.1566273 magnetization       1.8733413

 Broyden mixing:
  rms(total) = 0.34758E-01    rms(broyden)= 0.34668E-01
  rms(prec ) = 0.42133E-01
  weight for this iteration     100.00

 eigenvalues of (default mixing * dielectric matrix)
  average eigenvalue GAMMA=   1.2508
  2.6313  0.8800  0.8800  0.6118

 Free energy of the ion-electron system (eV)
  ---------------------------------------------------
  alpha Z        PSCENC =        61.63782306
  Ewald energy   TEWEN  =      -594.65744246
  -Hartree energ DENC   =       -94.20607576
  -exchange      EXHF   =         0.00000000
  -V(xc)+E(xc)   XCENC  =         4.43592879
  PAW double counting   =       721.83272911     -730.97092514
  entropy T*S    EENTRO =        -0.00129928
  eigenvalues    EBANDS =        29.39654108
  atomic energy  EATOM  =       594.29138375
  Solvation  Ediel_sol  =         0.00000000
  ---------------------------------------------------
  free energy    TOTEN  =        -8.24133684 eV

  energy without entropy =       -8.24003756  energy(sigma->0) =       -8.24090375


--------------------------------------------------------------------------------------------------------




--------------------------------------- Iteration      1(  10)  ---------------------------------------


    POTLOK:  cpu time    0.0057: real time    0.0059
    SETDIJ:  cpu time    0.0048: real time    0.0048
     EDDAV:  cpu time    0.1834: real time    0.1867
       DOS:  cpu time    0.0012: real time    0.0012
    --------------------------------------------
      LOOP:  cpu time    0.1951: real time    0.1986

 eigenvalue-minimisations  :  2356
 total energy-change (2. order) :-0.9616569E-04  (-0.6022288E-04)
 number of electron       8.0000081 magnetization       2.2848578
 augmentation part        4.1566273 magnetization       1.8733413

 Free energy of the ion-electron system (eV)
  ---------------------------------------------------
  alpha Z        PSCENC =        61.63782306
  Ewald energy   TEWEN  =      -594.65744246
  -Hartree energ DENC   =       -94.16918759
  -exchange      EXHF   =         0.00000000
  -V(xc)+E(xc)   XCENC  =         4.43901406
  PAW double counting   =       729.08150764     -738.36458512
  entropy T*S    EENTRO =        -0.00124322
  eigenvalues    EBANDS =        29.50129687
  atomic energy  EATOM  =       594.29138375
  Solvation  Ediel_sol  =         0.00000000
  ---------------------------------------------------
  free energy    TOTEN  =        -8.24143301 eV

  energy without entropy =       -8.24018978  energy(sigma->0) =       -8.24101860


--------------------------------------------------------------------------------------------------------




 average (electrostatic) potential at core
  the test charge radii are     1.0103
  (the norm of the test charge is              1.0000)
       1 -43.1480
 
 
 
 E-fermi :   5.9929     XC(G=0): -13.1888     alpha+bet :-13.8238


 spin component 1

 k-point     1 :       0.0500    0.0500    0.0500
  band No.  band energies     occupation 
      1      -1.9440      1.00000
      2       3.4697      1.00000
      3       3.4697      1.00000
      4       3.9960      1.00000
      5       4.8538      1.00000
      6       4.8538      1.00000
      7      28.5460      0.00000
      8      28.5460      0.00000
      9      31.6670      0.00000
     10      33.0950      0.00000
     11      36.7199      0.00000
     12      36.7199      0.00000

 k-point     2 :       0.1500    0.0500    0.0500
  band No.  band energies     occupation 
      1      -0.8164      1.00000
      2       3.1634      1.00000
      3       3.3164      1.00000
      4       4.6810      1.00000
      5       4.7463      1.00000
      6       4.9319      1.00000
      7      24.3312      0.00000
      8      26.6355      0.00000
      9      29.6753      0.00000
     10      31.9536      0.00000
     11      36.4522      0.00000
     12      36.7690      0.00000

 k-point     3 :       0.2500    0.0500    0.0500
  band No.  band energies     occupation 
      1       0.5469      1.00000
      2       2.8252      1.00000
      3       3.3987      1.00000
      4       4.8091      1.00000
      5       5.0147      1.00000
      6       5.6387      1.01557
      7      19.7099      0.00000
      8      24.9009      0.00000
      9      27.2287      0.00000
     10      31.5424      0.00000
     11      35.5059      0.00000
     12      38.7619      0.00000

 k-point     4 :       0.3500    0.0500    0.0500
  band No.  band energies     occupation 
      1       1.0868      1.00000
      2       2.5724      1.00000
      3       4.4776      1.00000
      4       4.9562      1.00000
      5       5.0828      1.00000
      6       6.7926     -0.00000
      7      15.5754      0.00000
      8      23.7011      0.00000
      9      25.5806      0.00000
     10      31.1583      0.00000
     11      35.1780      0.00000
     12      41.0101      0.00000

 k-point     5 :       0.4500    0.0500    0.0500
  band No.  band energies     occupation 
      1       1.1027      1.00000
      2       2.4796      1.00000
      3       4.9758      1.00000
      4       5.1103      1.00000
      5       5.2537      1.00000
      6       7.7408     -0.00000
      7      13.4497      0.00000
      8      23.2729      0.00000
      9      24.9740      0.00000
     10      31.0257      0.00000
     11      35.1437      0.00000
     12      40.8960      0.00000

 k-point     6 :      -0.0500    0.0500    0.0500
  band No.  band energies     occupation 
      1      -2.3516      1.00000
      2       3.5994      1.00000
      3       3.5995      1.00000
      4       3.6583      1.00000
      5       4.8163      1.00000
      6       4.9488      1.00000
      7      29.8763      0.00000
      8      30.8994      0.00000
      9      30.8995      0.00000
     10      34.6461      0.00000
     11      36.6359      0.00000
     12      36.6360      0.00000

 k-point     7 :       0.1500    0.1500    0.0500
  band No.  band energies     occupation 
      1       0.4533      1.00000
      2       2.9298      1.00000
      3       2.9622      1.00000
      4       4.7665      1.00000
      5       5.0245      1.00000
      6       5.6975      1.02867
      7      22.0077      0.00000
      8      22.9356      0.00000
      9      26.4405      0.00000
     10      33.2871      0.00000
     11      37.3032      0.00000
     12      38.8603      0.00000

 k-point     8 :       0.2500    0.1500    0.0500
  band No.  band energies     occupation 
      1       1.4644      1.00000
      2       2.6390      1.00000
      3       3.2042      1.00000
      4       4.8678      1.00000
      5       5.1307      1.00000
      6       7.1122     -0.00000
      7      17.9209      0.00000
      8      21.0752      0.00000
      9      24.6252      0.00000
     10      33.5199      0.00000
     11      38.0816      0.00000
     12      39.5701      0.00000

 k-point     9 :       0.3500    0.1500    0.0500
  band No.  band energies     occupation 
      1       1.5525      1.00000
      2       2.5011      1.00000
      3       3.9582      1.00000
      4       4.9854      1.00000
      5       5.2281      1.00000
      6       8.9191     -0.00000
      7      14.2989      0.00000
      8      20.2370      0.00000
      9      23.7086      0.00000
     10      33.3950      0.00000
     11      38.8188      0.00000
     12      39.7649      0.00000

 k-point    10 :      -0.1500    0.1500    0.0500
  band No.  band energies     occupation 
      1      -1.5513      1.00000
      2       3.4100      1.00000
      3       3.5635      1.00000
      4       4.0759      1.00000
      5       4.6095      1.00000
      6       5.0130      1.00000
      7      26.6027      0.00000
      8      29.2970      0.00000
      9      30.0445      0.00000
     10      33.8472      0.00000
     11      34.1309      0.00000
     12      35.1273      0.00000

 k-point    11 :       0.2500    0.2500    0.0500
  band No.  band energies     occupation 
      1       2.0036      1.00000
      2       2.5649      1.00000
      3       3.1800      1.00000
      4       4.9743      1.00000
      5       5.2153      1.00000
      6       9.3030     -0.00000
      7      16.2525      0.00000
      8      17.3280      0.00000
      9      23.5034      0.00000
     10      34.9101      0.00000
     11      37.8289      0.00000
     12      43.8689      0.00000

 k-point    12 :       0.3500    0.2500    0.0500
  band No.  band energies     occupation 
      1       2.0481      1.00000
      2       2.6094      1.00000
      3       3.2466      1.00000
      4       5.0709      1.00000
      5       5.2182      1.00000
      6      11.4312     -0.00000
      7      13.7170      0.00000
      8      16.5842      0.00000
      9      23.1536      0.00000
     10      35.4523      0.00000
     11      37.7985      0.00000
     12      43.4859      0.00000

 k-point    13 :      -0.2500    0.2500    0.0500
  band No.  band energies     occupation 
      1      -0.1981      1.00000
      2       3.0863      1.00000
      3       3.4601      1.00000
      4       4.6072      1.00000
      5       4.8341      1.00000
      6       5.0911      1.00000
      7      21.9869      0.00000
      8      27.1267      0.00000
      9      28.6278      0.00000
     10      31.9899      0.00000
     11      33.7300      0.00000
     12      35.8367      0.00000

 k-point    14 :      -0.1500    0.2500    0.0500
  band No.  band energies     occupation 
      1      -0.4744      1.00000
      2       3.3373      1.00000
      3       3.3375      1.00000
      4       4.4118      1.00000
      5       4.6475      1.00000
      6       5.1656      1.00000
      7      24.1826      0.00000
      8      25.4776      0.00000
      9      30.1456      0.00000
     10      31.1454      0.00000
     11      33.8098      0.00000
     12      37.1331      0.00000

 k-point    15 :      -0.3500    0.3500    0.0500
  band No.  band energies     occupation 
      1       0.8466      1.00000
      2       2.7751      1.00000
      3       3.9392      1.00000
      4       4.8543      1.00000
      5       5.3341      1.00002
      6       5.6766      1.02392
      7      17.4851      0.00000
      8      25.4088      0.00000
      9      26.9153      0.00000
     10      30.9276      0.00000
     11      33.6509      0.00000
     12      37.6798      0.00000

 k-point    16 :      -0.2500    0.3500    0.0500
  band No.  band energies     occupation 
      1       0.8138      1.00000
      2       2.9697      1.00000
      3       3.2983      1.00000
      4       4.5428      1.00000
      5       5.2264      1.00000
      6       5.7670      1.03388
      7      19.9820      0.00000
      8      23.1686      0.00000
      9      28.3911      0.00000
     10      30.8200      0.00000
     11      34.3198      0.00000
     12      37.7311      0.00000

 k-point    17 :      -0.4500    0.4500    0.0500
  band No.  band energies     occupation 
      1       1.0235      1.00000
      2       2.5888      1.00000
      3       4.6031      1.00000
      4       4.9227      1.00000
      5       6.2522     -0.03474
      6       6.5807     -0.00013
      7      14.0424      0.00000
      8      24.4736      0.00000
      9      25.7620      0.00000
     10      30.5337      0.00000
     11      33.7874      0.00000
     12      38.9122      0.00000

 k-point    18 :      -0.3500    0.4500    0.0500
  band No.  band energies     occupation 
      1       1.3267      1.00000
      2       2.7695      1.00000
      3       3.6666      1.00000
      4       4.7867      1.00000
      5       5.6072      1.01001
      6       7.2378     -0.00000
      7      15.7879      0.00000
      8      21.9079      0.00000
      9      26.7697      0.00000
     10      30.9958      0.00000
     11      35.4314      0.00000
     12      37.5107      0.00000

 k-point    19 :      -0.2500    0.4500    0.0500
  band No.  band energies     occupation 
      1       1.7009      1.00000
      2       2.6198      1.00000
      3       3.2949      1.00000
      4       4.6724      1.00000
      5       5.3828      1.00007
      6       7.4908     -0.00000
      7      18.1124      0.00000
      8      18.9577      0.00000
      9      27.9932      0.00000
     10      30.5562      0.00000
     11      34.2402      0.00000
     12      42.0221      0.00000

 k-point    20 :      -0.4500   -0.4500    0.0500
  band No.  band energies     occupation 
      1       1.3287      1.00000
      2       2.7032      1.00000
      3       3.9171      1.00000
      4       4.8195      1.00000
      5       5.9107      0.81727
      6       8.5538     -0.00000
      7      13.5075      0.00000
      8      21.4521      0.00000
      9      26.1935      0.00000
     10      31.0419      0.00000
     11      36.5848      0.00000
     12      36.8520      0.00000

 k-point    21 :      -0.3500   -0.4500    0.0500
  band No.  band energies     occupation 
      1       1.9113      1.00000
      2       2.6592      1.00000
      3       3.2078      1.00000
      4       4.9003      1.00000
      5       5.5303      1.00256
      6       9.8587     -0.00000
      7      14.5728      0.00000
      8      17.7718      0.00000
      9      27.2927      0.00000
     10      31.2359      0.00000
     11      34.3607      0.00000
     12      41.0490      0.00000

 k-point    22 :      -0.3500   -0.3500    0.0500
  band No.  band energies     occupation 
      1       2.3771      1.00000
      2       2.6800      1.00000
      3       2.6800      1.00000
      4       5.2492      1.00000
      5       5.2492      1.00000
      6      12.8553      0.00000
      7      12.8554      0.00000
      8      15.5377      0.00000
      9      27.4219      0.00000
     10      32.6642      0.00000
     11      32.6643      0.00000
     12      40.6674      0.00000

 k-point    23 :       0.1500    0.1500    0.1500
  band No.  band energies     occupation 
      1       1.7004      1.00000
      2       2.6347      1.00000
      3       2.6347      1.00000
      4       4.9940      1.00000
      5       4.9940      1.00000
      6       7.1335     -0.00000
      7      20.3327      0.00000
      8      20.3327      0.00000
      9      22.1368      0.00000
     10      36.1851      0.00000
     11      40.1711      0.00000
     12      40.1711      0.00000

 k-point    24 :       0.2500    0.1500    0.1500
  band No.  band energies     occupation 
      1       2.1059      1.00000
      2       2.4713      1.00000
      3       3.1021      1.00000
      4       5.0494      1.00000
      5       5.1020      1.00000
      6       9.1034     -0.00000
      7      16.4434      0.00000
      8      19.2758      0.00000
      9      20.3969      0.00000
     10      37.2528      0.00000
     11      41.1279      0.00000
     12      42.4463      0.00000

 k-point    25 :       0.3500    0.1500    0.1500
  band No.  band energies     occupation 
      1       2.0125      1.00000
      2       2.4210      1.00000
      3       3.5556      1.00000
      4       5.0861      1.00000
      5       5.1309      1.00000
      6      10.9124     -0.00000
      7      13.8174      0.00000
      8      18.9138      0.00000
      9      19.9129      0.00000
     10      37.2743      0.00000
     11      41.7894      0.00000
     12      42.5606      0.00000

 k-point    26 :      -0.1500    0.1500    0.1500
  band No.  band energies     occupation 
      1      -0.8057      1.00000
      2       3.6624      1.00000
      3       3.6625      1.00000
      4       4.0906      1.00000
      5       4.1061      1.00000
      6       5.2340      1.00000
      7      26.1267      0.00000
      8      27.8618      0.00000
      9      27.8619      0.00000
     10      29.6515      0.00000
     11      36.4824      0.00000
     12      36.4824      0.00000

 k-point    27 :       0.2500    0.2500    0.1500
  band No.  band energies     occupation 
      1       2.3055      1.00000
      2       2.6190      1.00000
      3       3.0001      1.00000
      4       5.1144      1.00000
      5       5.1409      1.00000
      6      11.7432      0.00000
      7      15.0752      0.00000
      8      16.3061      0.00000
      9      19.2188      0.00000
     10      39.8877      0.00000
     11      41.6941      0.00000
     12      45.2516      0.00000

 k-point    28 :      -0.2500    0.2500    0.1500
  band No.  band energies     occupation 
      1       0.4168      1.00000
      2       3.3516      1.00000
      3       3.5075      1.00000
      4       4.1331      1.00000
      5       4.7442      1.00000
      6       5.5251      1.00231
      7      22.5510      0.00000
      8      25.7115      0.00000
      9      25.8877      0.00000
     10      29.5946      0.00000
     11      35.8447      0.00000
     12      37.2055      0.00000

 k-point    29 :      -0.3500    0.3500    0.1500
  band No.  band energies     occupation 
      1       1.3311      1.00000
      2       3.0883      1.00000
      3       3.2532      1.00000
      4       4.5276      1.00000
      5       5.5999      1.00893
      6       6.4351     -0.00381
      7      18.0074      0.00000
      8      23.9197      0.00000
      9      24.6365      0.00000
     10      31.1589      0.00000
     11      34.7333      0.00000
     12      37.0824      0.00000

 k-point    30 :      -0.2500    0.3500    0.1500
  band No.  band energies     occupation 
      1       1.3956      1.00000
      2       2.8100      1.00000
      3       3.6416      1.00000
      4       4.2788      1.00000
      5       5.2726      1.00000
      6       6.4277     -0.00438
      7      20.5312      0.00000
      8      21.2408      0.00000
      9      26.7630      0.00000
     10      28.3160      0.00000
     11      35.3782      0.00000
     12      40.6583      0.00000

 k-point    31 :      -0.4500    0.4500    0.1500
  band No.  band energies     occupation 
      1       1.4381      1.00000
      2       3.0943      1.00000
      3       3.2922      1.00000
      4       4.6066      1.00000
      5       6.1978     -0.02747
      6       8.3719     -0.00000
      7      14.3041      0.00000
      8      22.8483      0.00000
      9      23.9578      0.00000
     10      33.1996      0.00000
     11      34.1619      0.00000
     12      36.0161      0.00000

 k-point    32 :      -0.3500    0.4500    0.1500
  band No.  band energies     occupation 
      1       1.8155      1.00000
      2       2.5755      1.00000
      3       3.4419      1.00000
      4       4.6280      1.00000
      5       5.7644      1.03429
      6       8.4679     -0.00000
      7      16.4623      0.00000
      8      19.6572      0.00000
      9      26.2127      0.00000
     10      29.7486      0.00000
     11      34.3249      0.00000
     12      39.1017      0.00000

 k-point    33 :      -0.4500   -0.4500    0.1500
  band No.  band energies     occupation 
      1       1.7614      1.00000
      2       2.7438      1.00000
      3       3.2534      1.00000
      4       4.7238      1.00000
      5       6.0293      0.34867
      6      10.4339     -0.00000
      7      13.7530      0.00000
      8      19.1670      0.00000
      9      25.8481      0.00000
     10      31.4810      0.00000
     11      33.0816      0.00000
     12      37.7843      0.00000

 k-point    34 :      -0.3500   -0.4500    0.1500
  band No.  band energies     occupation 
      1       2.2042      1.00000
      2       2.2537      1.00000
      3       3.1733      1.00000
      4       5.1370      1.00000
      5       5.6701      1.02241
      6      11.3464     -0.00000
      7      14.9110      0.00000
      8      16.2487      0.00000
      9      28.2292      0.00000
     10      29.2370      0.00000
     11      32.2798      0.00000
     12      37.7781      0.00000

 k-point    35 :       0.2500    0.2500    0.2500
  band No.  band energies     occupation 
      1       2.6617      1.00000
      2       2.6617      1.00000
      3       2.6617      1.00000
      4       5.1436      1.00000
      5       5.1436      1.00000
      6      14.6718      0.00000
      7      14.6719      0.00000
      8      14.6719      0.00000
      9      16.9521      0.00000
     10      45.2057      0.00000
     11      45.2058      0.00000
     12      45.2080      0.00000

 k-point    36 :      -0.2500    0.2500    0.2500
  band No.  band energies     occupation 
      1       1.2613      1.00000
      2       2.9563      1.00000
      3       4.0541      1.00000
      4       4.0542      1.00000
      5       4.8058      1.00000
      6       6.2311     -0.03528
      7      23.2069      0.00000
      8      23.2071      0.00000
      9      23.6526      0.00000
     10      26.0865      0.00000
     11      40.1694      0.00000
     12      40.1695      0.00000

 k-point    37 :      -0.3500    0.3500    0.2500
  band No.  band energies     occupation 
      1       1.7493      1.00000
      2       2.3827      1.00000
      3       4.0931      1.00000
      4       4.4437      1.00000
      5       5.4932      1.00117
      6       7.7748     -0.00000
      7      18.9681      0.00000
      8      21.2253      0.00000
      9      23.6532      0.00000
     10      26.6063      0.00000
     11      37.8942      0.00000
     12      39.0270      0.00000

 k-point    38 :      -0.4500    0.4500    0.2500
  band No.  band energies     occupation 
      1       1.7225      1.00000
      2       2.2312      1.00000
      3       4.0080      1.00000
      4       4.6169      1.00000
      5       6.1105      0.08534
      6      10.3274     -0.00000
      7      14.9640      0.00000
      8      20.0629      0.00000
      9      23.3454      0.00000
     10      28.5589      0.00000
     11      34.4581      0.00000
     12      38.3632      0.00000

 k-point    39 :      -0.3500    0.4500    0.2500
  band No.  band energies     occupation 
      1       1.8258      1.00000
      2       1.9199      1.00000
      3       4.1721      1.00000
      4       4.9911      1.00000
      5       5.8209      1.00381
      6      10.1391     -0.00000
      7      17.3175      0.00000
      8      17.8457      0.00000
      9      24.5182      0.00000
     10      26.2068      0.00000
     11      33.9566      0.00000
     12      39.2518      0.00000

 k-point    40 :      -0.4500   -0.4500    0.2500
  band No.  band energies     occupation 
      1       1.7099      1.00000
      2       1.8644      1.00000
      3       4.1155      1.00000
      4       5.2718      1.00000
      5       5.9818      0.54671
      6      12.7081      0.00000
      7      14.3525      0.00000
      8      17.1030      0.00000
      9      24.7737      0.00000
     10      27.0853      0.00000
     11      31.8165      0.00000
     12      39.0532      0.00000

 k-point    41 :      -0.3500    0.3500    0.3500
  band No.  band energies     occupation 
      1       1.6494      1.00000
      2       1.8284      1.00000
      3       4.9265      1.00000
      4       4.9266      1.00000
      5       5.5397      1.00309
      6       9.6726     -0.00000
      7      19.0613      0.00000
      8      19.0614      0.00000
      9      22.3586      0.00000
     10      24.4154      0.00000
     11      33.7283      0.00000
     12      42.5178      0.00000

 k-point    42 :      -0.4500    0.4500    0.3500
  band No.  band energies     occupation 
      1       1.4576      1.00000
      2       1.5117      1.00000
      3       5.0980      1.00000
      4       5.2968      1.00000
      5       6.0252      0.36528
      6      12.3829      0.00000
      7      16.0160      0.00000
      8      17.7712      0.00000
      9      22.6349      0.00000
     10      24.7919      0.00000
     11      30.4187      0.00000
     12      42.5681      0.00000

 k-point    43 :      -0.4500   -0.4500    0.3500
  band No.  band energies     occupation 
      1       1.3288      1.00000
      2       1.3288      1.00000
      3       5.2037      1.00000
      4       5.9175      0.79510
      5       5.9176      0.79499
      6      15.0276      0.00000
      7      15.0278      0.00000
      8      15.8738      0.00000
      9      23.5653      0.00000
     10      23.5654      0.00000
     11      28.7955      0.00000
     12      43.1406      0.00000

 k-point    44 :      -0.4500    0.4500    0.4500
  band No.  band energies     occupation 
      1       1.1496      1.00000
      2       1.1523      1.00000
      3       5.8906      0.87618
      4       5.8907      0.87611
      5       6.0022      0.46054
      6      14.6226      0.00000
      7      16.3682      0.00000
      8      16.3684      0.00000
      9      21.8369      0.00000
     10      22.7343      0.00000
     11      27.7123      0.00000
     12      45.1029      0.00000

 spin component 2

 k-point     1 :       0.0500    0.0500    0.0500
  band No.  band energies     occupation 
      1      -1.7456      1.00000
      2       5.4867      1.00101
      3       5.4867      1.00101
      4       6.0801      0.16687
      5       7.5970     -0.00000
      6       7.5970     -0.00000
      7      28.6817      0.00000
      8      28.6817      0.00000
      9      31.4326      0.00000
     10      34.0262      0.00000
     11      37.0505      0.00000
     12      37.0505      0.00000

 k-point     2 :       0.1500    0.0500    0.0500
  band No.  band energies     occupation 
      1      -0.5858      1.00000
      2       5.1165      1.00000
      3       5.2653      1.00000
      4       6.8146     -0.00000
      5       7.4142     -0.00000
      6       7.6938     -0.00000
      7      24.8365      0.00000
      8      26.9243      0.00000
      9      30.5194      0.00000
     10      31.8769      0.00000
     11      37.0719      0.00000
     12      37.1394      0.00000

 k-point     3 :       0.2500    0.0500    0.0500
  band No.  band energies     occupation 
      1       1.0096      1.00000
      2       4.7074      1.00000
      3       5.0560      1.00000
      4       7.4238     -0.00000
      5       7.8025     -0.00000
      6       7.8065     -0.00000
      7      20.5222      0.00000
      8      25.2080      0.00000
      9      27.9895      0.00000
     10      31.7297      0.00000
     11      36.1363      0.00000
     12      39.0229      0.00000

 k-point     4 :       0.3500    0.0500    0.0500
  band No.  band energies     occupation 
      1       2.1903      1.00000
      2       4.4033      1.00000
      3       5.5123      1.00177
      4       7.5408     -0.00000
      5       7.9054     -0.00000
      6       8.7968     -0.00000
      7      16.7074      0.00000
      8      23.9756      0.00000
      9      26.2675      0.00000
     10      31.5024      0.00000
     11      35.8158      0.00000
     12      41.1644      0.00000

 k-point     5 :       0.4500    0.0500    0.0500
  band No.  band energies     occupation 
      1       2.4548      1.00000
      2       4.2923      1.00000
      3       6.1660     -0.00501
      4       7.5895     -0.00000
      5       7.9467     -0.00000
      6       9.3457     -0.00000
      7      14.8854      0.00000
      8      23.5287      0.00000
      9      25.6239      0.00000
     10      31.4188      0.00000
     11      35.7998      0.00000
     12      40.9653      0.00000

 k-point     6 :      -0.0500    0.0500    0.0500
  band No.  band energies     occupation 
      1      -2.1570      1.00000
      2       5.6419      1.01622
      3       5.6419      1.01623
      4       5.7155      1.03223
      5       7.5541     -0.00000
      6       7.7242     -0.00000
      7      29.7780      0.00000
      8      30.7674      0.00000
      9      30.7674      0.00000
     10      35.0278      0.00000
     11      37.5208      0.00000
     12      37.5209      0.00000

 k-point     7 :       0.1500    0.1500    0.0500
  band No.  band energies     occupation 
      1       0.7850      1.00000
      2       4.8071      1.00000
      3       4.8153      1.00000
      4       7.4163     -0.00000
      5       7.7616     -0.00000
      6       7.8576     -0.00000
      7      22.6306      0.00000
      8      23.5185      0.00000
      9      27.1591      0.00000
     10      33.2123      0.00000
     11      37.6998      0.00000
     12      39.3389      0.00000

 k-point     8 :       0.2500    0.1500    0.0500
  band No.  band energies     occupation 
      1       2.2705      1.00000
      2       4.4357      1.00000
      3       4.7142      1.00000
      4       7.4983     -0.00000
      5       7.9091     -0.00000
      6       9.0841     -0.00000
      7      18.8079      0.00000
      8      21.7016      0.00000
      9      25.2518      0.00000
     10      33.6181      0.00000
     11      38.4353      0.00000
     12      40.0190      0.00000

 k-point     9 :       0.3500    0.1500    0.0500
  band No.  band energies     occupation 
      1       2.9011      1.00000
      2       4.2621      1.00000
      3       5.2086      1.00000
      4       7.6192     -0.00000
      5       7.9713     -0.00000
      6      10.4308     -0.00000
      7      15.5218      0.00000
      8      20.8561      0.00000
      9      24.2911      0.00000
     10      33.6002      0.00000
     11      39.2561      0.00000
     12      40.0033      0.00000

 k-point    10 :      -0.1500    0.1500    0.0500
  band No.  band energies     occupation 
      1      -1.3457      1.00000
      2       5.4111      1.00015
      3       5.5701      1.00544
      4       6.1724     -0.01098
      5       7.2699     -0.00000
      6       7.7979     -0.00000
      7      26.9140      0.00000
      8      29.3936      0.00000
      9      30.2549      0.00000
     10      34.2291      0.00000
     11      34.8758      0.00000
     12      35.7375      0.00000

 k-point    11 :       0.2500    0.2500    0.0500
  band No.  band energies     occupation 
      1       3.3251      1.00000
      2       4.2194      1.00000
      3       4.6015      1.00000
      4       7.6158     -0.00000
      5       7.9495     -0.00000
      6      10.8903     -0.00000
      7      17.2055      0.00000
      8      18.1549      0.00000
      9      24.1058      0.00000
     10      34.9946      0.00000
     11      38.0523      0.00000
     12      44.1825      0.00000

 k-point    12 :       0.3500    0.2500    0.0500
  band No.  band energies     occupation 
      1       3.5770      1.00000
      2       4.2310      1.00000
      3       4.6638      1.00000
      4       7.7285     -0.00000
      5       7.9134     -0.00000
      6      12.6399      0.00000
      7      14.9012      0.00000
      8      17.4430      0.00000
      9      23.7601      0.00000
     10      35.5749      0.00000
     11      37.8916      0.00000
     12      44.0402      0.00000

 k-point    13 :      -0.2500    0.2500    0.0500
  band No.  band energies     occupation 
      1       0.1010      1.00000
      2       5.0217      1.00000
      3       5.3244      1.00001
      4       7.0131     -0.00000
      5       7.1703     -0.00000
      6       7.8755     -0.00000
      7      22.6711      0.00000
      8      27.2761      0.00000
      9      29.1993      0.00000
     10      32.5587      0.00000
     11      34.3114      0.00000
     12      36.1394      0.00000

 k-point    14 :      -0.1500    0.2500    0.0500
  band No.  band energies     occupation 
      1      -0.2225      1.00000
      2       5.2804      1.00000
      3       5.3190      1.00001
      4       6.7820     -0.00000
      5       6.9601     -0.00000
      6       7.9509     -0.00000
[...]
  band No.  band energies     occupation 
      1       1.7166      1.00000
      2       5.0520      1.00000
      3       5.8657      0.09299
      4       5.8657      0.09296
      5       6.8015     -0.00000
      6       8.3538     -0.00000
      7      23.3582      0.00000
      8      23.3582      0.00000
      9      23.7736      0.00000
     10      25.9835      0.00000
     11      39.8019      0.00000
     12      39.8019      0.00000

 k-point    37 :      -0.3500    0.3500    0.2500
  band No.  band energies     occupation 
      1       2.7447      1.00000
      2       4.2946      1.00000
      3       5.9106      0.01089
      4       6.3354     -0.00015
      5       7.5368     -0.00000
      6       9.2322     -0.00000
      7      19.3024      0.00000
      8      21.3765      0.00000
      9      23.7831      0.00000
     10      26.5458      0.00000
     11      37.8437      0.00000
     12      38.8043      0.00000

 k-point    38 :      -0.4500    0.4500    0.2500
  band No.  band energies     occupation 
      1       3.2687      1.00000
      2       3.8793      1.00000
      3       5.8189      0.23160
      4       6.5446     -0.00000
      5       8.2235     -0.00000
      6      11.1828     -0.00000
      7      15.5589      0.00000
      8      20.1774      0.00000
      9      23.4968      0.00000
     10      28.4031      0.00000
     11      34.5476      0.00000
     12      38.1508      0.00000

 k-point    39 :      -0.3500    0.4500    0.2500
  band No.  band energies     occupation 
      1       3.2535      1.00000
      2       3.7465      1.00000
      3       5.9739     -0.03322
      4       6.9178     -0.00000
      5       7.8956     -0.00000
      6      11.0447     -0.00000
      7      17.7072      0.00000
      8      18.0815      0.00000
      9      24.6270      0.00000
     10      26.1819      0.00000
     11      34.0280      0.00000
     12      39.0302      0.00000

 k-point    40 :      -0.4500   -0.4500    0.2500
  band No.  band energies     occupation 
      1       3.4262      1.00000
      2       3.5264      1.00000
      3       5.8794      0.06270
      4       7.2415     -0.00000
      5       8.0680     -0.00000
      6      13.2912      0.00000
      7      14.9076      0.00000
      8      17.3620      0.00000
      9      24.8557      0.00000
     10      27.0039      0.00000
     11      32.0022      0.00000
     12      38.8346      0.00000

 k-point    41 :      -0.3500    0.3500    0.3500
  band No.  band energies     occupation 
      1       3.0564      1.00000
      2       3.7104      1.00000
      3       6.8019     -0.00000
      4       6.8019     -0.00000
      5       7.6023     -0.00000
      6      10.5658     -0.00000
      7      19.1870      0.00000
      8      19.1870      0.00000
      9      22.7466      0.00000
     10      24.5120      0.00000
     11      33.8076      0.00000
     12      42.2283      0.00000

 k-point    42 :      -0.4500    0.4500    0.3500
  band No.  band energies     occupation 
      1       3.1316      1.00000
      2       3.2785      1.00000
      3       7.0237     -0.00000
      4       7.2189     -0.00000
      5       8.1300     -0.00000
      6      12.8759      0.00000
      7      16.2794      0.00000
      8      17.8315      0.00000
      9      22.9894      0.00000
     10      24.9022      0.00000
     11      30.6391      0.00000
     12      42.2538      0.00000

 k-point    43 :      -0.4500   -0.4500    0.3500
  band No.  band energies     occupation 
      1       3.0711      1.00000
      2       3.0711      1.00000
      3       7.1232     -0.00000
      4       7.9854     -0.00000
      5       7.9854     -0.00000
      6      15.2651      0.00000
      7      15.2651      0.00000
      8      16.0074      0.00000
      9      23.8103      0.00000
     10      23.8103      0.00000
     11      29.0986      0.00000
     12      42.8055      0.00000

 k-point    44 :      -0.4500    0.4500    0.4500
  band No.  band energies     occupation 
      1       2.8849      1.00000
      2       2.9198      1.00000
      3       7.9517     -0.00000
      4       7.9518     -0.00000
      5       8.1092     -0.00000
      6      14.7438      0.00000
      7      16.3194      0.00000
      8      16.3194      0.00000
      9      22.3621      0.00000
     10      23.1034      0.00000
     11      28.0520      0.00000
     12      44.6857      0.00000


--------------------------------------------------------------------------------------------------------


 soft charge-density along one line, spin component           1
         0         1         2         3         4         5         6         7         8         9
 total charge-density along one line
 
 soft charge-density along one line, spin component           2
         0         1         2         3         4         5         6         7         8         9
 total charge-density along one line
 
 pseudopotential strength for first ion, spin component:           1
 -5.681   0.000  -0.000   0.000  -0.000   0.000  -0.000   0.000  -0.000   0.000  -6.209   0.000  -0.000   0.000  -0.000   0.000
 -0.000   0.000  -5.681   0.000   0.000   0.000  -0.000   0.000  -0.000   0.000  -0.000   0.000  -6.209   0.000   0.000   0.000
 -0.000   0.000   0.000   0.000  -5.828   0.000   0.000   0.000  -0.000   0.000  -0.000   0.000   0.000   0.000  -6.352   0.000
 -0.000   0.000  -0.000   0.000   0.000   0.000  -5.681   0.000   0.000   0.000  -0.000   0.000  -0.000   0.000   0.000   0.000
 -0.000   0.000  -0.000   0.000  -0.000   0.000   0.000   0.000  -5.828   0.000  -0.000   0.000  -0.000   0.000  -0.000   0.000
 -6.209   0.000  -0.000   0.000  -0.000   0.000  -0.000   0.000  -0.000   0.000  -6.695   0.000  -0.000   0.000  -0.000   0.000
 -0.000   0.000  -6.209   0.000   0.000   0.000  -0.000   0.000  -0.000   0.000  -0.000   0.000  -6.695   0.000   0.000   0.000
 -0.000   0.000   0.000   0.000  -6.352   0.000   0.000   0.000  -0.000   0.000  -0.000   0.000   0.000   0.000  -6.835   0.000
 -0.000   0.000  -0.000   0.000   0.000   0.000  -6.209   0.000   0.000   0.000  -0.000   0.000  -0.000   0.000   0.000   0.000
 -0.000   0.000  -0.000   0.000  -0.000   0.000   0.000   0.000  -6.352   0.000  -0.000   0.000  -0.000   0.000  -0.000   0.000
 -0.000   0.000  -0.000   0.000  -0.000   0.000  -0.000   0.000  -0.000   0.000  -0.000   0.000  -0.000   0.000  -0.000   0.000
 -0.000   0.000  -0.000   0.000  -0.000   0.000  -0.000   0.000  -0.000   0.000  -0.000   0.000  -0.000   0.000  -0.000   0.000
 -0.000   0.000   0.000   0.000  -0.000   0.000  -0.000   0.000  -0.000   0.000  -0.000   0.000   0.000   0.000  -0.000   0.000
 -0.000   0.000   0.000   0.000  -0.000   0.000  -0.000   0.000  -0.000   0.000  -0.000   0.000   0.000   0.000  -0.000   0.000
 -0.000   0.000  -0.000   0.000   0.000   0.000  -0.000   0.000  -0.000   0.000  -0.000   0.000  -0.000   0.000   0.000   0.000
 -0.000   0.000   0.000   0.000  -0.000   0.000  -0.000   0.000  -0.000   0.000  -0.000   0.000   0.000   0.000  -0.000   0.000
 -0.000   0.000   0.000   0.000  -0.000   0.000  -0.000   0.000  -0.000   0.000  -0.000   0.000   0.000   0.000  -0.000   0.000
 -0.000   0.000  -0.000   0.000   0.000   0.000  -0.000   0.000  -0.000   0.000  -0.000   0.000  -0.000   0.000   0.000   0.000
 pseudopotential strength for first ion, spin component:           2
 -4.099   0.000  -0.000   0.000  -0.000   0.000  -0.000   0.000  -0.000   0.000  -4.678   0.000  -0.000   0.000  -0.000   0.000
 -0.000   0.000  -4.099   0.000   0.000   0.000  -0.000   0.000  -0.000   0.000  -0.000   0.000  -4.678   0.000   0.000   0.000
 -0.000   0.000   0.000   0.000  -3.907   0.000   0.000   0.000  -0.000   0.000  -0.000   0.000   0.000   0.000  -4.489   0.000
 -0.000   0.000  -0.000   0.000   0.000   0.000  -4.099   0.000   0.000   0.000  -0.000   0.000  -0.000   0.000   0.000   0.000
 -0.000   0.000  -0.000   0.000  -0.000   0.000   0.000   0.000  -3.907   0.000  -0.000   0.000  -0.000   0.000  -0.000   0.000
 -4.678   0.000  -0.000   0.000  -0.000   0.000  -0.000   0.000  -0.000   0.000  -5.212   0.000  -0.000   0.000  -0.000   0.000
 -0.000   0.000  -4.678   0.000   0.000   0.000  -0.000   0.000  -0.000   0.000  -0.000   0.000  -5.212   0.000   0.000   0.000
 -0.000   0.000   0.000   0.000  -4.489   0.000   0.000   0.000  -0.000   0.000  -0.000   0.000   0.000   0.000  -5.028   0.000
 -0.000   0.000  -0.000   0.000   0.000   0.000  -4.678   0.000   0.000   0.000  -0.000   0.000  -0.000   0.000   0.000   0.000
 -0.000   0.000  -0.000   0.000  -0.000   0.000   0.000   0.000  -4.489   0.000  -0.000   0.000  -0.000   0.000  -0.000   0.000
  0.000   0.000   0.000   0.000   0.000   0.000   0.000   0.000   0.000   0.000   0.000   0.000   0.000   0.000   0.000   0.000
  0.000   0.000   0.000   0.000   0.000   0.000   0.000   0.000   0.000   0.000   0.000   0.000   0.000   0.000   0.000   0.000
 -0.000   0.000  -0.000   0.000  -0.000   0.000  -0.000   0.000  -0.000   0.000  -0.000   0.000  -0.000   0.000  -0.000   0.000
 -0.000   0.000   0.000   0.000  -0.000   0.000  -0.000   0.000  -0.000   0.000  -0.000   0.000   0.000   0.000  -0.000   0.000
 -0.000   0.000  -0.000   0.000   0.000   0.000  -0.000   0.000  -0.000   0.000  -0.000   0.000  -0.000   0.000   0.000   0.000
 -0.000   0.000  -0.000   0.000  -0.000   0.000  -0.000   0.000  -0.000   0.000  -0.000   0.000  -0.000   0.000  -0.000   0.000
 -0.000   0.000   0.000   0.000  -0.000   0.000  -0.000   0.000  -0.000   0.000  -0.000   0.000   0.000   0.000  -0.000   0.000
 -0.000   0.000  -0.000   0.000   0.000   0.000  -0.000   0.000  -0.000   0.000  -0.000   0.000  -0.000   0.000   0.000   0.000
 total augmentation occupancy for first ion, spin component:           1
  2.474   0.000  -0.000   0.000   0.000  -1.406  -0.000  -0.000   0.000  -0.000   0.000  -0.000   0.000   0.000   0.000   0.000
 -0.000   2.474  -0.000   0.000   0.000  -0.000  -1.406   0.000  -0.000  -0.000   0.000   0.000   0.000   0.000   0.000   0.000
 -0.000   0.000   3.570   0.000   0.000  -0.000   0.000  -2.298  -0.000   0.000  -0.000   0.000   0.000   0.000   0.000   0.000
  0.000  -0.000   0.000   2.474   0.000  -0.000  -0.000   0.000  -1.406   0.000   0.000  -0.000   0.000   0.000   0.000   0.000
  0.000   0.000   0.000   0.000   3.570   0.000  -0.000   0.000   0.000  -2.298   0.000   0.000   0.000   0.000   0.000   0.000
 -1.406   0.000   0.000  -0.000  -0.000   1.734   0.000   0.000   0.000   0.000   0.000  -0.000   0.000   0.000   0.000   0.000
  0.000  -1.406  -0.000  -0.000  -0.000   0.000   1.734  -0.000   0.000   0.000   0.000   0.000   0.000   0.000   0.000   0.000
  0.000   0.000  -2.298   0.000   0.000   0.000   0.000   2.283   0.000   0.000   0.000  -0.000   0.000   0.000   0.000   0.000
 -0.000   0.000  -0.000  -1.406   0.000   0.000   0.000  -0.000   1.734   0.000  -0.000  -0.000   0.000   0.000   0.000   0.000
  0.000  -0.000   0.000   0.000  -2.298   0.000  -0.000   0.000   0.000   2.283   0.000   0.000   0.000   0.000   0.000   0.000
  0.000   0.000  -0.000   0.000   0.000   0.000   0.000   0.000  -0.000   0.000   2.414  -0.284   0.000   0.000   0.000   0.000
  0.000   0.000   0.000   0.000   0.000   0.000  -0.000  -0.000  -0.000   0.000  -0.284   0.039   0.000   0.000   0.000   0.000
  0.000   0.000   0.000   0.000   0.000   0.000   0.000   0.000   0.000   0.000   0.000   0.000   0.288   0.000   0.000  -0.025
  0.000   0.000   0.000   0.000   0.000   0.000   0.000   0.000   0.000   0.000   0.000   0.000   0.000   0.288   0.000  -0.000
  0.000   0.000   0.000   0.000   0.000   0.000   0.000   0.000   0.000   0.000   0.000   0.000   0.000   0.000   0.288  -0.000
  0.000   0.000   0.000   0.000   0.000   0.000   0.000   0.000   0.000   0.000   0.000   0.000  -0.025  -0.000  -0.000   0.002
  0.000   0.000   0.000   0.000   0.000   0.000   0.000   0.000   0.000   0.000   0.000   0.000  -0.000  -0.025   0.000  -0.000
  0.000   0.000   0.000   0.000   0.000   0.000   0.000   0.000   0.000   0.000   0.000   0.000   0.000   0.000  -0.025   0.000
 total augmentation occupancy for first ion, spin component:           2
  2.117   0.000   0.000   0.000  -0.000  -0.901  -0.000   0.000   0.000  -0.000  -0.000   0.000   0.000   0.000   0.000   0.000
 -0.000   2.117  -0.000   0.000  -0.000   0.000  -0.901   0.000   0.000   0.000   0.000  -0.000   0.000   0.000   0.000   0.000
  0.000  -0.000   3.030   0.000   0.000   0.000   0.000  -1.332   0.000   0.000   0.000  -0.000   0.000   0.000   0.000   0.000
  0.000   0.000   0.000   2.117  -0.000  -0.000  -0.000   0.000  -0.901  -0.000   0.000   0.000   0.000   0.000   0.000   0.000
  0.000  -0.000   0.000  -0.000   3.030  -0.000   0.000   0.000   0.000  -1.332   0.000  -0.000   0.000   0.000   0.000   0.000
 -0.901   0.000  -0.000   0.000   0.000   0.136   0.000   0.000   0.000   0.000   0.000  -0.000   0.000   0.000   0.000   0.000
 -0.000  -0.901   0.000  -0.000  -0.000   0.000   0.136   0.000  -0.000   0.000  -0.000   0.000   0.000   0.000   0.000   0.000
  0.000   0.000  -1.332   0.000   0.000   0.000   0.000   0.346  -0.000   0.000  -0.000   0.000   0.000   0.000   0.000   0.000
  0.000   0.000  -0.000  -0.901  -0.000   0.000  -0.000   0.000   0.136  -0.000   0.000   0.000   0.000   0.000   0.000   0.000
  0.000  -0.000   0.000  -0.000  -1.332  -0.000   0.000   0.000  -0.000   0.346   0.000   0.000   0.000   0.000   0.000   0.000
 -0.000   0.000   0.000   0.000   0.000   0.000   0.000  -0.000  -0.000   0.000  -0.344   0.104   0.000   0.000   0.000   0.000
  0.000  -0.000  -0.000   0.000  -0.000  -0.000   0.000   0.000  -0.000   0.000   0.104  -0.018   0.000   0.000   0.000   0.000
  0.000   0.000   0.000   0.000   0.000   0.000   0.000   0.000   0.000   0.000   0.000   0.000  -0.035   0.000   0.000   0.006
  0.000   0.000   0.000   0.000   0.000   0.000   0.000   0.000   0.000   0.000   0.000   0.000   0.000  -0.035   0.000   0.000
  0.000   0.000   0.000   0.000   0.000   0.000   0.000   0.000   0.000   0.000   0.000   0.000   0.000   0.000  -0.035   0.000
  0.000   0.000   0.000   0.000   0.000   0.000   0.000   0.000   0.000   0.000   0.000   0.000   0.006  -0.000   0.000  -0.001
  0.000   0.000   0.000   0.000   0.000   0.000   0.000   0.000   0.000   0.000   0.000   0.000  -0.000   0.006   0.000   0.000
  0.000   0.000   0.000   0.000   0.000   0.000   0.000   0.000   0.000   0.000   0.000   0.000  -0.000   0.000   0.006   0.000


------------------------ aborting loop because EDIFF is reached ----------------------------------------


    CHARGE:  cpu time    0.0080: real time    0.0080
    FORLOC:  cpu time    0.0001: real time    0.0001
    FORNL :  cpu time    0.0096: real time    0.0096
    STRESS:  cpu time    0.0339: real time    0.0340
    FORCOR:  cpu time    0.0045: real time    0.0046
    FORHAR:  cpu time    0.0007: real time    0.0007
    MIXING:  cpu time    0.0003: real time    0.0003
    OFIELD:  cpu time    0.0000: real time    0.0000

  FORCE on cell =-STRESS in cart. coord.  units (eV):
  Direction    XX          YY          ZZ          XY          YZ          ZX
  --------------------------------------------------------------------------------------
  Alpha Z    60.20081    60.20081    60.20081
  Ewald    -196.66659  -196.66659  -196.66659     0.00000     0.00000     0.00000
  Hartree    32.03170    32.03170    32.03170    -0.00000    -0.00000    -0.00000
  E(xc)     -39.79112   -39.79112   -39.79112     0.00001     0.00001     0.00001
  Local      58.76354    58.76354    58.76354    -0.00007    -0.00007    -0.00007
  n-local   -26.93202   -25.93777   -25.00419     1.16873    -0.71138    -1.39377
  augment    38.77900    38.77900    38.77900     0.00006     0.00006     0.00006
  Kinetic    73.16341    72.49838    72.21967    -2.43362     1.98787     1.43738
  Fock        0.00000     0.00000     0.00000     0.00000     0.00000     0.00000
  -------------------------------------------------------------------------------------
  Total      -0.01350    -0.01350    -0.01350    -0.00000     0.00000    -0.00000
  in kB      -1.88444    -1.88444    -1.88444    -0.00000     0.00000    -0.00000
  external pressure =       -1.88 kB  Pullay stress =        0.00 kB


 VOLUME and BASIS-vectors are now :
 -----------------------------------------------------------------------------
  energy-cutoff  :      334.85
  volume of cell :       11.48
      direct lattice vectors                 reciprocal lattice vectors
    -1.421130971  1.421130971  1.421130971     0.000000000  0.351832456  0.351832456
     1.421130971 -1.421130971  1.421130971     0.351832456  0.000000000  0.351832456
     1.421130971  1.421130971 -1.421130971     0.351832456  0.351832456  0.000000000

  length of vectors
     2.461471046  2.461471046  2.461471046     0.497566231  0.497566231  0.497566231


 FORCES acting on ions
    electron-ion (+dipol)            ewald-force                    non-local-force                 convergence-correction
 -----------------------------------------------------------------------------------------------
   -.191E-14 -.566E-15 0.736E-15   0.832E-15 0.642E-15 -.140E-16   0.207E-24 0.207E-24 -.207E-24   0.157E-14 0.881E-14 0.109E-13
 -----------------------------------------------------------------------------------------------
   -.191E-14 -.566E-15 0.736E-15   0.832E-15 0.642E-15 -.140E-16   0.207E-24 0.207E-24 -.207E-24   0.157E-14 0.881E-14 0.109E-13
 
 
 POSITION                                       TOTAL-FORCE (eV/Angst)
 -----------------------------------------------------------------------------------
      0.00000     -0.00000      0.00000         0.000000      0.000000      0.000000
 -----------------------------------------------------------------------------------
    total drift:                                0.000000      0.000000      0.000000


--------------------------------------------------------------------------------------------------------



  FREE ENERGIE OF THE ION-ELECTRON SYSTEM (eV)
  ---------------------------------------------------
  free  energy   TOTEN  =        -8.24476692 eV

  energy  without entropy=       -8.24581756  energy(sigma->0) =       -8.24511713
 
 d Force = 0.0000000E+00[ 0.000E+00, 0.000E+00]  d Energy = 0.1325625E-02-0.133E-02
 d Force = 0.0000000E+00[ 0.000E+00, 0.000E+00]  d Ewald  = 0.2594588E+01-0.259E+01


--------------------------------------------------------------------------------------------------------


    POTLOK:  cpu time    0.0102: real time    0.0103


--------------------------------------------------------------------------------------------------------




--------------------------------------------------------------------------------------------------------


  
 reached required accuracy - stopping structural energy minimisation
 writing wavefunctions
     LOOP+:  cpu time    1.3131: real time    1.3393
    4ORBIT:  cpu time    0.0000: real time    0.0000

 total amount of memory used by VASP MPI-rank0    32825. kBytes
=======================================================================

   base      :      30000. kBytes
   nonl-proj :       1041. kBytes
   fftplans  :        272. kBytes
   grid      :        704. kBytes
   one-center:         31. kBytes
   wavefun   :        777. kBytes
 
  
  
 General timing and accounting informations for this job:
 ========================================================
  
                  Total CPU time used (sec):        5.244
                            User time (sec):        4.656
                          System time (sec):        0.587
                         Elapsed time (sec):        5.390
  
                   Maximum memory used (kb):       57052.
                   Average memory used (kb):           0.
  
                          Minor page faults:        34522
                          Major page faults:            0
                 Voluntary context switches:         3781
