FCC Au                                  
   4.15000000000000     
     0.000000    0.500000    0.500000
     0.500000    0.000000    0.500000
     0.500000    0.500000    0.000000
   Au
     1
Direct
  0.000000  0.000000  0.000000
 
   24   24   24
  86.647      83.243      74.486      63.423      52.264      41.472      30.922      21.236      13.652      8.8463    
  6.2829      4.9519      4.5351      4.9519      6.2829      8.8463      13.652      21.236      30.922      41.472    
  52.264      63.423      74.486      83.243      83.243      77.193      67.432      56.610      45.935      35.424    
  25.328      16.725      10.684      7.2387      5.4183      4.5850      4.5849      5.4182      7.2385      10.684    
  16.726      25.332      35.429      45.938      56.605      67.419      77.179      83.236      74.486      67.432    
  58.183      48.330      38.327      28.393      19.389      12.502      8.2260      5.9253      4.7173      4.3418    
  4.7173      5.9252      8.2256      12.502      19.391      28.397      38.333      48.331      58.175      67.417    
  74.474      77.179      63.423      56.610      48.330      39.330      30.022      21.185      13.967      9.1234    
  6.3966      4.8895      4.2096      4.2096      4.8897      6.3966      9.1228      13.966      21.185      30.024    
  39.333      48.332      56.608      63.419      67.417      67.419      52.264      45.935      38.327      30.022    
  21.817      14.784      9.7594      6.7615      5.0518      4.1529      3.8777      4.1530      5.0522      6.7621    
  9.7594      14.783      21.815      30.020      38.327      45.938      52.267      56.608      58.175      56.605    
  41.472      35.424      28.393      21.185      14.784      9.9899      6.9634      5.1643      4.1348      3.6809    
  3.6808      4.1348      5.1649      6.9650      9.9917      14.785      21.183      28.389      35.420      41.470    
  45.938      48.332      48.331      45.938      30.922      25.328      19.389      13.967      9.7594      6.9634    
  5.2040      4.1307      3.5794      3.4121      3.5791      4.1301      5.2040      6.9652      9.7631      13.971    
  19.391      25.325      30.914      35.420      38.327      39.333      38.333      35.429      21.236      16.725    
  12.502      9.1234      6.7615      5.1643      4.1307      3.5482      3.2926      3.2926      3.5477      4.1292    
  5.1624      6.7614      9.1269      12.508      16.730      21.236      25.325      28.389      30.020      30.024    
  28.397      25.332      13.652      10.684      8.2260      6.3966      5.0518      4.1348      3.5794      3.2926    
  3.2054      3.2931      3.5794      4.1330      5.0481      6.3932      8.2260      10.689      13.658      16.730    
  19.391      21.183      21.815      21.185      19.391      16.726      8.8463      7.2387      5.9253      4.8895    
  4.1529      3.6809      3.4121      3.2926      3.2931      3.4136      3.6827      4.1530      4.8862      5.9196    
  7.2341      8.8464      10.689      12.508      13.971      14.785      14.783      13.966      12.502      10.684    
  6.2829      5.4183      4.7173      4.2096      3.8777      3.6808      3.5791      3.5477      3.5794      3.6827    
  3.8814      4.2130      4.7173      5.4138      6.2763      7.2341      8.2260      9.1269      9.7631      9.9917    
  9.7594      9.1228      8.2256      7.2385      4.9519      4.5850      4.3418      4.2096      4.1530      4.1348    
  4.1301      4.1292      4.1330      4.1530      4.2130      4.3474      4.5895      4.9519      5.4138      5.9196    
  6.3932      6.7614      6.9652      6.9650      6.7621      6.3966      5.9252      5.4182      4.5351      4.5849    
  4.7173      4.8897      5.0522      5.1649      5.2040      5.1624      5.0481      4.8862      4.7173      4.5895    
  4.5418      4.5895      4.7173      4.8862      5.0481      5.1624      5.2040      5.1649      5.0522      4.8897    
  4.7173      4.5849      4.9519      5.4182      5.9252      6.3966      6.7621      6.9650      6.9652      6.7614    
  6.3932      5.9196      5.4138      4.9519      4.5895      4.3474      4.2130      4.1530      4.1330      4.1292    
  4.1301      4.1348      4.1530      4.2096      4.3418      4.5850      6.2829      7.2385      8.2256      9.1228    
  9.7594      9.9917      9.7631      9.1269      8.2260      7.2341      6.2763      5.4138      4.7173      4.2130    
  3.8814      3.6827      3.5794      3.5477      3.5791      3.6808      3.8777      4.2096      4.7173      5.4183    
  8.8463      10.684      12.502      13.966      14.783      14.785      13.971      12.508      10.689      8.8464    
  7.2341      5.9196      4.8862      4.1530      3.6827      3.4136      3.2931      3.2926      3.4121      3.6809    
  4.1529      4.8895      5.9253      7.2387      13.652      16.726      19.391      21.185      21.815      21.183    
  19.391      16.730      13.658      10.689      8.2260      6.3932      5.0481      4.1330      3.5794      3.2931    
  3.2054      3.2926      3.5794      4.1348      5.0518      6.3966      8.2260      10.684      21.236      25.332    
  28.397      30.024      30.020      28.389      25.325      21.236      16.730      12.508      9.1269      6.7614    
  5.1624      4.1292      3.5477      3.2926      3.2926      3.5482      4.1307      5.1643      6.7615      9.1234    
  12.502      16.725      30.922      35.429      38.333      39.333      38.327      35.420      30.914      25.325    
  19.391      13.971      9.7631      6.9652      5.2040      4.1301      3.5791      3.4121      3.5794      4.1307    
  5.2040      6.9634      9.7594      13.967      19.389      25.328      41.472      45.938      48.331      48.332    
  45.938      41.470      35.420      28.389      21.183      14.785      9.9917      6.9650      5.1649      4.1348    
  3.6808      3.6809      4.1348      5.1643      6.9634      9.9899      14.784      21.185      28.393      35.424    
  52.264      56.605      58.175      56.608      52.267      45.938      38.327      30.020      21.815      14.783    
  9.7594      6.7621      5.0522      4.1530      3.8777      4.1529      5.0518      6.7615      9.7594      14.784    
  21.817      30.022      38.327      45.935      63.423      67.419      67.417      63.419      56.608      48.332    
  39.333      30.024      21.185      13.966      9.1228      6.3966      4.8897      4.2096      4.2096      4.8895    
  6.3966      9.1234      13.967      21.185      30.022      39.330      48.330      56.610      74.486      77.179    
  74.474      67.417      58.175      48.331      38.333      28.397      19.391      12.502      8.2256      5.9252    
  4.7173      4.3418      4.7173      5.9253      8.2260      12.502      19.389      28.393      38.327      48.330    
  58.183      67.432      83.243      83.236      77.179      67.419      56.605      45.938      35.429      25.332    
  16.726      10.684      7.2385      5.4182      4.5849      4.5850      5.4183      7.2387      10.684      16.725    
  25.328      35.424      45.935      56.610      67.432      77.193      83.243      77.193      67.432      56.610    
  45.935      35.424      25.328      16.725      10.684      7.2387      5.4183      4.5850      4.5849      5.4182    
  7.2385      10.684      16.726      25.332      35.429      45.938      56.605      67.419      77.179      83.236    
  77.193      69.591      59.761      49.498      39.263      29.157      19.958      12.863      8.4253      6.0447    
  4.7981      4.4095      4.7981      6.0446      8.4248      12.863      19.960      29.164      39.270      49.499    
  59.748      69.569      77.176      80.111      67.432      59.761      50.749      41.275      31.628      22.426    
  14.798      9.5988      6.6633      5.0624      4.3359      4.3359      5.0625      6.6629      9.5977      14.797    
  22.428      31.634      41.280      50.748      59.750      67.418      72.019      72.026      56.610      49.498    
  41.275      32.478      23.752      16.128      10.556      7.1973      5.3232      4.3333      4.0289      4.3334    
  5.3234      7.1971      10.555      16.126      23.751      32.480      41.279      49.502      56.612      61.676    
  63.546      61.676      45.935      39.263      31.628      23.752      16.600      11.096      7.5684      5.5278    
  4.3618      3.8447      3.8447      4.3620      5.5285      7.5691      11.096      16.598      23.749      31.626    
  39.265      45.941      51.022      53.822      53.819      51.016      35.424      29.157      22.426      16.128    
  11.096      7.7023      5.6394      4.3897      3.7449      3.5489      3.7447      4.3897      5.6402      7.7041    
  11.098      16.128      22.423      29.153      35.421      40.495      43.810      44.966      43.809      40.495    
  25.328      19.958      14.798      10.556      7.5684      5.6394      4.4005      3.7014      3.3948      3.3946    
  3.7008      4.3996      5.6393      7.5704      10.560      14.802      19.959      25.325      30.116      33.680    
  35.574      35.576      33.686      30.122      16.725      12.863      9.5988      7.1973      5.5278      4.3897    
  3.7014      3.3475      3.2399      3.3474      3.7005      4.3876      5.5256      7.1970      9.6022      12.869    
  16.730      20.633      23.948      26.156      26.930      26.160      23.952      20.633      10.684      8.4253    
  6.6633      5.3232      4.3618      3.7449      3.3948      3.2399      3.2403      3.3956      3.7449      4.3596    
  5.3189      6.6593      8.4250      10.689      13.269      15.776      17.760      18.853      18.853      17.758    
  15.771      13.263      7.2387      6.0447      5.0624      4.3333      3.8447      3.5489      3.3946      3.3474    
  3.3956      3.5510      3.8470      4.3334      5.0587      6.0386      7.2340      8.6298      10.128      11.494    
  12.454      12.799      12.450      11.488      10.123      8.6299      5.4183      4.7981      4.3359      4.0289    
  3.8447      3.7447      3.7008      3.7005      3.7449      3.8470      4.0331      4.3396      4.7980      5.4138    
  6.1488      6.9256      7.6691      8.2737      8.6153      8.6137      8.2708      7.6687      6.9296      6.1552    
  4.5850      4.4095      4.3359      4.3334      4.3620      4.3897      4.3996      4.3876      4.3596      4.3334    
  4.3396      4.4155      4.5894      4.8650      5.2138      5.5815      5.9034      6.1219      6.1991      6.1229    
  5.9066      5.5865      5.2179      4.8650      4.5849      4.7981      5.0625      5.3234      5.5285      5.6402    
  5.6393      5.5256      5.3189      5.0587      4.7980      4.5894      4.4684      4.4419      4.4882      4.5694    
  4.6466      4.6924      4.6937      4.6497      4.5723      4.4883      4.4377      4.4621      5.4182      6.0446    
  6.6629      7.1971      7.5691      7.7041      7.5704      7.1970      6.6593      6.0386      5.4138      4.8650    
  4.4419      4.1539      3.9793      3.8840      3.8385      3.8256      3.8394      3.8839      3.9766      4.1490    
  4.4378      4.8650      7.2385      8.4248      9.5977      10.555      11.096      11.098      10.560      9.6022    
  8.4250      7.2340      6.1488      5.2138      4.4882      3.9793      3.6536      3.4663      3.3818      3.3815    
  3.4649      3.6508      3.9765      4.4882      5.2180      6.1552      10.684      12.863      14.797      16.126    
  16.598      16.128      14.802      12.869      10.689      8.6298      6.9256      5.5815      4.5694      3.8840    
  3.4663      3.2477      3.1801      3.2468      3.4650      3.8840      4.5721      5.5865      6.9297      8.6299    
  16.726      19.960      22.428      23.751      23.749      22.423      19.959      16.730      13.269      10.128    
  7.6691      5.9034      4.6466      3.8385      3.3818      3.1801      3.1800      3.3818      3.8397      4.6494    
  5.9063      7.6690      10.124      13.263      25.332      29.164      31.634      32.480      31.626      29.153    
  25.325      20.633      15.776      11.494      8.2737      6.1219      4.6924      3.8256      3.3815      3.2468    
  3.3818      3.8265      4.6937      6.1219      8.2709      11.489      15.771      20.633      35.429      39.270    
  41.280      41.279      39.265      35.421      30.116      23.948      17.760      12.454      8.6153      6.1991    
  4.6937      3.8394      3.4649      3.4650      3.8397      4.6937      6.1978      8.6124      12.451      17.759    
  23.951      30.122      45.938      49.499      50.748      49.502      45.941      40.495      33.680      26.156    
  18.853      12.799      8.6137      6.1229      4.6497      3.8839      3.6508      3.8840      4.6494      6.1219    
  8.6124      12.799      18.855      26.160      33.683      40.495      56.605      59.748      59.750      56.612    
  51.022      43.810      35.574      26.930      18.853      12.450      8.2708      5.9066      4.5723      3.9766    
  3.9765      4.5721      5.9063      8.2709      12.451      18.855      26.932      35.575      43.807      51.016    
  67.419      69.569      67.418      61.676      53.822      44.966      35.576      26.160      17.758      11.488    
  7.6687      5.5865      4.4883      4.1490      4.4882      5.5865      7.6690      11.489      17.759      26.160    
  35.575      44.963      53.820      61.676      77.179      77.176      72.019      63.546      53.819      43.809    
  33.686      23.952      15.771      10.123      6.9296      5.2179      4.4377      4.4378      5.2180      6.9297    
  10.124      15.771      23.951      33.683      43.807      53.820      63.551      72.026      83.236      80.111    
  72.026      61.676      51.016      40.495      30.122      20.633      13.263      8.6299      6.1552      4.8650    
  4.4621      4.8650      6.1552      8.6299      13.263      20.633      30.122      40.495      51.016      61.676    
  72.026      80.111      74.486      67.432      58.183      48.330      38.327      28.393      19.389      12.502    
  8.2260      5.9253      4.7173      4.3418      4.7173      5.9252      8.2256      12.502      19.391      28.397    
  38.333      48.331      58.175      67.417      74.474      77.179      67.432      59.761      50.749      41.275    
  31.628      22.426      14.798      9.5988      6.6633      5.0624      4.3359      4.3359      5.0625      6.6629    
  9.5977      14.797      22.428      31.634      41.280      50.748      59.750      67.418      72.019      72.026    
  58.183      50.749      42.284      33.316      24.420      16.601      10.841      7.3528      5.4192      4.3970    
  4.0820      4.3970      5.4192      7.3522      10.839      16.598      24.420      33.319      42.290      50.753    
  58.183      63.550      65.546      63.551      48.330      41.275      33.316      25.112      17.587      11.711    
  7.9058      5.7265      4.4859      3.9336      3.9336      4.4860      5.7269      7.9055      11.709      17.583    
  25.108      33.316      41.282      48.342      53.831      56.908      56.904      53.820      38.327      31.628    
  24.420      17.587      12.024      8.2174      5.9332      4.5649      3.8556      3.6397      3.8556      4.5652    
  5.9341      8.2181      12.023      17.583      24.415      31.626      38.333      43.817      47.458      48.738    
  47.449      43.807      28.393      22.426      16.601      11.711      8.2174      6.0059      4.6097      3.8191    
  3.4723      3.4722      3.8189      4.6098      6.0069      8.2194      11.713      16.599      22.422      28.390    
  33.683      37.626      39.730      39.729      37.624      33.683      19.389      14.798      10.841      7.9058    
  5.9332      4.6097      3.8085      3.3973      3.2724      3.3970      3.8076      4.6087      5.9332      7.9080    
  10.845      14.801      19.389      23.948      27.777      30.312      31.198      30.315      27.782      23.951    
  12.502      9.5988      7.3528      5.7265      4.5649      3.8191      3.3973      3.2111      3.2113      3.3973    
  3.8180      4.5625      5.7241      7.3525      9.6018      12.507      15.775      18.899      21.339      22.673    
  22.674      21.341      18.899      15.771      8.2260      6.6633      5.4192      4.4859      3.8556      3.4723    
  3.2724      3.2113      3.2733      3.4734      3.8556      4.4834      5.4146      6.6593      8.2256      10.127    
  12.173      14.021      15.309      15.769      15.306      14.016      12.168      10.124      5.9253      5.0624    
  4.3970      3.9336      3.6397      3.4722      3.3970      3.3973      3.4734      3.6422      3.9360      4.3970    
  5.0588      5.9196      6.9254      8.0249      9.1191      10.019      10.529      10.527      10.014      9.1152    
  8.0249      6.9297      4.7173      4.3359      4.0820      3.9336      3.8556      3.8189      3.8076      3.8180    
  3.8556      3.9360      4.0865      4.3396      4.7173      5.2138      5.7866      6.3625      6.8610      7.2073    
  7.3315      7.2060      6.8610      6.3658      5.7921      5.2180      4.3418      4.3359      4.3970      4.4860    
  4.5652      4.6098      4.6087      4.5625      4.4834      4.3970      4.3396      4.3474      4.4418      4.6184    
  4.8462      5.0779      5.2643      5.3677      5.3685      5.2668      5.0818      4.8495      4.6184      4.4378    
  4.7173      5.0625      5.4192      5.7269      5.9341      6.0069      5.9332      5.7241      5.4146      5.0588    
  4.7173      4.4418      4.2599      4.1696      4.1462      4.1569      4.1743      4.1824      4.1761      4.1591    
  4.1463      4.1662      4.2544      4.4377      5.9252      6.6629      7.3522      7.9055      8.2181      8.2194    
  7.9080      7.3525      6.6593      5.9196      5.2138      4.6184      4.1696      3.8635      3.6721      3.5635    
  3.5149      3.5152      3.5634      3.6701      3.8597      4.1662      4.6184      5.2179      8.2256      9.5977    
  10.839      11.709      12.023      11.713      10.845      9.6018      8.2256      6.9254      5.7866      4.8462    
  4.1462      3.6721      3.3796      3.2238      3.1750      3.2229      3.3777      3.6701      4.1462      4.8496    
  5.7921      6.9296      12.502      14.797      16.598      17.583      17.583      16.599      14.801      12.507    
  10.127      8.0249      6.3625      5.0779      4.1569      3.5635      3.2238      3.0717      3.0713      3.2230    
  3.5635      4.1589      5.0817      6.3659      8.0249      10.123      19.391      22.428      24.420      25.108    
  24.415      22.422      19.389      15.775      12.173      9.1191      6.8610      5.2643      4.1743      3.5149    
  3.1750      3.0713      3.1751      3.5157      4.1761      5.2663      6.8610      9.1156      12.168      15.771    
  28.397      31.634      33.319      33.316      31.626      28.390      23.948      18.899      14.021      10.019    
  7.2073      5.3677      4.1824      3.5152      3.2229      3.2230      3.5157      4.1832      5.3677      7.2053    
  10.015      14.017      18.899      23.952      38.333      41.280      42.290      41.282      38.333      33.683    
  27.777      21.339      15.309      10.529      7.3315      5.3685      4.1761      3.5634      3.3777      3.5635    
  4.1761      5.3677      7.3296      10.527      15.309      21.343      27.782      33.686      48.331      50.748    
  50.753      48.342      43.817      37.626      30.312      22.673      15.769      10.527      7.2060      5.2668    
  4.1591      3.6701      3.6701      4.1589      5.2663      7.2053      10.527      15.772      22.678      30.315    
  37.624      43.809      58.175      59.750      58.183      53.831      47.458      39.730      31.198      22.674    
  15.306      10.014      6.8610      5.0818      4.1463      3.8597      4.1462      5.0817      6.8610      10.015    
  15.309      22.678      31.200      39.727      47.449      53.819      67.417      67.418      63.550      56.908    
  48.738      39.729      30.315      21.341      14.016      9.1152      6.3658      4.8495      4.1662      4.1662    
  4.8496      6.3659      9.1156      14.017      21.343      30.315      39.727      48.735      56.904      63.546    
  74.474      72.019      65.546      56.904      47.449      37.624      27.782      18.899      12.168      8.0249    
  5.7921      4.6184      4.2544      4.6184      5.7921      8.0249      12.168      18.899      27.782      37.624    
  47.449      56.904      65.546      72.019      77.179      72.026      63.551      53.820      43.807      33.683    
  23.951      15.771      10.124      6.9297      5.2180      4.4378      4.4377      5.2179      6.9296      10.123    
  15.771      23.952      33.686      43.809      53.819      63.546      72.019      77.176      63.423      56.610    
  48.330      39.330      30.022      21.185      13.967      9.1234      6.3966      4.8895      4.2096      4.2096    
  4.8897      6.3966      9.1228      13.966      21.185      30.024      39.333      48.332      56.608      63.419    
  67.417      67.419      56.610      49.498      41.275      32.478      23.752      16.128      10.556      7.1973    
  5.3232      4.3333      4.0289      4.3334      5.3234      7.1971      10.555      16.126      23.751      32.480    
  41.279      49.502      56.612      61.676      63.546      61.676      48.330      41.275      33.316      25.112    
  17.587      11.711      7.9058      5.7265      4.4859      3.9336      3.9336      4.4860      5.7269      7.9055    
  11.709      17.583      25.108      33.316      41.282      48.342      53.831      56.908      56.904      53.820    
  39.330      32.478      25.112      18.100      12.356      8.4027      6.0370      4.6270      3.8947      3.6716    
  3.8947      4.6274      6.0379      8.4029      12.353      18.094      25.106      32.478      39.339      44.979    
  48.747      50.078      48.735      44.963      30.022      23.752      17.587      12.356      8.5822      6.2057    
  4.7243      3.8833      3.5141      3.5141      3.8834      4.7250      6.2072      8.5836      12.354      17.582    
  23.746      30.021      35.580      39.736      41.963      41.959      39.727      35.575      21.185      16.128    
  11.711      8.4027      6.2057      4.7588      3.8812      3.4313      3.2947      3.4311      3.8809      4.7590    
  6.2074      8.4055      11.713      16.126      21.181      26.156      30.313      33.061      34.020      33.061    
  30.315      26.160      13.967      10.556      7.9058      6.0370      4.7243      3.8812      3.4056      3.1959    
  3.1958      3.4051      3.8801      4.7233      6.0375      7.9084      10.560      13.969      17.758      21.338    
  24.112      25.622      25.624      24.117      21.343      17.759      9.1234      7.1973      5.7265      4.6270    
  3.8833      3.4313      3.1959      3.1238      3.1963      3.4313      3.8820      4.6245      5.7244      7.1973    
  9.1262      11.493      14.020      16.279      17.840      18.398      17.841      16.279      14.017      11.489    
  6.3966      5.3232      4.4859      3.8947      3.5141      3.2947      3.1958      3.1963      3.2959      3.5154    
  3.8947      4.4835      5.3191      6.3933      7.6687      9.1184      10.575      11.770      12.445      12.443    
  11.766      10.570      9.1156      7.6690      4.8895      4.3333      3.9336      3.6716      3.5141      3.4311    
  3.4051      3.4313      3.5154      3.6742      3.9361      4.3334      4.8863      5.5816      6.3624      7.1493    
  7.8575      8.3600      8.5416      8.3575      7.8550      7.1493      6.3659      5.5865      4.2096      4.0289    
  3.9336      3.8947      3.8834      3.8809      3.8801      3.8820      3.8947      3.9361      4.0332      4.2130    
  4.4883      4.8462      5.2462      5.6282      5.9277      6.0918      6.0916      5.9281      5.6308      5.2505    
  4.8496      4.4882      4.2096      4.3334      4.4860      4.6274      4.7250      4.7590      4.7233      4.6245    
  4.4835      4.3334      4.2130      4.1539      4.1696      4.2501      4.3668      4.4832      4.5671      4.5979    
  4.5687      4.4860      4.3693      4.2501      4.1662      4.1490      4.8897      5.3234      5.7269      6.0379    
  6.2072      6.2074      6.0375      5.7244      5.3191      4.8863      4.4883      4.1696      3.9471      3.8117    
  3.7391      3.7046      3.6914      3.6921      3.7058      3.7391      3.8092      3.9429      4.1662      4.4883    
  6.3966      7.1971      7.9055      8.4029      8.5836      8.4055      7.9084      7.1973      6.3933      5.5816    
  4.8462      4.2501      3.8117      3.5148      3.3293      3.2286      3.1968      3.2284      3.3280      3.5122    
  3.8092      4.2501      4.8495      5.5865      9.1228      10.555      11.709      12.353      12.354      11.713    
  10.560      9.1262      7.6687      6.3624      5.2462      4.3668      3.7391      3.3293      3.0889      2.9789    
  2.9785      3.0878      3.3280      3.7391      4.3693      5.2505      6.3658      7.6687      13.966      16.126    
  17.583      18.094      17.582      16.126      13.969      11.493      9.1184      7.1493      5.6282      4.4832    
  3.7046      3.2286      2.9789      2.9017      2.9786      3.2286      3.7058      4.4858      5.6307      7.1493    
  9.1152      11.488      21.185      23.751      25.108      25.106      23.746      21.181      17.758      14.020    
  10.575      7.8575      5.9277      4.5671      3.6914      3.1968      2.9785      2.9786      3.1972      3.6925    
  4.5683      5.9277      7.8551      10.570      14.016      17.758      30.024      32.480      33.316      32.478    
  30.021      26.156      21.338      16.279      11.770      8.3600      6.0918      4.5979      3.6921      3.2284    
  3.0878      3.2286      3.6925      4.5979      6.0906      8.3574      11.767      16.279      21.341      26.160    
  39.333      41.279      41.282      39.339      35.580      30.313      24.112      17.840      12.445      8.5416    
  6.0916      4.5687      3.7058      3.3280      3.3280      3.7058      4.5683      6.0906      8.5404      12.445    
  17.844      24.117      30.315      35.576      48.332      49.502      48.342      44.979      39.736      33.061    
  25.622      18.398      12.443      8.3575      5.9281      4.4860      3.7391      3.5122      3.7391      4.4858    
  5.9277      8.3574      12.445      18.402      25.626      33.061      39.729      44.966      56.608      56.612    
  53.831      48.747      41.963      34.020      25.624      17.841      11.766      7.8550      5.6308      4.3693    
  3.8092      3.8092      4.3693      5.6307      7.8551      11.767      17.844      25.626      34.020      41.959    
  48.738      53.822      63.419      61.676      56.908      50.078      41.959      33.061      24.117      16.279    
  10.570      7.1493      5.2505      4.2501      3.9429      4.2501      5.2505      7.1493      10.570      16.279    
  24.117      33.061      41.959      50.078      56.908      61.676      67.417      63.546      56.904      48.735    
  39.727      30.315      21.343      14.017      9.1156      6.3659      4.8496      4.1662      4.1662      4.8495    
  6.3658      9.1152      14.016      21.341      30.315      39.729      48.738      56.908      63.550      67.418    
  67.419      61.676      53.820      44.963      35.575      26.160      17.759      11.489      7.6690      5.5865    
  4.4882      4.1490      4.4883      5.5865      7.6687      11.488      17.758      26.160      35.576      44.966    
  53.822      61.676      67.418      69.569      52.264      45.935      38.327      30.022      21.817      14.784    
  9.7594      6.7615      5.0518      4.1529      3.8777      4.1530      5.0522      6.7621      9.7594      14.783    
  21.815      30.020      38.327      45.938      52.267      56.608      58.175      56.605      45.935      39.263    
  31.628      23.752      16.600      11.096      7.5684      5.5278      4.3618      3.8447      3.8447      4.3620    
  5.5285      7.5691      11.096      16.598      23.749      31.626      39.265      45.941      51.022      53.822    
  53.819      51.016      38.327      31.628      24.420      17.587      12.024      8.2174      5.9332      4.5649    
  3.8556      3.6397      3.8556      4.5652      5.9341      8.2181      12.023      17.583      24.415      31.626    
  38.333      43.817      47.458      48.738      47.449      43.807      30.022      23.752      17.587      12.356    
  8.5822      6.2057      4.7243      3.8833      3.5141      3.5141      3.8834      4.7250      6.2072      8.5836    
  12.354      17.582      23.746      30.021      35.580      39.736      41.963      41.959      39.727      35.575    
  21.817      16.600      12.024      8.5822      6.3018      4.8114      3.9069      3.4433      3.3025      3.4432    
  3.9069      4.8123      6.3042      8.5849      12.024      16.596      21.811      26.928      31.200      34.022    
  35.007      34.020      31.200      26.932      14.784      11.096      8.2174      6.2057      4.8114      3.9157    
  3.4111      3.1889      3.1889      3.4108      3.9152      4.8119      6.2081      8.2211      11.098      14.783    
  18.850      22.671      25.621      27.223      27.225      25.626      22.678      18.855      9.7594      7.5684    