FCC Au                                  
   4.15000000000000     
     0.000000    0.500000    0.500000
     0.500000    0.000000    0.500000
     0.500000    0.500000    0.000000
   Au
     1
Direct
  0.000000  0.000000  0.000000
 
   24   24   24
 0.86646584783E+02 0.83242851195E+02 0.74486182888E+02 0.63423156052E+02 0.52263501970E+02
 0.41471975074E+02 0.30921816337E+02 0.21235983536E+02 0.13651519877E+02 0.88463443283E+01
 0.62829402398E+01 0.49518903062E+01 0.45351036239E+01 0.49518903062E+01 0.62829402398E+01
 0.88463443283E+01 0.13651519877E+02 0.21235983536E+02 0.30921816337E+02 0.41471975074E+02
 0.52263501970E+02 0.63423156052E+02 0.74486182888E+02 0.83242851195E+02 0.83242851195E+02
 0.77193283582E+02 0.67431613526E+02 0.56610079626E+02 0.45935104411E+02 0.35423823450E+02
 0.25328440183E+02 0.16725400513E+02 0.10684235535E+02 0.72386754340E+01 0.54183359513E+01
 0.45849635547E+01 0.45849106993E+01 0.54182229974E+01 0.72385228053E+01 0.10684182569E+02
 0.16726296477E+02 0.25331525749E+02 0.35428608805E+02 0.45937663944E+02 0.56605247581E+02
 0.67418539382E+02 0.77178549324E+02 0.83236355692E+02 0.74486182888E+02 0.67431613526E+02
 0.58183162352E+02 0.48330257313E+02 0.38327243951E+02 0.28392920274E+02 0.19389294310E+02
 0.12502257880E+02 0.82259730813E+01 0.59253418044E+01 0.47173481581E+01 0.43417591937E+01
 0.47173325776E+01 0.59252344990E+01 0.82255590428E+01 0.12501887342E+02 0.19390580784E+02
 0.28397312182E+02 0.38332886918E+02 0.48331394274E+02 0.58174964718E+02 0.67416517140E+02
 0.74474027220E+02 0.77178549324E+02 0.63423156052E+02 0.56610079626E+02 0.48330257313E+02
 0.39329575897E+02 0.30022405770E+02 0.21185334998E+02 0.13967385851E+02 0.91234373028E+01
 0.63966089295E+01 0.48894924073E+01 0.42095540019E+01 0.42096180139E+01 0.48896612297E+01
 0.63966114400E+01 0.91227938056E+01 0.13966255173E+02 0.21185037016E+02 0.30024186466E+02
 0.39332599803E+02 0.48331682146E+02 0.56607985534E+02 0.63419149593E+02 0.67416517140E+02
 0.67418539382E+02 0.52263501970E+02 0.45935104411E+02 0.38327243951E+02 0.30022405770E+02
 0.21817434933E+02 0.14784400420E+02 0.97593972159E+01 0.67615024686E+01 0.50518099966E+01
 0.41529468041E+01 0.38776687912E+01 0.41530353621E+01 0.50521982700E+01 0.67620564218E+01
 0.97593782329E+01 0.14783080283E+02 0.21815060109E+02 0.30020407818E+02 0.38327268801E+02
 0.45937629944E+02 0.52267261287E+02 0.56607985534E+02 0.58174964718E+02 0.56605247581E+02
 0.41471975074E+02 0.35423823450E+02 0.28392920274E+02 0.21185334998E+02 0.14784400420E+02
 0.99898815139E+01 0.69634247347E+01 0.51642777698E+01 0.41348488305E+01 0.36809056866E+01
 0.36807822896E+01 0.41347616213E+01 0.51648503995E+01 0.69649719857E+01 0.99917158909E+01
 0.14784937251E+02 0.21183358719E+02 0.28388959103E+02 0.35419986422E+02 0.41470087803E+02
 0.45937629944E+02 0.48331682146E+02 0.48331394274E+02 0.45937663944E+02 0.30921816337E+02
 0.25328440183E+02 0.19389294310E+02 0.13967385851E+02 0.97593972159E+01 0.69634247347E+01
 0.52040475301E+01 0.41307082889E+01 0.35794444881E+01 0.34120811494E+01 0.35790598263E+01
 0.41301211377E+01 0.52040426990E+01 0.69651545822E+01 0.97631111574E+01 0.13971380673E+02
 0.19390587110E+02 0.25324947112E+02 0.30914156910E+02 0.35419986422E+02 0.38327268801E+02
 0.39332599803E+02 0.38332886918E+02 0.35428608805E+02 0.21235983536E+02 0.16725400513E+02
 0.12502257880E+02 0.91234373028E+01 0.67615024686E+01 0.51642777698E+01 0.41307082889E+01
 0.35482350160E+01 0.32926138496E+01 0.32925731203E+01 0.35477096406E+01 0.41291807501E+01
 0.51624079760E+01 0.67613688775E+01 0.91268707136E+01 0.12508467896E+02 0.16730468268E+02
 0.21235577169E+02 0.25324947112E+02 0.28388959103E+02 0.30020407818E+02 0.30024186466E+02
 0.28397312182E+02 0.25331525749E+02 0.13651519877E+02 0.10684235535E+02 0.82259730813E+01
 0.63966089295E+01 0.50518099966E+01 0.41348488305E+01 0.35794444881E+01 0.32926138496E+01
 0.32053755149E+01 0.32931026805E+01 0.35794316606E+01 0.41330475886E+01 0.50481083845E+01
 0.63931537637E+01 0.82260010489E+01 0.10688920530E+02 0.13658144707E+02 0.16730468268E+02
 0.19390587110E+02 0.21183358719E+02 0.21815060109E+02 0.21185037016E+02 0.19390580784E+02
 0.16726296477E+02 0.88463443283E+01 0.72386754340E+01 0.59253418044E+01 0.48894924073E+01
 0.41529468041E+01 0.36809056866E+01 0.34120811494E+01 0.32925731203E+01 0.32931026805E+01
 0.34136226544E+01 0.36826910883E+01 0.41530058621E+01 0.48861516690E+01 0.59195617544E+01
 0.72341065419E+01 0.88463550851E+01 0.10688920530E+02 0.12508467896E+02 0.13971380673E+02
 0.14784937251E+02 0.14783080283E+02 0.13966255173E+02 0.12501887342E+02 0.10684182569E+02
 0.62829402398E+01 0.54183359513E+01 0.47173481581E+01 0.42095540019E+01 0.38776687912E+01
 0.36807822896E+01 0.35790598263E+01 0.35477096406E+01 0.35794316606E+01 0.36826910883E+01
 0.38813700819E+01 0.42129510943E+01 0.47173192036E+01 0.54137671421E+01 0.62762909105E+01
 0.72341065419E+01 0.82260010489E+01 0.91268707136E+01 0.97631111574E+01 0.99917158909E+01
 0.97593782329E+01 0.91227938056E+01 0.82255590428E+01 0.72385228053E+01 0.49518903062E+01
 0.45849635547E+01 0.43417591937E+01 0.42096180139E+01 0.41530353621E+01 0.41347616213E+01
 0.41301211377E+01 0.41291807501E+01 0.41330475886E+01 0.41530058621E+01 0.42129510943E+01
 0.43474321474E+01 0.45894546375E+01 0.49519267244E+01 0.54137671421E+01 0.59195617544E+01
 0.63931537637E+01 0.67613688775E+01 0.69651545822E+01 0.69649719857E+01 0.67620564218E+01
 0.63966114400E+01 0.59252344990E+01 0.54182229974E+01 0.45351036239E+01 0.45849106993E+01
 0.47173325776E+01 0.48896612297E+01 0.50521982700E+01 0.51648503995E+01 0.52040426990E+01
 0.51624079760E+01 0.50481083845E+01 0.48861516690E+01 0.47173192036E+01 0.45894546375E+01
 0.45417673287E+01 0.45894546375E+01 0.47173192036E+01 0.48861516690E+01 0.50481083845E+01
 0.51624079760E+01 0.52040426990E+01 0.51648503995E+01 0.50521982700E+01 0.48896612297E+01
 0.47173325776E+01 0.45849106993E+01 0.49518903062E+01 0.54182229974E+01 0.59252344990E+01
 0.63966114400E+01 0.67620564218E+01 0.69649719857E+01 0.69651545822E+01 0.67613688775E+01
 0.63931537637E+01 0.59195617544E+01 0.54137671421E+01 0.49519267244E+01 0.45894546375E+01
 0.43474321474E+01 0.42129510943E+01 0.41530058621E+01 0.41330475886E+01 0.41291807501E+01
 0.41301211377E+01 0.41347616213E+01 0.41530353621E+01 0.42096180139E+01 0.43417591937E+01
 0.45849635547E+01 0.62829402398E+01 0.72385228053E+01 0.82255590428E+01 0.91227938056E+01
 0.97593782329E+01 0.99917158909E+01 0.97631111574E+01 0.91268707136E+01 0.82260010489E+01
 0.72341065419E+01 0.62762909105E+01 0.54137671421E+01 0.47173192036E+01 0.42129510943E+01
 0.38813700819E+01 0.36826910883E+01 0.35794316606E+01 0.35477096406E+01 0.35790598263E+01
 0.36807822896E+01 0.38776687912E+01 0.42095540019E+01 0.47173481581E+01 0.54183359513E+01
 0.88463443283E+01 0.10684182569E+02 0.12501887342E+02 0.13966255173E+02 0.14783080283E+02
 0.14784937251E+02 0.13971380673E+02 0.12508467896E+02 0.10688920530E+02 0.88463550851E+01
 0.72341065419E+01 0.59195617544E+01 0.48861516690E+01 0.41530058621E+01 0.36826910883E+01
 0.34136226544E+01 0.32931026805E+01 0.32925731203E+01 0.34120811494E+01 0.36809056866E+01
 0.41529468041E+01 0.48894924073E+01 0.59253418044E+01 0.72386754340E+01 0.13651519877E+02
 0.16726296477E+02 0.19390580784E+02 0.21185037016E+02 0.21815060109E+02 0.21183358719E+02
 0.19390587110E+02 0.16730468268E+02 0.13658144707E+02 0.10688920530E+02 0.82260010489E+01
 0.63931537637E+01 0.50481083845E+01 0.41330475886E+01 0.35794316606E+01 0.32931026805E+01
 0.32053755149E+01 0.32926138496E+01 0.35794444881E+01 0.41348488305E+01 0.50518099966E+01
 0.63966089295E+01 0.82259730813E+01 0.10684235535E+02 0.21235983536E+02 0.25331525749E+02
 0.28397312182E+02 0.30024186466E+02 0.30020407818E+02 0.28388959103E+02 0.25324947112E+02
 0.21235577169E+02 0.16730468268E+02 0.12508467896E+02 0.91268707136E+01 0.67613688775E+01
 0.51624079760E+01 0.41291807501E+01 0.35477096406E+01 0.32925731203E+01 0.32926138496E+01
 0.35482350160E+01 0.41307082889E+01 0.51642777698E+01 0.67615024686E+01 0.91234373028E+01
 0.12502257880E+02 0.16725400513E+02 0.30921816337E+02 0.35428608805E+02 0.38332886918E+02
 0.39332599803E+02 0.38327268801E+02 0.35419986422E+02 0.30914156910E+02 0.25324947112E+02
 0.19390587110E+02 0.13971380673E+02 0.97631111574E+01 0.69651545822E+01 0.52040426990E+01
 0.41301211377E+01 0.35790598263E+01 0.34120811494E+01 0.35794444881E+01 0.41307082889E+01
 0.52040475301E+01 0.69634247347E+01 0.97593972159E+01 0.13967385851E+02 0.19389294310E+02
 0.25328440183E+02 0.41471975074E+02 0.45937663944E+02 0.48331394274E+02 0.48331682146E+02
 0.45937629944E+02 0.41470087803E+02 0.35419986422E+02 0.28388959103E+02 0.21183358719E+02
 0.14784937251E+02 0.99917158909E+01 0.69649719857E+01 0.51648503995E+01 0.41347616213E+01
 0.36807822896E+01 0.36809056866E+01 0.41348488305E+01 0.51642777698E+01 0.69634247347E+01
 0.99898815139E+01 0.14784400420E+02 0.21185334998E+02 0.28392920274E+02 0.35423823450E+02
 0.52263501970E+02 0.56605247581E+02 0.58174964718E+02 0.56607985534E+02 0.52267261287E+02
 0.45937629944E+02 0.38327268801E+02 0.30020407818E+02 0.21815060109E+02 0.14783080283E+02
 0.97593782329E+01 0.67620564218E+01 0.50521982700E+01 0.41530353621E+01 0.38776687912E+01
 0.41529468041E+01 0.50518099966E+01 0.67615024686E+01 0.97593972159E+01 0.14784400420E+02
 0.21817434933E+02 0.30022405770E+02 0.38327243951E+02 0.45935104411E+02 0.63423156052E+02
 0.67418539382E+02 0.67416517140E+02 0.63419149593E+02 0.56607985534E+02 0.48331682146E+02
 0.39332599803E+02 0.30024186466E+02 0.21185037016E+02 0.13966255173E+02 0.91227938056E+01
 0.63966114400E+01 0.48896612297E+01 0.42096180139E+01 0.42095540019E+01 0.48894924073E+01
 0.63966089295E+01 0.91234373028E+01 0.13967385851E+02 0.21185334998E+02 0.30022405770E+02
 0.39329575897E+02 0.48330257313E+02 0.56610079626E+02 0.74486182888E+02 0.77178549324E+02
 0.74474027220E+02 0.67416517140E+02 0.58174964718E+02 0.48331394274E+02 0.38332886918E+02
 0.28397312182E+02 0.19390580784E+02 0.12501887342E+02 0.82255590428E+01 0.59252344990E+01
 0.47173325776E+01 0.43417591937E+01 0.47173481581E+01 0.59253418044E+01 0.82259730813E+01
 0.12502257880E+02 0.19389294310E+02 0.28392920274E+02 0.38327243951E+02 0.48330257313E+02
 0.58183162352E+02 0.67431613526E+02 0.83242851195E+02 0.83236355692E+02 0.77178549324E+02
 0.67418539382E+02 0.56605247581E+02 0.45937663944E+02 0.35428608805E+02 0.25331525749E+02
 0.16726296477E+02 0.10684182569E+02 0.72385228053E+01 0.54182229974E+01 0.45849106993E+01
 0.45849635547E+01 0.54183359513E+01 0.72386754340E+01 0.10684235535E+02 0.16725400513E+02
 0.25328440183E+02 0.35423823450E+02 0.45935104411E+02 0.56610079626E+02 0.67431613526E+02
 0.77193283582E+02 0.83242851195E+02 0.77193283582E+02 0.67431613526E+02 0.56610079626E+02
 0.45935104411E+02 0.35423823450E+02 0.25328440183E+02 0.16725400513E+02 0.10684235535E+02
 0.72386754340E+01 0.54183359513E+01 0.45849635547E+01 0.45849106993E+01 0.54182229974E+01
 0.72385228053E+01 0.10684182569E+02 0.16726296477E+02 0.25331525749E+02 0.35428608805E+02
 0.45937663944E+02 0.56605247581E+02 0.67418539382E+02 0.77178549324E+02 0.83236355692E+02
 0.77193283582E+02 0.69591074118E+02 0.59760882794E+02 0.49498370270E+02 0.39262909094E+02
 0.29156990649E+02 0.19957782197E+02 0.12862666386E+02 0.84252813092E+01 0.60447146848E+01
 0.47980580062E+01 0.44095389179E+01 0.47980618725E+01 0.60445570954E+01 0.84247628301E+01
 0.12862512545E+02 0.19960223877E+02 0.29163536311E+02 0.39270348568E+02 0.49498581901E+02
 0.59747708574E+02 0.69568630672E+02 0.77175633914E+02 0.80111183047E+02 0.67431613526E+02
 0.59760882794E+02 0.50749227427E+02 0.41274788502E+02 0.31627864077E+02 0.22425782300E+02
 0.14797977559E+02 0.95988133453E+01 0.66632592172E+01 0.50624313042E+01 0.43358639660E+01
 0.43359227414E+01 0.50624998605E+01 0.66629130540E+01 0.95977473975E+01 0.14797270607E+02
 0.22427892320E+02 0.31633673122E+02 0.41280487264E+02 0.50748157052E+02 0.59750423037E+02
 0.67417869463E+02 0.72019488637E+02 0.72025840002E+02 0.56610079626E+02 0.49498370270E+02
 0.41274788502E+02 0.32478232495E+02 0.23752100508E+02 0.16127714269E+02 0.10556115724E+02
 0.71972730630E+01 0.53231894971E+01 0.43333493287E+01 0.40288584400E+01 0.43334258558E+01
 0.53233761781E+01 0.71970956565E+01 0.10554865585E+02 0.16125710583E+02 0.23751113371E+02
 0.32479871852E+02 0.41278537412E+02 0.49501897542E+02 0.56611683949E+02 0.61676459982E+02
 0.63546122805E+02 0.61676321819E+02 0.45935104411E+02 0.39262909094E+02 0.31627864077E+02
 0.23752100508E+02 0.16600490560E+02 0.11096005151E+02 0.75684028969E+01 0.55278449206E+01
 0.43618390374E+01 0.38447404559E+01 0.38447056729E+01 0.43619857228E+01 0.55284720660E+01
 0.75690710345E+01 0.11095526284E+02 0.16598072302E+02 0.23748663326E+02 0.31625992228E+02
 0.39264964975E+02 0.45940918950E+02 0.51022471736E+02 0.53822210808E+02 0.53819464865E+02
 0.51016118734E+02 0.35423823450E+02 0.29156990649E+02 0.22425782300E+02 0.16127714269E+02
 0.11096005151E+02 0.77022749869E+01 0.56393708815E+01 0.43896945260E+01 0.37448668646E+01
 0.35488525060E+01 0.37446796282E+01 0.43896939721E+01 0.56401674083E+01 0.77040540814E+01
 0.11097779718E+02 0.16127729522E+02 0.22423243561E+02 0.29153278800E+02 0.35421402611E+02
 0.40494535990E+02 0.43810017724E+02 0.44966216063E+02 0.43809109020E+02 0.40494618241E+02
 0.25328440183E+02 0.19957782197E+02 0.14797977559E+02 0.10556115724E+02 0.75684028969E+01
 0.56393708815E+01 0.44005125402E+01 0.37013531161E+01 0.33947858061E+01 0.33946221146E+01
 0.37007503847E+01 0.43996363353E+01 0.56392705462E+01 0.75703671740E+01 0.10560073823E+02
 0.14801798626E+02 0.19958605023E+02 0.25324965678E+02 0.30116003755E+02 0.33679715491E+02
 0.35574067277E+02 0.35576463686E+02 0.33685651047E+02 0.30122349816E+02 0.16725400513E+02
 0.12862666386E+02 0.95988133453E+01 0.71972730630E+01 0.55278449206E+01 0.43896945260E+01
 0.37013531161E+01 0.33474638790E+01 0.32398989851E+01 0.33474039559E+01 0.37005060588E+01
 0.43876380358E+01 0.55255711225E+01 0.71970243534E+01 0.96021980465E+01 0.12868550994E+02
 0.16730042546E+02 0.20632699716E+02 0.23948304080E+02 0.26155762698E+02 0.26929642780E+02
 0.26159818078E+02 0.23952364082E+02 0.20632618344E+02 0.10684235535E+02 0.84252813092E+01
 0.66632592172E+01 0.53231894971E+01 0.43618390374E+01 0.37448668646E+01 0.33947858061E+01
 0.32398989851E+01 0.32403221457E+01 0.33956303516E+01 0.37448887641E+01 0.43596495131E+01
 0.53188768255E+01 0.66593281088E+01 0.84250295249E+01 0.10688605058E+02 0.13269257074E+02
 0.15776387736E+02 0.17760310826E+02 0.18852877611E+02 0.18852517779E+02 0.17758269389E+02
 0.15771489622E+02 0.13262827732E+02 0.72386754340E+01 0.60447146848E+01 0.50624313042E+01
 0.43333493287E+01 0.38447404559E+01 0.35488525060E+01 0.33946221146E+01 0.33474039559E+01
 0.33956303516E+01 0.35509854324E+01 0.38469803582E+01 0.43333855241E+01 0.50587150477E+01
 0.60386297204E+01 0.72340262863E+01 0.86298359033E+01 0.10128126072E+02 0.11494166900E+02
 0.12454456667E+02 0.12798837224E+02 0.12450123711E+02 0.11487833785E+02 0.10123494342E+02
 0.86298571294E+01 0.54183359513E+01 0.47980580062E+01 0.43358639660E+01 0.40288584400E+01
 0.38447056729E+01 0.37446796282E+01 0.37007503847E+01 0.37005060588E+01 0.37448887641E+01
 0.38469803582E+01 0.40331454473E+01 0.43395991373E+01 0.47980422048E+01 0.54137607205E+01
 0.61488096562E+01 0.69255735146E+01 0.76691034660E+01 0.82737141695E+01 0.86152847315E+01
 0.86136954009E+01 0.82708354228E+01 0.76687185994E+01 0.69295694118E+01 0.61551910460E+01
 0.45849635547E+01 0.44095389179E+01 0.43359227414E+01 0.43334258558E+01 0.43619857228E+01
 0.43896939721E+01 0.43996363353E+01 0.43876380358E+01 0.43596495131E+01 0.43333855241E+01
 0.43395991373E+01 0.44154896519E+01 0.45894496600E+01 0.48650199426E+01 0.52138230751E+01
 0.55815414340E+01 0.59034368069E+01 0.61218669515E+01 0.61991296723E+01 0.61229193067E+01
 0.59065753933E+01 0.55865157342E+01 0.52178901865E+01 0.48650067581E+01 0.45849106993E+01
 0.47980618725E+01 0.50624998605E+01 0.53233761781E+01 0.55284720660E+01 0.56401674083E+01
 0.56392705462E+01 0.55255711225E+01 0.53188768255E+01 0.50587150477E+01 0.47980422048E+01
 0.45894496600E+01 0.44684231069E+01 0.44418612639E+01 0.44882423210E+01 0.45693573451E+01
 0.46465612758E+01 0.46924162192E+01 0.46937098758E+01 0.46497359905E+01 0.45723135050E+01
 0.44882701830E+01 0.44377271861E+01 0.44620671825E+01 0.54182229974E+01 0.60445570954E+01
 0.66629130540E+01 0.71970956565E+01 0.75690710345E+01 0.77040540814E+01 0.75703671740E+01
 0.71970243534E+01 0.66593281088E+01 0.60386297204E+01 0.54137607205E+01 0.48650199426E+01
 0.44418612639E+01 0.41539014002E+01 0.39793421491E+01 0.38839667371E+01 0.38384530707E+01
 0.38255993326E+01 0.38393697938E+01 0.38839379571E+01 0.39766080092E+01 0.41489838817E+01
 0.44377915931E+01 0.48650067581E+01 0.72385228053E+01 0.84247628301E+01 0.95977473975E+01
 0.10554865585E+02 0.11095526284E+02 0.11097779718E+02 0.10560073823E+02 0.96021980465E+01
 0.84250295249E+01 0.72340262863E+01 0.61488096562E+01 0.52138230751E+01 0.44882423210E+01
 0.39793421491E+01 0.36536071133E+01 0.34662695026E+01 0.33818010336E+01 0.33815002461E+01
 0.34648759608E+01 0.36507710003E+01 0.39765371830E+01 0.44882479220E+01 0.52180043042E+01
 0.61551910460E+01 0.10684182569E+02 0.12862512545E+02 0.14797270607E+02 0.16125710583E+02
 0.16598072302E+02 0.16127729522E+02 0.14801798626E+02 0.12868550994E+02 0.10688605058E+02
 0.86298359033E+01 0.69255735146E+01 0.55815414340E+01 0.45693573451E+01 0.38839667371E+01
 0.34662695026E+01 0.32477251150E+01 0.31801319304E+01 0.32468071920E+01 0.34650499867E+01
 0.38839592573E+01 0.45720722985E+01 0.55864926143E+01 0.69296937938E+01 0.86298571294E+01
 0.16726296477E+02 0.19960223877E+02 0.22427892320E+02 0.23751113371E+02 0.23748663326E+02
 0.22423243561E+02 0.19958605023E+02 0.16730042546E+02 0.13269257074E+02 0.10128126072E+02
 0.76691034660E+01 0.59034368069E+01 0.46465612758E+01 0.38384530707E+01 0.33818010336E+01
 0.31801319304E+01 0.31799513390E+01 0.33818050913E+01 0.38397423638E+01 0.46494314228E+01
 0.59062543158E+01 0.76689995072E+01 0.10123706973E+02 0.13262827732E+02 0.25331525749E+02
 0.29163536311E+02 0.31633673122E+02 0.32479871852E+02 0.31625992228E+02 0.29153278800E+02
 0.25324965678E+02 0.20632699716E+02 0.15776387736E+02 0.11494166900E+02 0.82737141695E+01
 0.61218669515E+01 0.46924162192E+01 0.38255993326E+01 0.33815002461E+01 0.32468071920E+01
 0.33818050913E+01 0.38265472675E+01 0.46936937980E+01 0.61219456103E+01 0.82709128450E+01
 0.11488741480E+02 0.15771492854E+02 0.20632618344E+02 0.35428608805E+02 0.39270348568E+02
 0.41280487264E+02 0.41278537412E+02 0.39264964975E+02 0.35421402611E+02 0.30116003755E+02
 0.23948304080E+02 0.17760310826E+02 0.12454456667E+02 0.86152847315E+01 0.61991296723E+01
 0.46937098758E+01 0.38393697938E+01 0.34648759608E+01 0.34650499867E+01 0.38397423638E+01
 0.46936937980E+01 0.61978180386E+01 0.86123946564E+01 0.12451306128E+02 0.17759371536E+02
 0.23951295873E+02 0.30122349816E+02 0.45937663944E+02 0.49498581901E+02 0.50748157052E+02
 0.49501897542E+02 0.45940918950E+02 0.40494535990E+02 0.33679715491E+02 0.26155762698E+02
 0.18852877611E+02 0.12798837224E+02 0.86136954009E+01 0.61229193067E+01 0.46497359905E+01
 0.38839379571E+01 0.36507710003E+01 0.38839592573E+01 0.46494314228E+01 0.61219456103E+01
 0.86123946564E+01 0.12798552431E+02 0.18854981319E+02 0.26159870793E+02 0.33683194139E+02
 0.40494618241E+02 0.56605247581E+02 0.59747708574E+02 0.59750423037E+02 0.56611683949E+02
 0.51022471736E+02 0.43810017724E+02 0.35574067277E+02 0.26929642780E+02 0.18852517779E+02
 0.12450123711E+02 0.82708354228E+01 0.59065753933E+01 0.45723135050E+01 0.39766080092E+01
 0.39765371830E+01 0.45720722985E+01 0.59062543158E+01 0.82709128450E+01 0.12451306128E+02
 0.18854981319E+02 0.26932269558E+02 0.35574668280E+02 0.43806870095E+02 0.51016118734E+02
 0.67418539382E+02 0.69568630672E+02 0.67417869463E+02 0.61676459982E+02 0.53822210808E+02
 0.44966216063E+02 0.35576463686E+02 0.26159818078E+02 0.17758269389E+02 0.11487833785E+02
 0.76687185994E+01 0.55865157342E+01 0.44882701830E+01 0.41489838817E+01 0.44882479220E+01
 0.55864926143E+01 0.76689995072E+01 0.11488741480E+02 0.17759371536E+02 0.26159870793E+02
 0.35574668280E+02 0.44963418982E+02 0.53820286342E+02 0.61676321819E+02 0.77178549324E+02
 0.77175633914E+02 0.72019488637E+02 0.63546122805E+02 0.53819464865E+02 0.43809109020E+02
 0.33685651047E+02 0.23952364082E+02 0.15771489622E+02 0.10123494342E+02 0.69295694118E+01
 0.52178901865E+01 0.44377271861E+01 0.44377915931E+01 0.52180043042E+01 0.69296937938E+01
 0.10123706973E+02 0.15771492854E+02 0.23951295873E+02 0.33683194139E+02 0.43806870095E+02
 0.53820286342E+02 0.63551095736E+02 0.72025840002E+02 0.83236355692E+02 0.80111183047E+02
 0.72025840002E+02 0.61676321819E+02 0.51016118734E+02 0.40494618241E+02 0.30122349816E+02
 0.20632618344E+02 0.13262827732E+02 0.86298571294E+01 0.61551910460E+01 0.48650067581E+01
 0.44620671825E+01 0.48650067581E+01 0.61551910460E+01 0.86298571294E+01 0.13262827732E+02
 0.20632618344E+02 0.30122349816E+02 0.40494618241E+02 0.51016118734E+02 0.61676321819E+02
 0.72025840002E+02 0.80111183047E+02 0.74486182888E+02 0.67431613526E+02 0.58183162352E+02
 0.48330257313E+02 0.38327243951E+02 0.28392920274E+02 0.19389294310E+02 0.12502257880E+02
 0.82259730813E+01 0.59253418044E+01 0.47173481581E+01 0.43417591937E+01 0.47173325776E+01
 0.59252344990E+01 0.82255590428E+01 0.12501887342E+02 0.19390580784E+02 0.28397312182E+02
 0.38332886918E+02 0.48331394274E+02 0.58174964718E+02 0.67416517140E+02 0.74474027220E+02
 0.77178549324E+02 0.67431613526E+02 0.59760882794E+02 0.50749227427E+02 0.41274788502E+02
 0.31627864077E+02 0.22425782300E+02 0.14797977559E+02 0.95988133453E+01 0.66632592172E+01
 0.50624313042E+01 0.43358639660E+01 0.43359227414E+01 0.50624998605E+01 0.66629130540E+01
 0.95977473975E+01 0.14797270607E+02 0.22427892320E+02 0.31633673122E+02 0.41280487264E+02
 0.50748157052E+02 0.59750423037E+02 0.67417869463E+02 0.72019488637E+02 0.72025840002E+02
 0.58183162352E+02 0.50749227427E+02 0.42284488229E+02 0.33315710318E+02 0.24420195593E+02
 0.16600532588E+02 0.10841207609E+02 0.73528174438E+01 0.54191619912E+01 0.43970098535E+01
 0.40820250910E+01 0.43970423080E+01 0.54191725395E+01 0.73522234965E+01 0.10839426237E+02
 0.16598438910E+02 0.24420180078E+02 0.33319243607E+02 0.42289857079E+02 0.50752795089E+02
 0.58183230797E+02 0.63549662833E+02 0.65545941990E+02 0.63551095736E+02 0.48330257313E+02
 0.41274788502E+02 0.33315710318E+02 0.25111836039E+02 0.17586865256E+02 0.11711224787E+02
 0.79058071509E+01 0.57265333442E+01 0.44858865034E+01 0.39335940755E+01 0.39335556306E+01
 0.44859959361E+01 0.57268806003E+01 0.79055319830E+01 0.11709011705E+02 0.17582710129E+02
 0.25108185715E+02 0.33316293277E+02 0.41281685199E+02 0.48341647455E+02 0.53830933857E+02
 0.56908401772E+02 0.56904064393E+02 0.53820286342E+02 0.38327243951E+02 0.31627864077E+02
 0.24420195593E+02 0.17586865256E+02 0.12024047295E+02 0.82173800978E+01 0.59331609549E+01
 0.45648566421E+01 0.38556038514E+01 0.36397063798E+01 0.38556157615E+01 0.45652383114E+01
 0.59340830595E+01 0.82180556511E+01 0.12022769779E+02 0.17582693520E+02 0.24415097076E+02
 0.31626426061E+02 0.38332830847E+02 0.43817444989E+02 0.47457564382E+02 0.48738373877E+02
 0.47449066680E+02 0.43806870095E+02 0.28392920274E+02 0.22425782300E+02 0.16600532588E+02
 0.11711224787E+02 0.82173800978E+01 0.60059141060E+01 0.46097484788E+01 0.38191013573E+01
 0.34722658141E+01 0.34721760712E+01 0.38188788446E+01 0.46097900992E+01 0.60069483396E+01
 0.82194096490E+01 0.11712683452E+02 0.16599471548E+02 0.22422288697E+02 0.28389629445E+02
 0.33682628493E+02 0.37625530625E+02 0.39729859528E+02 0.39728751179E+02 0.37623840699E+02
 0.33683194139E+02 0.19389294310E+02 0.14797977559E+02 0.10841207609E+02 0.79058071509E+01
 0.59331609549E+01 0.46097484788E+01 0.38084846884E+01 0.33973392399E+01 0.32723708751E+01
 0.33970068393E+01 0.38075836599E+01 0.46086672714E+01 0.59331819731E+01 0.79079681940E+01
 0.10844873440E+02 0.14800881201E+02 0.19389260581E+02 0.23948036275E+02 0.27777298383E+02
 0.30311696115E+02 0.31197554010E+02 0.30314949505E+02 0.27781917747E+02 0.23951295873E+02
 0.12502257880E+02 0.95988133453E+01 0.73528174438E+01 0.57265333442E+01 0.45648566421E+01
 0.38191013573E+01 0.33973392399E+01 0.32111437110E+01 0.32112780310E+01 0.33973023383E+01
 0.38180135798E+01 0.45624694722E+01 0.57240726590E+01 0.73524768612E+01 0.96018179449E+01
 0.12507245348E+02 0.15775278973E+02 0.18899107993E+02 0.21339398245E+02 0.22673277546E+02
 0.22674418091E+02 0.21341227086E+02 0.18898642528E+02 0.15771492854E+02 0.82259730813E+01
 0.66632592172E+01 0.54191619912E+01 0.44858865034E+01 0.38556038514E+01 0.34722658141E+01
 0.32723708751E+01 0.32112780310E+01 0.32733007548E+01 0.34734471051E+01 0.38556066389E+01
 0.44834007541E+01 0.54146358916E+01 0.66593429318E+01 0.82255785803E+01 0.10127406483E+02
 0.12173207503E+02 0.14021166066E+02 0.15308580526E+02 0.15769187394E+02 0.15306171540E+02
 0.14016452008E+02 0.12167594010E+02 0.10123706973E+02 0.59253418044E+01 0.50624313042E+01
 0.43970098535E+01 0.39335940755E+01 0.36397063798E+01 0.34721760712E+01 0.33970068393E+01
 0.33973023383E+01 0.34734471051E+01 0.36421992959E+01 0.39360412059E+01 0.43970230676E+01
 0.50587540645E+01 0.59195740710E+01 0.69254188259E+01 0.80248603352E+01 0.91190645309E+01
 0.10019185700E+02 0.10528932172E+02 0.10526839041E+02 0.10014426598E+02 0.91151740401E+01
 0.80249037552E+01 0.69296937938E+01 0.47173481581E+01 0.43358639660E+01 0.40820250910E+01
 0.39335556306E+01 0.38556157615E+01 0.38188788446E+01 0.38075836599E+01 0.38180135798E+01
 0.38556066389E+01 0.39360412059E+01 0.40865407968E+01 0.43396069349E+01 0.47173285114E+01
 0.52138243929E+01 0.57866245737E+01 0.63625059054E+01 0.68610215033E+01 0.72072643633E+01
 0.73314516588E+01 0.72059855682E+01 0.68610017610E+01 0.63657991503E+01 0.57921469431E+01
 0.52180043042E+01 0.43417591937E+01 0.43359227414E+01 0.43970423080E+01 0.44859959361E+01
 0.45652383114E+01 0.46097900992E+01 0.46086672714E+01 0.45624694722E+01 0.44834007541E+01
 0.43970230676E+01 0.43396069349E+01 0.43474363482E+01 0.44418488523E+01 0.46183695535E+01
 0.48461702847E+01 0.50778706592E+01 0.52643440151E+01 0.53677316947E+01 0.53684907828E+01
 0.52668451599E+01 0.50818180421E+01 0.48495253611E+01 0.46183849356E+01 0.44377915931E+01
 0.47173325776E+01 0.50624998605E+01 0.54191725395E+01 0.57268806003E+01 0.59340830595E+01
 0.60069483396E+01 0.59331819731E+01 0.57240726590E+01 0.54146358916E+01 0.50587540645E+01
 0.47173285114E+01 0.44418488523E+01 0.42598812506E+01 0.41695799477E+01 0.41462392553E+01
 0.41569216625E+01 0.41742609641E+01 0.41824454402E+01 0.41761438301E+01 0.41590648684E+01
 0.41462775403E+01 0.41661990861E+01 0.42544051742E+01 0.44377271861E+01 0.59252344990E+01
 0.66629130540E+01 0.73522234965E+01 0.79055319830E+01 0.82180556511E+01 0.82194096490E+01
 0.79079681940E+01 0.73524768612E+01 0.66593429318E+01 0.59195740710E+01 0.52138243929E+01
 0.46183695535E+01 0.41695799477E+01 0.38635284759E+01 0.36721317874E+01 0.35635214868E+01
 0.35149044108E+01 0.35151558312E+01 0.35634011828E+01 0.36701439183E+01 0.38597082638E+01
 0.41662446231E+01 0.46183849356E+01 0.52178901865E+01 0.82255590428E+01 0.95977473975E+01
 0.10839426237E+02 0.11709011705E+02 0.12022769779E+02 0.11712683452E+02 0.10844873440E+02
 0.96018179449E+01 0.82255785803E+01 0.69254188259E+01 0.57866245737E+01 0.48461702847E+01
 0.41462392553E+01 0.36721317874E+01 0.33795549954E+01 0.32237805193E+01 0.31750144552E+01
 0.32228989119E+01 0.33776513481E+01 0.36701196101E+01 0.41462413636E+01 0.48495891009E+01
 0.57921469431E+01 0.69295694118E+01 0.12501887342E+02 0.14797270607E+02 0.16598438910E+02
 0.17582710129E+02 0.17582693520E+02 0.16599471548E+02 0.14800881201E+02 0.12507245348E+02
 0.10127406483E+02 0.80248603352E+01 0.63625059054E+01 0.50778706592E+01 0.41569216625E+01
 0.35635214868E+01 0.32237805193E+01 0.30717007516E+01 0.30713287059E+01 0.32230457089E+01
 0.35635347002E+01 0.41589020974E+01 0.50816856130E+01 0.63658753049E+01 0.80249037552E+01
 0.10123494342E+02 0.19390580784E+02 0.22427892320E+02 0.24420180078E+02 0.25108185715E+02
 0.24415097076E+02 0.22422288697E+02 0.19389260581E+02 0.15775278973E+02 0.12173207503E+02
 0.91190645309E+01 0.68610215033E+01 0.52643440151E+01 0.41742609641E+01 0.35149044108E+01
 0.31750144552E+01 0.30713287059E+01 0.31750745515E+01 0.35156903581E+01 0.41761418649E+01
 0.52663434953E+01 0.68609916131E+01 0.91155633849E+01 0.12167594010E+02 0.15771489622E+02
 0.28397312182E+02 0.31633673122E+02 0.33319243607E+02 0.33316293277E+02 0.31626426061E+02
 0.28389629445E+02 0.23948036275E+02 0.18899107993E+02 0.14021166066E+02 0.10019185700E+02
 0.72072643633E+01 0.53677316947E+01 0.41824454402E+01 0.35151558312E+01 0.32228989119E+01
 0.32230457089E+01 0.35156903581E+01 0.41831989840E+01 0.53677171824E+01 0.72052601129E+01
 0.10015259924E+02 0.14017456950E+02 0.18898642528E+02 0.23952364082E+02 0.38332886918E+02
 0.41280487264E+02 0.42289857079E+02 0.41281685199E+02 0.38332830847E+02 0.33682628493E+02
 0.27777298383E+02 0.21339398245E+02 0.15308580526E+02 0.10528932172E+02 0.73314516588E+01
 0.53684907828E+01 0.41761438301E+01 0.35634011828E+01 0.33776513481E+01 0.35635347002E+01
 0.41761418649E+01 0.53677171824E+01 0.73295539276E+01 0.10526920513E+02 0.15308577889E+02
 0.21342514192E+02 0.27781917747E+02 0.33685651047E+02 0.48331394274E+02 0.50748157052E+02
 0.50752795089E+02 0.48341647455E+02 0.43817444989E+02 0.37625530625E+02 0.30311696115E+02
 0.22673277546E+02 0.15769187394E+02 0.10526839041E+02 0.72059855682E+01 0.52668451599E+01
 0.41590648684E+01 0.36701439183E+01 0.36701196101E+01 0.41589020974E+01 0.52663434953E+01
 0.72052601129E+01 0.10526920513E+02 0.15771577855E+02 0.22677924113E+02 0.30315426845E+02