   1   1   0   0
  0.1786834E+02  0.2934493E-09  0.2934493E-09  0.2934493E-09  0.5000000E-15
  1.000000000000000E-004
  CAR 
 FCC Au                                  
     36.13099696     -6.41587058  301      4.86763282      1.00000000
     -6.416  0.0000E+00  0.0000E+00
     -6.274  0.0000E+00  0.0000E+00
     -6.132 -0.7078E-33 -0.1004E-33
     -5.990 -0.7582E-28 -0.1075E-28
     -5.849 -0.2947E-23 -0.4180E-24
     -5.707 -0.4149E-19 -0.5885E-20
     -5.565 -0.2048E-15 -0.2906E-16
     -5.423 -0.3718E-12 -0.5276E-13
     -5.281 -0.2407E-09 -0.3419E-10
     -5.139 -0.5488E-07 -0.7817E-08
     -4.998 -0.4299E-05 -0.6175E-06
     -4.856 -0.1092E-03 -0.1610E-04
     -4.714 -0.7413E-03 -0.1212E-03
     -4.572  0.3056E-03 -0.7790E-04
     -4.430  0.9676E-02  0.1294E-02
     -4.289  0.2747E-01  0.5191E-02
     -4.147  0.5048E-01  0.1235E-01
     -4.005  0.5665E-01  0.2038E-01
     -3.863  0.5950E-01  0.2882E-01
     -3.721  0.7612E-01  0.3962E-01
     -3.579  0.1048E+00  0.5448E-01
     -3.438  0.1037E+00  0.6918E-01
     -3.296  0.7192E-01  0.7938E-01
     -3.154  0.1064E+00  0.9448E-01
     -3.012  0.1721E+00  0.1189E+00
     -2.870  0.1558E+00  0.1410E+00
     -2.728  0.1137E+00  0.1571E+00
     -2.587  0.1721E+00  0.1815E+00
     -2.445  0.2035E+00  0.2104E+00
     -2.303  0.2005E+00  0.2388E+00
     -2.161  0.2743E+00  0.2777E+00
     -2.019  0.4169E+00  0.3368E+00
     -1.878  0.5679E+00  0.4174E+00
     -1.736  0.6552E+00  0.5103E+00
     -1.594  0.9348E+00  0.6429E+00
     -1.452  0.1241E+01  0.8188E+00
     -1.310  0.1577E+01  0.1042E+01
     -1.168  0.1889E+01  0.1310E+01
     -1.027  0.1941E+01  0.1586E+01
     -0.885  0.1853E+01  0.1848E+01
     -0.743  0.1658E+01  0.2083E+01
     -0.601  0.1623E+01  0.2314E+01
     -0.459  0.1330E+01  0.2502E+01
     -0.317  0.1363E+01  0.2696E+01
     -0.176  0.1826E+01  0.2955E+01
     -0.034  0.2042E+01  0.3244E+01
      0.108  0.2042E+01  0.3534E+01
      0.250  0.2085E+01  0.3829E+01
      0.392  0.2371E+01  0.4166E+01
      0.533  0.2431E+01  0.4510E+01
      0.675  0.2780E+01  0.4905E+01
      0.817  0.3391E+01  0.5386E+01
      0.959  0.2953E+01  0.5805E+01
      1.101  0.2016E+01  0.6090E+01
      1.243  0.1563E+01  0.6312E+01
      1.384  0.1708E+01  0.6554E+01
      1.526  0.1888E+01  0.6822E+01
      1.668  0.2252E+01  0.7141E+01
      1.810  0.2374E+01  0.7478E+01
      1.952  0.1945E+01  0.7754E+01
      2.094  0.2043E+01  0.8044E+01
      2.235  0.1941E+01  0.8319E+01
      2.377  0.1583E+01  0.8544E+01
      2.519  0.1813E+01  0.8801E+01
      2.661  0.1859E+01  0.9064E+01
      2.803  0.2359E+01  0.9399E+01
      2.944  0.2903E+01  0.9810E+01
      3.086  0.2590E+01  0.1018E+02
      3.228  0.1670E+01  0.1041E+02
      3.370  0.9584E+00  0.1055E+02
      3.512  0.4329E+00  0.1061E+02
      3.654  0.1307E+00  0.1063E+02
      3.795  0.1089E+00  0.1065E+02
      3.937  0.3530E+00  0.1070E+02
      4.079  0.4591E+00  0.1076E+02
      4.221  0.2910E+00  0.1080E+02
      4.363  0.1273E+00  0.1082E+02
      4.504  0.2004E+00  0.1085E+02
      4.646  0.4851E+00  0.1092E+02
      4.788  0.4330E+00  0.1098E+02
      4.930  0.2337E+00  0.1101E+02
      5.072  0.1798E+00  0.1104E+02
      5.214  0.1813E+00  0.1106E+02
      5.355  0.2667E+00  0.1110E+02
      5.497  0.4414E+00  0.1116E+02
      5.639  0.3407E+00  0.1121E+02
      5.781  0.2567E+00  0.1125E+02
      5.923  0.3198E+00  0.1129E+02
      6.065  0.2641E+00  0.1133E+02
      6.206  0.2251E+00  0.1136E+02
      6.348  0.2165E+00  0.1139E+02
      6.490  0.2974E+00  0.1144E+02
      6.632  0.3487E+00  0.1149E+02
      6.774  0.3302E+00  0.1153E+02
      6.915  0.2434E+00  0.1157E+02
      7.057  0.1463E+00  0.1159E+02
      7.199  0.2689E+00  0.1163E+02
      7.341  0.3736E+00  0.1168E+02
      7.483  0.2760E+00  0.1172E+02
      7.625  0.1729E+00  0.1174E+02
      7.766  0.2632E+00  0.1178E+02
      7.908  0.5686E+00  0.1186E+02
      8.050  0.5690E+00  0.1194E+02
      8.192  0.3361E+00  0.1199E+02
      8.334  0.1564E+00  0.1201E+02
      8.476  0.1750E+00  0.1204E+02
      8.617  0.3803E+00  0.1209E+02
      8.759  0.4475E+00  0.1215E+02
      8.901  0.3613E+00  0.1220E+02
      9.043  0.3030E+00  0.1225E+02
      9.185  0.1477E+00  0.1227E+02
      9.326  0.1040E+00  0.1228E+02
      9.468  0.2432E+00  0.1232E+02
      9.610  0.4268E+00  0.1238E+02
      9.752  0.4648E+00  0.1244E+02
      9.894  0.3555E+00  0.1249E+02
     10.036  0.3548E+00  0.1254E+02
     10.177  0.3293E+00  0.1259E+02
     10.319  0.3137E+00  0.1264E+02
     10.461  0.4405E+00  0.1270E+02
     10.603  0.4362E+00  0.1276E+02
     10.745  0.3706E+00  0.1281E+02
     10.887  0.3256E+00  0.1286E+02
     11.028  0.1899E+00  0.1289E+02
     11.170  0.1857E+00  0.1291E+02
     11.312  0.3981E+00  0.1297E+02
     11.454  0.4881E+00  0.1304E+02
     11.596  0.2217E+00  0.1307E+02
     11.737  0.3960E-01  0.1308E+02
     11.879  0.2415E+00  0.1311E+02
     12.021  0.4513E+00  0.1317E+02
     12.163  0.3408E+00  0.1322E+02
     12.305  0.3603E+00  0.1327E+02
     12.447  0.4467E+00  0.1334E+02
     12.588  0.3714E+00  0.1339E+02
     12.730  0.5647E+00  0.1347E+02
     12.872  0.5591E+00  0.1355E+02
     13.014  0.1562E+00  0.1357E+02
     13.156 -0.1207E-01  0.1357E+02
     13.298  0.1629E+00  0.1359E+02
     13.439  0.4854E+00  0.1366E+02
     13.581  0.5023E+00  0.1373E+02
     13.723  0.2958E+00  0.1377E+02
     13.865  0.3244E+00  0.1382E+02
     14.007  0.4794E+00  0.1389E+02
     14.148  0.4760E+00  0.1396E+02
     14.290  0.4835E+00  0.1402E+02
     14.432  0.4361E+00  0.1409E+02
     14.574  0.3070E+00  0.1413E+02
     14.716  0.4278E+00  0.1419E+02
     14.858  0.4841E+00  0.1426E+02
     14.999  0.3742E+00  0.1431E+02
     15.141  0.4919E+00  0.1438E+02
     15.283  0.7100E+00  0.1448E+02
     15.425  0.6711E+00  0.1458E+02
     15.567  0.3591E+00  0.1463E+02
     15.709  0.2857E+00  0.1467E+02
     15.850  0.3901E+00  0.1472E+02
     15.992  0.4197E+00  0.1478E+02
     16.134  0.6007E+00  0.1487E+02
     16.276  0.7814E+00  0.1498E+02
     16.418  0.8558E+00  0.1510E+02
     16.559  0.6228E+00  0.1519E+02
     16.701  0.2766E+00  0.1523E+02
     16.843  0.1760E+00  0.1525E+02
     16.985  0.3024E+00  0.1530E+02
     17.127  0.5328E+00  0.1537E+02
     17.269  0.5128E+00  0.1544E+02
     17.410  0.5480E+00  0.1552E+02
     17.552  0.5865E+00  0.1561E+02
     17.694  0.4942E+00  0.1568E+02
     17.836  0.4101E+00  0.1573E+02
     17.978  0.5657E+00  0.1581E+02
     18.119  0.6003E+00  0.1590E+02
     18.261  0.3738E+00  0.1595E+02
     18.403  0.4352E+00  0.1601E+02
     18.545  0.5849E+00  0.1610E+02
     18.687  0.5050E+00  0.1617E+02
     18.829  0.3726E+00  0.1622E+02
     18.970  0.5037E+00  0.1629E+02
     19.112  0.6059E+00  0.1638E+02
     19.254  0.3470E+00  0.1643E+02
     19.396  0.2134E+00  0.1646E+02
     19.538  0.4931E+00  0.1653E+02
     19.680  0.7898E+00  0.1664E+02
     19.821  0.6367E+00  0.1673E+02
     19.963  0.4978E+00  0.1680E+02
     20.105  0.6252E+00  0.1689E+02
     20.247  0.6713E+00  0.1698E+02
     20.389  0.5344E+00  0.1706E+02
     20.530  0.4740E+00  0.1713E+02
     20.672  0.4888E+00  0.1720E+02
     20.814  0.5927E+00  0.1728E+02
     20.956  0.5140E+00  0.1735E+02
     21.098  0.3190E+00  0.1740E+02
     21.240  0.2789E+00  0.1744E+02
     21.381  0.4334E+00  0.1750E+02
     21.523  0.8995E+00  0.1763E+02
     21.665  0.1075E+01  0.1778E+02
     21.807  0.7805E+00  0.1789E+02
     21.949  0.7719E+00  0.1800E+02
     22.091  0.7138E+00  0.1810E+02
     22.232  0.6670E+00  0.1820E+02
     22.374  0.8161E+00  0.1831E+02
     22.516  0.1022E+01  0.1846E+02
     22.658  0.1055E+01  0.1861E+02
     22.800  0.7803E+00  0.1872E+02
     22.941  0.6617E+00  0.1881E+02
     23.083  0.6170E+00  0.1890E+02
     23.225  0.6130E+00  0.1899E+02
     23.367  0.6717E+00  0.1908E+02
     23.509  0.6389E+00  0.1917E+02
     23.651  0.5620E+00  0.1925E+02
     23.792  0.7681E+00  0.1936E+02
     23.934  0.9374E+00  0.1949E+02
     24.076  0.7304E+00  0.1960E+02
     24.218  0.4267E+00  0.1966E+02
     24.360  0.3052E+00  0.1970E+02
     24.502  0.5240E+00  0.1978E+02
     24.643  0.7067E+00  0.1988E+02
     24.785  0.5393E+00  0.1995E+02
     24.927  0.4308E+00  0.2001E+02
     25.069  0.3162E+00  0.2006E+02
     25.211  0.2843E+00  0.2010E+02
     25.352  0.3875E+00  0.2015E+02
     25.494  0.6156E+00  0.2024E+02
     25.636  0.5597E+00  0.2032E+02
     25.778  0.3628E+00  0.2037E+02
     25.920  0.4104E+00  0.2043E+02
     26.062  0.4486E+00  0.2049E+02
     26.203  0.2828E+00  0.2053E+02
     26.345  0.1663E+00  0.2056E+02
     26.487  0.2715E+00  0.2060E+02
     26.629  0.3564E+00  0.2065E+02
     26.771  0.3129E+00  0.2069E+02
     26.913  0.5175E+00  0.2076E+02
     27.054  0.8308E+00  0.2088E+02
     27.196  0.6846E+00  0.2098E+02
     27.338  0.3245E+00  0.2102E+02
     27.480  0.2519E+00  0.2106E+02
     27.622  0.2761E+00  0.2110E+02
     27.763  0.1612E+00  0.2112E+02
     27.905  0.2645E+00  0.2116E+02
     28.047  0.6252E+00  0.2125E+02
     28.189  0.7086E+00  0.2135E+02
     28.331  0.4811E+00  0.2142E+02
     28.473  0.3523E+00  0.2147E+02
     28.614  0.5660E+00  0.2155E+02
     28.756  0.9596E+00  0.2168E+02
     28.898  0.1126E+01  0.2184E+02
     29.040  0.9286E+00  0.2197E+02
     29.182  0.7250E+00  0.2208E+02
     29.323  0.5933E+00  0.2216E+02
     29.465  0.4975E+00  0.2223E+02
     29.607  0.4816E+00  0.2230E+02
     29.749  0.5612E+00  0.2238E+02
     29.891  0.6701E+00  0.2248E+02
     30.033  0.7142E+00  0.2258E+02
     30.174  0.6523E+00  0.2267E+02
     30.316  0.8546E+00  0.2279E+02
     30.458  0.1023E+01  0.2294E+02
     30.600  0.8850E+00  0.2306E+02
     30.742  0.6201E+00  0.2315E+02
     30.884  0.5329E+00  0.2322E+02
     31.025  0.5536E+00  0.2330E+02
     31.167  0.5156E+00  0.2338E+02
     31.309  0.4877E+00  0.2345E+02
     31.451  0.4210E+00  0.2350E+02
     31.593  0.3405E+00  0.2355E+02
     31.734  0.4047E+00  0.2361E+02
     31.876  0.6084E+00  0.2370E+02
     32.018  0.5008E+00  0.2377E+02
     32.160  0.2038E+00  0.2380E+02
     32.302  0.1044E+00  0.2381E+02
     32.444  0.8669E-01  0.2382E+02
     32.585  0.1480E+00  0.2384E+02
     32.727  0.1686E+00  0.2387E+02
     32.869  0.1108E+00  0.2388E+02
     33.011  0.1132E+00  0.2390E+02
     33.153  0.2089E+00  0.2393E+02
     33.295  0.2038E+00  0.2396E+02
     33.436  0.4857E-01  0.2397E+02
     33.578 -0.1210E-01  0.2396E+02
     33.720 -0.1488E-02  0.2396E+02
     33.862  0.3351E-01  0.2397E+02
     34.004  0.7624E-01  0.2398E+02
     34.145  0.9687E-01  0.2399E+02
     34.287  0.5005E-01  0.2400E+02
     34.429  0.1185E-02  0.2400E+02
     34.571 -0.3011E-02  0.2400E+02
     34.713 -0.3920E-03  0.2400E+02
     34.855 -0.1433E-04  0.2400E+02
     34.996 -0.1751E-06  0.2400E+02
     35.138 -0.7486E-09  0.2400E+02
     35.280 -0.1139E-11  0.2400E+02
     35.422 -0.6200E-15  0.2400E+02
     35.564  0.0000E+00  0.2400E+02
     35.706  0.0000E+00  0.2400E+02
     35.847  0.0000E+00  0.2400E+02
     35.989  0.0000E+00  0.2400E+02
     36.131  0.0000E+00  0.2400E+02
