    1    1    1    1
  0.1786834E+02  0.2934493E-09  0.2934493E-09  0.2934493E-09  0.5000000E-15
  1.000000000000000E-004
  CAR 
 FCC Au                                  
     11    110     12
 
  0.5000000E-01  0.5000000E-01  0.5000000E-01  0.2000000E-02
    1       -4.415871   1.000000
    2        0.448881   1.000000
    3        0.505449   1.000000
    4        0.505449   1.000000
    5        1.886407   1.000000
    6        1.886407   1.000000
    7       20.337043   0.000000
    8       23.125783   0.000000
    9       23.877565   0.000000
   10       23.877565   0.000000
   11       28.593824   0.000000
   12       31.214339   0.000000
 
  0.1500000E+00  0.5000000E-01  0.5000000E-01  0.6000000E-02
    1       -3.980789   1.000000
    2        0.310326   1.000000
    3        0.633016   1.000000
    4        0.661475   1.000000
    5        1.745470   1.000000
    6        1.930387   1.000000
    7       20.497248   0.000000
    8       21.239004   0.000000
    9       23.428508   0.000000
   10       24.745090   0.000000
   11       27.818093   0.000000
   12       30.411760   0.000000
 
  0.2500000E+00  0.5000000E-01  0.5000000E-01  0.6000000E-02
    1       -3.033839   1.000000
    2        0.210150   1.000000
    3        0.773768   1.000000
    4        0.792266   1.000000
    5        1.757553   1.000000
    6        2.127767   1.000000
    7       17.215457   0.000000
    8       21.107197   0.000000
    9       23.471110   0.000000
   10       25.778262   0.000000
   11       26.050709   0.000000
   12       28.258033   0.000000
 
  0.3500000E+00  0.5000000E-01  0.5000000E-01  0.6000000E-02
    1       -2.172079   1.000000
    2        0.610977   1.000000
    3        0.687486   1.000000
    4        0.852208   1.000000
    5        2.207386   1.000000
    6        2.653807   1.000000
    7       13.223543   0.000000
    8       20.478972   0.000000
    9       22.486369   0.000000
   10       24.563395   0.000000
   11       27.182837   0.000000
   12       28.156830   0.000000
 
  0.4500000E+00  0.5000000E-01  0.5000000E-01  0.6000000E-02
    1       -1.947188   1.000000
    2        0.470535   1.000000
    3        0.534296   1.000000
    4        2.271911   1.000000
    5        2.750042   1.000000
    6        3.535707   1.000000
    7        9.504907  -0.000000
    8       19.789364   0.000000
    9       21.618442   0.000000
   10       22.695265   0.000000
   11       28.767170   0.000000
   12       28.957898   0.000000
 
 -0.4500000E+00  0.5000000E-01  0.5000000E-01  0.6000000E-02
    1       -1.938328   1.000000
    2        0.410223   1.000000
    3        0.498242   1.000000
    4        2.615314   1.000000
    5        3.011467   1.000000
    6        4.497602   1.012579
    7        7.830342  -0.000000
    8       19.603774   0.000000
    9       21.682713   0.000000
   10       21.811194   0.000000
   11       29.180895   0.000000
   12       29.247303   0.000000
 
 -0.3500000E+00  0.5000000E-01  0.5000000E-01  0.6000000E-02
    1       -1.975640   1.000000
    2        0.498623   1.000000
    3        0.598992   1.000000
    4        1.747017   1.000000
    5        2.822365   1.000000
    6        2.987120   1.000000
    7       10.663899   0.000000
    8       20.022168   0.000000
    9       22.050780   0.000000
   10       22.844590   0.000000
   11       28.704238   0.000000
   12       28.916269   0.000000
 
 -0.2500000E+00  0.5000000E-01  0.5000000E-01  0.6000000E-02
    1       -2.392079   1.000000
    2        0.450451   1.000000
    3        0.706359   1.000000
    4        0.756709   1.000000
    5        2.128184   1.000000
    6        2.366604   1.000000
    7       14.553968   0.000000
    8       20.860547   0.000000
    9       22.923214   0.000000
   10       24.696814   0.000000
   11       26.838379   0.000000
   12       28.663050   0.000000
 
 -0.1500000E+00  0.5000000E-01  0.5000000E-01  0.6000000E-02
    1       -3.382973   1.000000
    2        0.197233   1.000000
    3        0.765747   1.000000
    4        0.776059   1.000000
    5        1.717606   1.000000
    6        2.011740   1.000000
    7       18.508551   0.000000
    8       21.260782   0.000000
    9       23.473114   0.000000
   10       25.138209   0.000000
   11       26.567062   0.000000
   12       29.234524   0.000000
 
 -0.5000000E-01  0.5000000E-01  0.5000000E-01  0.6000000E-02
    1       -4.194767   1.000000
    2        0.350783   1.000000
    3        0.592206   1.000000
    4        0.596287   1.000000
    5        1.768162   1.000000
    6        1.936556   1.000000
    7       20.533134   0.000000
    8       22.216036   0.000000
    9       23.558932   0.000000
   10       23.969841   0.000000
   11       28.988522   0.000000
   12       30.525652   0.000000
 
  0.1500000E+00  0.1500000E+00  0.5000000E-01  0.6000000E-02
    1       -3.764612   1.000000
    2        0.154776   1.000000
    3        0.776254   1.000000
    4        0.779182   1.000000
    5        1.571741   1.000000
    6        2.037336   1.000000
    7       20.777699   0.000000
    8       21.394142   0.000000
    9       22.808944   0.000000
   10       23.523606   0.000000
   11       27.991209   0.000000
   12       29.955848   0.000000
 
  0.2500000E+00  0.1500000E+00  0.5000000E-01  0.1200000E-01
    1       -2.978807   1.000000
    2       -0.068652   1.000000
    3        0.870061   1.000000
    4        1.036208   1.000000
    5        1.527967   1.000000
    6        2.240966   1.000000
    7       18.748156   0.000000
    8       20.567237   0.000000
    9       22.582554   0.000000
   10       23.795425   0.000000
   11       25.961600   0.000000
   12       29.173651   0.000000
 
  0.3500000E+00  0.1500000E+00  0.5000000E-01  0.1200000E-01
    1       -2.004112   1.000000
    2        0.016094   1.000000
    3        0.596941   1.000000
    4        1.045422   1.000000
    5        2.137097   1.000000
    6        2.778668   1.000000
    7       14.779397   0.000000
    8       19.993184   0.000000
    9       21.543495   0.000000
   10       23.430002   0.000000
   11       27.017991   0.000000
   12       28.915217   0.000000
 
  0.4500000E+00  0.1500000E+00  0.5000000E-01  0.1200000E-01
    1       -1.620604   1.000000
    2        0.322611   1.000000
    3        0.821960   1.000000
    4        0.972528   1.000000
    5        2.811925   1.000000
    6        3.920849   1.000000
    7       10.874799   0.000000
    8       19.605120   0.000000
    9       20.217584   0.000000
   10       22.201627   0.000000
   11       28.880706   0.000000
   12       29.880045   0.000000
 
 -0.4500000E+00  0.1500000E+00  0.5000000E-01  0.1200000E-01
    1       -1.593980   1.000000
    2        0.205206   1.000000
    3        0.774331   1.000000
    4        1.671483   1.000000
    5        2.967519   1.000000
    6        5.819641  -0.000000
    7        7.837064  -0.000000
    8       19.188663   0.000000
    9       19.823396   0.000000
   10       21.565622   0.000000
   11       29.211831   0.000000
   12       30.312959   0.000000
 
 -0.3500000E+00  0.1500000E+00  0.5000000E-01  0.1200000E-01
    1       -1.582161   1.000000
    2        0.277626   1.000000
    3        0.797140   1.000000
    4        1.371648   1.000000
    5        2.681018   1.000000
    6        4.603652   1.034236
    7        9.752165  -0.000000
    8       18.759938   0.000000
    9       20.433802   0.000000
   10       22.385082   0.000000
   11       28.501651   0.000000
   12       29.925146   0.000000
 
 -0.2500000E+00  0.1500000E+00  0.5000000E-01  0.1200000E-01
    1       -1.768948   1.000000
    2        0.276305   1.000000
    3        0.560391   1.000000
    4        0.969073   1.000000
    5        2.051171   1.000000
    6        3.282830   1.000000
    7       13.468880   0.000000
    8       18.961661   0.000000
    9       21.545694   0.000000
   10       24.254920   0.000000
   11       26.802340   0.000000
   12       29.053582   0.000000
 
 -0.1500000E+00  0.1500000E+00  0.5000000E-01  0.1200000E-01
    1       -2.637398   1.000000
    2       -0.027608   1.000000
    3        0.775489   1.000000
    4        1.057067   1.000000
    5        1.521039   1.000000
    6        2.484408   1.000000
    7       17.353344   0.000000
    8       19.578824   0.000000
    9       23.185195   0.000000
   10       24.163494   0.000000
   11       27.149830   0.000000
   12       27.934778   0.000000
 
 -0.5000000E-01  0.1500000E+00  0.5000000E-01  0.1200000E-01
    1       -3.565053   1.000000
    2        0.160433   1.000000
    3        0.780230   1.000000
    4        0.788294   1.000000
    5        1.607957   1.000000
    6        2.047533   1.000000
    7       19.778155   0.000000
    8       20.917349   0.000000
    9       22.997313   0.000000
   10       24.799504   0.000000
   11       26.919894   0.000000
   12       29.770754   0.000000
 
  0.2500000E+00  0.2500000E+00  0.5000000E-01  0.6000000E-02
    1       -2.450824   1.000000
    2       -0.396019   1.000000
    3        1.015013   1.000000
    4        1.386635   1.000000
    5        1.567082   1.000000
    6        2.350646   1.000000
    7       19.159017   0.000000
    8       20.236012   0.000000
    9       21.547304   0.000000
   10       22.345948   0.000000
   11       23.044801   0.000000
   12       30.765254   0.000000
 
  0.3500000E+00  0.2500000E+00  0.5000000E-01  0.1200000E-01
    1       -1.677549   1.000000
    2       -0.601748   1.000000
    3        0.781207   1.000000
    4        1.708164   1.000000
    5        2.176273   1.000000
    6        2.798443   1.000000
    7       16.463271   0.000000
    8       18.386879   0.000000
    9       20.018679   0.000000
   10       22.621806   0.000000
   11       24.010281   0.000000
   12       30.785740   0.000000
 
  0.4500000E+00  0.2500000E+00  0.5000000E-01  0.1200000E-01
    1       -1.222458   1.000000
    2       -0.355344   1.000000
    3        0.555992   1.000000
    4        1.588207   1.000000
    5        2.890227   1.000000
    6        4.174232   1.000005
    7       12.505514   0.000000
    8       17.692357   0.000000
    9       18.331295   0.000000
   10       22.323631   0.000000
   11       27.115687   0.000000
   12       30.633935   0.000000
 
 -0.4500000E+00  0.2500000E+00  0.5000000E-01  0.1200000E-01
    1       -1.109947   1.000000
    2       -0.108559   1.000000
    3        0.753076   1.000000
    4        1.406023   1.000000
    5        2.999719   1.000000
    6        6.531641  -0.000000
    7        9.031256  -0.000000
    8       16.425098   0.000000
    9       18.396723   0.000000
   10       22.004824   0.000000
   11       29.722258   0.000000
   12       31.084098   0.000000
 
 -0.3500000E+00  0.2500000E+00  0.5000000E-01  0.1200000E-01
    1       -0.953897   1.000000
    2       -0.050276   1.000000
    3        0.781217   1.000000
    4        1.310650   1.000000
    5        2.641169   1.000000
    6        6.375153  -0.000000
    7        9.517042  -0.000000
    8       15.380848   0.000000
    9       19.567591   0.000000
   10       22.188746   0.000000
   11       28.964305   0.000000
   12       31.254931   0.000000
 
 -0.2500000E+00  0.2500000E+00  0.5000000E-01  0.1200000E-01
    1       -0.886082   1.000000
    2        0.010055   1.000000
    3        0.260979   1.000000
    4        1.385675   1.000000
    5        2.012368   1.000000
    6        4.618452   1.035391
    7       12.816320   0.000000
    8       15.284690   0.000000
    9       20.898388   0.000000
   10       23.445663   0.000000
   11       26.951290   0.000000
   12       31.011329   0.000000
 
 -0.1500000E+00  0.2500000E+00  0.5000000E-01  0.1200000E-01
    1       -1.630198   1.000000
    2       -0.097174   1.000000
    3        0.532462   1.000000
    4        1.269960   1.000000
    5        1.649832   1.000000
    6        3.364052   1.000000
    7       14.903077   0.000000
    8       17.470076   0.000000
    9       21.987482   0.000000
   10       24.896829   0.000000
   11       25.764687   0.000000
   12       29.533962   0.000000
 
 -0.5000000E-01  0.2500000E+00  0.5000000E-01  0.1200000E-01
    1       -2.552306   1.000000
    2        0.141434   1.000000
    3        0.749870   1.000000
    4        0.881569   1.000000
    5        1.819072   1.000000
    6        2.415180   1.000000
    7       15.975513   0.000000
    8       20.709168   0.000000
    9       22.589276   0.000000
   10       24.995292   0.000000
   11       26.518683   0.000000
   12       28.160111   0.000000
 
  0.3500000E+00  0.3500000E+00  0.5000000E-01  0.6000000E-02
    1       -1.524502   1.000000
    2       -0.950520   1.000000
    3        1.613916   1.000000
    4        2.193689   1.000000
    5        2.611885   1.000000
    6        2.729818   1.000000
    7       16.367370   0.000000
    8       17.465062   0.000000
    9       17.600519   0.000000
   10       21.523194   0.000000
   11       23.410844   0.000000
   12       33.195199   0.000000
 
  0.4500000E+00  0.3500000E+00  0.5000000E-01  0.1200000E-01
    1       -1.374756   1.000000
    2       -1.050883   1.000000
    3        1.650442   1.000000
    4        2.470346   1.000000
    5        2.904675   1.000000
    6        4.249626   1.000056
    7       13.624493   0.000000
    8       15.774494   0.000000
    9       16.410887   0.000000
   10       22.487594   0.000000
   11       24.347291   0.000000
   12       32.717380   0.000000
 
 -0.4500000E+00  0.3500000E+00  0.5000000E-01  0.1200000E-01
    1       -1.216872   1.000000
    2       -0.755572   1.000000
    3        1.321085   1.000000
    4        2.192268   1.000000
    5        3.087248   1.000000
    6        6.753246  -0.000000
    7       10.565811   0.000000
    8       14.011899   0.000000
    9       16.541302   0.000000
   10       22.723190   0.000000
   11       27.010760   0.000000
   12       31.713525   0.000000
 
 -0.3500000E+00  0.3500000E+00  0.5000000E-01  0.1200000E-01
    1       -0.948916   1.000000
    2       -0.279903   1.000000
    3        0.817010   1.000000
    4        1.890766   1.000000
    5        2.797456   1.000000
    6        7.908183  -0.000000
    7       10.014496  -0.000000
    8       12.378235   0.000000
    9       17.795973   0.000000
   10       22.565260   0.000000
   11       30.248222   0.000000
   12       30.587563   0.000000
 
 -0.2500000E+00  0.3500000E+00  0.5000000E-01  0.1200000E-01
    1       -0.694588   1.000000
    2       -0.005688   1.000000
    3        0.362261   1.000000
    4        1.561873   1.000000
    5        2.421021   1.000000
    6        6.191332  -0.000000
    7       11.323105   0.000000
    8       13.372921   0.000000
    9       19.534748   0.000000
   10       22.523364   0.000000
   11       28.741458   0.000000
   12       31.538754   0.000000
 
 -0.1500000E+00  0.3500000E+00  0.5000000E-01  0.1200000E-01
    1       -1.247820   1.000000
    2        0.187481   1.000000
    3        0.664718   1.000000
    4        1.105959   1.000000
    5        2.343940   1.000000
    6        4.615787   1.035283
    7       11.254563   0.000000
    8       17.006931   0.000000
    9       20.699484   0.000000
   10       22.947806   0.000000
   11       27.658528   0.000000
   12       30.418955   0.000000
 
 -0.5000000E-01  0.3500000E+00  0.5000000E-01  0.1200000E-01
    1       -1.908374   1.000000
    2        0.502957   1.000000
    3        0.729192   1.000000
    4        0.997868   1.000000
    5        2.468955   1.000000
    6        3.127658   1.000000
    7       11.997719   0.000000
    8       20.101504   0.000000
    9       21.403889   0.000000
   10       23.491244   0.000000
   11       27.983217   0.000000
   12       28.807407   0.000000
 
  0.4500000E+00  0.4500000E+00  0.5000000E-01  0.6000000E-02
    1       -1.613050   1.000000
    2       -1.318912   1.000000
    3        2.811449   1.000000
    4        2.835279   1.000000
    5        3.116954   1.000000
    6        4.806973   0.744051
    7       12.172279   0.000000
    8       15.167973   0.000000
    9       15.509997   0.000000
   10       21.792107   0.000000
   11       24.041608   0.000000
   12       34.055795   0.000000
 
 -0.4500000E+00  0.4500000E+00  0.5000000E-01  0.1200000E-01
    1       -1.543078   1.000000
    2       -1.272157   1.000000
    3        2.492717   1.000000
    4        2.769523   1.000000
    5        3.251256   1.000000
    6        6.764105  -0.000000
    7       10.340693   0.000000
    8       14.142603   0.000000
    9       15.104431   0.000000
   10       22.678251   0.000000
   11       24.613141   0.000000
   12       33.206503   0.000000
 
 -0.3500000E+00  0.4500000E+00  0.5000000E-01  0.1200000E-01
    1       -1.264972   1.000000
    2       -0.840783   1.000000
    3        1.590842   1.000000
    4        2.346507   1.000000
    5        3.086789   1.000000
    6        8.177791  -0.000000
    7        9.649467  -0.000000
    8       12.764601   0.000000
    9       16.209346   0.000000
   10       22.877583   0.000000
   11       27.001038   0.000000
   12       31.921365   0.000000
 
 -0.2500000E+00  0.4500000E+00  0.5000000E-01  0.1200000E-01
    1       -0.983260   1.000000
    2       -0.235303   1.000000
    3        0.777699   1.000000
    4        1.687819   1.000000
    5        2.909306   1.000000
    6        7.927474  -0.000000
    7        8.636000  -0.000000
    8       14.330341   0.000000
    9       17.995736   0.000000
   10       22.337531   0.000000
   11       29.975030   0.000000
   12       30.862053   0.000000
 
 -0.1500000E+00  0.4500000E+00  0.5000000E-01  0.1200000E-01
    1       -1.292881   1.000000
    2        0.050375   1.000000
    3        1.018653   1.000000
    4        1.236268   1.000000
    5        2.854501   1.000000
    6        6.575913  -0.000000
    7        8.017890  -0.000000
    8       17.395392   0.000000
    9       19.641224   0.000000
   10       21.763187   0.000000
   11       29.177712   0.000000
   12       30.834528   0.000000
 
 -0.5000000E-01  0.4500000E+00  0.5000000E-01  0.1200000E-01
    1       -1.818104   1.000000
    2        0.356946   1.000000
    3        0.605437   1.000000
    4        2.063272   1.000000
    5        2.927673   1.000000
    6        4.562060   1.026394
    7        8.539978  -0.000000
    8       19.664463   0.000000
    9       20.823220   0.000000
   10       21.962327   0.000000
   11       29.057921   0.000000
   12       29.569782   0.000000
 
 -0.4500000E+00 -0.4500000E+00  0.5000000E-01  0.6000000E-02
    1       -1.681551   1.000000
    2       -1.397516   1.000000
    3        2.915799   1.000000
    4        3.086339   1.000000
    5        3.259934   1.000000
    6        6.042707  -0.000000
    7       10.526371   0.000000
    8       14.700437   0.000000
    9       15.069455   0.000000
   10       21.887097   0.000000
   11       24.171203   0.000000
   12       33.875051   0.000000
 
 -0.3500000E+00 -0.4500000E+00  0.5000000E-01  0.1200000E-01
    1       -1.472081   1.000000
    2       -1.196666   1.000000
    3        2.162057   1.000000
    4        2.714991   1.000000
    5        3.111360   1.000000
    6        5.511824  -0.000026
    7       11.881064   0.000000
    8       14.689027   0.000000
    9       15.537689   0.000000
   10       22.596329   0.000000
   11       24.522154   0.000000
   12       33.123566   0.000000
 
 -0.2500000E+00 -0.4500000E+00  0.5000000E-01  0.1200000E-01
    1       -1.168991   1.000000
    2       -0.585621   1.000000
    3        0.917964   1.000000
    4        1.912291   1.000000
    5        3.042134   1.000000
    6        5.361935  -0.001314
    7       11.481863   0.000000
    8       15.853792   0.000000
    9       17.201151   0.000000
   10       22.489677   0.000000
   11       27.045747   0.000000
   12       31.281918   0.000000
 
 -0.1500000E+00 -0.4500000E+00  0.5000000E-01  0.1200000E-01
    1       -1.338521   1.000000
    2        0.098258   1.000000
    3        0.784103   1.000000
    4        1.137404   1.000000
    5        2.983563   1.000000
    6        5.099849  -0.034778
    7        9.869783  -0.000000
    8       18.465361   0.000000
    9       18.991559   0.000000
   10       21.812955   0.000000
   11       29.398796   0.000000
   12       30.966472   0.000000
 
 -0.3500000E+00 -0.3500000E+00  0.5000000E-01  0.6000000E-02
    1       -1.520675   1.000000
    2       -1.166590   1.000000
    3        2.329844   1.000000
    4        2.566314   1.000000
    5        2.918654   1.000000
    6        3.513256   1.000000
    7       14.318005   0.000000
    8       16.083783   0.000000
    9       16.336990   0.000000
   10       21.638544   0.000000
   11       23.783396   0.000000
   12       34.130997   0.000000
 
 -0.2500000E+00 -0.3500000E+00  0.5000000E-01  0.1200000E-01
    1       -1.373410   1.000000
    2       -0.847098   1.000000
    3        1.095246   1.000000
    4        2.099764   1.000000
    5        2.617153   1.000000
    6        3.319050   1.000000
    7       15.144627   0.000000
    8       17.101650   0.000000
    9       17.947389   0.000000
   10       22.462430   0.000000
   11       24.126784   0.000000
   12       31.853340   0.000000
 
 -0.1500000E+00 -0.3500000E+00  0.5000000E-01  0.1200000E-01
    1       -1.508132   1.000000
    2       -0.139408   1.000000
    3        0.448880   1.000000
    4        1.287059   1.000000
    5        2.582863   1.000000
    6        3.303116   1.000000
    7       13.617823   0.000000
    8       18.948168   0.000000
    9       20.129417   0.000000
   10       22.465827   0.000000
   11       27.166368   0.000000
   12       29.817652   0.000000
 
 -0.2500000E+00 -0.2500000E+00  0.5000000E-01  0.6000000E-02
    1       -1.825779   1.000000
    2       -0.686888   1.000000
    3        1.101086   1.000000
    4        1.779858   1.000000
    5        2.013324   1.000000
    6        2.538906   1.000000
    7       17.894945   0.000000
    8       18.798783   0.000000
    9       19.887570   0.000000
   10       21.601595   0.000000
   11       22.957286   0.000000
   12       31.877357   0.000000
 
 -0.1500000E+00 -0.2500000E+00  0.5000000E-01  0.1200000E-01
    1       -2.294149   1.000000
    2       -0.333938   1.000000
    3        0.798259   1.000000
    4        1.346717   1.000000
    5        1.744512   1.000000
    6        2.486318   1.000000
    7       17.656293   0.000000
    8       19.623118   0.000000
    9       21.888772   0.000000
   10       22.909681   0.000000
   11       24.524404   0.000000
   12       29.782213   0.000000
 
 -0.1500000E+00 -0.1500000E+00  0.5000000E-01  0.6000000E-02
    1       -3.157453   1.000000
    2       -0.105241   1.000000
    3        0.999619   1.000000
    4        1.047188   1.000000
    5        1.391512   1.000000
    6        2.178961   1.000000
    7       20.187355   0.000000
    8       21.492041   0.000000
    9       21.640434   0.000000
   10       22.785584   0.000000
   11       25.569812   0.000000
   12       30.078408   0.000000
 
  0.1500000E+00  0.1500000E+00  0.1500000E+00  0.2000000E-02
    1       -3.777195   1.000000
    2        0.299393   1.000000
    3        0.676887   1.000000
    4        0.676887   1.000000
    5        1.839335   1.000000
    6        1.839335   1.000000
    7       19.640892   0.000000
    8       21.172071   0.000000
    9       24.364307   0.000000
   10       24.364308   0.000000
   11       27.484631   0.000000
   12       29.722593   0.000000
 
  0.2500000E+00  0.1500000E+00  0.1500000E+00  0.6000000E-02
    1       -3.178992   1.000000
    2        0.111495   1.000000
    3        0.798855   1.000000
    4        0.869464   1.000000
    5        1.557553   1.000000
    6        2.196938   1.000000
    7       18.542980   0.000000
    8       20.371963   0.000000
    9       23.224441   0.000000
   10       25.284014   0.000000
   11       26.375878   0.000000
   12       28.983556   0.000000
 
  0.3500000E+00  0.1500000E+00  0.1500000E+00  0.6000000E-02
    1       -2.168103   1.000000
    2       -0.029851   1.000000
    3        0.706555   1.000000
    4        1.130451   1.000000
    5        1.477083   1.000000
    6        2.880006   1.000000
    7       16.073478   0.000000
    8       18.550844   0.000000
    9       22.919142   0.000000
   10       24.683981   0.000000
   11       26.511739   0.000000
   12       28.581244   0.000000
 
  0.4500000E+00  0.1500000E+00  0.1500000E+00  0.6000000E-02
    1       -1.512684   1.000000
    2        0.320063   1.000000
    3        0.687216   1.000000
    4        0.944952   1.000000
    5        2.094823   1.000000
    6        3.877505   1.000000
    7       12.294661   0.000000
    8       17.950405   0.000000
    9       21.425168   0.000000
   10       23.729875   0.000000
   11       26.956853   0.000000
   12       29.687623   0.000000
 
 -0.4500000E+00  0.1500000E+00  0.1500000E+00  0.6000000E-02
    1       -1.473222   1.000000
    2        0.192588   1.000000
    3        0.843588   1.000000
    4        1.466854   1.000000
    5        2.720275   1.000000
    6        5.471460  -0.000084
    7        8.799664  -0.000000
    8       18.009959   0.000000
    9       20.766417   0.000000
   10       21.531922   0.000000
   11       29.037328   0.000000
   12       29.952732   0.000000
 
 -0.3500000E+00  0.1500000E+00  0.1500000E+00  0.6000000E-02
    1       -1.508236   1.000000
    2        0.169540   1.000000
    3        0.887575   1.000000
    4        1.301330   1.000000
    5        3.036996   1.000000
    6        5.459122  -0.000118
    7        8.643517  -0.000000
    8       18.801605   0.000000
    9       20.309544   0.000000
   10       20.877704   0.000000
   11       30.005532   0.000000
   12       30.133350   0.000000
 
 -0.2500000E+00  0.1500000E+00  0.1500000E+00  0.6000000E-02
    1       -1.591903   1.000000
    2        0.270980   1.000000
    3        0.469934   1.000000
    4        1.036887   1.000000
    5        2.898369   1.000000
    6        3.409885   1.000000
    7       12.172093   0.000000
    8       20.068670   0.000000
    9       20.138698   0.000000
   10       21.638153   0.000000
   11       28.919575   0.000000
   12       30.019004   0.000000
 
 -0.1500000E+00  0.1500000E+00  0.1500000E+00  0.6000000E-02
    1       -2.190184   1.000000
    2       -0.213221   1.000000
    3        0.710187   1.000000
    4        1.159783   1.000000
    5        2.074148   1.000000
    6        2.488860   1.000000
    7       16.212818   0.000000
    8       20.715293   0.000000
    9       21.283594   0.000000
   10       22.778085   0.000000
   11       25.786181   0.000000
   12       30.066939   0.000000
 
  0.2500000E+00  0.2500000E+00  0.1500000E+00  0.6000000E-02
    1       -2.830490   1.000000
    2        0.010799   1.000000
    3        0.816736   1.000000
    4        0.936252   1.000000
    5        1.732894   1.000000
    6        2.236378   1.000000
    7       17.364666   0.000000
    8       21.345015   0.000000
    9       22.170002   0.000000
   10       24.531111   0.000000
   11       25.989099   0.000000
   12       29.427028   0.000000
 
  0.3500000E+00  0.2500000E+00  0.1500000E+00  0.1200000E-01
    1       -2.004146   1.000000
    2       -0.223023   1.000000
    3        0.620825   1.000000
    4        1.319989   1.000000
    5        1.718250   1.000000
    6        2.860357   1.000000
    7       16.201930   0.000000
    8       18.576922   0.000000
    9       21.967489   0.000000
   10       23.939768   0.000000
   11       26.067392   0.000000
   12       28.740767   0.000000
 
  0.4500000E+00  0.2500000E+00  0.1500000E+00  0.1200000E-01
    1       -1.114333   1.000000
    2       -0.199811   1.000000
    3        0.264084   1.000000
    4        1.532506   1.000000
    5        1.999931   1.000000
    6        3.963455   1.000000
    7       13.830460   0.000000
    8       16.376621   0.000000
    9       20.442145   0.000000
   10       24.511252   0.000000
   11       26.062926   0.000000
   12       30.058053   0.000000
 
 -0.4500000E+00  0.2500000E+00  0.1500000E+00  0.1200000E-01
    1       -0.979135   1.000000
    2       -0.033250   1.000000
    3        0.560390   1.000000
    4        1.354130   1.000000
    5        2.632251   1.000000
    6        5.590593  -0.000002
    7       10.353914   0.000000
    8       16.150285   0.000000
    9       19.026715   0.000000
   10       23.164658   0.000000
   11       28.039577   0.000000
   12       31.558870   0.000000
 
 -0.3500000E+00  0.2500000E+00  0.1500000E+00  0.1200000E-01
    1       -1.042178   1.000000
    2       -0.115593   1.000000
    3        0.871826   1.000000
    4        1.289466   1.000000
    5        2.895371   1.000000
    6        7.239080  -0.000000
    7        8.086275  -0.000000
    8       16.723889   0.000000
    9       18.021717   0.000000
   10       22.704210   0.000000
   11       28.833886   0.000000
   12       32.089695   0.000000
 
 -0.2500000E+00  0.2500000E+00  0.1500000E+00  0.1200000E-01
    1       -1.088355   1.000000
    2       -0.027091   1.000000
    3        0.329395   1.000000
    4        1.469025   1.000000
    5        2.745724   1.000000
    6        4.868893   0.494666
    7       11.340810   0.000000
    8       16.995043   0.000000
    9       18.593071   0.000000
   10       23.095246   0.000000
   11       27.981348   0.000000
   12       30.471003   0.000000
 
 -0.1500000E+00  0.2500000E+00  0.1500000E+00  0.1200000E-01
    1       -1.414411   1.000000
    2       -0.434484   1.000000
    3        0.462659   1.000000
    4        1.645108   1.000000
    5        2.094981   1.000000
    6        3.342092   1.000000
    7       15.055959   0.000000
    8       17.450441   0.000000
    9       20.169981   0.000000
   10       23.809657   0.000000
   11       25.438551   0.000000