 running on    4 total cores
 distrk:  each k-point on    4 cores,    1 groups
 distr:  one band on    1 cores,    4 groups
 using from now: INCAR     
 vasp.5.4.4.18Apr17-6-g9f103f2a35 (build Jul 01 2019 03:25:34) complex          
  
 POSCAR found type information on POSCAR  Au
 POSCAR found :  1 types and       1 ions
 scaLAPACK will be used
 LDA part: xc-table for Ceperly-Alder, standard interpolation
 found WAVECAR, reading the header
 WAVECAR: different cutoff or change in lattice found
 POSCAR, INCAR and KPOINTS ok, starting setup
 FFT: planning ...
 reading WAVECAR
 the WAVECAR file was read successfully
 initial charge from wavefunction
 entering main loop
       N       E                     dE             d eps       ncg     rms          rms(c)
DAV:   1    -0.553257571151E+01   -0.55326E+01   -0.16449E+01  2924   0.471E+01    0.622E+00
DAV:   2    -0.438819279360E+01    0.11444E+01   -0.34224E+00  2972   0.196E+01    0.112E+00
DAV:   3    -0.435384849684E+01    0.34344E-01   -0.18484E-01  3092   0.409E+00    0.844E-02
DAV:   4    -0.435413498473E+01   -0.28649E-03   -0.13750E-03  2876   0.345E-01    0.579E-02
DAV:   5    -0.435436355677E+01   -0.22857E-03   -0.69249E-05  2864   0.427E-02    0.122E-02
DAV:   6    -0.435436084493E+01    0.27118E-05   -0.19439E-05  1404   0.456E-02
   1 F= -.43543608E+01 E0= -.43546405E+01  d E =0.838841E-03
 writing wavefunctions
