 vasp.5.4.4.18Apr17-6-g9f103f2a35 (build Jul 01 2019 03:25:34) complex          
  
 executed on             LinuxIFC date 2020.07.08  00:55:47
 running on    4 total cores
 distrk:  each k-point on    4 cores,    1 groups
 distr:  one band on NCORES_PER_BAND=   1 cores,    4 groups


--------------------------------------------------------------------------------------------------------


 INCAR:
 POTCAR:   PAW Au 04Feb1998                       
 POTCAR:   PAW Au 04Feb1998                       
   VRHFIN =Au: s1d10                                                            
   LEXCH  = CA                                                                  
   EATOM  =   929.4667 eV,   68.3139 Ry                                         
                                                                                
   TITEL  = PAW Au 04Feb1998                                                    
   LULTRA =        F    use ultrasoft PP ?                                      
   IUNSCR =        1    unscreen: 0-lin 1-nonlin 2-no                           
   RPACOR =    2.330    partial core radius                                     
   POMASS =  196.966; ZVAL   =   11.000    mass and valenz                      
   RCORE  =    2.500    outmost cutoff radius                                   
   RWIGS  =    2.840; RWIGS  =    1.503    wigner-seitz radius (au A)           
   ENMAX  =  229.869; ENMIN  =  172.402 eV                                      
   RCLOC  =    1.964    cutoff for local pot                                    
   LCOR   =        T    correct aug charges                                     
   LPAW   =        T    paw PP                                                  
   EAUG   =  356.670                                                            
   DEXC   =    -.020                                                            
   RMAX   =    3.041    core radius for proj-oper                               
   RDEP   =    2.598    core radius for depl-charge                             
   QCUT   =   -4.110; QGAM   =    8.221    optimization parameters              
                                                                                
   Description                                                                  
     l     E      TYP  RCUT    TYP  RCUT                                        
     2   .000     23  2.500                                                     
     2   .000     23  2.500                                                     
     0   .000     23  2.500                                                     
     0   .000     23  2.500                                                     
     1  -.200     23  2.500                                                     
     1   .000     23  2.500                                                     
     3   .000      7   .000                                                     
  local pseudopotential read in
  partial core-charges read in
  atomic valenz-charges read in
  non local Contribution for L=           2  read in
    real space projection operators read in
  non local Contribution for L=           2  read in
    real space projection operators read in
  non local Contribution for L=           0  read in
    real space projection operators read in
  non local Contribution for L=           0  read in
    real space projection operators read in
  non local Contribution for L=           1  read in
    real space projection operators read in
  non local Contribution for L=           1  read in
    real space projection operators read in
    PAW grid and wavefunctions read in
 
   number of l-projection  operators is LMAX  =           6
   number of lm-projection operators is LMMAX =          18
 
 PAW Au 04Feb1998                       :
 energy of atom  1       EATOM= -929.4667
 kinetic energy error for atom=    0.0704 (will be added to EATOM!!)
 
 
 POSCAR: FCC Au Bulk                             
  positions in direct lattice
  No initial velocities read in
 exchange correlation table for  LEXCH =        2
   RHO(1)=    0.500       N(1)  =     2000
   RHO(2)=  100.500       N(2)  =     4000
 


--------------------------------------------------------------------------------------------------------


 ion  position               nearest neighbor table
   1  0.000  0.000  0.000-
 
  LATTYP: Found a face centered cubic cell.
 ALAT       =     4.1500000000
  
  Lattice vectors:
  
 A1 = (   0.0000000000,   2.0750000000,   2.0750000000)
 A2 = (   2.0750000000,   0.0000000000,   2.0750000000)
 A3 = (   2.0750000000,   2.0750000000,   0.0000000000)


Analysis of symmetry for initial positions (statically):
=====================================================================
 Subroutine PRICEL returns:
 Original cell was already a primitive cell.
 

 Routine SETGRP: Setting up the symmetry group for a 
 face centered cubic supercell.


 Subroutine GETGRP returns: Found 48 space group operations
 (whereof 48 operations were pure point group operations)
 out of a pool of 48 trial point group operations.


The static configuration has the point symmetry O_h .


Analysis of symmetry for dynamics (positions and initial velocities):
=====================================================================
 Subroutine PRICEL returns:
 Original cell was already a primitive cell.
 

 Routine SETGRP: Setting up the symmetry group for a 
 face centered cubic supercell.


 Subroutine GETGRP returns: Found 48 space group operations
 (whereof 48 operations were pure point group operations)
 out of a pool of 48 trial point group operations.


The dynamic configuration has the point symmetry O_h .


 Subroutine INISYM returns: Found 48 space group operations
 (whereof 48 operations are pure point group operations),
 and found     1 'primitive' translations

 
 
 KPOINTS: 10x10x10                                

Automatic generation of k-mesh.
Space group operators:
 irot       det(A)        alpha          n_x          n_y          n_z        tau_x        tau_y        tau_z
    1     1.000000     0.000000     1.000000     0.000000     0.000000     0.000000     0.000000     0.000000
    2    -1.000000     0.000000     1.000000     0.000000     0.000000     0.000000     0.000000     0.000000
    3     1.000000   120.000000    -0.577350    -0.577350    -0.577350     0.000000     0.000000     0.000000
    4    -1.000000   120.000000    -0.577350    -0.577350    -0.577350     0.000000     0.000000     0.000000
    5     1.000000   120.000000     0.577350     0.577350     0.577350     0.000000     0.000000     0.000000
    6    -1.000000   120.000000     0.577350     0.577350     0.577350     0.000000     0.000000     0.000000
    7     1.000000    90.000000     0.000000     0.000000    -1.000000     0.000000     0.000000     0.000000
    8    -1.000000    90.000000     0.000000     0.000000    -1.000000     0.000000     0.000000     0.000000
    9     1.000000   180.000000     0.000000     0.707107     0.707107     0.000000     0.000000     0.000000
   10    -1.000000   180.000000     0.000000     0.707107     0.707107     0.000000     0.000000     0.000000
   11     1.000000    90.000000     0.000000     1.000000     0.000000     0.000000     0.000000     0.000000
   12    -1.000000    90.000000     0.000000     1.000000     0.000000     0.000000     0.000000     0.000000
   13     1.000000   180.000000     0.000000     0.000000     1.000000     0.000000     0.000000     0.000000
   14    -1.000000   180.000000     0.000000     0.000000     1.000000     0.000000     0.000000     0.000000
   15     1.000000   120.000000    -0.577350     0.577350     0.577350     0.000000     0.000000     0.000000
   16    -1.000000   120.000000    -0.577350     0.577350     0.577350     0.000000     0.000000     0.000000
   17     1.000000   120.000000    -0.577350     0.577350    -0.577350     0.000000     0.000000     0.000000
   18    -1.000000   120.000000    -0.577350     0.577350    -0.577350     0.000000     0.000000     0.000000
   19     1.000000    90.000000     0.000000     0.000000     1.000000     0.000000     0.000000     0.000000
   20    -1.000000    90.000000     0.000000     0.000000     1.000000     0.000000     0.000000     0.000000
   21     1.000000    90.000000    -1.000000     0.000000     0.000000     0.000000     0.000000     0.000000
   22    -1.000000    90.000000    -1.000000     0.000000     0.000000     0.000000     0.000000     0.000000
   23     1.000000   180.000000     0.707107     0.000000     0.707107     0.000000     0.000000     0.000000
   24    -1.000000   180.000000     0.707107     0.000000     0.707107     0.000000     0.000000     0.000000
   25     1.000000   120.000000     0.577350    -0.577350     0.577350     0.000000     0.000000     0.000000
   26    -1.000000   120.000000     0.577350    -0.577350     0.577350     0.000000     0.000000     0.000000
   27     1.000000   120.000000    -0.577350    -0.577350     0.577350     0.000000     0.000000     0.000000
   28    -1.000000   120.000000    -0.577350    -0.577350     0.577350     0.000000     0.000000     0.000000
   29     1.000000   180.000000     1.000000     0.000000     0.000000     0.000000     0.000000     0.000000
   30    -1.000000   180.000000     1.000000     0.000000     0.000000     0.000000     0.000000     0.000000
   31     1.000000    90.000000     0.000000    -1.000000     0.000000     0.000000     0.000000     0.000000
   32    -1.000000    90.000000     0.000000    -1.000000     0.000000     0.000000     0.000000     0.000000
   33     1.000000   180.000000     0.707107     0.707107     0.000000     0.000000     0.000000     0.000000
   34    -1.000000   180.000000     0.707107     0.707107     0.000000     0.000000     0.000000     0.000000
   35     1.000000    90.000000     1.000000     0.000000     0.000000     0.000000     0.000000     0.000000
   36    -1.000000    90.000000     1.000000     0.000000     0.000000     0.000000     0.000000     0.000000
   37     1.000000   120.000000     0.577350    -0.577350    -0.577350     0.000000     0.000000     0.000000
   38    -1.000000   120.000000     0.577350    -0.577350    -0.577350     0.000000     0.000000     0.000000
   39     1.000000   180.000000     0.000000     1.000000     0.000000     0.000000     0.000000     0.000000
   40    -1.000000   180.000000     0.000000     1.000000     0.000000     0.000000     0.000000     0.000000
   41     1.000000   120.000000     0.577350     0.577350    -0.577350     0.000000     0.000000     0.000000
   42    -1.000000   120.000000     0.577350     0.577350    -0.577350     0.000000     0.000000     0.000000
   43     1.000000   180.000000     0.000000    -0.707107     0.707107     0.000000     0.000000     0.000000
   44    -1.000000   180.000000     0.000000    -0.707107     0.707107     0.000000     0.000000     0.000000
   45     1.000000   180.000000     0.707107    -0.707107     0.000000     0.000000     0.000000     0.000000
   46    -1.000000   180.000000     0.707107    -0.707107     0.000000     0.000000     0.000000     0.000000
   47     1.000000   180.000000     0.707107     0.000000    -0.707107     0.000000     0.000000     0.000000
   48    -1.000000   180.000000     0.707107     0.000000    -0.707107     0.000000     0.000000     0.000000
 
 Subroutine IBZKPT returns following result:
 ===========================================
 
 Found    110 irreducible k-points:
 
 Following reciprocal coordinates:
            Coordinates               Weight
  0.050000  0.050000  0.050000     96.000000
  0.150000  0.050000  0.050000    288.000000
  0.250000  0.050000  0.050000    288.000000
  0.350000  0.050000  0.050000    288.000000
  0.450000  0.050000  0.050000    288.000000
 -0.450000  0.050000  0.050000    288.000000
 -0.350000  0.050000  0.050000    288.000000
 -0.250000  0.050000  0.050000    288.000000
 -0.150000  0.050000  0.050000    288.000000
 -0.050000  0.050000  0.050000    288.000000
  0.150000  0.150000  0.050000    288.000000
  0.250000  0.150000  0.050000    576.000000
  0.350000  0.150000  0.050000    576.000000
  0.450000  0.150000  0.050000    576.000000
 -0.450000  0.150000  0.050000    576.000000
 -0.350000  0.150000  0.050000    576.000000
 -0.250000  0.150000  0.050000    576.000000
 -0.150000  0.150000  0.050000    576.000000
 -0.050000  0.150000  0.050000    576.000000
  0.250000  0.250000  0.050000    288.000000
  0.350000  0.250000  0.050000    576.000000
  0.450000  0.250000  0.050000    576.000000
 -0.450000  0.250000  0.050000    576.000000
 -0.350000  0.250000  0.050000    576.000000
 -0.250000  0.250000  0.050000    576.000000
 -0.150000  0.250000  0.050000    576.000000
 -0.050000  0.250000  0.050000    576.000000
  0.350000  0.350000  0.050000    288.000000
  0.450000  0.350000  0.050000    576.000000
 -0.450000  0.350000  0.050000    576.000000
 -0.350000  0.350000  0.050000    576.000000
 -0.250000  0.350000  0.050000    576.000000
 -0.150000  0.350000  0.050000    576.000000
 -0.050000  0.350000  0.050000    576.000000
  0.450000  0.450000  0.050000    288.000000
 -0.450000  0.450000  0.050000    576.000000
 -0.350000  0.450000  0.050000    576.000000
 -0.250000  0.450000  0.050000    576.000000
 -0.150000  0.450000  0.050000    576.000000
 -0.050000  0.450000  0.050000    576.000000
 -0.450000 -0.450000  0.050000    288.000000
 -0.350000 -0.450000  0.050000    576.000000
 -0.250000 -0.450000  0.050000    576.000000
 -0.150000 -0.450000  0.050000    576.000000
 -0.350000 -0.350000  0.050000    288.000000
 -0.250000 -0.350000  0.050000    576.000000
 -0.150000 -0.350000  0.050000    576.000000
 -0.250000 -0.250000  0.050000    288.000000
 -0.150000 -0.250000  0.050000    576.000000
 -0.150000 -0.150000  0.050000    288.000000
  0.150000  0.150000  0.150000     96.000000
  0.250000  0.150000  0.150000    288.000000
  0.350000  0.150000  0.150000    288.000000
  0.450000  0.150000  0.150000    288.000000
 -0.450000  0.150000  0.150000    288.000000
 -0.350000  0.150000  0.150000    288.000000
 -0.250000  0.150000  0.150000    288.000000
 -0.150000  0.150000  0.150000    288.000000
  0.250000  0.250000  0.150000    288.000000
  0.350000  0.250000  0.150000    576.000000
  0.450000  0.250000  0.150000    576.000000
 -0.450000  0.250000  0.150000    576.000000
 -0.350000  0.250000  0.150000    576.000000
 -0.250000  0.250000  0.150000    576.000000
 -0.150000  0.250000  0.150000    576.000000
  0.350000  0.350000  0.150000    288.000000
  0.450000  0.350000  0.150000    576.000000
 -0.450000  0.350000  0.150000    576.000000
 -0.350000  0.350000  0.150000    576.000000
 -0.250000  0.350000  0.150000    576.000000
 -0.150000  0.350000  0.150000    576.000000
  0.450000  0.450000  0.150000    288.000000
 -0.450000  0.450000  0.150000    576.000000
 -0.350000  0.450000  0.150000    576.000000
 -0.250000  0.450000  0.150000    576.000000
 -0.150000  0.450000  0.150000    576.000000
 -0.450000 -0.450000  0.150000    288.000000
 -0.350000 -0.450000  0.150000    576.000000
 -0.250000 -0.450000  0.150000    576.000000
 -0.350000 -0.350000  0.150000    288.000000
 -0.250000 -0.350000  0.150000    576.000000
 -0.250000 -0.250000  0.150000    288.000000
  0.250000  0.250000  0.250000     96.000000
  0.350000  0.250000  0.250000    288.000000
  0.450000  0.250000  0.250000    288.000000
 -0.450000  0.250000  0.250000    288.000000
 -0.350000  0.250000  0.250000    288.000000
 -0.250000  0.250000  0.250000    288.000000
  0.350000  0.350000  0.250000    288.000000
  0.450000  0.350000  0.250000    576.000000
 -0.450000  0.350000  0.250000    576.000000
 -0.350000  0.350000  0.250000    576.000000
 -0.250000  0.350000  0.250000    576.000000
  0.450000  0.450000  0.250000    288.000000
 -0.450000  0.450000  0.250000    576.000000
 -0.350000  0.450000  0.250000    576.000000
 -0.250000  0.450000  0.250000    576.000000
 -0.450000 -0.450000  0.250000    288.000000
 -0.350000 -0.450000  0.250000    576.000000
 -0.350000 -0.350000  0.250000    288.000000
  0.350000  0.350000  0.350000     96.000000
  0.450000  0.350000  0.350000    288.000000
 -0.450000  0.350000  0.350000    288.000000
 -0.350000  0.350000  0.350000    288.000000
  0.450000  0.450000  0.350000    288.000000
 -0.450000  0.450000  0.350000    576.000000
 -0.350000  0.450000  0.350000    576.000000
 -0.450000 -0.450000  0.350000    288.000000
  0.450000  0.450000  0.450000     96.000000
 -0.450000  0.450000  0.450000    288.000000
 
 Following cartesian coordinates:
            Coordinates               Weight
  0.050000  0.050000  0.050000     96.000000
 -0.050000  0.150000  0.150000    288.000000
 -0.150000  0.250000  0.250000    288.000000
 -0.250000  0.350000  0.350000    288.000000
 -0.350000  0.450000  0.450000    288.000000
  0.550000 -0.450000 -0.450000    288.000000
  0.450000 -0.350000 -0.350000    288.000000
  0.350000 -0.250000 -0.250000    288.000000
  0.250000 -0.150000 -0.150000    288.000000
  0.150000 -0.050000 -0.050000    288.000000
  0.050000  0.050000  0.250000    288.000000
 -0.050000  0.150000  0.350000    576.000000
 -0.150000  0.250000  0.450000    576.000000
 -0.250000  0.350000  0.550000    576.000000
  0.650000 -0.550000 -0.350000    576.000000
  0.550000 -0.450000 -0.250000    576.000000
  0.450000 -0.350000 -0.150000    576.000000
  0.350000 -0.250000 -0.050000    576.000000
  0.250000 -0.150000  0.050000    576.000000
  0.050000  0.050000  0.450000    288.000000
 -0.050000  0.150000  0.550000    576.000000
 -0.150000  0.250000  0.650000    576.000000
  0.750000 -0.650000 -0.250000    576.000000
  0.650000 -0.550000 -0.150000    576.000000
  0.550000 -0.450000 -0.050000    576.000000
  0.450000 -0.350000  0.050000    576.000000
  0.350000 -0.250000  0.150000    576.000000
  0.050000  0.050000  0.650000    288.000000
 -0.050000  0.150000  0.750000    576.000000
  0.850000 -0.750000 -0.150000    576.000000
  0.750000 -0.650000 -0.050000    576.000000
  0.650000 -0.550000  0.050000    576.000000
  0.550000 -0.450000  0.150000    576.000000
  0.450000 -0.350000  0.250000    576.000000
  0.050000  0.050000  0.850000    288.000000
  0.950000 -0.850000 -0.050000    576.000000
  0.850000 -0.750000  0.050000    576.000000
  0.750000 -0.650000  0.150000    576.000000
  0.650000 -0.550000  0.250000    576.000000
  0.550000 -0.450000  0.350000    576.000000
  0.050000  0.050000 -0.950000    288.000000
 -0.050000  0.150000 -0.850000    576.000000
 -0.150000  0.250000 -0.750000    576.000000
 -0.250000  0.350000 -0.650000    576.000000
  0.050000  0.050000 -0.750000    288.000000
 -0.050000  0.150000 -0.650000    576.000000
 -0.150000  0.250000 -0.550000    576.000000
  0.050000  0.050000 -0.550000    288.000000
 -0.050000  0.150000 -0.450000    576.000000
  0.050000  0.050000 -0.350000    288.000000
  0.150000  0.150000  0.150000     96.000000
  0.050000  0.250000  0.250000    288.000000
 -0.050000  0.350000  0.350000    288.000000
 -0.150000  0.450000  0.450000    288.000000
  0.750000 -0.450000 -0.450000    288.000000
  0.650000 -0.350000 -0.350000    288.000000
  0.550000 -0.250000 -0.250000    288.000000
  0.450000 -0.150000 -0.150000    288.000000
  0.150000  0.150000  0.350000    288.000000
  0.050000  0.250000  0.450000    576.000000
 -0.050000  0.350000  0.550000    576.000000
  0.850000 -0.550000 -0.350000    576.000000
  0.750000 -0.450000 -0.250000    576.000000
  0.650000 -0.350000 -0.150000    576.000000
  0.550000 -0.250000 -0.050000    576.000000
  0.150000  0.150000  0.550000    288.000000
  0.050000  0.250000  0.650000    576.000000
  0.950000 -0.650000 -0.250000    576.000000
  0.850000 -0.550000 -0.150000    576.000000
  0.750000 -0.450000 -0.050000    576.000000
  0.650000 -0.350000  0.050000    576.000000
  0.150000  0.150000  0.750000    288.000000
  1.050000 -0.750000 -0.150000    576.000000
  0.950000 -0.650000 -0.050000    576.000000
  0.850000 -0.550000  0.050000    576.000000
  0.750000 -0.450000  0.150000    576.000000
  0.150000  0.150000 -1.050000    288.000000
  0.050000  0.250000 -0.950000    576.000000
 -0.050000  0.350000 -0.850000    576.000000
  0.150000  0.150000 -0.850000    288.000000
  0.050000  0.250000 -0.750000    576.000000
  0.150000  0.150000 -0.650000    288.000000
  0.250000  0.250000  0.250000     96.000000
  0.150000  0.350000  0.350000    288.000000
  0.050000  0.450000  0.450000    288.000000
  0.950000 -0.450000 -0.450000    288.000000
  0.850000 -0.350000 -0.350000    288.000000
  0.750000 -0.250000 -0.250000    288.000000
  0.250000  0.250000  0.450000    288.000000
  0.150000  0.350000  0.550000    576.000000
  1.050000 -0.550000 -0.350000    576.000000
  0.950000 -0.450000 -0.250000    576.000000
  0.850000 -0.350000 -0.150000    576.000000
  0.250000  0.250000  0.650000    288.000000
  1.150000 -0.650000 -0.250000    576.000000
  1.050000 -0.550000 -0.150000    576.000000
  0.950000 -0.450000 -0.050000    576.000000
  0.250000  0.250000 -1.150000    288.000000
  0.150000  0.350000 -1.050000    576.000000
  0.250000  0.250000 -0.950000    288.000000
  0.350000  0.350000  0.350000     96.000000
  0.250000  0.450000  0.450000    288.000000
  1.150000 -0.450000 -0.450000    288.000000
  1.050000 -0.350000 -0.350000    288.000000
  0.350000  0.350000  0.550000    288.000000
  1.250000 -0.550000 -0.350000    576.000000
  1.150000 -0.450000 -0.250000    576.000000
  0.350000  0.350000 -1.250000    288.000000
  0.450000  0.450000  0.450000     96.000000
  1.350000 -0.450000 -0.450000    288.000000
 


--------------------------------------------------------------------------------------------------------




 Dimension of arrays:
   k-points           NKPTS =    110   k-points in BZ     NKDIM =    110   number of bands    NBANDS=     12
   number of dos      NEDOS =    301   number of ions     NIONS =      1
   non local maximal  LDIM  =      6   non local SUM 2l+1 LMDIM =     18
   total plane-waves  NPLWV =   1728
   max r-space proj   IRMAX =      1   max aug-charges    IRDMAX=   6113
   dimension x,y,z NGX =    12 NGY =   12 NGZ =   12
   dimension x,y,z NGXF=    24 NGYF=   24 NGZF=   24
   support grid    NGXF=    24 NGYF=   24 NGZF=   24
   ions per type =               1
   NGX,Y,Z   is equivalent  to a cutoff of   6.80,  6.80,  6.80 a.u.
   NGXF,Y,Z  is equivalent  to a cutoff of  13.60, 13.60, 13.60 a.u.

 SYSTEM =  FCC Au                                  
 POSCAR =  FCC Au Bulk                             

 Startparameter for this run:
   NWRITE =      2    write-flag & timer
   PREC   = normal    normal or accurate (medium, high low for compatibility)
   ISTART =      1    job   : 0-new  1-cont  2-samecut
   ICHARG =      0    charge: 1-file 2-atom 10-const
   ISPIN  =      1    spin polarized calculation?
   LNONCOLLINEAR =      F non collinear calculations
   LSORBIT =      F    spin-orbit coupling
   INIWAV =      1    electr: 0-lowe 1-rand  2-diag
   LASPH  =      F    aspherical Exc in radial PAW
   METAGGA=      F    non-selfconsistent MetaGGA calc.

 Electronic Relaxation 1
   ENCUT  =  230.0 eV  16.90 Ry    4.11 a.u.   3.63  3.63  3.63*2*pi/ulx,y,z
   ENINI  =  230.0     initial cutoff
   ENAUG  =  356.7 eV  augmentation charge cutoff
   NELM   =     60;   NELMIN=  2; NELMDL=  0     # of ELM steps 
   EDIFF  = 0.1E-03   stopping-criterion for ELM
   LREAL  =      F    real-space projection
   NLSPLINE    = F    spline interpolate recip. space projectors
   LCOMPAT=      F    compatible to vasp.4.4
   GGA_COMPAT  = T    GGA compatible to vasp.4.4-vasp.4.6
   LMAXPAW     = -100 max onsite density
   LMAXMIX     =    2 max onsite mixed and CHGCAR
   VOSKOWN=      0    Vosko Wilk Nusair interpolation
   ROPT   =    0.00000
 Ionic relaxation
   EDIFFG = 0.1E-02   stopping-criterion for IOM
   NSW    =      0    number of steps for IOM
   NBLOCK =      1;   KBLOCK =      1    inner block; outer block 
   IBRION =     -1    ionic relax: 0-MD 1-quasi-New 2-CG
   NFREE  =      0    steps in history (QN), initial steepest desc. (CG)
   ISIF   =      2    stress and relaxation
   IWAVPR =     10    prediction:  0-non 1-charg 2-wave 3-comb
   ISYM   =      2    0-nonsym 1-usesym 2-fastsym
   LCORR  =      T    Harris-Foulkes like correction to forces

   POTIM  = 0.5000    time-step for ionic-motion
   TEIN   =    0.0    initial temperature
   TEBEG  =    0.0;   TEEND  =   0.0 temperature during run
   SMASS  =  -3.00    Nose mass-parameter (am)
   estimated Nose-frequenzy (Omega)   =  0.10E-29 period in steps =****** mass=  -0.197E-27a.u.
   SCALEE = 1.0000    scale energy and forces
   NPACO  =    256;   APACO  = 16.0  distance and # of slots for P.C.
   PSTRESS=    0.0 pullay stress

  Mass of Ions in am
   POMASS = 196.97
  Ionic Valenz
   ZVAL   =  11.00
  Atomic Wigner-Seitz radii
   RWIGS  =  -1.00
  virtual crystal weights 
   VCA    =   1.00
   NELECT =      11.0000    total number of electrons
   NUPDOWN=      -1.0000    fix difference up-down

 DOS related values:
   EMIN   =  10.00;   EMAX   =-10.00  energy-range for DOS
   EFERMI =   0.00
   ISMEAR =     1;   SIGMA  =   0.20  broadening in eV -4-tet -1-fermi 0-gaus

 Electronic relaxation 2 (details)
   IALGO  =     38    algorithm
   LDIAG  =      T    sub-space diagonalisation (order eigenvalues)
   LSUBROT=      F    optimize rotation matrix (better conditioning)
   TURBO    =      0    0=normal 1=particle mesh
   IRESTART =      0    0=no restart 2=restart with 2 vectors
   NREBOOT  =      0    no. of reboots
   NMIN     =      0    reboot dimension
   EREF     =   0.00    reference energy to select bands
   IMIX   =      4    mixing-type and parameters
     AMIX     =   0.40;   BMIX     =  1.00
     AMIX_MAG =   1.60;   BMIX_MAG =  1.00
     AMIN     =   0.10
     WC   =   100.;   INIMIX=   1;  MIXPRE=   1;  MAXMIX= -45

 Intra band minimization:
   WEIMIN = 0.0000     energy-eigenvalue tresh-hold
   EBREAK =  0.21E-05  absolut break condition
   DEPER  =   0.30     relativ break condition  

   TIME   =   0.40     timestep for ELM

  volume/ion in A,a.u.               =      17.87       120.58
  Fermi-wavevector in a.u.,A,eV,Ry     =   1.392657  2.631741 26.388427  1.939495
  Thomas-Fermi vector in A             =   2.516379
 
 Write flags
   LWAVE        =      T    write WAVECAR
   LDOWNSAMPLE  =      F    k-point downsampling of WAVECAR
   LCHARG       =      T    write CHGCAR
   LVTOT        =      F    write LOCPOT, total local potential
   LVHAR        =      F    write LOCPOT, Hartree potential only
   LELF         =      F    write electronic localiz. function (ELF)
   LORBIT       =      0    0 simple, 1 ext, 2 COOP (PROOUT), +10 PAW based schemes


 Dipole corrections
   LMONO  =      F    monopole corrections only (constant potential shift)
   LDIPOL =      F    correct potential (dipole corrections)
   IDIPOL =      0    1-x, 2-y, 3-z, 4-all directions 
   EPSILON=  1.0000000 bulk dielectric constant

 Exchange correlation treatment:
   GGA     =    --    GGA type
   LEXCH   =     2    internal setting for exchange type
   VOSKOWN=      0    Vosko Wilk Nusair interpolation
   LHFCALC =     F    Hartree Fock is set to
   LHFONE  =     F    Hartree Fock one center treatment
   AEXX    =    0.0000 exact exchange contribution

 Linear response parameters
   LEPSILON=     F    determine dielectric tensor
   LRPA    =     F    only Hartree local field effects (RPA)
   LNABLA  =     F    use nabla operator in PAW spheres
   LVEL    =     F    velocity operator in full k-point grid
   LINTERFAST=   F  fast interpolation
   KINTER  =     0    interpolate to denser k-point grid
   CSHIFT  =0.1000    complex shift for real part using Kramers Kronig
   OMEGAMAX=  -1.0    maximum frequency
   DEG_THRESHOLD= 0.2000000E-02 threshold for treating states as degnerate
   RTIME   =   -0.100 relaxation time in fs
  (WPLASMAI=    0.000 imaginary part of plasma frequency in eV, 0.658/RTIME)
   DFIELD  = 0.0000000 0.0000000 0.0000000 field for delta impulse in time
 
 Orbital magnetization related:
   ORBITALMAG=     F  switch on orbital magnetization
   LCHIMAG   =     F  perturbation theory with respect to B field
   DQ        =  0.001000  dq finite difference perturbation B field
   LLRAUG    =     F  two centre corrections for induced B field



--------------------------------------------------------------------------------------------------------


 Static calculation
 charge density and potential will be updated during run
 non-spin polarized calculation
 Variant of blocked Davidson
 Davidson routine will perform the subspace rotation
 perform sub-space diagonalisation
    after iterative eigenvector-optimisation
 modified Broyden-mixing scheme, WC =      100.0
 initial mixing is a Kerker type mixing with AMIX =  0.4000 and BMIX =      1.0000
 Hartree-type preconditioning will be used
 using additional bands            6
 reciprocal scheme for non local part
 use partial core corrections
 calculate Harris-corrections to forces 
   (improved forces if not selfconsistent)
 use of overlap-Matrix (Vanderbilt PP)
 Methfessel and Paxton  Order N= 1 SIGMA  =   0.20


--------------------------------------------------------------------------------------------------------


  energy-cutoff  :      230.00
  volume of cell :       17.87
      direct lattice vectors                 reciprocal lattice vectors
     0.000000000  2.075000000  2.075000000    -0.240963855  0.240963855  0.240963855
     2.075000000  0.000000000  2.075000000     0.240963855 -0.240963855  0.240963855
     2.075000000  2.075000000  0.000000000     0.240963855  0.240963855 -0.240963855

  length of vectors
     2.934493142  2.934493142  2.934493142     0.417361640  0.417361640  0.417361640


 
 old parameters found on file WAVECAR:
  energy-cutoff  :      287.34
  volume of cell :       17.87
      direct lattice vectors                 reciprocal lattice vectors
     0.000000000  2.075000000  2.075000000    -0.240963855  0.240963855  0.240963855
     2.075000000  0.000000000  2.075000000     0.240963855 -0.240963855  0.240963855
     2.075000000  2.075000000  0.000000000     0.240963855  0.240963855 -0.240963855

  length of vectors

 
 k-points in units of 2pi/SCALE and weight: 10x10x10                                
   0.05000000  0.05000000  0.05000000       0.002
  -0.05000000  0.15000000  0.15000000       0.006
  -0.15000000  0.25000000  0.25000000       0.006
  -0.25000000  0.35000000  0.35000000       0.006
  -0.35000000  0.45000000  0.45000000       0.006
   0.55000000 -0.45000000 -0.45000000       0.006
   0.45000000 -0.35000000 -0.35000000       0.006
   0.35000000 -0.25000000 -0.25000000       0.006
   0.25000000 -0.15000000 -0.15000000       0.006
   0.15000000 -0.05000000 -0.05000000       0.006
   0.05000000  0.05000000  0.25000000       0.006
  -0.05000000  0.15000000  0.35000000       0.012
  -0.15000000  0.25000000  0.45000000       0.012
  -0.25000000  0.35000000  0.55000000       0.012
   0.65000000 -0.55000000 -0.35000000       0.012
   0.55000000 -0.45000000 -0.25000000       0.012
   0.45000000 -0.35000000 -0.15000000       0.012
   0.35000000 -0.25000000 -0.05000000       0.012
   0.25000000 -0.15000000  0.05000000       0.012
   0.05000000  0.05000000  0.45000000       0.006
  -0.05000000  0.15000000  0.55000000       0.012
  -0.15000000  0.25000000  0.65000000       0.012
   0.75000000 -0.65000000 -0.25000000       0.012
   0.65000000 -0.55000000 -0.15000000       0.012
   0.55000000 -0.45000000 -0.05000000       0.012
   0.45000000 -0.35000000  0.05000000       0.012
   0.35000000 -0.25000000  0.15000000       0.012
   0.05000000  0.05000000  0.65000000       0.006
  -0.05000000  0.15000000  0.75000000       0.012
   0.85000000 -0.75000000 -0.15000000       0.012
   0.75000000 -0.65000000 -0.05000000       0.012
   0.65000000 -0.55000000  0.05000000       0.012
   0.55000000 -0.45000000  0.15000000       0.012
   0.45000000 -0.35000000  0.25000000       0.012
   0.05000000  0.05000000  0.85000000       0.006
   0.95000000 -0.85000000 -0.05000000       0.012
   0.85000000 -0.75000000  0.05000000       0.012
   0.75000000 -0.65000000  0.15000000       0.012
   0.65000000 -0.55000000  0.25000000       0.012
   0.55000000 -0.45000000  0.35000000       0.012
   0.05000000  0.05000000 -0.95000000       0.006
  -0.05000000  0.15000000 -0.85000000       0.012
  -0.15000000  0.25000000 -0.75000000       0.012
  -0.25000000  0.35000000 -0.65000000       0.012
   0.05000000  0.05000000 -0.75000000       0.006
  -0.05000000  0.15000000 -0.65000000       0.012
  -0.15000000  0.25000000 -0.55000000       0.012
   0.05000000  0.05000000 -0.55000000       0.006
  -0.05000000  0.15000000 -0.45000000       0.012
   0.05000000  0.05000000 -0.35000000       0.006
   0.15000000  0.15000000  0.15000000       0.002
   0.05000000  0.25000000  0.25000000       0.006
  -0.05000000  0.35000000  0.35000000       0.006
  -0.15000000  0.45000000  0.45000000       0.006
   0.75000000 -0.45000000 -0.45000000       0.006
   0.65000000 -0.35000000 -0.35000000       0.006
   0.55000000 -0.25000000 -0.25000000       0.006
   0.45000000 -0.15000000 -0.15000000       0.006
   0.15000000  0.15000000  0.35000000       0.006
   0.05000000  0.25000000  0.45000000       0.012
  -0.05000000  0.35000000  0.55000000       0.012
   0.85000000 -0.55000000 -0.35000000       0.012
   0.75000000 -0.45000000 -0.25000000       0.012
   0.65000000 -0.35000000 -0.15000000       0.012
   0.55000000 -0.25000000 -0.05000000       0.012
   0.15000000  0.15000000  0.55000000       0.006
   0.05000000  0.25000000  0.65000000       0.012
   0.95000000 -0.65000000 -0.25000000       0.012
   0.85000000 -0.55000000 -0.15000000       0.012
   0.75000000 -0.45000000 -0.05000000       0.012
   0.65000000 -0.35000000  0.05000000       0.012
   0.15000000  0.15000000  0.75000000       0.006
   1.05000000 -0.75000000 -0.15000000       0.012
   0.95000000 -0.65000000 -0.05000000       0.012
   0.85000000 -0.55000000  0.05000000       0.012
   0.75000000 -0.45000000  0.15000000       0.012
   0.15000000  0.15000000 -1.05000000       0.006
   0.05000000  0.25000000 -0.95000000       0.012
  -0.05000000  0.35000000 -0.85000000       0.012
   0.15000000  0.15000000 -0.85000000       0.006
   0.05000000  0.25000000 -0.75000000       0.012
   0.15000000  0.15000000 -0.65000000       0.006
   0.25000000  0.25000000  0.25000000       0.002
   0.15000000  0.35000000  0.35000000       0.006
   0.05000000  0.45000000  0.45000000       0.006
   0.95000000 -0.45000000 -0.45000000       0.006
   0.85000000 -0.35000000 -0.35000000       0.006
   0.75000000 -0.25000000 -0.25000000       0.006
   0.25000000  0.25000000  0.45000000       0.006
   0.15000000  0.35000000  0.55000000       0.012
   1.05000000 -0.55000000 -0.35000000       0.012
   0.95000000 -0.45000000 -0.25000000       0.012
   0.85000000 -0.35000000 -0.15000000       0.012
   0.25000000  0.25000000  0.65000000       0.006
   1.15000000 -0.65000000 -0.25000000       0.012
   1.05000000 -0.55000000 -0.15000000       0.012
   0.95000000 -0.45000000 -0.05000000       0.012
   0.25000000  0.25000000 -1.15000000       0.006
   0.15000000  0.35000000 -1.05000000       0.012
   0.25000000  0.25000000 -0.95000000       0.006
   0.35000000  0.35000000  0.35000000       0.002
   0.25000000  0.45000000  0.45000000       0.006
   1.15000000 -0.45000000 -0.45000000       0.006
   1.05000000 -0.35000000 -0.35000000       0.006
   0.35000000  0.35000000  0.55000000       0.006
   1.25000000 -0.55000000 -0.35000000       0.012
   1.15000000 -0.45000000 -0.25000000       0.012
   0.35000000  0.35000000 -1.25000000       0.006
   0.45000000  0.45000000  0.45000000       0.002
   1.35000000 -0.45000000 -0.45000000       0.006
 
 k-points in reciprocal lattice and weights: 10x10x10                                
   0.05000000  0.05000000  0.05000000       0.002
   0.15000000  0.05000000  0.05000000       0.006
   0.25000000  0.05000000  0.05000000       0.006
   0.35000000  0.05000000  0.05000000       0.006
   0.45000000  0.05000000  0.05000000       0.006
  -0.45000000  0.05000000  0.05000000       0.006
  -0.35000000  0.05000000  0.05000000       0.006
  -0.25000000  0.05000000  0.05000000       0.006
  -0.15000000  0.05000000  0.05000000       0.006
  -0.05000000  0.05000000  0.05000000       0.006
   0.15000000  0.15000000  0.05000000       0.006
   0.25000000  0.15000000  0.05000000       0.012
   0.35000000  0.15000000  0.05000000       0.012
   0.45000000  0.15000000  0.05000000       0.012
  -0.45000000  0.15000000  0.05000000       0.012
  -0.35000000  0.15000000  0.05000000       0.012
  -0.25000000  0.15000000  0.05000000       0.012
  -0.15000000  0.15000000  0.05000000       0.012
  -0.05000000  0.15000000  0.05000000       0.012
   0.25000000  0.25000000  0.05000000       0.006
   0.35000000  0.25000000  0.05000000       0.012
   0.45000000  0.25000000  0.05000000       0.012
  -0.45000000  0.25000000  0.05000000       0.012
  -0.35000000  0.25000000  0.05000000       0.012
  -0.25000000  0.25000000  0.05000000       0.012
  -0.15000000  0.25000000  0.05000000       0.012
  -0.05000000  0.25000000  0.05000000       0.012
   0.35000000  0.35000000  0.05000000       0.006
   0.45000000  0.35000000  0.05000000       0.012
  -0.45000000  0.35000000  0.05000000       0.012
  -0.35000000  0.35000000  0.05000000       0.012
  -0.25000000  0.35000000  0.05000000       0.012
  -0.15000000  0.35000000  0.05000000       0.012
  -0.05000000  0.35000000  0.05000000       0.012
   0.45000000  0.45000000  0.05000000       0.006
  -0.45000000  0.45000000  0.05000000       0.012
  -0.35000000  0.45000000  0.05000000       0.012
  -0.25000000  0.45000000  0.05000000       0.012
  -0.15000000  0.45000000  0.05000000       0.012
  -0.05000000  0.45000000  0.05000000       0.012
  -0.45000000 -0.45000000  0.05000000       0.006
  -0.35000000 -0.45000000  0.05000000       0.012
  -0.25000000 -0.45000000  0.05000000       0.012
  -0.15000000 -0.45000000  0.05000000       0.012
  -0.35000000 -0.35000000  0.05000000       0.006
  -0.25000000 -0.35000000  0.05000000       0.012
  -0.15000000 -0.35000000  0.05000000       0.012
  -0.25000000 -0.25000000  0.05000000       0.006
  -0.15000000 -0.25000000  0.05000000       0.012
  -0.15000000 -0.15000000  0.05000000       0.006
   0.15000000  0.15000000  0.15000000       0.002
   0.25000000  0.15000000  0.15000000       0.006
   0.35000000  0.15000000  0.15000000       0.006
   0.45000000  0.15000000  0.15000000       0.006
  -0.45000000  0.15000000  0.15000000       0.006
  -0.35000000  0.15000000  0.15000000       0.006
  -0.25000000  0.15000000  0.15000000       0.006
  -0.15000000  0.15000000  0.15000000       0.006
   0.25000000  0.25000000  0.15000000       0.006
   0.35000000  0.25000000  0.15000000       0.012
   0.45000000  0.25000000  0.15000000       0.012
  -0.45000000  0.25000000  0.15000000       0.012
  -0.35000000  0.25000000  0.15000000       0.012
  -0.25000000  0.25000000  0.15000000       0.012
  -0.15000000  0.25000000  0.15000000       0.012
   0.35000000  0.35000000  0.15000000       0.006
   0.45000000  0.35000000  0.15000000       0.012
  -0.45000000  0.35000000  0.15000000       0.012
  -0.35000000  0.35000000  0.15000000       0.012
  -0.25000000  0.35000000  0.15000000       0.012
  -0.15000000  0.35000000  0.15000000       0.012
   0.45000000  0.45000000  0.15000000       0.006
  -0.45000000  0.45000000  0.15000000       0.012
  -0.35000000  0.45000000  0.15000000       0.012
  -0.25000000  0.45000000  0.15000000       0.012
  -0.15000000  0.45000000  0.15000000       0.012
  -0.45000000 -0.45000000  0.15000000       0.006
  -0.35000000 -0.45000000  0.15000000       0.012
  -0.25000000 -0.45000000  0.15000000       0.012
  -0.35000000 -0.35000000  0.15000000       0.006
  -0.25000000 -0.35000000  0.15000000       0.012
  -0.25000000 -0.25000000  0.15000000       0.006
   0.25000000  0.25000000  0.25000000       0.002
   0.35000000  0.25000000  0.25000000       0.006
   0.45000000  0.25000000  0.25000000       0.006
  -0.45000000  0.25000000  0.25000000       0.006
  -0.35000000  0.25000000  0.25000000       0.006
  -0.25000000  0.25000000  0.25000000       0.006
   0.35000000  0.35000000  0.25000000       0.006
   0.45000000  0.35000000  0.25000000       0.012
  -0.45000000  0.35000000  0.25000000       0.012
  -0.35000000  0.35000000  0.25000000       0.012
  -0.25000000  0.35000000  0.25000000       0.012
   0.45000000  0.45000000  0.25000000       0.006
  -0.45000000  0.45000000  0.25000000       0.012
  -0.35000000  0.45000000  0.25000000       0.012
  -0.25000000  0.45000000  0.25000000       0.012
  -0.45000000 -0.45000000  0.25000000       0.006
  -0.35000000 -0.45000000  0.25000000       0.012
  -0.35000000 -0.35000000  0.25000000       0.006
   0.35000000  0.35000000  0.35000000       0.002
   0.45000000  0.35000000  0.35000000       0.006
  -0.45000000  0.35000000  0.35000000       0.006
  -0.35000000  0.35000000  0.35000000       0.006
   0.45000000  0.45000000  0.35000000       0.006
  -0.45000000  0.45000000  0.35000000       0.012
  -0.35000000  0.45000000  0.35000000       0.012
  -0.45000000 -0.45000000  0.35000000       0.006
   0.45000000  0.45000000  0.45000000       0.002
  -0.45000000  0.45000000  0.45000000       0.006
 
 position of ions in fractional coordinates (direct lattice) 
   0.00000000  0.00000000  0.00000000
 
 position of ions in cartesian coordinates  (Angst):
   0.00000000  0.00000000  0.00000000
 


--------------------------------------------------------------------------------------------------------


 k-point  1 :   0.0500 0.0500 0.0500  plane waves:     141
 k-point  2 :   0.1500 0.0500 0.0500  plane waves:     148
 k-point  3 :   0.2500 0.0500 0.0500  plane waves:     147
 k-point  4 :   0.3500 0.0500 0.0500  plane waves:     146
 k-point  5 :   0.4500 0.0500 0.0500  plane waves:     147
 k-point  6 :  -0.4500 0.0500 0.0500  plane waves:     141
 k-point  7 :  -0.3500 0.0500 0.0500  plane waves:     146
 k-point  8 :  -0.2500 0.0500 0.0500  plane waves:     145
 k-point  9 :  -0.1500 0.0500 0.0500  plane waves:     147
 k-point 10 :  -0.0500 0.0500 0.0500  plane waves:     148
 k-point 11 :   0.1500 0.1500 0.0500  plane waves:     148
 k-point 12 :   0.2500 0.1500 0.0500  plane waves:     144
 k-point 13 :   0.3500 0.1500 0.0500  plane waves:     145
 k-point 14 :   0.4500 0.1500 0.0500  plane waves:     145
 k-point 15 :  -0.4500 0.1500 0.0500  plane waves:     139
 k-point 16 :  -0.3500 0.1500 0.0500  plane waves:     142
 k-point 17 :  -0.2500 0.1500 0.0500  plane waves:     145
 k-point 18 :  -0.1500 0.1500 0.0500  plane waves:     144
 k-point 19 :  -0.0500 0.1500 0.0500  plane waves:     146
 k-point 20 :   0.2500 0.2500 0.0500  plane waves:     143
 k-point 21 :   0.3500 0.2500 0.0500  plane waves:     141
 k-point 22 :   0.4500 0.2500 0.0500  plane waves:     142
 k-point 23 :  -0.4500 0.2500 0.0500  plane waves:     141
 k-point 24 :  -0.3500 0.2500 0.0500  plane waves:     139
 k-point 25 :  -0.2500 0.2500 0.0500  plane waves:     141
 k-point 26 :  -0.1500 0.2500 0.0500  plane waves:     143
 k-point 27 :  -0.0500 0.2500 0.0500  plane waves:     145
 k-point 28 :   0.3500 0.3500 0.0500  plane waves:     137
 k-point 29 :   0.4500 0.3500 0.0500  plane waves:     138
 k-point 30 :  -0.4500 0.3500 0.0500  plane waves:     139
 k-point 31 :  -0.3500 0.3500 0.0500  plane waves:     139
 k-point 32 :  -0.2500 0.3500 0.0500  plane waves:     140
 k-point 33 :  -0.1500 0.3500 0.0500  plane waves:     142
 k-point 34 :  -0.0500 0.3500 0.0500  plane waves:     144
 k-point 35 :   0.4500 0.4500 0.0500  plane waves:     137
 k-point 36 :  -0.4500 0.4500 0.0500  plane waves:     139
 k-point 37 :  -0.3500 0.4500 0.0500  plane waves:     137
 k-point 38 :  -0.2500 0.4500 0.0500  plane waves:     138
 k-point 39 :  -0.1500 0.4500 0.0500  plane waves:     140
 k-point 40 :  -0.0500 0.4500 0.0500  plane waves:     144
 k-point 41 :  -0.4500-0.4500 0.0500  plane waves:     142
 k-point 42 :  -0.3500-0.4500 0.0500  plane waves:     137
 k-point 43 :  -0.2500-0.4500 0.0500  plane waves:     140
 k-point 44 :  -0.1500-0.4500 0.0500  plane waves:     142
 k-point 45 :  -0.3500-0.3500 0.0500  plane waves:     135
 k-point 46 :  -0.2500-0.3500 0.0500  plane waves:     141
 k-point 47 :  -0.1500-0.3500 0.0500  plane waves:     142
 k-point 48 :  -0.2500-0.2500 0.0500  plane waves:     141
 k-point 49 :  -0.1500-0.2500 0.0500  plane waves:     142
 k-point 50 :  -0.1500-0.1500 0.0500  plane waves:     145
 k-point 51 :   0.1500 0.1500 0.1500  plane waves:     150
 k-point 52 :   0.2500 0.1500 0.1500  plane waves:     143
 k-point 53 :   0.3500 0.1500 0.1500  plane waves:     142
 k-point 54 :   0.4500 0.1500 0.1500  plane waves:     143
 k-point 55 :  -0.4500 0.1500 0.1500  plane waves:     142
 k-point 56 :  -0.3500 0.1500 0.1500  plane waves:     142
 k-point 57 :  -0.2500 0.1500 0.1500  plane waves:     144
 k-point 58 :  -0.1500 0.1500 0.1500  plane waves:     140
 k-point 59 :   0.2500 0.2500 0.1500  plane waves:     145
 k-point 60 :   0.3500 0.2500 0.1500  plane waves:     141
 k-point 61 :   0.4500 0.2500 0.1500  plane waves:     143
 k-point 62 :  -0.4500 0.2500 0.1500  plane waves:     140
 k-point 63 :  -0.3500 0.2500 0.1500  plane waves:     142
 k-point 64 :  -0.2500 0.2500 0.1500  plane waves:     141
 k-point 65 :  -0.1500 0.2500 0.1500  plane waves:     145
 k-point 66 :   0.3500 0.3500 0.1500  plane waves:     141
 k-point 67 :   0.4500 0.3500 0.1500  plane waves:     142
 k-point 68 :  -0.4500 0.3500 0.1500  plane waves:     141
 k-point 69 :  -0.3500 0.3500 0.1500  plane waves:     141
 k-point 70 :  -0.2500 0.3500 0.1500  plane waves:     139
 k-point 71 :  -0.1500 0.3500 0.1500  plane waves:     143
 k-point 72 :   0.4500 0.4500 0.1500  plane waves:     139
 k-point 73 :  -0.4500 0.4500 0.1500  plane waves:     138
 k-point 74 :  -0.3500 0.4500 0.1500  plane waves:     141
 k-point 75 :  -0.2500 0.4500 0.1500  plane waves:     143
 k-point 76 :  -0.1500 0.4500 0.1500  plane waves:     140
 k-point 77 :  -0.4500-0.4500 0.1500  plane waves:     138
 k-point 78 :  -0.3500-0.4500 0.1500  plane waves:     138
 k-point 79 :  -0.2500-0.4500 0.1500  plane waves:     139
 k-point 80 :  -0.3500-0.3500 0.1500  plane waves:     137
 k-point 81 :  -0.2500-0.3500 0.1500  plane waves:     140
 k-point 82 :  -0.2500-0.2500 0.1500  plane waves:     141
 k-point 83 :   0.2500 0.2500 0.2500  plane waves:     150
 k-point 84 :   0.3500 0.2500 0.2500  plane waves:     145
 k-point 85 :   0.4500 0.2500 0.2500  plane waves:     142
 k-point 86 :  -0.4500 0.2500 0.2500  plane waves:     138
 k-point 87 :  -0.3500 0.2500 0.2500  plane waves:     138
 k-point 88 :  -0.2500 0.2500 0.2500  plane waves:     143
 k-point 89 :   0.3500 0.3500 0.2500  plane waves:     145
 k-point 90 :   0.4500 0.3500 0.2500  plane waves:     142
 k-point 91 :  -0.4500 0.3500 0.2500  plane waves:     142
 k-point 92 :  -0.3500 0.3500 0.2500  plane waves:     140
 k-point 93 :  -0.2500 0.3500 0.2500  plane waves:     139
 k-point 94 :   0.4500 0.4500 0.2500  plane waves:     142
 k-point 95 :  -0.4500 0.4500 0.2500  plane waves:     141
 k-point 96 :  -0.3500 0.4500 0.2500  plane waves:     143
 k-point 97 :  -0.2500 0.4500 0.2500  plane waves:     144
 k-point 98 :  -0.4500-0.4500 0.2500  plane waves:     137
 k-point 99 :  -0.3500-0.4500 0.2500  plane waves:     139
 k-point ** :  -0.3500-0.3500 0.2500  plane waves:     136
 k-point ** :   0.3500 0.3500 0.3500  plane waves:     144
 k-point ** :   0.4500 0.3500 0.3500  plane waves:     144
 k-point ** :  -0.4500 0.3500 0.3500  plane waves:     140
 k-point ** :  -0.3500 0.3500 0.3500  plane waves:     141
 k-point ** :   0.4500 0.4500 0.3500  plane waves:     143
 k-point ** :  -0.4500 0.4500 0.3500  plane waves:     140
 k-point ** :  -0.3500 0.4500 0.3500  plane waves:     141
 k-point ** :  -0.4500-0.4500 0.3500  plane waves:     138
 k-point ** :   0.4500 0.4500 0.4500  plane waves:     147
 k-point ** :  -0.4500 0.4500 0.4500  plane waves:     143

 maximum and minimum number of plane-waves per node :       150      135

 maximum number of plane-waves:       150
 maximum index in each direction: 
   IXMAX=    4   IYMAX=    4   IZMAX=    3
   IXMIN=   -4   IYMIN=   -4   IZMIN=   -4


 serial   3D FFT for wavefunctions
 parallel 3D FFT for charge:
    minimum data exchange during FFTs selected (reduces bandwidth)


 total amount of memory used by VASP MPI-rank0    33902. kBytes
=======================================================================

   base      :      30000. kBytes
   nonl-proj :       2410. kBytes
   fftplans  :        238. kBytes
   grid      :        331. kBytes
   one-center:         15. kBytes
   wavefun   :        908. kBytes
 
     INWAV:  cpu time    0.0268: real time    0.0635
 Broyden mixing: mesh for mixing (old mesh)
   NGX =  7   NGY =  7   NGZ =  7
  (NGX  = 24   NGY  = 24   NGZ  = 24)
  gives a total of    343 points

 charge density for first step will be calculated from the start-wavefunctions


--------------------------------------------------------------------------------------------------------


 Maximum index for augmentation-charges         1413 (set IRDMAX)


--------------------------------------------------------------------------------------------------------


 initial charge from wavefunction
 First call to EWALD:  gamma=   0.678
 Maximum number of real-space cells 3x 3x 3
 Maximum number of reciprocal cells 3x 3x 3

    FEWALD:  cpu time    0.0013: real time    0.0013


--------------------------------------- Iteration      1(   1)  ---------------------------------------


    POTLOK:  cpu time    0.0017: real time    0.0239
    SETDIJ:  cpu time    0.0015: real time    0.0014
     EDDAV:  cpu time    0.2851: real time    0.8135
       DOS:  cpu time    0.0016: real time    0.0035
    CHARGE:  cpu time    0.0038: real time    0.0124
    MIXING:  cpu time    0.0023: real time    0.0099
    --------------------------------------------
      LOOP:  cpu time    0.2960: real time    0.8646

 eigenvalue-minimisations  :  2924
 total energy-change (2. order) :-0.5532576E+01  (-0.1644876E+01)
 number of electron      11.0000039 magnetization 
 augmentation part        4.3595289 magnetization 

 Broyden mixing:
  rms(total) = 0.62249E+00    rms(broyden)= 0.62231E+00
  rms(prec ) = 0.22435E+01
  weight for this iteration     100.00

 Free energy of the ion-electron system (eV)
  ---------------------------------------------------
  alpha Z        PSCENC =       102.85672616
  Ewald energy   TEWEN  =      -962.47537394
  -Hartree energ DENC   =      -102.21486574
  -exchange      EXHF   =         0.00000000
  -V(xc)+E(xc)   XCENC  =        14.85557357
  PAW double counting   =       730.61072243     -712.34780528
  entropy T*S    EENTRO =         0.00023650
  eigenvalues    EBANDS =        -6.21412149
  atomic energy  EATOM  =       929.39633208
  Solvation  Ediel_sol  =         0.00000000
  ---------------------------------------------------
  free energy    TOTEN  =        -5.53257571 eV

  energy without entropy =       -5.53281222  energy(sigma->0) =       -5.53265455


--------------------------------------------------------------------------------------------------------




--------------------------------------- Iteration      1(   2)  ---------------------------------------


    POTLOK:  cpu time    0.0014: real time    0.0015
    SETDIJ:  cpu time    0.0006: real time    0.0027
     EDDAV:  cpu time    0.3006: real time    0.9149
       DOS:  cpu time    0.0014: real time    0.0014
    CHARGE:  cpu time    0.0038: real time    0.0045
    MIXING:  cpu time    0.0005: real time    0.0066
    --------------------------------------------
      LOOP:  cpu time    0.3091: real time    0.9316

 eigenvalue-minimisations  :  2972
 total energy-change (2. order) : 0.1144383E+01  (-0.3422388E+00)
 number of electron      11.0000036 magnetization 
 augmentation part        4.0731041 magnetization 

 Broyden mixing:
  rms(total) = 0.11227E+00    rms(broyden)= 0.11221E+00
  rms(prec ) = 0.39497E+00
  weight for this iteration     100.00

 eigenvalues of (default mixing * dielectric matrix)
  average eigenvalue GAMMA=   1.2199
  1.2199

 Free energy of the ion-electron system (eV)
  ---------------------------------------------------
  alpha Z        PSCENC =       102.85672616
  Ewald energy   TEWEN  =      -962.47537394
  -Hartree energ DENC   =      -115.21084588
  -exchange      EXHF   =         0.00000000
  -V(xc)+E(xc)   XCENC  =        15.46701408
  PAW double counting   =       751.50308733     -733.14502699
  entropy T*S    EENTRO =         0.00104661
  eigenvalues    EBANDS =         7.21884776
  atomic energy  EATOM  =       929.39633208
  Solvation  Ediel_sol  =         0.00000000
  ---------------------------------------------------
  free energy    TOTEN  =        -4.38819279 eV

  energy without entropy =       -4.38923941  energy(sigma->0) =       -4.38854167


--------------------------------------------------------------------------------------------------------




--------------------------------------- Iteration      1(   3)  ---------------------------------------


    POTLOK:  cpu time    0.0014: real time    0.0014
    SETDIJ:  cpu time    0.0009: real time    0.0015
     EDDAV:  cpu time    0.3082: real time    0.9372
       DOS:  cpu time    0.0016: real time    0.0036
    CHARGE:  cpu time    0.0036: real time    0.0069
    MIXING:  cpu time    0.0002: real time    0.0003
    --------------------------------------------
      LOOP:  cpu time    0.3151: real time    0.9508

 eigenvalue-minimisations  :  3092
 total energy-change (2. order) : 0.3434430E-01  (-0.1848359E-01)
 number of electron      11.0000035 magnetization 
 augmentation part        4.0056783 magnetization 

 Broyden mixing:
  rms(total) = 0.84407E-02    rms(broyden)= 0.82171E-02
  rms(prec ) = 0.28592E-01
  weight for this iteration     100.00

 eigenvalues of (default mixing * dielectric matrix)
  average eigenvalue GAMMA=   0.8581
  1.2145  0.5017

 Free energy of the ion-electron system (eV)
  ---------------------------------------------------
  alpha Z        PSCENC =       102.85672616
  Ewald energy   TEWEN  =      -962.47537394
  -Hartree energ DENC   =      -118.07396324
  -exchange      EXHF   =         0.00000000
  -V(xc)+E(xc)   XCENC  =        15.60302743
  PAW double counting   =       752.34321271     -734.02851353
  entropy T*S    EENTRO =         0.00083352
  eigenvalues    EBANDS =        10.02387031
  atomic energy  EATOM  =       929.39633208
  Solvation  Ediel_sol  =         0.00000000
  ---------------------------------------------------
  free energy    TOTEN  =        -4.35384850 eV

  energy without entropy =       -4.35468202  energy(sigma->0) =       -4.35412634


--------------------------------------------------------------------------------------------------------




--------------------------------------- Iteration      1(   4)  ---------------------------------------


    POTLOK:  cpu time    0.0015: real time    0.0123
    SETDIJ:  cpu time    0.0006: real time    0.0016
     EDDAV:  cpu time    0.2860: real time    0.8669
       DOS:  cpu time    0.0013: real time    0.0013
    CHARGE:  cpu time    0.0039: real time    0.0125
    MIXING:  cpu time    0.0003: real time    0.0004
    --------------------------------------------
      LOOP:  cpu time    0.2935: real time    0.8951

 eigenvalue-minimisations  :  2876
 total energy-change (2. order) :-0.2864879E-03  (-0.1375010E-03)
 number of electron      11.0000035 magnetization 
 augmentation part        4.0075042 magnetization 

 Broyden mixing:
  rms(total) = 0.57873E-02    rms(broyden)= 0.57779E-02
  rms(prec ) = 0.14788E-01
  weight for this iteration     100.00

 eigenvalues of (default mixing * dielectric matrix)
  average eigenvalue GAMMA=   1.5787
  1.2454  1.2454  2.2453

 Free energy of the ion-electron system (eV)
  ---------------------------------------------------
  alpha Z        PSCENC =       102.85672616
  Ewald energy   TEWEN  =      -962.47537394
  -Hartree energ DENC   =      -117.93072025
  -exchange      EXHF   =         0.00000000
  -V(xc)+E(xc)   XCENC  =        15.59557360
  PAW double counting   =       750.30449002     -732.03251212
  entropy T*S    EENTRO =         0.00083549
  eigenvalues    EBANDS =         9.93051397
  atomic energy  EATOM  =       929.39633208
  Solvation  Ediel_sol  =         0.00000000
  ---------------------------------------------------
  free energy    TOTEN  =        -4.35413498 eV

  energy without entropy =       -4.35497048  energy(sigma->0) =       -4.35441348


--------------------------------------------------------------------------------------------------------




--------------------------------------- Iteration      1(   5)  ---------------------------------------


    POTLOK:  cpu time    0.0013: real time    0.0014
    SETDIJ:  cpu time    0.0006: real time    0.0027
     EDDAV:  cpu time    0.3082: real time    0.9338
       DOS:  cpu time    0.0014: real time    0.0014
    CHARGE:  cpu time    0.0037: real time    0.0113
    MIXING:  cpu time    0.0003: real time    0.0003
    --------------------------------------------
      LOOP:  cpu time    0.3155: real time    0.9510

 eigenvalue-minimisations  :  2864
 total energy-change (2. order) :-0.2285720E-03  (-0.6924850E-05)
 number of electron      11.0000035 magnetization 
 augmentation part        4.0070888 magnetization 

 Broyden mixing:
  rms(total) = 0.12215E-02    rms(broyden)= 0.12195E-02
  rms(prec ) = 0.49268E-02
  weight for this iteration     100.00

 eigenvalues of (default mixing * dielectric matrix)
  average eigenvalue GAMMA=   1.4458
  2.5557  1.1538  1.1538  0.9199

 Free energy of the ion-electron system (eV)
  ---------------------------------------------------
  alpha Z        PSCENC =       102.85672616
  Ewald energy   TEWEN  =      -962.47537394
  -Hartree energ DENC   =      -117.81003682
  -exchange      EXHF   =         0.00000000
  -V(xc)+E(xc)   XCENC  =        15.58848807
  PAW double counting   =       745.73826120     -727.56604564
  entropy T*S    EENTRO =         0.00083832
  eigenvalues    EBANDS =         9.91644701
  atomic energy  EATOM  =       929.39633208
  Solvation  Ediel_sol  =         0.00000000
  ---------------------------------------------------
  free energy    TOTEN  =        -4.35436356 eV

  energy without entropy =       -4.35520188  energy(sigma->0) =       -4.35464300


--------------------------------------------------------------------------------------------------------




--------------------------------------- Iteration      1(   6)  ---------------------------------------


    POTLOK:  cpu time    0.0018: real time    0.0079
    SETDIJ:  cpu time    0.0009: real time    0.0025
     EDDAV:  cpu time    0.2422: real time    0.6794
       DOS:  cpu time    0.0013: real time    0.0016
    --------------------------------------------
      LOOP:  cpu time    0.2461: real time    0.6914

 eigenvalue-minimisations  :  1404
 total energy-change (2. order) : 0.2711845E-05  (-0.1943890E-05)
 number of electron      11.0000035 magnetization 
 augmentation part        4.0070888 magnetization 

 Free energy of the ion-electron system (eV)
  ---------------------------------------------------
  alpha Z        PSCENC =       102.85672616
  Ewald energy   TEWEN  =      -962.47537394
  -Hartree energ DENC   =      -117.76741117
  -exchange      EXHF   =         0.00000000
  -V(xc)+E(xc)   XCENC  =        15.58634011
  PAW double counting   =       745.35074997     -727.18863315
  entropy T*S    EENTRO =         0.00083884
  eigenvalues    EBANDS =         9.88607025
  atomic energy  EATOM  =       929.39633208
  Solvation  Ediel_sol  =         0.00000000
  ---------------------------------------------------
  free energy    TOTEN  =        -4.35436084 eV

  energy without entropy =       -4.35519969  energy(sigma->0) =       -4.35464046


--------------------------------------------------------------------------------------------------------




 average (electrostatic) potential at core
  the test charge radii are     1.2098
  (the norm of the test charge is              1.0000)
       1 -46.2805
 
 
 
 E-fermi :   4.8676     XC(G=0): -12.7114     alpha+bet : -9.8152


 k-point     1 :       0.0500    0.0500    0.0500
  band No.  band energies     occupation 
      1      -4.4159      2.00000
      2       0.4489      2.00000
      3       0.5054      2.00000
      4       0.5054      2.00000
      5       1.8864      2.00000
      6       1.8864      2.00000
      7      20.3370      0.00000
      8      23.1258      0.00000
      9      23.8776      0.00000
     10      23.8776      0.00000
     11      28.5938      0.00000
     12      31.2143      0.00000

 k-point     2 :       0.1500    0.0500    0.0500
  band No.  band energies     occupation 
      1      -3.9808      2.00000
      2       0.3103      2.00000
      3       0.6330      2.00000
      4       0.6615      2.00000
      5       1.7455      2.00000
      6       1.9304      2.00000
      7      20.4972      0.00000
      8      21.2390      0.00000
      9      23.4285      0.00000
     10      24.7451      0.00000
     11      27.8181      0.00000
     12      30.4118      0.00000

 k-point     3 :       0.2500    0.0500    0.0500
  band No.  band energies     occupation 
      1      -3.0338      2.00000
      2       0.2102      2.00000
      3       0.7738      2.00000
      4       0.7923      2.00000
      5       1.7576      2.00000
      6       2.1278      2.00000
      7      17.2155      0.00000
      8      21.1072      0.00000
      9      23.4711      0.00000
     10      25.7783      0.00000
     11      26.0507      0.00000
     12      28.2580      0.00000

 k-point     4 :       0.3500    0.0500    0.0500
  band No.  band energies     occupation 
      1      -2.1721      2.00000
      2       0.6110      2.00000
      3       0.6875      2.00000
      4       0.8522      2.00000
      5       2.2074      2.00000
      6       2.6538      2.00000
      7      13.2235      0.00000
      8      20.4790      0.00000
      9      22.4864      0.00000
     10      24.5634      0.00000
     11      27.1828      0.00000
     12      28.1568      0.00000

 k-point     5 :       0.4500    0.0500    0.0500
  band No.  band energies     occupation 
      1      -1.9472      2.00000
      2       0.4705      2.00000
      3       0.5343      2.00000
      4       2.2719      2.00000
      5       2.7500      2.00000
      6       3.5357      2.00000
      7       9.5049     -0.00000
      8      19.7894      0.00000
      9      21.6184      0.00000
     10      22.6953      0.00000
     11      28.7672      0.00000
     12      28.9579      0.00000

 k-point     6 :      -0.4500    0.0500    0.0500
  band No.  band energies     occupation 
      1      -1.9383      2.00000
      2       0.4102      2.00000
      3       0.4982      2.00000
      4       2.6153      2.00000
      5       3.0115      2.00000
      6       4.4976      2.02516
      7       7.8303     -0.00000
      8      19.6038      0.00000
      9      21.6827      0.00000
     10      21.8112      0.00000
     11      29.1809      0.00000
     12      29.2473      0.00000

 k-point     7 :      -0.3500    0.0500    0.0500
  band No.  band energies     occupation 
      1      -1.9756      2.00000
      2       0.4986      2.00000
      3       0.5990      2.00000
      4       1.7470      2.00000
      5       2.8224      2.00000
      6       2.9871      2.00000
      7      10.6639      0.00000
      8      20.0222      0.00000
      9      22.0508      0.00000
     10      22.8446      0.00000
     11      28.7042      0.00000
     12      28.9163      0.00000

 k-point     8 :      -0.2500    0.0500    0.0500
  band No.  band energies     occupation 
      1      -2.3921      2.00000
      2       0.4505      2.00000
      3       0.7064      2.00000
      4       0.7567      2.00000
      5       2.1282      2.00000
      6       2.3666      2.00000
      7      14.5540      0.00000
      8      20.8605      0.00000
      9      22.9232      0.00000
     10      24.6968      0.00000
     11      26.8384      0.00000
     12      28.6631      0.00000

 k-point     9 :      -0.1500    0.0500    0.0500
  band No.  band energies     occupation 
      1      -3.3830      2.00000
      2       0.1972      2.00000
      3       0.7657      2.00000
      4       0.7761      2.00000
      5       1.7176      2.00000
      6       2.0117      2.00000
      7      18.5086      0.00000
      8      21.2608      0.00000
      9      23.4731      0.00000
     10      25.1382      0.00000
     11      26.5671      0.00000
     12      29.2345      0.00000

 k-point    10 :      -0.0500    0.0500    0.0500
  band No.  band energies     occupation 
      1      -4.1948      2.00000
      2       0.3508      2.00000
      3       0.5922      2.00000
      4       0.5963      2.00000
      5       1.7682      2.00000
      6       1.9366      2.00000
      7      20.5331      0.00000
      8      22.2160      0.00000
      9      23.5589      0.00000
     10      23.9698      0.00000
     11      28.9885      0.00000
     12      30.5257      0.00000

 k-point    11 :       0.1500    0.1500    0.0500
  band No.  band energies     occupation 
      1      -3.7646      2.00000
      2       0.1548      2.00000
      3       0.7763      2.00000
      4       0.7792      2.00000
      5       1.5717      2.00000
      6       2.0373      2.00000
      7      20.7777      0.00000
      8      21.3941      0.00000
      9      22.8089      0.00000
     10      23.5236      0.00000
     11      27.9912      0.00000
     12      29.9558      0.00000

 k-point    12 :       0.2500    0.1500    0.0500
  band No.  band energies     occupation 
      1      -2.9788      2.00000
      2      -0.0687      2.00000
      3       0.8701      2.00000
      4       1.0362      2.00000
      5       1.5280      2.00000
      6       2.2410      2.00000
      7      18.7482      0.00000
      8      20.5672      0.00000
      9      22.5826      0.00000
     10      23.7954      0.00000
     11      25.9616      0.00000
     12      29.1737      0.00000

 k-point    13 :       0.3500    0.1500    0.0500
  band No.  band energies     occupation 
      1      -2.0041      2.00000
      2       0.0161      2.00000
      3       0.5969      2.00000
      4       1.0454      2.00000
      5       2.1371      2.00000
      6       2.7787      2.00000
      7      14.7794      0.00000
      8      19.9932      0.00000
      9      21.5435      0.00000
     10      23.4300      0.00000
     11      27.0180      0.00000
     12      28.9152      0.00000

 k-point    14 :       0.4500    0.1500    0.0500
  band No.  band energies     occupation 
      1      -1.6206      2.00000
      2       0.3226      2.00000
      3       0.8220      2.00000
      4       0.9725      2.00000
      5       2.8119      2.00000
      6       3.9208      2.00000
      7      10.8748      0.00000
      8      19.6051      0.00000
      9      20.2176      0.00000
     10      22.2016      0.00000
     11      28.8807      0.00000
     12      29.8800      0.00000

 k-point    15 :      -0.4500    0.1500    0.0500
  band No.  band energies     occupation 
      1      -1.5940      2.00000
      2       0.2052      2.00000
      3       0.7743      2.00000
      4       1.6715      2.00000
      5       2.9675      2.00000
      6       5.8196     -0.00000
      7       7.8371     -0.00000
      8      19.1887      0.00000
      9      19.8234      0.00000
     10      21.5656      0.00000
     11      29.2118      0.00000
     12      30.3130      0.00000

 k-point    16 :      -0.3500    0.1500    0.0500
  band No.  band energies     occupation 
      1      -1.5822      2.00000
      2       0.2776      2.00000
      3       0.7971      2.00000
      4       1.3716      2.00000
      5       2.6810      2.00000
      6       4.6037      2.06847
      7       9.7522     -0.00000
      8      18.7599      0.00000
      9      20.4338      0.00000
     10      22.3851      0.00000
     11      28.5017      0.00000
     12      29.9251      0.00000

 k-point    17 :      -0.2500    0.1500    0.0500
  band No.  band energies     occupation 
      1      -1.7689      2.00000
      2       0.2763      2.00000
      3       0.5604      2.00000
      4       0.9691      2.00000
      5       2.0512      2.00000
      6       3.2828      2.00000
      7      13.4689      0.00000
      8      18.9617      0.00000
      9      21.5457      0.00000
     10      24.2549      0.00000
     11      26.8023      0.00000
     12      29.0536      0.00000

 k-point    18 :      -0.1500    0.1500    0.0500
  band No.  band energies     occupation 
      1      -2.6374      2.00000
      2      -0.0276      2.00000
      3       0.7755      2.00000
      4       1.0571      2.00000
      5       1.5210      2.00000
      6       2.4844      2.00000
      7      17.3533      0.00000
      8      19.5788      0.00000
      9      23.1852      0.00000
     10      24.1635      0.00000
     11      27.1498      0.00000
     12      27.9348      0.00000

 k-point    19 :      -0.0500    0.1500    0.0500
  band No.  band energies     occupation 
      1      -3.5651      2.00000
      2       0.1604      2.00000
      3       0.7802      2.00000
      4       0.7883      2.00000
      5       1.6080      2.00000
      6       2.0475      2.00000
      7      19.7782      0.00000
      8      20.9173      0.00000
      9      22.9973      0.00000
     10      24.7995      0.00000
     11      26.9199      0.00000
     12      29.7708      0.00000

 k-point    20 :       0.2500    0.2500    0.0500
  band No.  band energies     occupation 
      1      -2.4508      2.00000
      2      -0.3960      2.00000
      3       1.0150      2.00000
      4       1.3866      2.00000
      5       1.5671      2.00000
      6       2.3506      2.00000
      7      19.1590      0.00000
      8      20.2360      0.00000
      9      21.5473      0.00000
     10      22.3459      0.00000
     11      23.0448      0.00000
     12      30.7653      0.00000

 k-point    21 :       0.3500    0.2500    0.0500
  band No.  band energies     occupation 
      1      -1.6775      2.00000
      2      -0.6017      2.00000
      3       0.7812      2.00000
      4       1.7082      2.00000
      5       2.1763      2.00000
      6       2.7984      2.00000
      7      16.4633      0.00000
      8      18.3869      0.00000
      9      20.0187      0.00000
     10      22.6218      0.00000
     11      24.0103      0.00000
     12      30.7857      0.00000

 k-point    22 :       0.4500    0.2500    0.0500
  band No.  band energies     occupation 
      1      -1.2225      2.00000
      2      -0.3553      2.00000
      3       0.5560      2.00000
      4       1.5882      2.00000
      5       2.8902      2.00000
      6       4.1742      2.00001
      7      12.5055      0.00000
      8      17.6924      0.00000
      9      18.3313      0.00000
     10      22.3236      0.00000
     11      27.1157      0.00000
     12      30.6339      0.00000

 k-point    23 :      -0.4500    0.2500    0.0500
  band No.  band energies     occupation 
      1      -1.1099      2.00000
      2      -0.1086      2.00000
      3       0.7531      2.00000
      4       1.4060      2.00000
      5       2.9997      2.00000
      6       6.5316     -0.00000
      7       9.0313     -0.00000
      8      16.4251      0.00000
      9      18.3967      0.00000
     10      22.0048      0.00000
     11      29.7223      0.00000
     12      31.0841      0.00000

 k-point    24 :      -0.3500    0.2500    0.0500
  band No.  band energies     occupation 
      1      -0.9539      2.00000
      2      -0.0503      2.00000
      3       0.7812      2.00000
      4       1.3106      2.00000
      5       2.6412      2.00000
      6       6.3752     -0.00000
      7       9.5170     -0.00000
      8      15.3808      0.00000
      9      19.5676      0.00000
     10      22.1887      0.00000
     11      28.9643      0.00000
     12      31.2549      0.00000

 k-point    25 :      -0.2500    0.2500    0.0500
  band No.  band energies     occupation 
      1      -0.8861      2.00000
      2       0.0101      2.00000
      3       0.2610      2.00000
      4       1.3857      2.00000
      5       2.0124      2.00000
      6       4.6185      2.07078
      7      12.8163      0.00000
      8      15.2847      0.00000
      9      20.8984      0.00000
     10      23.4457      0.00000
     11      26.9513      0.00000
     12      31.0113      0.00000

 k-point    26 :      -0.1500    0.2500    0.0500
  band No.  band energies     occupation 
      1      -1.6302      2.00000
      2      -0.0972      2.00000
      3       0.5325      2.00000
      4       1.2700      2.00000
      5       1.6498      2.00000
      6       3.3641      2.00000
      7      14.9031      0.00000
      8      17.4701      0.00000
      9      21.9875      0.00000
     10      24.8968      0.00000
     11      25.7647      0.00000
     12      29.5340      0.00000

 k-point    27 :      -0.0500    0.2500    0.0500
  band No.  band energies     occupation 
      1      -2.5523      2.00000
      2       0.1414      2.00000
      3       0.7499      2.00000
      4       0.8816      2.00000
      5       1.8191      2.00000
      6       2.4152      2.00000
      7      15.9755      0.00000
      8      20.7092      0.00000
      9      22.5893      0.00000
     10      24.9953      0.00000
     11      26.5187      0.00000
     12      28.1601      0.00000

 k-point    28 :       0.3500    0.3500    0.0500
  band No.  band energies     occupation 
      1      -1.5245      2.00000
      2      -0.9505      2.00000
      3       1.6139      2.00000
      4       2.1937      2.00000
      5       2.6119      2.00000
      6       2.7298      2.00000
      7      16.3674      0.00000
      8      17.4651      0.00000
      9      17.6005      0.00000
     10      21.5232      0.00000
     11      23.4108      0.00000
     12      33.1952      0.00000

 k-point    29 :       0.4500    0.3500    0.0500
  band No.  band energies     occupation 
      1      -1.3748      2.00000
      2      -1.0509      2.00000
      3       1.6504      2.00000
      4       2.4703      2.00000
      5       2.9047      2.00000
      6       4.2496      2.00011
      7      13.6245      0.00000
      8      15.7745      0.00000
      9      16.4109      0.00000
     10      22.4876      0.00000
     11      24.3473      0.00000
     12      32.7174      0.00000

 k-point    30 :      -0.4500    0.3500    0.0500
  band No.  band energies     occupation 
      1      -1.2169      2.00000
      2      -0.7556      2.00000
      3       1.3211      2.00000
      4       2.1923      2.00000
      5       3.0872      2.00000
      6       6.7532     -0.00000
      7      10.5658      0.00000
      8      14.0119      0.00000
      9      16.5413      0.00000
     10      22.7232      0.00000
     11      27.0108      0.00000
     12      31.7135      0.00000

 k-point    31 :      -0.3500    0.3500    0.0500
  band No.  band energies     occupation 
      1      -0.9489      2.00000
      2      -0.2799      2.00000
      3       0.8170      2.00000
      4       1.8908      2.00000
      5       2.7975      2.00000
      6       7.9082     -0.00000
      7      10.0145     -0.00000
      8      12.3782      0.00000
      9      17.7960      0.00000
     10      22.5653      0.00000
     11      30.2482      0.00000
     12      30.5876      0.00000

 k-point    32 :      -0.2500    0.3500    0.0500
  band No.  band energies     occupation 
      1      -0.6946      2.00000
      2      -0.0057      2.00000
      3       0.3623      2.00000
      4       1.5619      2.00000
      5       2.4210      2.00000
      6       6.1913     -0.00000
      7      11.3231      0.00000
      8      13.3729      0.00000
      9      19.5347      0.00000
     10      22.5234      0.00000
     11      28.7415      0.00000
     12      31.5388      0.00000

 k-point    33 :      -0.1500    0.3500    0.0500
  band No.  band energies     occupation 
      1      -1.2478      2.00000
      2       0.1875      2.00000
      3       0.6647      2.00000
      4       1.1060      2.00000
      5       2.3439      2.00000
      6       4.6158      2.07057
      7      11.2546      0.00000
      8      17.0069      0.00000
      9      20.6995      0.00000
     10      22.9478      0.00000
     11      27.6585      0.00000
     12      30.4190      0.00000

 k-point    34 :      -0.0500    0.3500    0.0500
  band No.  band energies     occupation 
      1      -1.9084      2.00000
      2       0.5030      2.00000
      3       0.7292      2.00000
      4       0.9979      2.00000
      5       2.4690      2.00000
      6       3.1277      2.00000
      7      11.9977      0.00000
      8      20.1015      0.00000
      9      21.4039      0.00000
     10      23.4912      0.00000
     11      27.9832      0.00000
     12      28.8074      0.00000

 k-point    35 :       0.4500    0.4500    0.0500
  band No.  band energies     occupation 
      1      -1.6130      2.00000
      2      -1.3189      2.00000
      3       2.8114      2.00000
      4       2.8353      2.00000
      5       3.1170      2.00000
      6       4.8070      1.48810
      7      12.1723      0.00000
      8      15.1680      0.00000
      9      15.5100      0.00000
     10      21.7921      0.00000
     11      24.0416      0.00000
     12      34.0558      0.00000

 k-point    36 :      -0.4500    0.4500    0.0500
  band No.  band energies     occupation 
      1      -1.5431      2.00000
      2      -1.2722      2.00000
      3       2.4927      2.00000
      4       2.7695      2.00000
      5       3.2513      2.00000
      6       6.7641     -0.00000
      7      10.3407      0.00000
      8      14.1426      0.00000
      9      15.1044      0.00000
     10      22.6783      0.00000
     11      24.6131      0.00000
     12      33.2065      0.00000

 k-point    37 :      -0.3500    0.4500    0.0500
  band No.  band energies     occupation 
      1      -1.2650      2.00000
      2      -0.8408      2.00000
      3       1.5908      2.00000
      4       2.3465      2.00000
      5       3.0868      2.00000
      6       8.1778     -0.00000
      7       9.6495     -0.00000
      8      12.7646      0.00000
      9      16.2093      0.00000
     10      22.8776      0.00000
     11      27.0010      0.00000
     12      31.9214      0.00000

 k-point    38 :      -0.2500    0.4500    0.0500
  band No.  band energies     occupation 
      1      -0.9833      2.00000
      2      -0.2353      2.00000
      3       0.7777      2.00000
      4       1.6878      2.00000
      5       2.9093      2.00000
      6       7.9275     -0.00000
      7       8.6360     -0.00000
      8      14.3303      0.00000
      9      17.9957      0.00000
     10      22.3375      0.00000
     11      29.9750      0.00000
     12      30.8621      0.00000

 k-point    39 :      -0.1500    0.4500    0.0500
  band No.  band energies     occupation 
      1      -1.2929      2.00000
      2       0.0504      2.00000
      3       1.0187      2.00000
      4       1.2363      2.00000
      5       2.8545      2.00000
      6       6.5759     -0.00000
      7       8.0179     -0.00000
      8      17.3954      0.00000
      9      19.6412      0.00000
     10      21.7632      0.00000
     11      29.1777      0.00000
[...]
      6       5.4695     -0.00018
      7      12.0087      0.00000
      8      14.2993      0.00000
      9      19.0176      0.00000
     10      23.9465      0.00000
     11      27.2984      0.00000
     12      31.8085      0.00000

 k-point    92 :      -0.3500    0.3500    0.2500
  band No.  band energies     occupation 
      1      -0.6426      2.00000
      2      -0.1716      2.00000
      3       0.3684      2.00000
      4       1.7348      2.00000
      5       2.7430      2.00000
      6       7.2279     -0.00000
      7      10.7499      0.00000
      8      12.7140      0.00000
      9      17.5163      0.00000
     10      23.7108      0.00000
     11      28.7601      0.00000
     12      32.2707      0.00000

 k-point    93 :      -0.2500    0.3500    0.2500
  band No.  band energies     occupation 
      1      -0.9460      2.00000
      2      -0.4452      2.00000
      3       0.7516      2.00000
      4       1.9644      2.00000
      5       3.0087      2.00000
      6       7.4881     -0.00000
      7       9.8491     -0.00000
      8      13.9591      0.00000
      9      16.3527      0.00000
     10      23.6421      0.00000
     11      28.4788      0.00000
     12      30.4267      0.00000

 k-point    94 :       0.4500    0.4500    0.2500
  band No.  band energies     occupation 
      1      -1.3066      2.00000
      2      -0.0335      2.00000
      3       0.5795      2.00000
      4       1.2876      2.00000
      5       3.0470      2.00000
      6       4.5362      2.04088
      7      11.1018      0.00000
      8      18.2663      0.00000
      9      19.0498      0.00000
     10      21.4716      0.00000
     11      29.0116      0.00000
     12      30.7446      0.00000

 k-point    95 :      -0.4500    0.4500    0.2500
  band No.  band energies     occupation 
      1      -0.9515      2.00000
      2      -0.2843      2.00000
      3       0.5033      2.00000
      4       1.7580      2.00000
      5       2.9233      2.00000
      6       6.0908     -0.00000
      7      10.4779      0.00000
      8      15.7160      0.00000
      9      17.0993      0.00000
     10      23.3176      0.00000
     11      28.2472      0.00000
     12      30.5064      0.00000

 k-point    96 :      -0.3500    0.4500    0.2500
  band No.  band energies     occupation 
      1      -0.5850      2.00000
      2      -0.2355      2.00000
      3       0.1873      2.00000
      4       1.8626      2.00000
      5       3.0496      2.00000
      6       7.8328     -0.00000
      7      10.8370      0.00000
      8      12.6537      0.00000
      9      15.3969      0.00000
     10      25.9104      0.00000
     11      27.5264      0.00000
     12      30.5852      0.00000

 k-point    97 :      -0.2500    0.4500    0.2500
  band No.  band energies     occupation 
      1      -0.6986      2.00000
      2      -0.2286      2.00000
      3       0.3345      2.00000
      4       1.8203      2.00000
      5       3.2462      2.00000
      6       9.0160     -0.00000
      7      10.5480      0.00000
      8      11.8414      0.00000
      9      14.4419      0.00000
     10      26.6345      0.00000
     11      28.1229      0.00000
     12      29.3810      0.00000

 k-point    98 :      -0.4500   -0.4500    0.2500
  band No.  band energies     occupation 
      1      -1.1433      2.00000
      2      -0.4757      2.00000
      3       1.0837      2.00000
      4       1.8982      2.00000
      5       3.0219      2.00000
      6       7.3583     -0.00000
      7       9.4897     -0.00000
      8      14.0891      0.00000
      9      17.6585      0.00000
     10      22.0449      0.00000
     11      28.6821      0.00000
     12      31.7900      0.00000

 k-point    99 :      -0.3500   -0.4500    0.2500
  band No.  band energies     occupation 
      1      -0.9795      2.00000
      2      -0.5144      2.00000
      3       0.9429      2.00000
      4       2.0374      2.00000
      5       3.0597      2.00000
      6       8.6515     -0.00000
      7       9.6624     -0.00000
      8      12.3792      0.00000
      9      16.0426      0.00000
     10      23.8615      0.00000
     11      28.6742      0.00000
     12      30.3103      0.00000

 k-point   100 :      -0.3500   -0.3500    0.2500
  band No.  band energies     occupation 
      1      -1.1571      2.00000
      2      -0.5619      2.00000
      3       1.2676      2.00000
      4       2.1335      2.00000
      5       2.9138      2.00000
      6       8.4974     -0.00000
      7       9.3419     -0.00000
      8      12.4127      0.00000
      9      17.3785      0.00000
     10      22.2391      0.00000
     11      28.6195      0.00000
     12      32.0008      0.00000

 k-point   101 :       0.3500    0.3500    0.3500
  band No.  band energies     occupation 
      1      -2.1089      2.00000
      2       0.5951      2.00000
      3       0.5951      2.00000
      4       1.4681      2.00000
      5       2.5507      2.00000
      6       2.5507      2.00000
      7      11.8792      0.00000
      8      20.2418      0.00000
      9      23.2438      0.00000
     10      23.2438      0.00000
     11      28.4346      0.00000
     12      28.4670      0.00000

 k-point   102 :       0.4500    0.3500    0.3500
  band No.  band energies     occupation 
      1      -1.7769      2.00000
      2       0.4305      2.00000
      3       0.6985      2.00000
      4       1.3829      2.00000
      5       2.4538      2.00000
      6       3.7433      2.00000
      7      10.8053      0.00000
      8      19.4387      0.00000
      9      21.0230      0.00000
     10      23.2557      0.00000
     11      27.9527      0.00000
     12      29.1684      0.00000

 k-point   103 :      -0.4500    0.3500    0.3500
  band No.  band energies     occupation 
      1      -1.1097      2.00000
      2       0.0952      2.00000
      3       0.8613      2.00000
      4       1.1198      2.00000
      5       2.4329      2.00000
      6       5.4045     -0.00098
      7      10.3137     -0.00000
      8      16.1224      0.00000
      9      21.2322      0.00000
     10      21.5419      0.00000
     11      28.5157      0.00000
     12      30.4610      0.00000

 k-point   104 :      -0.3500    0.3500    0.3500
  band No.  band energies     occupation 
      1      -0.8527      2.00000
      2      -0.0552      2.00000
      3       0.6077      2.00000
      4       1.6916      2.00000
      5       2.5670      2.00000
      6       6.9948     -0.00000
      7      10.6721      0.00000
      8      12.7006      0.00000
      9      19.3205      0.00000
     10      21.7952      0.00000
     11      30.2552      0.00000
     12      31.2701      0.00000

 k-point   105 :       0.4500    0.4500    0.3500
  band No.  band energies     occupation 
      1      -1.7709      2.00000
      2       0.3503      2.00000
      3       0.6994      2.00000
      4       1.5640      2.00000
      5       2.9933      2.00000
      6       4.0837      2.00000
      7       9.5821     -0.00000
      8      19.8491      0.00000
      9      21.0640      0.00000
     10      21.5185      0.00000
     11      29.4476      0.00000
     12      29.6283      0.00000

 k-point   106 :      -0.4500    0.4500    0.3500
  band No.  band energies     occupation 
      1      -1.3305      2.00000
      2       0.0777      2.00000
      3       0.9739      2.00000
      4       1.1847      2.00000
      5       2.8646      2.00000
      6       5.7844     -0.00000
      7       8.8398     -0.00000
      8      18.0666      0.00000
      9      19.0752      0.00000
     10      22.2622      0.00000
     11      28.7670      0.00000
     12      31.0710      0.00000

 k-point   107 :      -0.3500    0.4500    0.3500
  band No.  band energies     occupation 
      1      -0.7723      2.00000
      2      -0.2273      2.00000
      3       0.6080      2.00000
      4       1.5484      2.00000
      5       2.8271      2.00000
      6       7.5282     -0.00000
      7       8.9133     -0.00000
      8      14.7438      0.00000
      9      17.6618      0.00000
     10      23.2881      0.00000
     11      28.8106      0.00000
     12      32.5469      0.00000

 k-point   108 :      -0.4500   -0.4500    0.3500
  band No.  band energies     occupation 
      1      -1.2218      2.00000
      2       0.0033      2.00000
      3       1.0404      2.00000
      4       1.1497      2.00000
      5       2.9528      2.00000
      6       7.0161     -0.00000
      7       7.8876     -0.00000
      8      16.8611      0.00000
      9      19.7902      0.00000
     10      21.1389      0.00000
     11      30.2911      0.00000
     12      30.5538      0.00000

 k-point   109 :       0.4500    0.4500    0.4500
  band No.  band energies     occupation 
      1      -2.0028      2.00000
      2       0.4661      2.00000
      3       0.4661      2.00000
      4       2.9452      2.00000
      5       2.9452      2.00000
      6       3.5587      2.00000
      7       8.4754     -0.00000
      8      19.6324      0.00000
      9      22.1847      0.00000
     10      22.1847      0.00000
     11      28.9826      0.00000
     12      28.9826      0.00000

 k-point   110 :      -0.4500    0.4500    0.4500
  band No.  band energies     occupation 
      1      -1.7586      2.00000
      2       0.3109      2.00000
      3       0.6279      2.00000
      4       2.0722      2.00000
      5       2.9285      2.00000
      6       5.2732     -0.01459
      7       7.8432     -0.00000
      8      19.4152      0.00000
      9      20.7154      0.00000
     10      21.6025      0.00000
     11      29.3573      0.00000
     12      29.5111      0.00000


--------------------------------------------------------------------------------------------------------


 soft charge-density along one line, spin component           1
         0         1         2         3         4         5         6         7         8         9
 total charge-density along one line
 
 pseudopotential strength for first ion, spin component:           1
-10.008   0.000  -0.000   0.000   0.000   0.000  -0.000   0.000  -0.000   0.000  -0.066   0.000   0.000   0.000  -0.000   0.000
 -0.000   0.000 -10.008   0.000  -0.000   0.000  -0.000   0.000   0.000   0.000   0.000   0.000  -0.066   0.000   0.000   0.000
  0.000   0.000  -0.000   0.000  -9.991   0.000  -0.000   0.000  -0.000   0.000  -0.000   0.000   0.000   0.000  -0.068   0.000
 -0.000   0.000  -0.000   0.000  -0.000   0.000 -10.008   0.000  -0.000   0.000   0.000   0.000   0.000   0.000   0.000   0.000
 -0.000   0.000   0.000   0.000  -0.000   0.000  -0.000   0.000  -9.991   0.000   0.000   0.000  -0.000   0.000   0.000   0.000
 -0.066   0.000   0.000   0.000  -0.000   0.000   0.000   0.000   0.000   0.000   0.279   0.000  -0.000   0.000   0.000   0.000
  0.000   0.000  -0.066   0.000   0.000   0.000   0.000   0.000  -0.000   0.000  -0.000   0.000   0.279   0.000  -0.000   0.000
 -0.000   0.000   0.000   0.000  -0.068   0.000   0.000   0.000   0.000   0.000   0.000   0.000  -0.000   0.000   0.280   0.000
  0.000   0.000   0.000   0.000   0.000   0.000  -0.066   0.000   0.000   0.000  -0.000   0.000  -0.000   0.000  -0.000   0.000
  0.000   0.000  -0.000   0.000   0.000   0.000   0.000   0.000  -0.068   0.000  -0.000   0.000   0.000   0.000  -0.000   0.000
  0.000   0.000   0.000   0.000   0.000   0.000   0.000   0.000  -0.000   0.000   0.000   0.000   0.000   0.000  -0.000   0.000
 -0.000   0.000  -0.000   0.000  -0.000   0.000  -0.000   0.000   0.000   0.000   0.000   0.000   0.000   0.000   0.000   0.000
 -0.000   0.000   0.000   0.000  -0.000   0.000   0.000   0.000  -0.000   0.000   0.000   0.000  -0.000   0.000   0.000   0.000
  0.000   0.000   0.000   0.000   0.000   0.000  -0.000   0.000  -0.000   0.000  -0.000   0.000  -0.000   0.000  -0.000   0.000
  0.000   0.000   0.000   0.000   0.000   0.000   0.000   0.000  -0.000   0.000  -0.000   0.000  -0.000   0.000  -0.000   0.000
  0.000   0.000  -0.000   0.000   0.000   0.000  -0.000   0.000   0.000   0.000  -0.000   0.000   0.000   0.000  -0.000   0.000
 -0.000   0.000  -0.000   0.000  -0.000   0.000   0.000   0.000   0.000   0.000   0.000   0.000   0.000   0.000   0.000   0.000
 -0.000   0.000  -0.000   0.000  -0.000   0.000  -0.000   0.000   0.000   0.000   0.000   0.000   0.000   0.000   0.000   0.000
 total augmentation occupancy for first ion, spin component:           1
  1.903   0.000   0.000   0.000   0.000  -0.049   0.000   0.000  -0.000  -0.000   0.000  -0.000   0.000   0.000   0.000   0.000
 -0.000   1.903   0.000   0.000  -0.000  -0.000  -0.049  -0.000   0.000  -0.000  -0.000  -0.000   0.000   0.000   0.000   0.000
  0.000   0.000   1.950   0.000   0.000   0.000   0.000  -0.093  -0.000  -0.000  -0.000   0.000   0.000   0.000   0.000   0.000
  0.000  -0.000  -0.000   1.903  -0.000   0.000  -0.000   0.000  -0.049   0.000  -0.000  -0.000   0.000   0.000   0.000   0.000
 -0.000  -0.000   0.000   0.000   1.950  -0.000  -0.000  -0.000   0.000  -0.093   0.000   0.000   0.000   0.000   0.000   0.000
 -0.049   0.000   0.000   0.000  -0.000   0.177  -0.000   0.000  -0.000  -0.000   0.000  -0.000   0.000   0.000   0.000   0.000
 -0.000  -0.049  -0.000  -0.000  -0.000  -0.000   0.177  -0.000  -0.000   0.000   0.000  -0.000   0.000   0.000   0.000   0.000
  0.000   0.000  -0.093   0.000   0.000   0.000  -0.000   0.142  -0.000   0.000  -0.000   0.000   0.000   0.000   0.000   0.000
  0.000   0.000   0.000  -0.049  -0.000  -0.000   0.000  -0.000   0.177  -0.000  -0.000  -0.000   0.000   0.000   0.000   0.000
  0.000   0.000  -0.000  -0.000  -0.093   0.000  -0.000   0.000  -0.000   0.142   0.000  -0.000   0.000   0.000   0.000   0.000
  0.000  -0.000   0.000   0.000   0.000   0.000   0.000  -0.000   0.000   0.000   1.053  -0.355   0.000   0.000   0.000   0.000
  0.000  -0.000   0.000   0.000   0.000   0.000  -0.000   0.000  -0.000  -0.000  -0.355   0.223   0.000   0.000   0.000   0.000
  0.000   0.000   0.000   0.000   0.000   0.000   0.000   0.000   0.000   0.000   0.000   0.000   0.149   0.000   0.000  -0.011
  0.000   0.000   0.000   0.000   0.000   0.000   0.000   0.000   0.000   0.000   0.000   0.000   0.000   0.149  -0.000   0.000
  0.000   0.000   0.000   0.000   0.000   0.000   0.000   0.000   0.000   0.000   0.000   0.000   0.000  -0.000   0.149   0.000
  0.000   0.000   0.000   0.000   0.000   0.000   0.000   0.000   0.000   0.000   0.000   0.000  -0.011   0.000   0.000   0.001
  0.000   0.000   0.000   0.000   0.000   0.000   0.000   0.000   0.000   0.000   0.000   0.000   0.000  -0.011   0.000   0.000
  0.000   0.000   0.000   0.000   0.000   0.000   0.000   0.000   0.000   0.000   0.000   0.000   0.000  -0.000  -0.011  -0.000


------------------------ aborting loop because EDIFF is reached ----------------------------------------


    CHARGE:  cpu time    0.0044: real time    0.0100
    FORLOC:  cpu time    0.0001: real time    0.0001
    FORNL :  cpu time    0.0117: real time    0.0222
    STRESS:  cpu time    0.0777: real time    0.1597
    FORCOR:  cpu time    0.0040: real time    0.0057
    FORHAR:  cpu time    0.0011: real time    0.0016
    MIXING:  cpu time    0.0004: real time    0.0003
    OFIELD:  cpu time    0.0000: real time    0.0000

  FORCE on cell =-STRESS in cart. coord.  units (eV):
  Direction    XX          YY          ZZ          XY          YZ          ZX
  --------------------------------------------------------------------------------------
  Alpha Z   102.85673   102.85673   102.85673
  Ewald    -320.82514  -320.82514  -320.82514    -0.00000    -0.00000     0.00000
  Hartree    39.25596    39.25596    39.25596    -0.00000    -0.00000    -0.00000
  E(xc)     -48.83373   -48.83373   -48.83373     0.00001     0.00001     0.00001
  Local      80.19958    80.19958    80.19958     0.00021     0.00021     0.00021
  n-local   -50.36700   -47.61107   -51.39098     0.59515    -0.69023     0.00406
  augment    42.54546    42.54546    42.54546    -0.00003    -0.00003    -0.00003
  Kinetic   153.12539   151.94296   154.08754    -0.47662     0.26557     0.00639
  Fock        0.00000     0.00000     0.00000     0.00000     0.00000     0.00000
  -------------------------------------------------------------------------------------
  Total      -1.53886    -1.53886    -1.53886     0.00000    -0.00000     0.00000
  in kB    -137.98301  -137.98301  -137.98301     0.00000    -0.00000     0.00000
  external pressure =     -137.98 kB  Pullay stress =        0.00 kB


 VOLUME and BASIS-vectors are now :
 -----------------------------------------------------------------------------
  energy-cutoff  :      230.00
  volume of cell :       17.87
      direct lattice vectors                 reciprocal lattice vectors
     0.000000000  2.075000000  2.075000000    -0.240963855  0.240963855  0.240963855
     2.075000000  0.000000000  2.075000000     0.240963855 -0.240963855  0.240963855
     2.075000000  2.075000000  0.000000000     0.240963855  0.240963855 -0.240963855

  length of vectors
     2.934493142  2.934493142  2.934493142     0.417361640  0.417361640  0.417361640


 FORCES acting on ions
    electron-ion (+dipol)            ewald-force                    non-local-force                 convergence-correction
 -----------------------------------------------------------------------------------------------
   -.148E-15 0.157E-15 -.256E-14   -.738E-15 0.128E-14 -.907E-15   0.000E+00 -.207E-24 0.207E-24   0.152E-13 -.741E-14 -.885E-14
 -----------------------------------------------------------------------------------------------
   -.148E-15 0.157E-15 -.256E-14   -.738E-15 0.128E-14 -.907E-15   0.000E+00 -.207E-24 0.207E-24   0.152E-13 -.741E-14 -.885E-14
 
 
 POSITION                                       TOTAL-FORCE (eV/Angst)
 -----------------------------------------------------------------------------------
      0.00000      0.00000      0.00000         0.000000      0.000000      0.000000
 -----------------------------------------------------------------------------------
    total drift:                                0.000000     -0.000000     -0.000000


--------------------------------------------------------------------------------------------------------



  FREE ENERGIE OF THE ION-ELECTRON SYSTEM (eV)
  ---------------------------------------------------
  free  energy   TOTEN  =        -4.35436084 eV

  energy  without entropy=       -4.35519969  energy(sigma->0) =       -4.35464046
 


--------------------------------------------------------------------------------------------------------


    POTLOK:  cpu time    0.0028: real time    0.0041


--------------------------------------------------------------------------------------------------------


 writing wavefunctions
     LOOP+:  cpu time    1.9981: real time    5.7792
    4ORBIT:  cpu time    0.0000: real time    0.0000

 total amount of memory used by VASP MPI-rank0    33902. kBytes
=======================================================================

   base      :      30000. kBytes
   nonl-proj :       2410. kBytes
   fftplans  :        238. kBytes
   grid      :        331. kBytes
   one-center:         15. kBytes
   wavefun   :        908. kBytes
 
  
  
 General timing and accounting informations for this job:
 ========================================================
  
                  Total CPU time used (sec):        2.432
                            User time (sec):        2.137
                          System time (sec):        0.296
                         Elapsed time (sec):        6.788
  
                   Maximum memory used (kb):       60132.
                   Average memory used (kb):           0.
  
                          Minor page faults:        18082
                          Major page faults:            0
                 Voluntary context switches:         2253
