<?xml version="1.0" encoding="ISO-8859-1"?>
<modeling>
 <generator>
  <i name="program" type="string">vasp </i>
  <i name="version" type="string">5.4.4.18Apr17-6-g9f103f2a35  </i>
  <i name="subversion" type="string">(build Jul 01 2019 03:25:34) complex            parallel </i>
  <i name="platform" type="string">LinuxIFC </i>
  <i name="date" type="string">2020 07 08 </i>
  <i name="time" type="string">00:55:47 </i>
 </generator>
 <incar>
  <i type="string" name="SYSTEM"> FCC Au</i>
  <i type="string" name="PREC">normal</i>
  <i name="EDIFF">      0.00010000</i>
  <i name="ENCUT">    230.00000000</i>
  <v type="int" name="KPOINT_BSE">    -1     0     0     0</v>
 </incar>
 <structure name="primitive_cell" >
  <crystal>
   <varray name="basis" >
    <v>       0.00000000       2.07500000       2.07500000 </v>
    <v>       2.07500000       0.00000000       2.07500000 </v>
    <v>       2.07500000       2.07500000       0.00000000 </v>
   </varray>
   <i name="volume">     17.86834375 </i>
   <varray name="rec_basis" >
    <v>      -0.24096386       0.24096386       0.24096386 </v>
    <v>       0.24096386      -0.24096386       0.24096386 </v>
    <v>       0.24096386       0.24096386      -0.24096386 </v>
   </varray>
  </crystal>
  <varray name="positions" >
   <v>       0.00000000       0.00000000       0.00000000 </v>
  </varray>
 </structure>
 <varray name="primitive_index" >
  <v type="int" >        1 </v>
 </varray>
 <kpoints>
  <generation param="Monkhorst-Pack">
   <v type="int" name="divisions">      10       10       10 </v>
   <v name="usershift">      0.00000000       0.00000000       0.00000000 </v>
   <v name="genvec1">      0.10000000       0.00000000       0.00000000 </v>
   <v name="genvec2">      0.00000000       0.10000000       0.00000000 </v>
   <v name="genvec3">      0.00000000       0.00000000       0.10000000 </v>
   <v name="shift">      0.50000000       0.50000000       0.50000000 </v>
  </generation>
  <varray name="kpointlist" >
   <v>       0.05000000       0.05000000       0.05000000 </v>
   <v>       0.15000000       0.05000000       0.05000000 </v>
   <v>       0.25000000       0.05000000       0.05000000 </v>
   <v>       0.35000000       0.05000000       0.05000000 </v>
   <v>       0.45000000       0.05000000       0.05000000 </v>
   <v>      -0.45000000       0.05000000       0.05000000 </v>
   <v>      -0.35000000       0.05000000       0.05000000 </v>
   <v>      -0.25000000       0.05000000       0.05000000 </v>
   <v>      -0.15000000       0.05000000       0.05000000 </v>
   <v>      -0.05000000       0.05000000       0.05000000 </v>
   <v>       0.15000000       0.15000000       0.05000000 </v>
   <v>       0.25000000       0.15000000       0.05000000 </v>
   <v>       0.35000000       0.15000000       0.05000000 </v>
   <v>       0.45000000       0.15000000       0.05000000 </v>
   <v>      -0.45000000       0.15000000       0.05000000 </v>
   <v>      -0.35000000       0.15000000       0.05000000 </v>
   <v>      -0.25000000       0.15000000       0.05000000 </v>
   <v>      -0.15000000       0.15000000       0.05000000 </v>
   <v>      -0.05000000       0.15000000       0.05000000 </v>
   <v>       0.25000000       0.25000000       0.05000000 </v>
   <v>       0.35000000       0.25000000       0.05000000 </v>
   <v>       0.45000000       0.25000000       0.05000000 </v>
   <v>      -0.45000000       0.25000000       0.05000000 </v>
   <v>      -0.35000000       0.25000000       0.05000000 </v>
   <v>      -0.25000000       0.25000000       0.05000000 </v>
   <v>      -0.15000000       0.25000000       0.05000000 </v>
   <v>      -0.05000000       0.25000000       0.05000000 </v>
   <v>       0.35000000       0.35000000       0.05000000 </v>
   <v>       0.45000000       0.35000000       0.05000000 </v>
   <v>      -0.45000000       0.35000000       0.05000000 </v>
   <v>      -0.35000000       0.35000000       0.05000000 </v>
   <v>      -0.25000000       0.35000000       0.05000000 </v>
   <v>      -0.15000000       0.35000000       0.05000000 </v>
   <v>      -0.05000000       0.35000000       0.05000000 </v>
   <v>       0.45000000       0.45000000       0.05000000 </v>
   <v>      -0.45000000       0.45000000       0.05000000 </v>
   <v>      -0.35000000       0.45000000       0.05000000 </v>
   <v>      -0.25000000       0.45000000       0.05000000 </v>
   <v>      -0.15000000       0.45000000       0.05000000 </v>
   <v>      -0.05000000       0.45000000       0.05000000 </v>
   <v>      -0.45000000      -0.45000000       0.05000000 </v>
   <v>      -0.35000000      -0.45000000       0.05000000 </v>
   <v>      -0.25000000      -0.45000000       0.05000000 </v>
   <v>      -0.15000000      -0.45000000       0.05000000 </v>
   <v>      -0.35000000      -0.35000000       0.05000000 </v>
   <v>      -0.25000000      -0.35000000       0.05000000 </v>
   <v>      -0.15000000      -0.35000000       0.05000000 </v>
   <v>      -0.25000000      -0.25000000       0.05000000 </v>
   <v>      -0.15000000      -0.25000000       0.05000000 </v>
   <v>      -0.15000000      -0.15000000       0.05000000 </v>
   <v>       0.15000000       0.15000000       0.15000000 </v>
   <v>       0.25000000       0.15000000       0.15000000 </v>
   <v>       0.35000000       0.15000000       0.15000000 </v>
   <v>       0.45000000       0.15000000       0.15000000 </v>
   <v>      -0.45000000       0.15000000       0.15000000 </v>
   <v>      -0.35000000       0.15000000       0.15000000 </v>
   <v>      -0.25000000       0.15000000       0.15000000 </v>
   <v>      -0.15000000       0.15000000       0.15000000 </v>
   <v>       0.25000000       0.25000000       0.15000000 </v>
   <v>       0.35000000       0.25000000       0.15000000 </v>
   <v>       0.45000000       0.25000000       0.15000000 </v>
   <v>      -0.45000000       0.25000000       0.15000000 </v>
   <v>      -0.35000000       0.25000000       0.15000000 </v>
   <v>      -0.25000000       0.25000000       0.15000000 </v>
   <v>      -0.15000000       0.25000000       0.15000000 </v>
   <v>       0.35000000       0.35000000       0.15000000 </v>
   <v>       0.45000000       0.35000000       0.15000000 </v>
   <v>      -0.45000000       0.35000000       0.15000000 </v>
   <v>      -0.35000000       0.35000000       0.15000000 </v>
   <v>      -0.25000000       0.35000000       0.15000000 </v>
   <v>      -0.15000000       0.35000000       0.15000000 </v>
   <v>       0.45000000       0.45000000       0.15000000 </v>
   <v>      -0.45000000       0.45000000       0.15000000 </v>
   <v>      -0.35000000       0.45000000       0.15000000 </v>
   <v>      -0.25000000       0.45000000       0.15000000 </v>
   <v>      -0.15000000       0.45000000       0.15000000 </v>
   <v>      -0.45000000      -0.45000000       0.15000000 </v>
   <v>      -0.35000000      -0.45000000       0.15000000 </v>
   <v>      -0.25000000      -0.45000000       0.15000000 </v>
   <v>      -0.35000000      -0.35000000       0.15000000 </v>
   <v>      -0.25000000      -0.35000000       0.15000000 </v>
   <v>      -0.25000000      -0.25000000       0.15000000 </v>
   <v>       0.25000000       0.25000000       0.25000000 </v>
   <v>       0.35000000       0.25000000       0.25000000 </v>
   <v>       0.45000000       0.25000000       0.25000000 </v>
   <v>      -0.45000000       0.25000000       0.25000000 </v>
   <v>      -0.35000000       0.25000000       0.25000000 </v>
   <v>      -0.25000000       0.25000000       0.25000000 </v>
   <v>       0.35000000       0.35000000       0.25000000 </v>
   <v>       0.45000000       0.35000000       0.25000000 </v>
   <v>      -0.45000000       0.35000000       0.25000000 </v>
   <v>      -0.35000000       0.35000000       0.25000000 </v>
   <v>      -0.25000000       0.35000000       0.25000000 </v>
   <v>       0.45000000       0.45000000       0.25000000 </v>
   <v>      -0.45000000       0.45000000       0.25000000 </v>
   <v>      -0.35000000       0.45000000       0.25000000 </v>
   <v>      -0.25000000       0.45000000       0.25000000 </v>
   <v>      -0.45000000      -0.45000000       0.25000000 </v>
   <v>      -0.35000000      -0.45000000       0.25000000 </v>
   <v>      -0.35000000      -0.35000000       0.25000000 </v>
   <v>       0.35000000       0.35000000       0.35000000 </v>
   <v>       0.45000000       0.35000000       0.35000000 </v>
   <v>      -0.45000000       0.35000000       0.35000000 </v>
   <v>      -0.35000000       0.35000000       0.35000000 </v>
   <v>       0.45000000       0.45000000       0.35000000 </v>
   <v>      -0.45000000       0.45000000       0.35000000 </v>
   <v>      -0.35000000       0.45000000       0.35000000 </v>
   <v>      -0.45000000      -0.45000000       0.35000000 </v>
   <v>       0.45000000       0.45000000       0.45000000 </v>
   <v>      -0.45000000       0.45000000       0.45000000 </v>
  </varray>
  <varray name="weights" >
   <v>       0.00200000 </v>
   <v>       0.00600000 </v>
   <v>       0.00600000 </v>
   <v>       0.00600000 </v>
   <v>       0.00600000 </v>
   <v>       0.00600000 </v>
   <v>       0.00600000 </v>
   <v>       0.00600000 </v>
   <v>       0.00600000 </v>
   <v>       0.00600000 </v>
   <v>       0.00600000 </v>
   <v>       0.01200000 </v>
   <v>       0.01200000 </v>
   <v>       0.01200000 </v>
   <v>       0.01200000 </v>
   <v>       0.01200000 </v>
   <v>       0.01200000 </v>
   <v>       0.01200000 </v>
   <v>       0.01200000 </v>
   <v>       0.00600000 </v>
   <v>       0.01200000 </v>
   <v>       0.01200000 </v>
   <v>       0.01200000 </v>
   <v>       0.01200000 </v>
   <v>       0.01200000 </v>
   <v>       0.01200000 </v>
   <v>       0.01200000 </v>
   <v>       0.00600000 </v>
   <v>       0.01200000 </v>
   <v>       0.01200000 </v>
   <v>       0.01200000 </v>
   <v>       0.01200000 </v>
   <v>       0.01200000 </v>
   <v>       0.01200000 </v>
   <v>       0.00600000 </v>
   <v>       0.01200000 </v>
   <v>       0.01200000 </v>
   <v>       0.01200000 </v>
   <v>       0.01200000 </v>
   <v>       0.01200000 </v>
   <v>       0.00600000 </v>
   <v>       0.01200000 </v>
   <v>       0.01200000 </v>
   <v>       0.01200000 </v>
   <v>       0.00600000 </v>
   <v>       0.01200000 </v>
   <v>       0.01200000 </v>
   <v>       0.00600000 </v>
   <v>       0.01200000 </v>
   <v>       0.00600000 </v>
   <v>       0.00200000 </v>
   <v>       0.00600000 </v>
   <v>       0.00600000 </v>
   <v>       0.00600000 </v>
   <v>       0.00600000 </v>
   <v>       0.00600000 </v>
   <v>       0.00600000 </v>
   <v>       0.00600000 </v>
   <v>       0.00600000 </v>
   <v>       0.01200000 </v>
   <v>       0.01200000 </v>
   <v>       0.01200000 </v>
   <v>       0.01200000 </v>
   <v>       0.01200000 </v>
   <v>       0.01200000 </v>
   <v>       0.00600000 </v>
   <v>       0.01200000 </v>
   <v>       0.01200000 </v>
   <v>       0.01200000 </v>
   <v>       0.01200000 </v>
   <v>       0.01200000 </v>
   <v>       0.00600000 </v>
   <v>       0.01200000 </v>
   <v>       0.01200000 </v>
   <v>       0.01200000 </v>
   <v>       0.01200000 </v>
   <v>       0.00600000 </v>
   <v>       0.01200000 </v>
   <v>       0.01200000 </v>
   <v>       0.00600000 </v>
   <v>       0.01200000 </v>
   <v>       0.00600000 </v>
   <v>       0.00200000 </v>
   <v>       0.00600000 </v>
   <v>       0.00600000 </v>
   <v>       0.00600000 </v>
   <v>       0.00600000 </v>
   <v>       0.00600000 </v>
   <v>       0.00600000 </v>
   <v>       0.01200000 </v>
   <v>       0.01200000 </v>
   <v>       0.01200000 </v>
   <v>       0.01200000 </v>
   <v>       0.00600000 </v>
   <v>       0.01200000 </v>
   <v>       0.01200000 </v>
   <v>       0.01200000 </v>
   <v>       0.00600000 </v>
   <v>       0.01200000 </v>
   <v>       0.00600000 </v>
   <v>       0.00200000 </v>
   <v>       0.00600000 </v>
   <v>       0.00600000 </v>
   <v>       0.00600000 </v>
   <v>       0.00600000 </v>
   <v>       0.01200000 </v>
   <v>       0.01200000 </v>
   <v>       0.00600000 </v>
   <v>       0.00200000 </v>
   <v>       0.00600000 </v>
  </varray>
 </kpoints>
 <parameters>
  <separator name="general" >
   <i type="string" name="SYSTEM">FCC Au</i>
   <i type="logical" name="LCOMPAT"> F  </i>
  </separator>
  <separator name="electronic" >
   <i type="string" name="PREC">normal</i>
   <i name="ENMAX">    230.00000000</i>
   <i name="ENAUG">    356.67000000</i>
   <i name="EDIFF">      0.00010000</i>
   <i type="int" name="IALGO">    38</i>
   <i type="int" name="IWAVPR">    10</i>
   <i type="int" name="NBANDS">    12</i>
   <i name="NELECT">     11.00000000</i>
   <i type="int" name="TURBO">     0</i>
   <i type="int" name="IRESTART">     0</i>
   <i type="int" name="NREBOOT">     0</i>
   <i type="int" name="NMIN">     0</i>
   <i name="EREF">      0.00000000</i>
   <separator name="electronic smearing" >
    <i type="int" name="ISMEAR">     1</i>
    <i name="SIGMA">      0.20000000</i>
    <i name="KSPACING">      0.50000000</i>
    <i type="logical" name="KGAMMA"> T  </i>
   </separator>
   <separator name="electronic projectors" >
    <i type="logical" name="LREAL"> F  </i>
    <v name="ROPT">      0.00000000</v>
    <i type="int" name="LMAXPAW">  -100</i>
    <i type="int" name="LMAXMIX">     2</i>
    <i type="logical" name="NLSPLINE"> F  </i>
   </separator>
   <separator name="electronic startup" >
    <i type="int" name="ISTART">     1</i>
    <i type="int" name="ICHARG">     0</i>
    <i type="int" name="INIWAV">     1</i>
   </separator>
   <separator name="electronic spin" >
    <i type="int" name="ISPIN">     1</i>
    <i type="logical" name="LNONCOLLINEAR"> F  </i>
    <v name="MAGMOM">      1.00000000</v>
    <i name="NUPDOWN">     -1.00000000</i>
    <i type="logical" name="LSORBIT"> F  </i>
    <v name="SAXIS">      0.00000000      0.00000000      1.00000000</v>
    <i type="logical" name="LSPIRAL"> F  </i>
    <v name="QSPIRAL">      0.00000000      0.00000000      0.00000000</v>
    <i type="logical" name="LZEROZ"> F  </i>
   </separator>
   <separator name="electronic exchange-correlation" >
    <i type="logical" name="LASPH"> F  </i>
    <i type="logical" name="LMETAGGA"> F  </i>
   </separator>
   <separator name="electronic convergence" >
    <i type="int" name="NELM">    60</i>
    <i type="int" name="NELMDL">     0</i>
    <i type="int" name="NELMIN">     2</i>
    <i name="ENINI">    230.00000000</i>
    <separator name="electronic convergence detail" >
     <i type="logical" name="LDIAG"> T  </i>
     <i type="logical" name="LSUBROT"> F  </i>
     <i name="WEIMIN">      0.00000000</i>
     <i name="EBREAK">      0.00000208</i>
     <i name="DEPER">      0.30000000</i>
     <i type="int" name="NRMM">     4</i>
     <i name="TIME">      0.40000000</i>
    </separator>
   </separator>
   <separator name="electronic mixer" >
    <i name="AMIX">      0.40000000</i>
    <i name="BMIX">      1.00000000</i>
    <i name="AMIN">      0.10000000</i>
    <i name="AMIX_MAG">      1.60000000</i>
    <i name="BMIX_MAG">      1.00000000</i>
    <separator name="electronic mixer details" >
     <i type="int" name="IMIX">     4</i>
     <i type="logical" name="MIXFIRST"> F  </i>
     <i type="int" name="MAXMIX">   -45</i>
     <i name="WC">    100.00000000</i>
     <i type="int" name="INIMIX">     1</i>
     <i type="int" name="MIXPRE">     1</i>
     <i type="int" name="MREMOVE">     5</i>
    </separator>
   </separator>
   <separator name="electronic dipolcorrection" >
    <i type="logical" name="LDIPOL"> F  </i>
    <i type="logical" name="LMONO"> F  </i>
    <i type="int" name="IDIPOL">     0</i>
    <i name="EPSILON">      1.00000000</i>
    <v name="DIPOL">   -100.00000000   -100.00000000   -100.00000000</v>
    <i name="EFIELD">      0.00000000</i>
   </separator>
  </separator>
  <separator name="grids" >
   <i type="int" name="NGX">    12</i>
   <i type="int" name="NGY">    12</i>
   <i type="int" name="NGZ">    12</i>
   <i type="int" name="NGXF">    24</i>
   <i type="int" name="NGYF">    24</i>
   <i type="int" name="NGZF">    24</i>
   <i type="logical" name="ADDGRID"> F  </i>
  </separator>
  <separator name="ionic" >
   <i type="int" name="NSW">     0</i>
   <i type="int" name="IBRION">    -1</i>
   <i type="int" name="MDALGO">     0</i>
   <i type="int" name="ISIF">     2</i>
   <i name="PSTRESS">      0.00000000</i>
   <i name="EDIFFG">      0.00100000</i>
   <i type="int" name="NFREE">     0</i>
   <i name="POTIM">      0.50000000</i>
   <i name="SMASS">     -3.00000000</i>
   <i name="SCALEE">      1.00000000</i>
  </separator>
  <separator name="ionic md" >
   <i name="TEBEG">      0.00010000</i>
   <i name="TEEND">      0.00010000</i>
   <i type="int" name="NBLOCK">     1</i>
   <i type="int" name="KBLOCK">     1</i>
   <i type="int" name="NPACO">   256</i>
   <i name="APACO">     16.00000000</i>
  </separator>
  <separator name="symmetry" >
   <i type="int" name="ISYM">     2</i>
   <i name="SYMPREC">      0.00001000</i>
  </separator>
  <separator name="dos" >
   <i type="int" name="LORBIT">     0</i>
   <v name="RWIGS">     -1.00000000</v>
   <i type="int" name="NEDOS">   301</i>
   <i name="EMIN">     10.00000000</i>
   <i name="EMAX">    -10.00000000</i>
   <i name="EFERMI">      0.00000000</i>
  </separator>
  <separator name="writing" >
   <i type="int" name="NWRITE">     2</i>
   <i type="logical" name="LWAVE"> T  </i>
   <i type="logical" name="LDOWNSAMPLE"> F  </i>
   <i type="logical" name="LCHARG"> T  </i>
   <i type="logical" name="LPARD"> F  </i>
   <i type="logical" name="LVTOT"> F  </i>
   <i type="logical" name="LVHAR"> F  </i>
   <i type="logical" name="LELF"> F  </i>
   <i type="logical" name="LOPTICS"> F  </i>
   <v name="STM">      0.00000000      0.00000000      0.00000000      0.00000000      0.00000000      0.00000000      0.00000000</v>
  </separator>
  <separator name="performance" >
   <i type="int" name="NPAR">     4</i>
   <i type="int" name="NSIM">     4</i>
   <i type="int" name="NBLK">    -1</i>
   <i type="logical" name="LPLANE"> T  </i>
   <i type="logical" name="LSCALAPACK"> T  </i>
   <i type="logical" name="LSCAAWARE"> F  </i>
   <i type="logical" name="LSCALU"> F  </i>
   <i type="logical" name="LASYNC"> F  </i>
   <i type="logical" name="LORBITALREAL"> F  </i>
  </separator>
  <separator name="miscellaneous" >
   <i type="int" name="IDIOT">     3</i>
   <i type="int" name="ISPECIAL">     0</i>
   <i type="logical" name="LMUSIC"> F  </i>
   <v name="POMASS">    196.96600000</v>
   <v name="DARWINR">      0.00000000</v>
   <v name="DARWINV">      1.00000000</v>
   <i type="logical" name="LCORR"> T  </i>
  </separator>
  <i type="logical" name="GGA_COMPAT"> T  </i>
  <i type="logical" name="LBERRY"> F  </i>
  <i type="int" name="ICORELEVEL">     0</i>
  <i type="logical" name="LDAU"> F  </i>
  <i type="int" name="I_CONSTRAINED_M">     0</i>
  <separator name="electronic exchange-correlation" >
   <i type="string" name="GGA">--</i>
   <i type="int" name="VOSKOWN">     0</i>
   <i type="logical" name="LHFCALC"> F  </i>
   <i type="string" name="PRECFOCK"></i>
   <i type="logical" name="LSYMGRAD"> F  </i>
   <i type="logical" name="LHFONE"> F  </i>
   <i type="logical" name="LRHFCALC"> F  </i>
   <i type="logical" name="LTHOMAS"> F  </i>
   <i type="logical" name="LMODELHF"> F  </i>
   <i name="ENCUT4O">     -1.00000000</i>
   <i type="int" name="EXXOEP">     0</i>
   <i type="int" name="FOURORBIT">     0</i>
   <i name="AEXX">      0.00000000</i>
   <i name="HFALPHA">      0.00000000</i>
   <i name="MCALPHA">      0.00000000</i>
   <i name="ALDAX">      1.00000000</i>
   <i name="AGGAX">      1.00000000</i>
   <i name="ALDAC">      1.00000000</i>
   <i name="AGGAC">      1.00000000</i>
   <i type="int" name="NKREDX">     1</i>
   <i type="int" name="NKREDY">     1</i>
   <i type="int" name="NKREDZ">     1</i>
   <i type="logical" name="SHIFTRED"> F  </i>
   <i type="logical" name="ODDONLY"> F  </i>
   <i type="logical" name="EVENONLY"> F  </i>
   <i type="int" name="LMAXFOCK">     0</i>
   <i type="int" name="NMAXFOCKAE">     0</i>
   <i type="logical" name="LFOCKAEDFT"> F  </i>
   <i name="HFSCREEN">      0.00000000</i>
   <i name="HFSCREENC">      0.00000000</i>
   <i type="int" name="NBANDSGWLOW">     0</i>
  </separator>
  <separator name="vdW DFT" >
   <i type="logical" name="LUSE_VDW"> F  </i>
   <i name="Zab_VDW">     -0.84910000</i>
   <i name="PARAM1">      0.12340000</i>
   <i name="PARAM2">      1.00000000</i>
   <i name="PARAM3">      0.00000000</i>
  </separator>
  <separator name="model GW" >
   <i type="int" name="MODEL_GW">     0</i>
   <i name="MODEL_EPS0">     10.72100625</i>
   <i name="MODEL_ALPHA">      1.00000000</i>
  </separator>
  <separator name="linear response parameters" >
   <i type="logical" name="LEPSILON"> F  </i>
   <i type="logical" name="LRPA"> F  </i>
   <i type="logical" name="LNABLA"> F  </i>
   <i type="logical" name="LVEL"> F  </i>
   <i type="int" name="KINTER">     0</i>
   <i name="CSHIFT">      0.10000000</i>
   <i name="OMEGAMAX">     -1.00000000</i>
   <i name="DEG_THRESHOLD">      0.00200000</i>
   <i name="RTIME">     -0.10000000</i>
   <i name="WPLASMAI">      0.00000000</i>
   <v name="DFIELD">      0.00000000      0.00000000      0.00000000</v>
   <v name="WPLASMA">      0.00000000      0.00000000      0.00000000      0.00000000      0.00000000      0.00000000      0.00000000      0.00000000      0.00000000</v>
  </separator>
  <separator name="orbital magnetization" >
   <i type="logical" name="NUCIND"> F  </i>
   <v name="MAGPOS">      0.00000000      0.00000000      0.00000000</v>
   <i type="logical" name="LNICSALL"> T  </i>
   <i type="logical" name="ORBITALMAG"> F  </i>
   <i type="logical" name="LMAGBLOCH"> F  </i>
   <i type="logical" name="LCHIMAG"> F  </i>
   <i type="logical" name="LGAUGE"> T  </i>
   <i type="int" name="MAGATOM">     0</i>
   <v name="MAGDIPOL">      0.00000000      0.00000000      0.00000000</v>
   <v name="AVECCONST">      0.00000000      0.00000000      0.00000000</v>
  </separator>
  <separator name="response functions" >
   <i type="logical" name="LADDER"> F  </i>
   <i type="logical" name="LRPAFORCE"> F  </i>
   <i type="logical" name="LFXC"> F  </i>
   <i type="logical" name="LHARTREE"> T  </i>
   <i type="int" name="IBSE">     0</i>
   <v type="int" name="KPOINT">    -1     0     0     0</v>
   <i type="logical" name="LTCTE"> F  </i>
   <i type="logical" name="LTETE"> F  </i>
   <i type="logical" name="LTRIPLET"> F  </i>
   <i type="logical" name="LFXCEPS"> F  </i>
   <i type="logical" name="LFXHEG"> F  </i>
   <i type="int" name="NATURALO">     2</i>
   <i type="logical" name="L2ORDER"> F  </i>
   <i type="logical" name="LMP2LT"> F  </i>
   <i type="logical" name="LUSEW"> F  </i>
   <i name="ENCUTGW">     -2.00000000</i>
   <i name="ENCUTGWSOFT">     -2.00000000</i>
   <i name="ENCUTLF">     -1.00000000</i>
   <i type="int" name="LMAXMP2">    -1</i>
   <i name="SCISSOR">      0.00000000</i>
   <i type="int" name="NOMEGA">     0</i>
   <i type="int" name="NOMEGAR">     0</i>
   <i type="int" name="NBANDSGW">    -1</i>
   <i type="int" name="NBANDSO">    -1</i>
   <i type="int" name="NBANDSV">    -1</i>
   <i type="int" name="NELM">     1</i>
   <i type="int" name="NELMHF">     1</i>
   <i type="int" name="DIM">     3</i>
   <i type="int" name="ANTIRES">     0</i>
   <i name="OMEGAMAX">    -30.00000000</i>
   <i name="OMEGAMIN">    -30.00000000</i>
   <i name="OMEGATL">   -200.00000000</i>
   <i type="int" name="OMEGAGRID">   140</i>
   <i name="CSHIFT">     -0.10000000</i>
   <i type="logical" name="SELFENERGY"> F  </i>
   <i type="logical" name="LSPECTRAL"> F  </i>
   <i type="logical" name="LSPECTRALGW"> F  </i>
   <i type="logical" name="LSINGLES"> F  </i>
   <i type="logical" name="LFERMIGW"> F  </i>
   <i type="logical" name="ODDONLYGW"> F  </i>
   <i type="logical" name="EVENONLYGW"> F  </i>
   <i type="int" name="NKREDLFX">     1</i>
   <i type="int" name="NKREDLFY">     1</i>
   <i type="int" name="NKREDLFZ">     1</i>
   <i type="int" name="MAXMEM">  2800</i>
   <i type="int" name="TELESCOPE">     0</i>
   <i type="int" name="TAUPAR">     1</i>
   <i type="int" name="OMEGAPAR">    -1</i>
   <i name="LAMBDA">      1.00000000</i>
  </separator>
  <separator name="External order field" >
   <i name="OFIELD_KAPPA">      0.00000000</i>
   <v name="OFIELD_K">      0.00000000      0.00000000      0.00000000</v>
   <i name="OFIELD_Q6_NEAR">      0.00000000</i>
   <i name="OFIELD_Q6_FAR">      0.00000000</i>
   <i name="OFIELD_A">      0.00000000</i>
  </separator>
 </parameters>
 <atominfo>
  <atoms>       1 </atoms>
  <types>       1 </types>
  <array name="atoms" >
   <dimension dim="1">ion</dimension>
   <field type="string">element</field>
   <field type="int">atomtype</field>
   <set>
    <rc><c>Au</c><c>   1</c></rc>
   </set>
  </array>
  <array name="atomtypes" >
   <dimension dim="1">type</dimension>
   <field type="int">atomspertype</field>
   <field type="string">element</field>
   <field>mass</field>
   <field>valence</field>
   <field type="string">pseudopotential</field>
   <set>
    <rc><c>   1</c><c>Au</c><c>    196.96600000</c><c>     11.00000000</c><c> PAW Au 04Feb1998                       </c></rc>
   </set>
  </array>
 </atominfo>
 <structure name="initialpos" >
  <crystal>
   <varray name="basis" >
    <v>       0.00000000       2.07500000       2.07500000 </v>
    <v>       2.07500000       0.00000000       2.07500000 </v>
    <v>       2.07500000       2.07500000       0.00000000 </v>
   </varray>
   <i name="volume">     17.86834375 </i>
   <varray name="rec_basis" >
    <v>      -0.24096386       0.24096386       0.24096386 </v>
    <v>       0.24096386      -0.24096386       0.24096386 </v>
    <v>       0.24096386       0.24096386      -0.24096386 </v>
   </varray>
  </crystal>
  <varray name="positions" >
   <v>       0.00000000       0.00000000       0.00000000 </v>
  </varray>
 </structure>
 <calculation>
  <scstep>
   <time name="dav">    0.29    0.81</time>
   <time name="total">    0.30    0.86</time>
   <energy>
    <i name="alphaZ">    102.85672616 </i>
    <i name="ewald">   -962.47537394 </i>
    <i name="hartreedc">   -102.21486574 </i>
    <i name="XCdc">     14.85557357 </i>
    <i name="pawpsdc">    730.61072243 </i>
    <i name="pawaedc">   -712.34780528 </i>
    <i name="eentropy">      0.00023650 </i>
    <i name="bandstr">     -6.21412149 </i>
    <i name="atom">    929.39633208 </i>
    <i name="e_fr_energy">     -5.53257571 </i>
    <i name="e_wo_entrp">     -5.53281222 </i>
    <i name="e_0_energy">     -5.53265455 </i>
   </energy>
  </scstep>
  <scstep>
   <time name="dav">    0.30    0.91</time>
   <time name="total">    0.31    0.93</time>
   <energy>
    <i name="e_fr_energy">     -4.38819279 </i>
    <i name="e_wo_entrp">     -4.38923941 </i>
    <i name="e_0_energy">     -4.38854167 </i>
   </energy>
  </scstep>
  <scstep>
   <time name="dav">    0.31    0.94</time>
   <time name="total">    0.32    0.95</time>
   <energy>
    <i name="e_fr_energy">     -4.35384850 </i>
    <i name="e_wo_entrp">     -4.35468202 </i>
    <i name="e_0_energy">     -4.35412634 </i>
   </energy>
  </scstep>
  <scstep>
   <time name="dav">    0.29    0.87</time>
   <time name="total">    0.29    0.90</time>
   <energy>
    <i name="e_fr_energy">     -4.35413498 </i>
    <i name="e_wo_entrp">     -4.35497048 </i>
    <i name="e_0_energy">     -4.35441348 </i>
   </energy>
  </scstep>
  <scstep>
   <time name="dav">    0.31    0.93</time>
   <time name="total">    0.32    0.95</time>
   <energy>
    <i name="e_fr_energy">     -4.35436356 </i>
    <i name="e_wo_entrp">     -4.35520188 </i>
    <i name="e_0_energy">     -4.35464300 </i>
   </energy>
  </scstep>
  <scstep>
   <time name="dav">    0.24    0.68</time>
   <time name="total">    0.25    0.69</time>
   <energy>
    <i name="alphaZ">    102.85672616 </i>
    <i name="ewald">   -962.47537394 </i>
    <i name="hartreedc">   -117.76741117 </i>
    <i name="XCdc">     15.58634011 </i>
    <i name="pawpsdc">    745.35074997 </i>
    <i name="pawaedc">   -727.18863315 </i>
    <i name="eentropy">      0.00083884 </i>
    <i name="bandstr">      9.88607025 </i>
    <i name="atom">    929.39633208 </i>
    <i name="e_fr_energy">     -4.35436084 </i>
    <i name="e_wo_entrp">     -4.35519969 </i>
    <i name="e_0_energy">     -4.35464046 </i>
   </energy>
  </scstep>
  <structure>
   <crystal>
    <varray name="basis" >
     <v>       0.00000000       2.07500000       2.07500000 </v>
     <v>       2.07500000       0.00000000       2.07500000 </v>
     <v>       2.07500000       2.07500000       0.00000000 </v>
    </varray>
    <i name="volume">     17.86834375 </i>
    <varray name="rec_basis" >
     <v>      -0.24096386       0.24096386       0.24096386 </v>
     <v>       0.24096386      -0.24096386       0.24096386 </v>
     <v>       0.24096386       0.24096386      -0.24096386 </v>
    </varray>
   </crystal>
   <varray name="positions" >
    <v>       0.00000000       0.00000000       0.00000000 </v>
   </varray>
  </structure>
  <varray name="forces" >
   <v>       0.00000000       0.00000000       0.00000000 </v>
  </varray>
  <varray name="stress" >
   <v>    -137.98301180      -0.00000000       0.00000000 </v>
   <v>       0.00000000    -137.98301180      -0.00000000 </v>
   <v>       0.00000000      -0.00000000    -137.98301180 </v>
  </varray>
  <energy>
   <i name="e_fr_energy">     -4.35436084 </i>
   <i name="e_wo_entrp">     -4.35464046 </i>
   <i name="e_0_energy">      0.00083884 </i>
  </energy>
  <time name="totalsc">    2.00    5.78</time>
  <eigenvalues>
   <array>
    <dimension dim="1">band</dimension>
    <dimension dim="2">kpoint</dimension>
    <dimension dim="3">spin</dimension>
    <field>eigene</field>
    <field>occ</field>
    <set>
     <set comment="spin 1">
      <set comment="kpoint 1">
       <r>   -4.4159    1.0000 </r>
       <r>    0.4489    1.0000 </r>
       <r>    0.5054    1.0000 </r>
       <r>    0.5054    1.0000 </r>
       <r>    1.8864    1.0000 </r>
       <r>    1.8864    1.0000 </r>
       <r>   20.3370    0.0000 </r>
       <r>   23.1258    0.0000 </r>
       <r>   23.8776    0.0000 </r>
       <r>   23.8776    0.0000 </r>
       <r>   28.5938    0.0000 </r>
       <r>   31.2143    0.0000 </r>
      </set>
      <set comment="kpoint 2">
       <r>   -3.9808    1.0000 </r>
       <r>    0.3103    1.0000 </r>
       <r>    0.6330    1.0000 </r>
       <r>    0.6615    1.0000 </r>
       <r>    1.7455    1.0000 </r>
       <r>    1.9304    1.0000 </r>
       <r>   20.4972    0.0000 </r>
       <r>   21.2390    0.0000 </r>
       <r>   23.4285    0.0000 </r>
       <r>   24.7451    0.0000 </r>
       <r>   27.8181    0.0000 </r>
       <r>   30.4118    0.0000 </r>
      </set>
      <set comment="kpoint 3">
       <r>   -3.0338    1.0000 </r>
       <r>    0.2102    1.0000 </r>
       <r>    0.7738    1.0000 </r>
       <r>    0.7923    1.0000 </r>
       <r>    1.7576    1.0000 </r>
       <r>    2.1278    1.0000 </r>
       <r>   17.2155    0.0000 </r>
       <r>   21.1072    0.0000 </r>
       <r>   23.4711    0.0000 </r>
       <r>   25.7783    0.0000 </r>
       <r>   26.0507    0.0000 </r>
       <r>   28.2580    0.0000 </r>
      </set>
      <set comment="kpoint 4">
       <r>   -2.1721    1.0000 </r>
       <r>    0.6110    1.0000 </r>
       <r>    0.6875    1.0000 </r>
       <r>    0.8522    1.0000 </r>
       <r>    2.2074    1.0000 </r>
       <r>    2.6538    1.0000 </r>
       <r>   13.2235    0.0000 </r>
       <r>   20.4790    0.0000 </r>
       <r>   22.4864    0.0000 </r>
       <r>   24.5634    0.0000 </r>
       <r>   27.1828    0.0000 </r>
       <r>   28.1568    0.0000 </r>
      </set>
      <set comment="kpoint 5">
       <r>   -1.9472    1.0000 </r>
       <r>    0.4705    1.0000 </r>
       <r>    0.5343    1.0000 </r>
       <r>    2.2719    1.0000 </r>
       <r>    2.7500    1.0000 </r>
       <r>    3.5357    1.0000 </r>
       <r>    9.5049   -0.0000 </r>
       <r>   19.7894    0.0000 </r>
       <r>   21.6184    0.0000 </r>
       <r>   22.6953    0.0000 </r>
       <r>   28.7672    0.0000 </r>
       <r>   28.9579    0.0000 </r>
      </set>
      <set comment="kpoint 6">
       <r>   -1.9383    1.0000 </r>
       <r>    0.4102    1.0000 </r>
       <r>    0.4982    1.0000 </r>
       <r>    2.6153    1.0000 </r>
       <r>    3.0115    1.0000 </r>
       <r>    4.4976    1.0126 </r>
       <r>    7.8303   -0.0000 </r>
       <r>   19.6038    0.0000 </r>
       <r>   21.6827    0.0000 </r>
       <r>   21.8112    0.0000 </r>
       <r>   29.1809    0.0000 </r>
       <r>   29.2473    0.0000 </r>
      </set>
      <set comment="kpoint 7">
       <r>   -1.9756    1.0000 </r>
       <r>    0.4986    1.0000 </r>
       <r>    0.5990    1.0000 </r>
       <r>    1.7470    1.0000 </r>
       <r>    2.8224    1.0000 </r>
       <r>    2.9871    1.0000 </r>
       <r>   10.6639    0.0000 </r>
       <r>   20.0222    0.0000 </r>
       <r>   22.0508    0.0000 </r>
       <r>   22.8446    0.0000 </r>
       <r>   28.7042    0.0000 </r>
       <r>   28.9163    0.0000 </r>
      </set>
      <set comment="kpoint 8">
       <r>   -2.3921    1.0000 </r>
       <r>    0.4505    1.0000 </r>
       <r>    0.7064    1.0000 </r>
       <r>    0.7567    1.0000 </r>
       <r>    2.1282    1.0000 </r>
       <r>    2.3666    1.0000 </r>
       <r>   14.5540    0.0000 </r>
       <r>   20.8605    0.0000 </r>
       <r>   22.9232    0.0000 </r>
       <r>   24.6968    0.0000 </r>
       <r>   26.8384    0.0000 </r>
       <r>   28.6631    0.0000 </r>
      </set>
      <set comment="kpoint 9">
       <r>   -3.3830    1.0000 </r>
       <r>    0.1972    1.0000 </r>
       <r>    0.7657    1.0000 </r>
       <r>    0.7761    1.0000 </r>
       <r>    1.7176    1.0000 </r>
       <r>    2.0117    1.0000 </r>
       <r>   18.5086    0.0000 </r>
       <r>   21.2608    0.0000 </r>
       <r>   23.4731    0.0000 </r>
       <r>   25.1382    0.0000 </r>
       <r>   26.5671    0.0000 </r>
       <r>   29.2345    0.0000 </r>
      </set>
      <set comment="kpoint 10">
       <r>   -4.1948    1.0000 </r>
       <r>    0.3508    1.0000 </r>
       <r>    0.5922    1.0000 </r>
       <r>    0.5963    1.0000 </r>
       <r>    1.7682    1.0000 </r>
       <r>    1.9366    1.0000 </r>
       <r>   20.5331    0.0000 </r>
       <r>   22.2160    0.0000 </r>
       <r>   23.5589    0.0000 </r>
       <r>   23.9698    0.0000 </r>
       <r>   28.9885    0.0000 </r>
       <r>   30.5257    0.0000 </r>
      </set>
      <set comment="kpoint 11">
       <r>   -3.7646    1.0000 </r>
       <r>    0.1548    1.0000 </r>
       <r>    0.7763    1.0000 </r>
       <r>    0.7792    1.0000 </r>
       <r>    1.5717    1.0000 </r>
       <r>    2.0373    1.0000 </r>
       <r>   20.7777    0.0000 </r>
       <r>   21.3941    0.0000 </r>
       <r>   22.8089    0.0000 </r>
       <r>   23.5236    0.0000 </r>
       <r>   27.9912    0.0000 </r>
       <r>   29.9558    0.0000 </r>
      </set>
      <set comment="kpoint 12">
       <r>   -2.9788    1.0000 </r>
       <r>   -0.0687    1.0000 </r>
       <r>    0.8701    1.0000 </r>
       <r>    1.0362    1.0000 </r>
       <r>    1.5280    1.0000 </r>
       <r>    2.2410    1.0000 </r>
       <r>   18.7482    0.0000 </r>
       <r>   20.5672    0.0000 </r>
       <r>   22.5826    0.0000 </r>
       <r>   23.7954    0.0000 </r>
       <r>   25.9616    0.0000 </r>
       <r>   29.1737    0.0000 </r>
      </set>
      <set comment="kpoint 13">
       <r>   -2.0041    1.0000 </r>
       <r>    0.0161    1.0000 </r>
       <r>    0.5969    1.0000 </r>
       <r>    1.0454    1.0000 </r>
       <r>    2.1371    1.0000 </r>
       <r>    2.7787    1.0000 </r>
       <r>   14.7794    0.0000 </r>
       <r>   19.9932    0.0000 </r>
       <r>   21.5435    0.0000 </r>
       <r>   23.4300    0.0000 </r>
       <r>   27.0180    0.0000 </r>
       <r>   28.9152    0.0000 </r>
      </set>
      <set comment="kpoint 14">
       <r>   -1.6206    1.0000 </r>
       <r>    0.3226    1.0000 </r>
       <r>    0.8220    1.0000 </r>
       <r>    0.9725    1.0000 </r>
       <r>    2.8119    1.0000 </r>
       <r>    3.9208    1.0000 </r>
       <r>   10.8748    0.0000 </r>
       <r>   19.6051    0.0000 </r>
       <r>   20.2176    0.0000 </r>
       <r>   22.2016    0.0000 </r>
       <r>   28.8807    0.0000 </r>
       <r>   29.8800    0.0000 </r>
      </set>
      <set comment="kpoint 15">
       <r>   -1.5940    1.0000 </r>
       <r>    0.2052    1.0000 </r>
       <r>    0.7743    1.0000 </r>
       <r>    1.6715    1.0000 </r>
       <r>    2.9675    1.0000 </r>
       <r>    5.8196   -0.0000 </r>
       <r>    7.8371   -0.0000 </r>
       <r>   19.1887    0.0000 </r>
       <r>   19.8234    0.0000 </r>
       <r>   21.5656    0.0000 </r>
       <r>   29.2118    0.0000 </r>
       <r>   30.3130    0.0000 </r>
      </set>
      <set comment="kpoint 16">
       <r>   -1.5822    1.0000 </r>
       <r>    0.2776    1.0000 </r>
       <r>    0.7971    1.0000 </r>
       <r>    1.3716    1.0000 </r>
       <r>    2.6810    1.0000 </r>
       <r>    4.6037    1.0342 </r>
       <r>    9.7522   -0.0000 </r>
       <r>   18.7599    0.0000 </r>
       <r>   20.4338    0.0000 </r>
       <r>   22.3851    0.0000 </r>
       <r>   28.5017    0.0000 </r>
       <r>   29.9251    0.0000 </r>
      </set>
      <set comment="kpoint 17">
       <r>   -1.7689    1.0000 </r>
       <r>    0.2763    1.0000 </r>
       <r>    0.5604    1.0000 </r>
       <r>    0.9691    1.0000 </r>
       <r>    2.0512    1.0000 </r>
       <r>    3.2828    1.0000 </r>
       <r>   13.4689    0.0000 </r>
       <r>   18.9617    0.0000 </r>
       <r>   21.5457    0.0000 </r>
       <r>   24.2549    0.0000 </r>
       <r>   26.8023    0.0000 </r>
       <r>   29.0536    0.0000 </r>
      </set>
      <set comment="kpoint 18">
       <r>   -2.6374    1.0000 </r>
       <r>   -0.0276    1.0000 </r>
       <r>    0.7755    1.0000 </r>
       <r>    1.0571    1.0000 </r>
       <r>    1.5210    1.0000 </r>
       <r>    2.4844    1.0000 </r>
       <r>   17.3533    0.0000 </r>
       <r>   19.5788    0.0000 </r>
       <r>   23.1852    0.0000 </r>
       <r>   24.1635    0.0000 </r>
       <r>   27.1498    0.0000 </r>
       <r>   27.9348    0.0000 </r>
      </set>
      <set comment="kpoint 19">
       <r>   -3.5651    1.0000 </r>
       <r>    0.1604    1.0000 </r>
       <r>    0.7802    1.0000 </r>
       <r>    0.7883    1.0000 </r>
       <r>    1.6080    1.0000 </r>
       <r>    2.0475    1.0000 </r>
       <r>   19.7782    0.0000 </r>
       <r>   20.9173    0.0000 </r>
       <r>   22.9973    0.0000 </r>
       <r>   24.7995    0.0000 </r>
       <r>   26.9199    0.0000 </r>
       <r>   29.7708    0.0000 </r>
      </set>
      <set comment="kpoint 20">
       <r>   -2.4508    1.0000 </r>
       <r>   -0.3960    1.0000 </r>
       <r>    1.0150    1.0000 </r>
       <r>    1.3866    1.0000 </r>
       <r>    1.5671    1.0000 </r>
       <r>    2.3506    1.0000 </r>
       <r>   19.1590    0.0000 </r>
       <r>   20.2360    0.0000 </r>
       <r>   21.5473    0.0000 </r>
       <r>   22.3459    0.0000 </r>
       <r>   23.0448    0.0000 </r>
       <r>   30.7653    0.0000 </r>
      </set>
      <set comment="kpoint 21">
       <r>   -1.6775    1.0000 </r>
       <r>   -0.6017    1.0000 </r>
       <r>    0.7812    1.0000 </r>
       <r>    1.7082    1.0000 </r>
       <r>    2.1763    1.0000 </r>
       <r>    2.7984    1.0000 </r>
       <r>   16.4633    0.0000 </r>
       <r>   18.3869    0.0000 </r>
       <r>   20.0187    0.0000 </r>
       <r>   22.6218    0.0000 </r>
       <r>   24.0103    0.0000 </r>
       <r>   30.7857    0.0000 </r>
      </set>
      <set comment="kpoint 22">
       <r>   -1.2225    1.0000 </r>
       <r>   -0.3553    1.0000 </r>
       <r>    0.5560    1.0000 </r>
       <r>    1.5882    1.0000 </r>
       <r>    2.8902    1.0000 </r>
       <r>    4.1742    1.0000 </r>
       <r>   12.5055    0.0000 </r>
       <r>   17.6924    0.0000 </r>
       <r>   18.3313    0.0000 </r>
       <r>   22.3236    0.0000 </r>
       <r>   27.1157    0.0000 </r>
       <r>   30.6339    0.0000 </r>
      </set>
      <set comment="kpoint 23">
       <r>   -1.1099    1.0000 </r>
       <r>   -0.1086    1.0000 </r>
       <r>    0.7531    1.0000 </r>
       <r>    1.4060    1.0000 </r>
       <r>    2.9997    1.0000 </r>
       <r>    6.5316   -0.0000 </r>
       <r>    9.0313   -0.0000 </r>
       <r>   16.4251    0.0000 </r>
       <r>   18.3967    0.0000 </r>
       <r>   22.0048    0.0000 </r>
       <r>   29.7223    0.0000 </r>
       <r>   31.0841    0.0000 </r>
      </set>
      <set comment="kpoint 24">
       <r>   -0.9539    1.0000 </r>
       <r>   -0.0503    1.0000 </r>
       <r>    0.7812    1.0000 </r>
       <r>    1.3106    1.0000 </r>
       <r>    2.6412    1.0000 </r>
       <r>    6.3752   -0.0000 </r>
       <r>    9.5170   -0.0000 </r>
       <r>   15.3808    0.0000 </r>
       <r>   19.5676    0.0000 </r>
       <r>   22.1887    0.0000 </r>
       <r>   28.9643    0.0000 </r>
       <r>   31.2549    0.0000 </r>
      </set>
      <set comment="kpoint 25">
       <r>   -0.8861    1.0000 </r>
       <r>    0.0101    1.0000 </r>
       <r>    0.2610    1.0000 </r>
       <r>    1.3857    1.0000 </r>
       <r>    2.0124    1.0000 </r>
       <r>    4.6185    1.0354 </r>
       <r>   12.8163    0.0000 </r>
       <r>   15.2847    0.0000 </r>
       <r>   20.8984    0.0000 </r>
       <r>   23.4457    0.0000 </r>
       <r>   26.9513    0.0000 </r>
       <r>   31.0113    0.0000 </r>
      </set>
      <set comment="kpoint 26">
       <r>   -1.6302    1.0000 </r>
       <r>   -0.0972    1.0000 </r>
       <r>    0.5325    1.0000 </r>
       <r>    1.2700    1.0000 </r>
       <r>    1.6498    1.0000 </r>
       <r>    3.3641    1.0000 </r>
       <r>   14.9031    0.0000 </r>
       <r>   17.4701    0.0000 </r>
       <r>   21.9875    0.0000 </r>
       <r>   24.8968    0.0000 </r>
       <r>   25.7647    0.0000 </r>
       <r>   29.5340    0.0000 </r>
      </set>
      <set comment="kpoint 27">
       <r>   -2.5523    1.0000 </r>
       <r>    0.1414    1.0000 </r>
       <r>    0.7499    1.0000 </r>
       <r>    0.8816    1.0000 </r>
       <r>    1.8191    1.0000 </r>
       <r>    2.4152    1.0000 </r>
       <r>   15.9755    0.0000 </r>
       <r>   20.7092    0.0000 </r>
       <r>   22.5893    0.0000 </r>
       <r>   24.9953    0.0000 </r>
       <r>   26.5187    0.0000 </r>
       <r>   28.1601    0.0000 </r>
      </set>
      <set comment="kpoint 28">
       <r>   -1.5245    1.0000 </r>
       <r>   -0.9505    1.0000 </r>
       <r>    1.6139    1.0000 </r>
       <r>    2.1937    1.0000 </r>
       <r>    2.6119    1.0000 </r>
       <r>    2.7298    1.0000 </r>
       <r>   16.3674    0.0000 </r>
       <r>   17.4651    0.0000 </r>
       <r>   17.6005    0.0000 </r>
       <r>   21.5232    0.0000 </r>
       <r>   23.4108    0.0000 </r>
       <r>   33.1952    0.0000 </r>
      </set>
      <set comment="kpoint 29">
       <r>   -1.3748    1.0000 </r>
       <r>   -1.0509    1.0000 </r>
       <r>    1.6504    1.0000 </r>
       <r>    2.4703    1.0000 </r>
       <r>    2.9047    1.0000 </r>
       <r>    4.2496    1.0001 </r>
       <r>   13.6245    0.0000 </r>
       <r>   15.7745    0.0000 </r>
       <r>   16.4109    0.0000 </r>
       <r>   22.4876    0.0000 </r>
       <r>   24.3473    0.0000 </r>
       <r>   32.7174    0.0000 </r>
      </set>
      <set comment="kpoint 30">
       <r>   -1.2169    1.0000 </r>
       <r>   -0.7556    1.0000 </r>
       <r>    1.3211    1.0000 </r>
       <r>    2.1923    1.0000 </r>
       <r>    3.0872    1.0000 </r>
       <r>    6.7532   -0.0000 </r>
       <r>   10.5658    0.0000 </r>
       <r>   14.0119    0.0000 </r>
       <r>   16.5413    0.0000 </r>
       <r>   22.7232    0.0000 </r>
       <r>   27.0108    0.0000 </r>
       <r>   31.7135    0.0000 </r>
      </set>
      <set comment="kpoint 31">
       <r>   -0.9489    1.0000 </r>
       <r>   -0.2799    1.0000 </r>
       <r>    0.8170    1.0000 </r>
       <r>    1.8908    1.0000 </r>
       <r>    2.7975    1.0000 </r>
       <r>    7.9082   -0.0000 </r>
       <r>   10.0145   -0.0000 </r>
       <r>   12.3782    0.0000 </r>
       <r>   17.7960    0.0000 </r>
       <r>   22.5653    0.0000 </r>
       <r>   30.2482    0.0000 </r>
       <r>   30.5876    0.0000 </r>
      </set>
      <set comment="kpoint 32">
       <r>   -0.6946    1.0000 </r>
       <r>   -0.0057    1.0000 </r>
       <r>    0.3623    1.0000 </r>
       <r>    1.5619    1.0000 </r>
       <r>    2.4210    1.0000 </r>
       <r>    6.1913   -0.0000 </r>
       <r>   11.3231    0.0000 </r>
       <r>   13.3729    0.0000 </r>
       <r>   19.5347    0.0000 </r>
       <r>   22.5234    0.0000 </r>
       <r>   28.7415    0.0000 </r>
       <r>   31.5388    0.0000 </r>
      </set>
      <set comment="kpoint 33">
       <r>   -1.2478    1.0000 </r>
       <r>    0.1875    1.0000 </r>
       <r>    0.6647    1.0000 </r>
       <r>    1.1060    1.0000 </r>
       <r>    2.3439    1.0000 </r>
       <r>    4.6158    1.0353 </r>
       <r>   11.2546    0.0000 </r>
       <r>   17.0069    0.0000 </r>
       <r>   20.6995    0.0000 </r>
       <r>   22.9478    0.0000 </r>
       <r>   27.6585    0.0000 </r>
       <r>   30.4190    0.0000 </r>
      </set>
      <set comment="kpoint 34">
       <r>   -1.9084    1.0000 </r>
       <r>    0.5030    1.0000 </r>
       <r>    0.7292    1.0000 </r>
       <r>    0.9979    1.0000 </r>
       <r>    2.4690    1.0000 </r>
       <r>    3.1277    1.0000 </r>
       <r>   11.9977    0.0000 </r>
       <r>   20.1015    0.0000 </r>
       <r>   21.4039    0.0000 </r>
       <r>   23.4912    0.0000 </r>
       <r>   27.9832    0.0000 </r>
       <r>   28.8074    0.0000 </r>
      </set>
      <set comment="kpoint 35">
       <r>   -1.6130    1.0000 </r>
       <r>   -1.3189    1.0000 </r>
       <r>    2.8114    1.0000 </r>
       <r>    2.8353    1.0000 </r>
       <r>    3.1170    1.0000 </r>
       <r>    4.8070    0.7441 </r>
       <r>   12.1723    0.0000 </r>
       <r>   15.1680    0.0000 </r>
       <r>   15.5100    0.0000 </r>
       <r>   21.7921    0.0000 </r>
       <r>   24.0416    0.0000 </r>
       <r>   34.0558    0.0000 </r>
      </set>
      <set comment="kpoint 36">
       <r>   -1.5431    1.0000 </r>
       <r>   -1.2722    1.0000 </r>
       <r>    2.4927    1.0000 </r>
       <r>    2.7695    1.0000 </r>
       <r>    3.2513    1.0000 </r>
       <r>    6.7641   -0.0000 </r>
       <r>   10.3407    0.0000 </r>
       <r>   14.1426    0.0000 </r>
       <r>   15.1044    0.0000 </r>
       <r>   22.6783    0.0000 </r>
       <r>   24.6131    0.0000 </r>
       <r>   33.2065    0.0000 </r>
      </set>
      <set comment="kpoint 37">
       <r>   -1.2650    1.0000 </r>
       <r>   -0.8408    1.0000 </r>
       <r>    1.5908    1.0000 </r>
       <r>    2.3465    1.0000 </r>
       <r>    3.0868    1.0000 </r>
       <r>    8.1778   -0.0000 </r>
       <r>    9.6495   -0.0000 </r>
       <r>   12.7646    0.0000 </r>
       <r>   16.2093    0.0000 </r>
       <r>   22.8776    0.0000 </r>
       <r>   27.0010    0.0000 </r>
       <r>   31.9214    0.0000 </r>
      </set>
      <set comment="kpoint 38">
       <r>   -0.9833    1.0000 </r>
       <r>   -0.2353    1.0000 </r>
       <r>    0.7777    1.0000 </r>
       <r>    1.6878    1.0000 </r>
       <r>    2.9093    1.0000 </r>
       <r>    7.9275   -0.0000 </r>
       <r>    8.6360   -0.0000 </r>
       <r>   14.3303    0.0000 </r>
       <r>   17.9957    0.0000 </r>
       <r>   22.3375    0.0000 </r>
       <r>   29.9750    0.0000 </r>
       <r>   30.8621    0.0000 </r>
      </set>
      <set comment="kpoint 39">
       <r>   -1.2929    1.0000 </r>
       <r>    0.0504    1.0000 </r>
       <r>    1.0187    1.0000 </r>
       <r>    1.2363    1.0000 </r>
       <r>    2.8545    1.0000 </r>
       <r>    6.5759   -0.0000 </r>
       <r>    8.0179   -0.0000 </r>
       <r>   17.3954    0.0000 </r>
       <r>   19.6412    0.0000 </r>
       <r>   21.7632    0.0000 </r>
       <r>   29.1777    0.0000 </r>
       <r>   30.8345    0.0000 </r>
      </set>
      <set comment="kpoint 40">
       <r>   -1.8181    1.0000 </r>
       <r>    0.3569    1.0000 </r>
       <r>    0.6054    1.0000 </r>
       <r>    2.0633    1.0000 </r>
       <r>    2.9277    1.0000 </r>
       <r>    4.5621    1.0264 </r>
       <r>    8.5400   -0.0000 </r>
       <r>   19.6645    0.0000 </r>
       <r>   20.8232    0.0000 </r>
       <r>   21.9623    0.0000 </r>
       <r>   29.0579    0.0000 </r>
       <r>   29.5698    0.0000 </r>
      </set>
      <set comment="kpoint 41">
       <r>   -1.6816    1.0000 </r>
       <r>   -1.3975    1.0000 </r>
       <r>    2.9158    1.0000 </r>
       <r>    3.0863    1.0000 </r>
       <r>    3.2599    1.0000 </r>
       <r>    6.0427   -0.0000 </r>
       <r>   10.5264    0.0000 </r>
       <r>   14.7004    0.0000 </r>
       <r>   15.0695    0.0000 </r>
       <r>   21.8871    0.0000 </r>
       <r>   24.1712    0.0000 </r>
       <r>   33.8751    0.0000 </r>
      </set>
      <set comment="kpoint 42">
       <r>   -1.4721    1.0000 </r>
       <r>   -1.1967    1.0000 </r>
       <r>    2.1621    1.0000 </r>
       <r>    2.7150    1.0000 </r>
       <r>    3.1114    1.0000 </r>
       <r>    5.5118   -0.0000 </r>
       <r>   11.8811    0.0000 </r>
       <r>   14.6890    0.0000 </r>
       <r>   15.5377    0.0000 </r>
       <r>   22.5963    0.0000 </r>
       <r>   24.5222    0.0000 </r>
       <r>   33.1236    0.0000 </r>
      </set>
      <set comment="kpoint 43">
       <r>   -1.1690    1.0000 </r>
       <r>   -0.5856    1.0000 </r>
       <r>    0.9180    1.0000 </r>
       <r>    1.9123    1.0000 </r>
       <r>    3.0421    1.0000 </r>
       <r>    5.3619   -0.0013 </r>
       <r>   11.4819    0.0000 </r>
       <r>   15.8538    0.0000 </r>
       <r>   17.2012    0.0000 </r>
       <r>   22.4897    0.0000 </r>
       <r>   27.0457    0.0000 </r>
       <r>   31.2819    0.0000 </r>
      </set>
      <set comment="kpoint 44">
       <r>   -1.3385    1.0000 </r>
       <r>    0.0983    1.0000 </r>
       <r>    0.7841    1.0000 </r>
       <r>    1.1374    1.0000 </r>
       <r>    2.9836    1.0000 </r>
       <r>    5.0998   -0.0348 </r>
       <r>    9.8698   -0.0000 </r>
       <r>   18.4654    0.0000 </r>
       <r>   18.9916    0.0000 </r>
       <r>   21.8130    0.0000 </r>
       <r>   29.3988    0.0000 </r>
       <r>   30.9665    0.0000 </r>
      </set>
      <set comment="kpoint 45">
       <r>   -1.5207    1.0000 </r>
       <r>   -1.1666    1.0000 </r>
       <r>    2.3298    1.0000 </r>
       <r>    2.5663    1.0000 </r>
       <r>    2.9187    1.0000 </r>
       <r>    3.5133    1.0000 </r>
       <r>   14.3180    0.0000 </r>
       <r>   16.0838    0.0000 </r>
       <r>   16.3370    0.0000 </r>
       <r>   21.6385    0.0000 </r>
       <r>   23.7834    0.0000 </r>
       <r>   34.1310    0.0000 </r>
      </set>
      <set comment="kpoint 46">
       <r>   -1.3734    1.0000 </r>
       <r>   -0.8471    1.0000 </r>
       <r>    1.0952    1.0000 </r>
       <r>    2.0998    1.0000 </r>
       <r>    2.6172    1.0000 </r>
       <r>    3.3191    1.0000 </r>
       <r>   15.1446    0.0000 </r>
       <r>   17.1016    0.0000 </r>
       <r>   17.9474    0.0000 </r>
       <r>   22.4624    0.0000 </r>
       <r>   24.1268    0.0000 </r>
       <r>   31.8533    0.0000 </r>
      </set>
      <set comment="kpoint 47">
       <r>   -1.5081    1.0000 </r>
       <r>   -0.1394    1.0000 </r>
       <r>    0.4489    1.0000 </r>
       <r>    1.2871    1.0000 </r>
       <r>    2.5829    1.0000 </r>
       <r>    3.3031    1.0000 </r>
       <r>   13.6178    0.0000 </r>
       <r>   18.9482    0.0000 </r>
       <r>   20.1294    0.0000 </r>
       <r>   22.4658    0.0000 </r>
       <r>   27.1664    0.0000 </r>
       <r>   29.8177    0.0000 </r>
      </set>
      <set comment="kpoint 48">
       <r>   -1.8258    1.0000 </r>
       <r>   -0.6869    1.0000 </r>
       <r>    1.1011    1.0000 </r>
       <r>    1.7799    1.0000 </r>
       <r>    2.0133    1.0000 </r>
       <r>    2.5389    1.0000 </r>
       <r>   17.8949    0.0000 </r>
       <r>   18.7988    0.0000 </r>
       <r>   19.8876    0.0000 </r>
       <r>   21.6016    0.0000 </r>
       <r>   22.9573    0.0000 </r>
       <r>   31.8774    0.0000 </r>
      </set>
      <set comment="kpoint 49">
       <r>   -2.2941    1.0000 </r>
       <r>   -0.3339    1.0000 </r>
       <r>    0.7983    1.0000 </r>
       <r>    1.3467    1.0000 </r>
       <r>    1.7445    1.0000 </r>
       <r>    2.4863    1.0000 </r>
       <r>   17.6563    0.0000 </r>
       <r>   19.6231    0.0000 </r>
       <r>   21.8888    0.0000 </r>
       <r>   22.9097    0.0000 </r>
       <r>   24.5244    0.0000 </r>
       <r>   29.7822    0.0000 </r>
      </set>
      <set comment="kpoint 50">
       <r>   -3.1575    1.0000 </r>
       <r>   -0.1052    1.0000 </r>
       <r>    0.9996    1.0000 </r>
       <r>    1.0472    1.0000 </r>
       <r>    1.3915    1.0000 </r>
       <r>    2.1790    1.0000 </r>
       <r>   20.1874    0.0000 </r>
       <r>   21.4920    0.0000 </r>
       <r>   21.6404    0.0000 </r>
       <r>   22.7856    0.0000 </r>
       <r>   25.5698    0.0000 </r>
       <r>   30.0784    0.0000 </r>
      </set>
      <set comment="kpoint 51">
       <r>   -3.7772    1.0000 </r>
       <r>    0.2994    1.0000 </r>
       <r>    0.6769    1.0000 </r>
       <r>    0.6769    1.0000 </r>
       <r>    1.8393    1.0000 </r>
       <r>    1.8393    1.0000 </r>
       <r>   19.6409    0.0000 </r>
       <r>   21.1721    0.0000 </r>
       <r>   24.3643    0.0000 </r>
       <r>   24.3643    0.0000 </r>
       <r>   27.4846    0.0000 </r>
       <r>   29.7226    0.0000 </r>
      </set>
      <set comment="kpoint 52">
       <r>   -3.1790    1.0000 </r>
       <r>    0.1115    1.0000 </r>
       <r>    0.7989    1.0000 </r>
       <r>    0.8695    1.0000 </r>
       <r>    1.5576    1.0000 </r>
       <r>    2.1969    1.0000 </r>
       <r>   18.5430    0.0000 </r>
       <r>   20.3720    0.0000 </r>
       <r>   23.2244    0.0000 </r>
       <r>   25.2840    0.0000 </r>
       <r>   26.3759    0.0000 </r>
       <r>   28.9836    0.0000 </r>
      </set>
      <set comment="kpoint 53">
       <r>   -2.1681    1.0000 </r>
       <r>   -0.0299    1.0000 </r>
       <r>    0.7066    1.0000 </r>
       <r>    1.1305    1.0000 </r>
       <r>    1.4771    1.0000 </r>
       <r>    2.8800    1.0000 </r>
       <r>   16.0735    0.0000 </r>
       <r>   18.5508    0.0000 </r>
       <r>   22.9191    0.0000 </r>
       <r>   24.6840    0.0000 </r>
       <r>   26.5117    0.0000 </r>
       <r>   28.5812    0.0000 </r>
      </set>
      <set comment="kpoint 54">
       <r>   -1.5127    1.0000 </r>
       <r>    0.3201    1.0000 </r>
       <r>    0.6872    1.0000 </r>
       <r>    0.9450    1.0000 </r>
       <r>    2.0948    1.0000 </r>
       <r>    3.8775    1.0000 </r>
       <r>   12.2947    0.0000 </r>
       <r>   17.9504    0.0000 </r>
       <r>   21.4252    0.0000 </r>
       <r>   23.7299    0.0000 </r>
       <r>   26.9569    0.0000 </r>
       <r>   29.6876    0.0000 </r>
      </set>
      <set comment="kpoint 55">
       <r>   -1.4732    1.0000 </r>
       <r>    0.1926    1.0000 </r>
       <r>    0.8436    1.0000 </r>
       <r>    1.4669    1.0000 </r>
       <r>    2.7203    1.0000 </r>
       <r>    5.4715   -0.0001 </r>
       <r>    8.7997   -0.0000 </r>
       <r>   18.0100    0.0000 </r>
       <r>   20.7664    0.0000 </r>
       <r>   21.5319    0.0000 </r>
       <r>   29.0373    0.0000 </r>
       <r>   29.9527    0.0000 </r>
      </set>
      <set comment="kpoint 56">
       <r>   -1.5082    1.0000 </r>
       <r>    0.1695    1.0000 </r>
       <r>    0.8876    1.0000 </r>
       <r>    1.3013    1.0000 </r>
       <r>    3.0370    1.0000 </r>
       <r>    5.4591   -0.0001 </r>
       <r>    8.6435   -0.0000 </r>
       <r>   18.8016    0.0000 </r>
       <r>   20.3095    0.0000 </r>
       <r>   20.8777    0.0000 </r>
       <r>   30.0055    0.0000 </r>
       <r>   30.1333    0.0000 </r>
      </set>
      <set comment="kpoint 57">
       <r>   -1.5919    1.0000 </r>
       <r>    0.2710    1.0000 </r>
       <r>    0.4699    1.0000 </r>
       <r>    1.0369    1.0000 </r>
       <r>    2.8984    1.0000 </r>
       <r>    3.4099    1.0000 </r>
       <r>   12.1721    0.0000 </r>
       <r>   20.0687    0.0000 </r>
       <r>   20.1387    0.0000 </r>
       <r>   21.6382    0.0000 </r>
       <r>   28.9196    0.0000 </r>
       <r>   30.0190    0.0000 </r>
      </set>
      <set comment="kpoint 58">
       <r>   -2.1902    1.0000 </r>
       <r>   -0.2132    1.0000 </r>
       <r>    0.7102    1.0000 </r>
       <r>    1.1598    1.0000 </r>
       <r>    2.0741    1.0000 </r>
       <r>    2.4889    1.0000 </r>
       <r>   16.2128    0.0000 </r>
       <r>   20.7153    0.0000 </r>
       <r>   21.2836    0.0000 </r>
       <r>   22.7781    0.0000 </r>
       <r>   25.7862    0.0000 </r>
       <r>   30.0669    0.0000 </r>
      </set>
      <set comment="kpoint 59">
       <r>   -2.8305    1.0000 </r>
       <r>    0.0108    1.0000 </r>
       <r>    0.8167    1.0000 </r>
       <r>    0.9363    1.0000 </r>
       <r>    1.7329    1.0000 </r>
       <r>    2.2364    1.0000 </r>
       <r>   17.3647    0.0000 </r>
       <r>   21.3450    0.0000 </r>
       <r>   22.1700    0.0000 </r>
       <r>   24.5311    0.0000 </r>
       <r>   25.9891    0.0000 </r>
       <r>   29.4270    0.0000 </r>
      </set>
      <set comment="kpoint 60">
       <r>   -2.0041    1.0000 </r>
       <r>   -0.2230    1.0000 </r>
       <r>    0.6208    1.0000 </r>
       <r>    1.3200    1.0000 </r>
       <r>    1.7182    1.0000 </r>
       <r>    2.8604    1.0000 </r>
       <r>   16.2019    0.0000 </r>
       <r>   18.5769    0.0000 </r>
       <r>   21.9675    0.0000 </r>
       <r>   23.9398    0.0000 </r>
       <r>   26.0674    0.0000 </r>
       <r>   28.7408    0.0000 </r>
      </set>
      <set comment="kpoint 61">
       <r>   -1.1143    1.0000 </r>
       <r>   -0.1998    1.0000 </r>
       <r>    0.2641    1.0000 </r>
       <r>    1.5325    1.0000 </r>
       <r>    1.9999    1.0000 </r>
       <r>    3.9635    1.0000 </r>
       <r>   13.8305    0.0000 </r>
       <r>   16.3766    0.0000 </r>
       <r>   20.4421    0.0000 </r>
       <r>   24.5113    0.0000 </r>
       <r>   26.0629    0.0000 </r>
       <r>   30.0581    0.0000 </r>
      </set>
      <set comment="kpoint 62">
       <r>   -0.9791    1.0000 </r>
       <r>   -0.0333    1.0000 </r>
       <r>    0.5604    1.0000 </r>
       <r>    1.3541    1.0000 </r>
       <r>    2.6323    1.0000 </r>
       <r>    5.5906   -0.0000 </r>
       <r>   10.3539    0.0000 </r>
       <r>   16.1503    0.0000 </r>
       <r>   19.0267    0.0000 </r>
       <r>   23.1647    0.0000 </r>
       <r>   28.0396    0.0000 </r>
       <r>   31.5589    0.0000 </r>
      </set>
      <set comment="kpoint 63">
       <r>   -1.0422    1.0000 </r>
       <r>   -0.1156    1.0000 </r>
       <r>    0.8718    1.0000 </r>
       <r>    1.2895    1.0000 </r>
       <r>    2.8954    1.0000 </r>
       <r>    7.2391   -0.0000 </r>
       <r>    8.0863   -0.0000 </r>
       <r>   16.7239    0.0000 </r>
       <r>   18.0217    0.0000 </r>
       <r>   22.7042    0.0000 </r>
       <r>   28.8339    0.0000 </r>
       <r>   32.0897    0.0000 </r>
      </set>
      <set comment="kpoint 64">
       <r>   -1.0884    1.0000 </r>
       <r>   -0.0271    1.0000 </r>
       <r>    0.3294    1.0000 </r>
       <r>    1.4690    1.0000 </r>
       <r>    2.7457    1.0000 </r>
       <r>    4.8689    0.4947 </r>
       <r>   11.3408    0.0000 </r>
       <r>   16.9950    0.0000 </r>
       <r>   18.5931    0.0000 </r>
       <r>   23.0952    0.0000 </r>
       <r>   27.9813    0.0000 </r>
       <r>   30.4710    0.0000 </r>
      </set>
      <set comment="kpoint 65">
       <r>   -1.4144    1.0000 </r>
       <r>   -0.4345    1.0000 </r>
       <r>    0.4627    1.0000 </r>
       <r>    1.6451    1.0000 </r>
       <r>    2.0950    1.0000 </r>
       <r>    3.3421    1.0000 </r>
       <r>   15.0560    0.0000 </r>
       <r>   17.4504    0.0000 </r>
       <r>   20.1700    0.0000 </r>
       <r>   23.8097    0.0000 </r>
       <r>   25.4386    0.0000 </r>
       <r>   29.6677    0.0000 </r>
      </set>
      <set comment="kpoint 66">
       <r>   -1.6150    1.0000 </r>
       <r>   -0.4440    1.0000 </r>
       <r>    0.6454    1.0000 </r>
       <r>    1.4394    1.0000 </r>
       <r>    2.6952    1.0000 </r>
       <r>    2.7332    1.0000 </r>
       <r>   15.0303    0.0000 </r>
       <r>   19.2979    0.0000 </r>
       <r>   20.0469    0.0000 </r>
       <r>   21.8900    0.0000 </r>
       <r>   25.5946    0.0000 </r>
       <r>   30.9450    0.0000 </r>
      </set>
      <set comment="kpoint 67">
       <r>   -1.1012    1.0000 </r>
       <r>   -0.6361    1.0000 </r>
       <r>    0.5641    1.0000 </r>
       <r>    2.0119    1.0000 </r>
       <r>    2.4935    1.0000 </r>
       <r>    4.0448    1.0000 </r>
       <r>   13.9103    0.0000 </r>
       <r>   16.3097    0.0000 </r>
       <r>   18.2129    0.0000 </r>
       <r>   23.6908    0.0000 </r>
       <r>   25.3440    0.0000 </r>
       <r>   30.4892    0.0000 </r>
      </set>
      <set comment="kpoint 68">
       <r>   -0.7618    1.0000 </r>
       <r>   -0.4897    1.0000 </r>
       <r>    0.3647    1.0000 </r>
       <r>    2.0889    1.0000 </r>
       <r>    2.7534    1.0000 </r>
       <r>    5.8420   -0.0000 </r>
       <r>   11.9647    0.0000 </r>
       <r>   14.3478    0.0000 </r>
       <r>   16.6983    0.0000 </r>
       <r>   24.8153    0.0000 </r>
       <r>   26.5558    0.0000 </r>
       <r>   30.3323    0.0000 </r>
      </set>
      <set comment="kpoint 69">
       <r>   -0.6065    1.0000 </r>
       <r>   -0.3340    1.0000 </r>
       <r>    0.3954    1.0000 </r>
       <r>    1.7531    1.0000 </r>
       <r>    2.9636    1.0000 </r>
       <r>    8.0428   -0.0000 </r>
       <r>    9.3346   -0.0000 </r>
       <r>   13.9682    0.0000 </r>
       <r>   16.1039    0.0000 </r>
       <r>   24.5787    0.0000 </r>
       <r>   28.3646    0.0000 </r>
       <r>   31.3287    0.0000 </r>
      </set>
      <set comment="kpoint 70">
       <r>   -0.3972    1.0000 </r>
       <r>   -0.3030    1.0000 </r>
       <r>    0.0523    1.0000 </r>
       <r>    1.8294    1.0000 </r>
       <r>    2.7322    1.0000 </r>
       <r>    6.5574   -0.0000 </r>
       <r>   11.3443    0.0000 </r>
       <r>   13.4418    0.0000 </r>
       <r>   17.0674    0.0000 </r>
       <r>   24.8483    0.0000 </r>
       <r>   27.4056    0.0000 </r>
       <r>   31.3984    0.0000 </r>
      </set>
      <set comment="kpoint 71">
       <r>   -0.7807    1.0000 </r>
       <r>   -0.3181    1.0000 </r>
       <r>    0.1278    1.0000 </r>
       <r>    1.8499    1.0000 </r>
       <r>    2.3917    1.0000 </r>
       <r>    4.7649    0.8775 </r>
       <r>   12.8527    0.0000 </r>
       <r>   15.3246    0.0000 </r>
       <r>   18.5493    0.0000 </r>
       <r>   24.5227    0.0000 </r>
       <r>   26.3398    0.0000 </r>
       <r>   30.2736    0.0000 </r>
      </set>
      <set comment="kpoint 72">
       <r>   -1.3124    1.0000 </r>
       <r>   -0.8784    1.0000 </r>
       <r>    1.3919    1.0000 </r>
       <r>    2.0940    1.0000 </r>
       <r>    3.0859    1.0000 </r>
       <r>    4.6865    1.0124 </r>
       <r>   12.6131    0.0000 </r>
       <r>   15.8317    0.0000 </r>
       <r>   17.0060    0.0000 </r>
       <r>   22.1569    0.0000 </r>
       <r>   25.5270    0.0000 </r>
       <r>   32.5577    0.0000 </r>
      </set>
      <set comment="kpoint 73">
       <r>   -1.2118    1.0000 </r>
       <r>   -0.9548    1.0000 </r>
       <r>    1.4162    1.0000 </r>
       <r>    2.4814    1.0000 </r>
       <r>    3.0796    1.0000 </r>
       <r>    6.3697   -0.0000 </r>
       <r>   11.4596    0.0000 </r>
       <r>   14.1350    0.0000 </r>
       <r>   15.3622    0.0000 </r>
       <r>   23.8743    0.0000 </r>
       <r>   25.4878    0.0000 </r>
       <r>   31.5936    0.0000 </r>
      </set>
      <set comment="kpoint 74">
       <r>   -0.9655    1.0000 </r>
       <r>   -0.6711    1.0000 </r>
       <r>    0.9957    1.0000 </r>
       <r>    2.1047    1.0000 </r>
       <r>    3.2458    1.0000 </r>
       <r>    8.6420   -0.0000 </r>
       <r>   10.0424   -0.0000 </r>
       <r>   12.7075    0.0000 </r>
       <r>   14.5947    0.0000 </r>
       <r>   25.3612    0.0000 </r>
       <r>   27.0203    0.0000 </r>
       <r>   30.1959    0.0000 </r>
      </set>
      <set comment="kpoint 75">
       <r>   -0.6517    1.0000 </r>
       <r>   -0.2458    1.0000 </r>
       <r>    0.3542    1.0000 </r>
       <r>    1.8096    1.0000 </r>
       <r>    3.0495    1.0000 </r>
       <r>    8.3385   -0.0000 </r>
       <r>   10.3671    0.0000 </r>
       <r>   12.2574    0.0000 </r>
       <r>   15.6902    0.0000 </r>
       <r>   25.1095    0.0000 </r>
       <r>   28.5994    0.0000 </r>
       <r>   30.6887    0.0000 </r>
      </set>
      <set comment="kpoint 76">
       <r>   -0.7285    1.0000 </r>
       <r>   -0.2562    1.0000 </r>
       <r>    0.4662    1.0000 </r>
       <r>    1.5947    1.0000 </r>
       <r>    2.8317    1.0000 </r>
       <r>    6.8134   -0.0000 </r>
       <r>    9.6326   -0.0000 </r>
       <r>   15.2743    0.0000 </r>
       <r>   17.2559    0.0000 </r>
       <r>   23.8228    0.0000 </r>
       <r>   28.2022    0.0000 </r>
       <r>   31.9028    0.0000 </r>
      </set>
      <set comment="kpoint 77">
       <r>   -1.4539    1.0000 </r>
       <r>   -1.1160    1.0000 </r>
       <r>    2.1790    1.0000 </r>
       <r>    2.5962    1.0000 </r>
       <r>    3.1503    1.0000 </r>
       <r>    7.3418   -0.0000 </r>
       <r>   10.0580   -0.0000 </r>
       <r>   13.3439    0.0000 </r>
       <r>   15.8934    0.0000 </r>
       <r>   22.5071    0.0000 </r>
       <r>   25.5898    0.0000 </r>
       <r>   32.9883    0.0000 </r>
      </set>
      <set comment="kpoint 78">
       <r>   -1.2879    1.0000 </r>
       <r>   -1.0247    1.0000 </r>
       <r>    1.7378    1.0000 </r>
       <r>    2.4707    1.0000 </r>
       <r>    3.2475    1.0000 </r>
       <r>    7.7458   -0.0000 </r>
       <r>   10.0934   -0.0000 </r>
       <r>   13.4907    0.0000 </r>
       <r>   14.8695    0.0000 </r>
       <r>   23.9803    0.0000 </r>
       <r>   25.5378    0.0000 </r>
       <r>   31.8065    0.0000 </r>
      </set>
      <set comment="kpoint 79">
       <r>   -0.8775    1.0000 </r>
       <r>   -0.6143    1.0000 </r>
       <r>    0.7279    1.0000 </r>
       <r>    2.1545    1.0000 </r>
       <r>    3.0611    1.0000 </r>
       <r>    7.1745   -0.0000 </r>
       <r>   11.1022    0.0000 </r>
       <r>   13.4159    0.0000 </r>
       <r>   15.2770    0.0000 </r>
       <r>   25.1584    0.0000 </r>
       <r>   26.7976    0.0000 </r>
       <r>   30.2886    0.0000 </r>
      </set>
      <set comment="kpoint 80">
       <r>   -1.3922    1.0000 </r>
       <r>   -1.0347    1.0000 </r>
       <r>    1.8860    1.0000 </r>
       <r>    2.3964    1.0000 </r>
       <r>    3.1513    1.0000 </r>
       <r>    6.0226   -0.0000 </r>
       <r>   11.3375    0.0000 </r>
       <r>   14.2114    0.0000 </r>
       <r>   16.2747    0.0000 </r>
       <r>   22.3729    0.0000 </r>
       <r>   25.5678    0.0000 </r>
       <r>   32.8965    0.0000 </r>
      </set>
      <set comment="kpoint 81">
       <r>   -1.1067    1.0000 </r>
       <r>   -0.8186    1.0000 </r>
       <r>    0.9635    1.0000 </r>
       <r>    2.3307    1.0000 </r>
       <r>    2.8152    1.0000 </r>
       <r>    5.0648   -0.0236 </r>
       <r>   12.7427    0.0000 </r>
       <r>   15.1932    0.0000 </r>
       <r>   16.4769    0.0000 </r>
       <r>   23.7346    0.0000 </r>
       <r>   25.4071    0.0000 </r>
       <r>   31.1496    0.0000 </r>
      </set>
      <set comment="kpoint 82">
       <r>   -1.3242    1.0000 </r>
       <r>   -0.6697    1.0000 </r>
       <r>    0.8872    1.0000 </r>
       <r>    1.7614    1.0000 </r>
       <r>    2.9399    1.0000 </r>
       <r>    3.5634    1.0000 </r>
       <r>   13.8270    0.0000 </r>
       <r>   17.8927    0.0000 </r>
       <r>   18.0364    0.0000 </r>
       <r>   21.9529    0.0000 </r>
       <r>   25.5196    0.0000 </r>
       <r>   31.8576    0.0000 </r>
      </set>
      <set comment="kpoint 83">
       <r>   -2.7603    1.0000 </r>
       <r>    0.3628    1.0000 </r>
       <r>    0.7396    1.0000 </r>
       <r>    0.7396    1.0000 </r>
       <r>    2.0484    1.0000 </r>
       <r>    2.0484    1.0000 </r>
       <r>   15.8497    0.0000 </r>
       <r>   21.0963    0.0000 </r>
       <r>   24.4564    0.0000 </r>
       <r>   24.4564    0.0000 </r>
       <r>   26.8500    0.0000 </r>
       <r>   28.2401    0.0000 </r>
      </set>
      <set comment="kpoint 84">
       <r>   -2.1809    1.0000 </r>
       <r>    0.2493    1.0000 </r>
       <r>    0.7076    1.0000 </r>
       <r>    0.8722    1.0000 </r>
       <r>    1.8354    1.0000 </r>
       <r>    2.7969    1.0000 </r>
       <r>   14.6760    0.0000 </r>
       <r>   19.8714    0.0000 </r>
       <r>   22.2658    0.0000 </r>
       <r>   25.8089    0.0000 </r>
       <r>   25.8496    0.0000 </r>
       <r>   28.1256    0.0000 </r>
      </set>
      <set comment="kpoint 85">
       <r>   -1.2404    1.0000 </r>
       <r>   -0.0081    1.0000 </r>
       <r>    0.4634    1.0000 </r>
       <r>    1.2296    1.0000 </r>
       <r>    1.7471    1.0000 </r>
       <r>    3.9416    1.0000 </r>
       <r>   13.7767    0.0000 </r>
       <r>   16.3595    0.0000 </r>
       <r>   21.9111    0.0000 </r>
       <r>   23.9975    0.0000 </r>
       <r>   26.2149    0.0000 </r>
       <r>   30.5341    0.0000 </r>
      </set>
      <set comment="kpoint 86">
       <r>   -0.7661    1.0000 </r>
       <r>    0.0795    1.0000 </r>
       <r>    0.3484    1.0000 </r>
       <r>    1.3815    1.0000 </r>
       <r>    2.1599    1.0000 </r>
       <r>    5.3381   -0.0022 </r>
       <r>   11.9975    0.0000 </r>
       <r>   14.2552    0.0000 </r>
       <r>   21.5693    0.0000 </r>
       <r>   21.5927    0.0000 </r>
       <r>   28.1093    0.0000 </r>
       <r>   30.8704    0.0000 </r>
      </set>
      <set comment="kpoint 87">
       <r>   -0.9775    1.0000 </r>
       <r>   -0.0798    1.0000 </r>
       <r>    0.7955    1.0000 </r>
       <r>    1.4451    1.0000 </r>
       <r>    2.7660    1.0000 </r>
       <r>    7.2858   -0.0000 </r>
       <r>    8.7986   -0.0000 </r>
       <r>   14.7749    0.0000 </r>
       <r>   19.4705    0.0000 </r>
       <r>   21.5301    0.0000 </r>
       <r>   30.2894    0.0000 </r>
       <r>   31.0054    0.0000 </r>
      </set>
      <set comment="kpoint 88">
       <r>   -1.1689    1.0000 </r>
       <r>   -0.2975    1.0000 </r>
       <r>    0.8108    1.0000 </r>
       <r>    1.5879    1.0000 </r>
       <r>    3.0855    1.0000 </r>
       <r>    5.8821   -0.0000 </r>
       <r>   10.1735   -0.0000 </r>
       <r>   16.1423    0.0000 </r>
       <r>   18.2173    0.0000 </r>
       <r>   21.7356    0.0000 </r>
       <r>   28.8177    0.0000 </r>
       <r>   31.3635    0.0000 </r>
      </set>
      <set comment="kpoint 89">
       <r>   -1.9800    1.0000 </r>
       <r>    0.4414    1.0000 </r>
       <r>    0.5633    1.0000 </r>
       <r>    0.8554    1.0000 </r>
       <r>    2.5795    1.0000 </r>
       <r>    2.6624    1.0000 </r>
       <r>   13.3290    0.0000 </r>
       <r>   20.6525    0.0000 </r>
       <r>   21.4469    0.0000 </r>
       <r>   23.0926    0.0000 </r>
       <r>   27.9714    0.0000 </r>
       <r>   29.2919    0.0000 </r>
      </set>
      <set comment="kpoint 90">
       <r>   -1.3804    1.0000 </r>
       <r>    0.2655    1.0000 </r>
       <r>    0.2883    1.0000 </r>
       <r>    1.1852    1.0000 </r>
       <r>    2.4279    1.0000 </r>
       <r>    3.9354    1.0000 </r>
       <r>   12.3526    0.0000 </r>
       <r>   17.9936    0.0000 </r>
       <r>   20.3234    0.0000 </r>
       <r>   23.2692    0.0000 </r>
       <r>   27.5416    0.0000 </r>
       <r>   29.9879    0.0000 </r>
      </set>
      <set comment="kpoint 91">
       <r>   -0.5797    1.0000 </r>
       <r>   -0.0974    1.0000 </r>
       <r>    0.0570    1.0000 </r>
       <r>    1.6468    1.0000 </r>
       <r>    2.3652    1.0000 </r>
       <r>    5.4695   -0.0001 </r>
       <r>   12.0087    0.0000 </r>
       <r>   14.2993    0.0000 </r>
       <r>   19.0176    0.0000 </r>
       <r>   23.9465    0.0000 </r>
       <r>   27.2984    0.0000 </r>
       <r>   31.8085    0.0000 </r>
      </set>
      <set comment="kpoint 92">
       <r>   -0.6426    1.0000 </r>
       <r>   -0.1716    1.0000 </r>
       <r>    0.3684    1.0000 </r>
       <r>    1.7348    1.0000 </r>
       <r>    2.7430    1.0000 </r>
       <r>    7.2279   -0.0000 </r>
       <r>   10.7499    0.0000 </r>
       <r>   12.7140    0.0000 </r>
       <r>   17.5163    0.0000 </r>
       <r>   23.7108    0.0000 </r>
       <r>   28.7601    0.0000 </r>
       <r>   32.2707    0.0000 </r>
      </set>
      <set comment="kpoint 93">
       <r>   -0.9460    1.0000 </r>
       <r>   -0.4452    1.0000 </r>
       <r>    0.7516    1.0000 </r>
       <r>    1.9644    1.0000 </r>
       <r>    3.0087    1.0000 </r>
       <r>    7.4881   -0.0000 </r>
       <r>    9.8491   -0.0000 </r>
       <r>   13.9591    0.0000 </r>
       <r>   16.3527    0.0000 </r>
       <r>   23.6421    0.0000 </r>
       <r>   28.4788    0.0000 </r>
       <r>   30.4267    0.0000 </r>
      </set>
      <set comment="kpoint 94">
       <r>   -1.3066    1.0000 </r>
       <r>   -0.0335    1.0000 </r>
       <r>    0.5795    1.0000 </r>
       <r>    1.2876    1.0000 </r>
       <r>    3.0470    1.0000 </r>
       <r>    4.5362    1.0204 </r>
       <r>   11.1018    0.0000 </r>
       <r>   18.2663    0.0000 </r>
       <r>   19.0498    0.0000 </r>
       <r>   21.4716    0.0000 </r>
       <r>   29.0116    0.0000 </r>
       <r>   30.7446    0.0000 </r>
      </set>
      <set comment="kpoint 95">
       <r>   -0.9515    1.0000 </r>
       <r>   -0.2843    1.0000 </r>
       <r>    0.5033    1.0000 </r>
       <r>    1.7580    1.0000 </r>
       <r>    2.9233    1.0000 </r>
       <r>    6.0908   -0.0000 </r>
       <r>   10.4779    0.0000 </r>
       <r>   15.7160    0.0000 </r>
       <r>   17.0993    0.0000 </r>
       <r>   23.3176    0.0000 </r>
       <r>   28.2472    0.0000 </r>
       <r>   30.5064    0.0000 </r>
      </set>
      <set comment="kpoint 96">
       <r>   -0.5850    1.0000 </r>
       <r>   -0.2355    1.0000 </r>
       <r>    0.1873    1.0000 </r>
       <r>    1.8626    1.0000 </r>
       <r>    3.0496    1.0000 </r>
       <r>    7.8328   -0.0000 </r>
       <r>   10.8370    0.0000 </r>
       <r>   12.6537    0.0000 </r>
       <r>   15.3969    0.0000 </r>
       <r>   25.9104    0.0000 </r>
       <r>   27.5264    0.0000 </r>
       <r>   30.5852    0.0000 </r>
      </set>
      <set comment="kpoint 97">
       <r>   -0.6986    1.0000 </r>
       <r>   -0.2286    1.0000 </r>
       <r>    0.3345    1.0000 </r>
       <r>    1.8203    1.0000 </r>
       <r>    3.2462    1.0000 </r>
       <r>    9.0160   -0.0000 </r>
       <r>   10.5480    0.0000 </r>
       <r>   11.8414    0.0000 </r>
       <r>   14.4419    0.0000 </r>
       <r>   26.6345    0.0000 </r>
       <r>   28.1229    0.0000 </r>
       <r>   29.3810    0.0000 </r>
      </set>
      <set comment="kpoint 98">
       <r>   -1.1433    1.0000 </r>
       <r>   -0.4757    1.0000 </r>
       <r>    1.0837    1.0000 </r>
       <r>    1.8982    1.0000 </r>
       <r>    3.0219    1.0000 </r>
       <r>    7.3583   -0.0000 </r>
       <r>    9.4897   -0.0000 </r>
       <r>   14.0891    0.0000 </r>
       <r>   17.6585    0.0000 </r>
       <r>   22.0449    0.0000 </r>
       <r>   28.6821    0.0000 </r>
       <r>   31.7900    0.0000 </r>
      </set>
      <set comment="kpoint 99">
       <r>   -0.9795    1.0000 </r>
       <r>   -0.5144    1.0000 </r>
       <r>    0.9429    1.0000 </r>
       <r>    2.0374    1.0000 </r>
       <r>    3.0597    1.0000 </r>
       <r>    8.6515   -0.0000 </r>
       <r>    9.6624   -0.0000 </r>
       <r>   12.3792    0.0000 </r>
       <r>   16.0426    0.0000 </r>
       <r>   23.8615    0.0000 </r>
       <r>   28.6742    0.0000 </r>
       <r>   30.3103    0.0000 </r>
      </set>
      <set comment="kpoint 100">
       <r>   -1.1571    1.0000 </r>
       <r>   -0.5619    1.0000 </r>
       <r>    1.2676    1.0000 </r>
       <r>    2.1335    1.0000 </r>
       <r>    2.9138    1.0000 </r>
       <r>    8.4974   -0.0000 </r>
       <r>    9.3419   -0.0000 </r>
       <r>   12.4127    0.0000 </r>
       <r>   17.3785    0.0000 </r>
       <r>   22.2391    0.0000 </r>
       <r>   28.6195    0.0000 </r>
       <r>   32.0008    0.0000 </r>
      </set>
      <set comment="kpoint 101">
       <r>   -2.1089    1.0000 </r>
       <r>    0.5951    1.0000 </r>
       <r>    0.5951    1.0000 </r>
       <r>    1.4681    1.0000 </r>
       <r>    2.5507    1.0000 </r>
       <r>    2.5507    1.0000 </r>
       <r>   11.8792    0.0000 </r>
       <r>   20.2418    0.0000 </r>
       <r>   23.2438    0.0000 </r>
       <r>   23.2438    0.0000 </r>
       <r>   28.4346    0.0000 </r>
       <r>   28.4670    0.0000 </r>
      </set>
      <set comment="kpoint 102">
       <r>   -1.7769    1.0000 </r>
       <r>    0.4305    1.0000 </r>
       <r>    0.6985    1.0000 </r>
       <r>    1.3829    1.0000 </r>
       <r>    2.4538    1.0000 </r>
       <r>    3.7433    1.0000 </r>
       <r>   10.8053    0.0000 </r>
       <r>   19.4387    0.0000 </r>
       <r>   21.0230    0.0000 </r>
       <r>   23.2557    0.0000 </r>
       <r>   27.9527    0.0000 </r>
       <r>   29.1684    0.0000 </r>
      </set>
      <set comment="kpoint 103">
       <r>   -1.1097    1.0000 </r>
       <r>    0.0952    1.0000 </r>
       <r>    0.8613    1.0000 </r>
       <r>    1.1198    1.0000 </r>
       <r>    2.4329    1.0000 </r>
       <r>    5.4045   -0.0005 </r>
       <r>   10.3137   -0.0000 </r>
       <r>   16.1224    0.0000 </r>
       <r>   21.2322    0.0000 </r>
       <r>   21.5419    0.0000 </r>
       <r>   28.5157    0.0000 </r>
       <r>   30.4610    0.0000 </r>
      </set>
      <set comment="kpoint 104">
       <r>   -0.8527    1.0000 </r>
       <r>   -0.0552    1.0000 </r>
       <r>    0.6077    1.0000 </r>
       <r>    1.6916    1.0000 </r>
       <r>    2.5670    1.0000 </r>
       <r>    6.9948   -0.0000 </r>
       <r>   10.6721    0.0000 </r>
       <r>   12.7006    0.0000 </r>
       <r>   19.3205    0.0000 </r>
       <r>   21.7952    0.0000 </r>
       <r>   30.2552    0.0000 </r>
       <r>   31.2701    0.0000 </r>
      </set>
      <set comment="kpoint 105">
       <r>   -1.7709    1.0000 </r>
       <r>    0.3503    1.0000 </r>
       <r>    0.6994    1.0000 </r>
       <r>    1.5640    1.0000 </r>
       <r>    2.9933    1.0000 </r>
       <r>    4.0837    1.0000 </r>
       <r>    9.5821   -0.0000 </r>
       <r>   19.8491    0.0000 </r>
       <r>   21.0640    0.0000 </r>
       <r>   21.5185    0.0000 </r>
       <r>   29.4476    0.0000 </r>
       <r>   29.6283    0.0000 </r>
      </set>
      <set comment="kpoint 106">
       <r>   -1.3305    1.0000 </r>
       <r>    0.0777    1.0000 </r>
       <r>    0.9739    1.0000 </r>
       <r>    1.1847    1.0000 </r>
       <r>    2.8646    1.0000 </r>
       <r>    5.7844   -0.0000 </r>
       <r>    8.8398   -0.0000 </r>
       <r>   18.0666    0.0000 </r>
       <r>   19.0752    0.0000 </r>
       <r>   22.2622    0.0000 </r>
       <r>   28.7670    0.0000 </r>
       <r>   31.0710    0.0000 </r>
      </set>
      <set comment="kpoint 107">
       <r>   -0.7723    1.0000 </r>
       <r>   -0.2273    1.0000 </r>
       <r>    0.6080    1.0000 </r>
       <r>    1.5484    1.0000 </r>
       <r>    2.8271    1.0000 </r>
       <r>    7.5282   -0.0000 </r>
       <r>    8.9133   -0.0000 </r>
       <r>   14.7438    0.0000 </r>
       <r>   17.6618    0.0000 </r>
       <r>   23.2881    0.0000 </r>
       <r>   28.8106    0.0000 </r>
       <r>   32.5469    0.0000 </r>
      </set>
      <set comment="kpoint 108">
       <r>   -1.2218    1.0000 </r>
       <r>    0.0033    1.0000 </r>
       <r>    1.0404    1.0000 </r>
       <r>    1.1497    1.0000 </r>
       <r>    2.9528    1.0000 </r>
       <r>    7.0161   -0.0000 </r>
       <r>    7.8876   -0.0000 </r>
       <r>   16.8611    0.0000 </r>
       <r>   19.7902    0.0000 </r>
       <r>   21.1389    0.0000 </r>
       <r>   30.2911    0.0000 </r>
       <r>   30.5538    0.0000 </r>
      </set>
      <set comment="kpoint 109">
       <r>   -2.0028    1.0000 </r>
       <r>    0.4661    1.0000 </r>
       <r>    0.4661    1.0000 </r>
       <r>    2.9452    1.0000 </r>
       <r>    2.9452    1.0000 </r>
       <r>    3.5587    1.0000 </r>
       <r>    8.4754   -0.0000 </r>
       <r>   19.6324    0.0000 </r>
       <r>   22.1847    0.0000 </r>
       <r>   22.1847    0.0000 </r>
       <r>   28.9826    0.0000 </r>
       <r>   28.9826    0.0000 </r>
      </set>
      <set comment="kpoint 110">
       <r>   -1.7586    1.0000 </r>
       <r>    0.3109    1.0000 </r>
       <r>    0.6279    1.0000 </r>
       <r>    2.0722    1.0000 </r>
       <r>    2.9285    1.0000 </r>
       <r>    5.2732   -0.0073 </r>
       <r>    7.8432   -0.0000 </r>
       <r>   19.4152    0.0000 </r>
       <r>   20.7154    0.0000 </r>
       <r>   21.6025    0.0000 </r>
       <r>   29.3573    0.0000 </r>
       <r>   29.5111    0.0000 </r>
      </set>
     </set>
    </set>
   </array>
  </eigenvalues>
  <separator name="orbital magnetization" >
   <v name="MAGDIPOLOUT">      0.00000000      0.00000000      0.00000000</v>
  </separator>
  <dos>
   <i name="efermi">      4.86763282 </i>
   <total>
    <array>
     <dimension dim="1">gridpoints</dimension>
     <dimension dim="2">spin</dimension>
     <field>energy</field>
     <field>total</field>
     <field>integrated</field>
     <set>
      <set comment="spin 1">
       <r>    -6.4159     0.0000     0.0000 </r>
       <r>    -6.2740     0.0000     0.0000 </r>
       <r>    -6.1322    -0.0000    -0.0000 </r>
       <r>    -5.9904    -0.0000    -0.0000 </r>
       <r>    -5.8486    -0.0000    -0.0000 </r>
       <r>    -5.7068    -0.0000    -0.0000 </r>
       <r>    -5.5649    -0.0000    -0.0000 </r>
       <r>    -5.4231    -0.0000    -0.0000 </r>
       <r>    -5.2813    -0.0000    -0.0000 </r>
       <r>    -5.1395    -0.0000    -0.0000 </r>
       <r>    -4.9976    -0.0000    -0.0000 </r>
       <r>    -4.8558    -0.0001    -0.0000 </r>
       <r>    -4.7140    -0.0007    -0.0001 </r>
       <r>    -4.5722     0.0003    -0.0001 </r>
       <r>    -4.4304     0.0097     0.0013 </r>
       <r>    -4.2885     0.0275     0.0052 </r>
       <r>    -4.1467     0.0505     0.0124 </r>
       <r>    -4.0049     0.0566     0.0204 </r>
       <r>    -3.8631     0.0595     0.0288 </r>
       <r>    -3.7212     0.0761     0.0396 </r>
       <r>    -3.5794     0.1048     0.0545 </r>
       <r>    -3.4376     0.1037     0.0692 </r>
       <r>    -3.2958     0.0719     0.0794 </r>
       <r>    -3.1539     0.1064     0.0945 </r>
       <r>    -3.0121     0.1721     0.1189 </r>
       <r>    -2.8703     0.1558     0.1410 </r>
       <r>    -2.7285     0.1137     0.1571 </r>
       <r>    -2.5867     0.1721     0.1815 </r>
       <r>    -2.4448     0.2035     0.2104 </r>
       <r>    -2.3030     0.2005     0.2388 </r>
       <r>    -2.1612     0.2743     0.2777 </r>
       <r>    -2.0194     0.4169     0.3368 </r>
       <r>    -1.8775     0.5679     0.4174 </r>
       <r>    -1.7357     0.6552     0.5103 </r>
       <r>    -1.5939     0.9348     0.6429 </r>
       <r>    -1.4521     1.2408     0.8188 </r>
       <r>    -1.3102     1.5768     1.0425 </r>
       <r>    -1.1684     1.8890     1.3104 </r>
       <r>    -1.0266     1.9405     1.5856 </r>
       <r>    -0.8848     1.8530     1.8484 </r>
       <r>    -0.7430     1.6577     2.0835 </r>
       <r>    -0.6011     1.6230     2.3136 </r>
       <r>    -0.4593     1.3302     2.5023 </r>
       <r>    -0.3175     1.3626     2.6955 </r>
       <r>    -0.1757     1.8260     2.9545 </r>
       <r>    -0.0338     2.0417     3.2441 </r>
       <r>     0.1080     2.0422     3.5337 </r>
       <r>     0.2498     2.0851     3.8294 </r>
       <r>     0.3916     2.3714     4.1657 </r>
       <r>     0.5335     2.4305     4.5104 </r>
       <r>     0.6753     2.7803     4.9047 </r>
       <r>     0.8171     3.3914     5.3857 </r>
       <r>     0.9589     2.9531     5.8045 </r>
       <r>     1.1007     2.0159     6.0904 </r>
       <r>     1.2426     1.5625     6.3120 </r>
       <r>     1.3844     1.7078     6.5543 </r>
       <r>     1.5262     1.8884     6.8221 </r>
       <r>     1.6680     2.2522     7.1415 </r>
       <r>     1.8099     2.3738     7.4782 </r>
       <r>     1.9517     1.9450     7.7540 </r>
       <r>     2.0935     2.0435     8.0438 </r>
       <r>     2.2353     1.9411     8.3191 </r>
       <r>     2.3771     1.5825     8.5435 </r>
       <r>     2.5190     1.8128     8.8006 </r>
       <r>     2.6608     1.8586     9.0642 </r>
       <r>     2.8026     2.3586     9.3987 </r>
       <r>     2.9444     2.9029     9.8104 </r>
       <r>     3.0863     2.5903    10.1778 </r>
       <r>     3.2281     1.6702    10.4147 </r>
       <r>     3.3699     0.9584    10.5506 </r>
       <r>     3.5117     0.4329    10.6120 </r>
       <r>     3.6536     0.1307    10.6305 </r>
       <r>     3.7954     0.1089    10.6460 </r>
       <r>     3.9372     0.3530    10.6960 </r>
       <r>     4.0790     0.4591    10.7611 </r>
       <r>     4.2208     0.2910    10.8024 </r>
       <r>     4.3627     0.1273    10.8204 </r>
       <r>     4.5045     0.2004    10.8489 </r>
       <r>     4.6463     0.4851    10.9177 </r>
       <r>     4.7881     0.4330    10.9791 </r>
       <r>     4.9300     0.2337    11.0122 </r>
       <r>     5.0718     0.1798    11.0377 </r>
       <r>     5.2136     0.1813    11.0634 </r>
       <r>     5.3554     0.2667    11.1013 </r>
       <r>     5.4973     0.4414    11.1639 </r>
       <r>     5.6391     0.3407    11.2122 </r>
       <r>     5.7809     0.2567    11.2486 </r>
       <r>     5.9227     0.3198    11.2939 </r>
       <r>     6.0645     0.2641    11.3314 </r>
       <r>     6.2064     0.2251    11.3633 </r>
       <r>     6.3482     0.2165    11.3940 </r>
       <r>     6.4900     0.2974    11.4362 </r>
       <r>     6.6318     0.3487    11.4857 </r>
       <r>     6.7737     0.3302    11.5325 </r>
       <r>     6.9155     0.2434    11.5670 </r>
       <r>     7.0573     0.1463    11.5878 </r>
       <r>     7.1991     0.2689    11.6259 </r>
       <r>     7.3409     0.3736    11.6789 </r>
       <r>     7.4828     0.2760    11.7180 </r>
       <r>     7.6246     0.1729    11.7425 </r>
       <r>     7.7664     0.2632    11.7799 </r>
       <r>     7.9082     0.5686    11.8605 </r>
       <r>     8.0501     0.5690    11.9412 </r>
       <r>     8.1919     0.3361    11.9889 </r>
       <r>     8.3337     0.1564    12.0110 </r>
       <r>     8.4755     0.1750    12.0358 </r>
       <r>     8.6174     0.3803    12.0898 </r>
       <r>     8.7592     0.4475    12.1532 </r>
       <r>     8.9010     0.3613    12.2045 </r>
       <r>     9.0428     0.3030    12.2475 </r>
       <r>     9.1846     0.1477    12.2684 </r>
       <r>     9.3265     0.1040    12.2832 </r>
       <r>     9.4683     0.2432    12.3177 </r>
       <r>     9.6101     0.4268    12.3782 </r>
       <r>     9.7519     0.4648    12.4441 </r>
       <r>     9.8938     0.3555    12.4945 </r>
       <r>    10.0356     0.3548    12.5449 </r>
       <r>    10.1774     0.3293    12.5916 </r>
       <r>    10.3192     0.3137    12.6361 </r>
       <r>    10.4611     0.4405    12.6985 </r>
       <r>    10.6029     0.4362    12.7604 </r>
       <r>    10.7447     0.3706    12.8130 </r>
       <r>    10.8865     0.3256    12.8591 </r>
       <r>    11.0283     0.1899    12.8861 </r>
       <r>    11.1702     0.1857    12.9124 </r>
       <r>    11.3120     0.3981    12.9689 </r>
       <r>    11.4538     0.4881    13.0381 </r>
       <r>    11.5956     0.2217    13.0695 </r>
       <r>    11.7375     0.0396    13.0751 </r>
       <r>    11.8793     0.2415    13.1094 </r>
       <r>    12.0211     0.4513    13.1734 </r>
       <r>    12.1629     0.3408    13.2217 </r>
       <r>    12.3048     0.3603    13.2728 </r>
       <r>    12.4466     0.4467    13.3362 </r>
       <r>    12.5884     0.3714    13.3889 </r>
       <r>    12.7302     0.5647    13.4690 </r>
       <r>    12.8720     0.5591    13.5483 </r>
       <r>    13.0139     0.1562    13.5704 </r>
       <r>    13.1557    -0.0121    13.5687 </r>
       <r>    13.2975     0.1629    13.5918 </r>
       <r>    13.4393     0.4854    13.6606 </r>
       <r>    13.5812     0.5023    13.7319 </r>
       <r>    13.7230     0.2958    13.7738 </r>
       <r>    13.8648     0.3244    13.8198 </r>
       <r>    14.0066     0.4794    13.8878 </r>
       <r>    14.1484     0.4760    13.9553 </r>
       <r>    14.2903     0.4835    14.0239 </r>
       <r>    14.4321     0.4361    14.0858 </r>
       <r>    14.5739     0.3070    14.1293 </r>
       <r>    14.7157     0.4278    14.1900 </r>
       <r>    14.8576     0.4841    14.2586 </r>
       <r>    14.9994     0.3742    14.3117 </r>
       <r>    15.1412     0.4919    14.3815 </r>
       <r>    15.2830     0.7100    14.4821 </r>
       <r>    15.4249     0.6711    14.5773 </r>
       <r>    15.5667     0.3591    14.6283 </r>
       <r>    15.7085     0.2857    14.6688 </r>
       <r>    15.8503     0.3901    14.7241 </r>
       <r>    15.9921     0.4197    14.7836 </r>
       <r>    16.1340     0.6007    14.8688 </r>
       <r>    16.2758     0.7814    14.9796 </r>
       <r>    16.4176     0.8558    15.1010 </r>
       <r>    16.5594     0.6228    15.1893 </r>
       <r>    16.7013     0.2766    15.2286 </r>
       <r>    16.8431     0.1760    15.2535 </r>
       <r>    16.9849     0.3024    15.2964 </r>
       <r>    17.1267     0.5328    15.3720 </r>
       <r>    17.2686     0.5128    15.4447 </r>
       <r>    17.4104     0.5480    15.5224 </r>
       <r>    17.5522     0.5865    15.6056 </r>
       <r>    17.6940     0.4942    15.6757 </r>
       <r>    17.8358     0.4101    15.7339 </r>
       <r>    17.9777     0.5657    15.8141 </r>
       <r>    18.1195     0.6003    15.8992 </r>
       <r>    18.2613     0.3738    15.9523 </r>
       <r>    18.4031     0.4352    16.0140 </r>
       <r>    18.5450     0.5849    16.0969 </r>
       <r>    18.6868     0.5050    16.1685 </r>
       <r>    18.8286     0.3726    16.2214 </r>
       <r>    18.9704     0.5037    16.2928 </r>
       <r>    19.1122     0.6059    16.3788 </r>
       <r>    19.2541     0.3470    16.4280 </r>
       <r>    19.3959     0.2134    16.4582 </r>
       <r>    19.5377     0.4931    16.5282 </r>
       <r>    19.6795     0.7898    16.6402 </r>
       <r>    19.8214     0.6367    16.7305 </r>
       <r>    19.9632     0.4978    16.8011 </r>
       <r>    20.1050     0.6252    16.8897 </r>
       <r>    20.2468     0.6713    16.9850 </r>
       <r>    20.3887     0.5344    17.0607 </r>
       <r>    20.5305     0.4740    17.1280 </r>
       <r>    20.6723     0.4888    17.1973 </r>
       <r>    20.8141     0.5927    17.2813 </r>
       <r>    20.9559     0.5140    17.3542 </r>
       <r>    21.0978     0.3190    17.3995 </r>
       <r>    21.2396     0.2789    17.4391 </r>
       <r>    21.3814     0.4334    17.5005 </r>
       <r>    21.5232     0.8995    17.6281 </r>
       <r>    21.6651     1.0752    17.7806 </r>
       <r>    21.8069     0.7805    17.8913 </r>
       <r>    21.9487     0.7719    18.0008 </r>
       <r>    22.0905     0.7138    18.1020 </r>
       <r>    22.2324     0.6670    18.1966 </r>
       <r>    22.3742     0.8161    18.3123 </r>
       <r>    22.5160     1.0221    18.4573 </r>
       <r>    22.6578     1.0555    18.6070 </r>
       <r>    22.7996     0.7803    18.7176 </r>
       <r>    22.9415     0.6617    18.8115 </r>
       <r>    23.0833     0.6170    18.8990 </r>
       <r>    23.2251     0.6130    18.9859 </r>
       <r>    23.3669     0.6717    19.0812 </r>
       <r>    23.5088     0.6389    19.1718 </r>
       <r>    23.6506     0.5620    19.2515 </r>
       <r>    23.7924     0.7681    19.3604 </r>
       <r>    23.9342     0.9374    19.4934 </r>
       <r>    24.0761     0.7304    19.5970 </r>
       <r>    24.2179     0.4267    19.6575 </r>
       <r>    24.3597     0.3052    19.7008 </r>
       <r>    24.5015     0.5240    19.7751 </r>
       <r>    24.6433     0.7067    19.8753 </r>
       <r>    24.7852     0.5393    19.9518 </r>
       <r>    24.9270     0.4308    20.0129 </r>
       <r>    25.0688     0.3162    20.0577 </r>
       <r>    25.2106     0.2843    20.0980 </r>
       <r>    25.3525     0.3875    20.1530 </r>
       <r>    25.4943     0.6156    20.2403 </r>
       <r>    25.6361     0.5597    20.3197 </r>
       <r>    25.7779     0.3628    20.3711 </r>
       <r>    25.9197     0.4104    20.4293 </r>
       <r>    26.0616     0.4486    20.4930 </r>
       <r>    26.2034     0.2828    20.5331 </r>
       <r>    26.3452     0.1663    20.5566 </r>
       <r>    26.4870     0.2715    20.5951 </r>
       <r>    26.6289     0.3564    20.6457 </r>
       <r>    26.7707     0.3129    20.6901 </r>
       <r>    26.9125     0.5175    20.7635 </r>
       <r>    27.0543     0.8308    20.8813 </r>
       <r>    27.1962     0.6846    20.9784 </r>
       <r>    27.3380     0.3245    21.0244 </r>
       <r>    27.4798     0.2519    21.0601 </r>
       <r>    27.6216     0.2761    21.0993 </r>
       <r>    27.7634     0.1612    21.1221 </r>
       <r>    27.9053     0.2645    21.1597 </r>
       <r>    28.0471     0.6252    21.2483 </r>
       <r>    28.1889     0.7086    21.3488 </r>
       <r>    28.3307     0.4811    21.4170 </r>
       <r>    28.4726     0.3523    21.4670 </r>
       <r>    28.6144     0.5660    21.5473 </r>
       <r>    28.7562     0.9596    21.6834 </r>
       <r>    28.8980     1.1257    21.8430 </r>
       <r>    29.0399     0.9286    21.9747 </r>
       <r>    29.1817     0.7250    22.0775 </r>
       <r>    29.3235     0.5933    22.1617 </r>
       <r>    29.4653     0.4975    22.2322 </r>
       <r>    29.6071     0.4816    22.3005 </r>
       <r>    29.7490     0.5612    22.3801 </r>
       <r>    29.8908     0.6701    22.4752 </r>
       <r>    30.0326     0.7142    22.5765 </r>
       <r>    30.1744     0.6523    22.6690 </r>
       <r>    30.3163     0.8546    22.7902 </r>
       <r>    30.4581     1.0229    22.9352 </r>
       <r>    30.5999     0.8850    23.0607 </r>
       <r>    30.7417     0.6201    23.1487 </r>
       <r>    30.8835     0.5329    23.2243 </r>
       <r>    31.0254     0.5536    23.3028 </r>
       <r>    31.1672     0.5156    23.3759 </r>
       <r>    31.3090     0.4877    23.4451 </r>
       <r>    31.4508     0.4210    23.5048 </r>
       <r>    31.5927     0.3405    23.5531 </r>
       <r>    31.7345     0.4047    23.6105 </r>
       <r>    31.8763     0.6084    23.6967 </r>
       <r>    32.0181     0.5008    23.7678 </r>
       <r>    32.1600     0.2038    23.7967 </r>
       <r>    32.3018     0.1044    23.8115 </r>
       <r>    32.4436     0.0867    23.8238 </r>
       <r>    32.5854     0.1480    23.8448 </r>
       <r>    32.7272     0.1686    23.8687 </r>
       <r>    32.8691     0.1108    23.8844 </r>
       <r>    33.0109     0.1132    23.9004 </r>
       <r>    33.1527     0.2089    23.9300 </r>
       <r>    33.2945     0.2038    23.9590 </r>
       <r>    33.4364     0.0486    23.9658 </r>
       <r>    33.5782    -0.0121    23.9641 </r>
       <r>    33.7200    -0.0015    23.9639 </r>
       <r>    33.8618     0.0335    23.9687 </r>
       <r>    34.0037     0.0762    23.9795 </r>
       <r>    34.1455     0.0969    23.9932 </r>
       <r>    34.2873     0.0500    24.0003 </r>
       <r>    34.4291     0.0012    24.0005 </r>
       <r>    34.5709    -0.0030    24.0001 </r>
       <r>    34.7128    -0.0004    24.0000 </r>
       <r>    34.8546    -0.0000    24.0000 </r>
       <r>    34.9964    -0.0000    24.0000 </r>
       <r>    35.1382    -0.0000    24.0000 </r>
       <r>    35.2801    -0.0000    24.0000 </r>
       <r>    35.4219    -0.0000    24.0000 </r>
       <r>    35.5637     0.0000    24.0000 </r>
       <r>    35.7055     0.0000    24.0000 </r>
       <r>    35.8474     0.0000    24.0000 </r>
       <r>    35.9892     0.0000    24.0000 </r>
       <r>    36.1310     0.0000    24.0000 </r>
      </set>
     </set>
    </array>
   </total>
  </dos>
 </calculation>
 <structure name="finalpos" >
  <crystal>
   <varray name="basis" >
    <v>       0.00000000       2.07500000       2.07500000 </v>
    <v>       2.07500000       0.00000000       2.07500000 </v>
    <v>       2.07500000       2.07500000       0.00000000 </v>
   </varray>
   <i name="volume">     17.86834375 </i>
   <varray name="rec_basis" >
    <v>      -0.24096386       0.24096386       0.24096386 </v>
    <v>       0.24096386      -0.24096386       0.24096386 </v>
    <v>       0.24096386       0.24096386      -0.24096386 </v>
   </varray>
  </crystal>
  <varray name="positions" >
   <v>       0.00000000       0.00000000       0.00000000 </v>
  </varray>
 </structure>
</modeling>
