   2   2   1   0
  0.5000000E+03  0.1000000E-08  0.1000000E-08  0.1000000E-08  0.5000000E-15
  1.000000000000000E-004
  CAR 
 CO-Spin                                 
      3.28592957    -31.19954049  301     -8.78963978      1.00000000
    -31.200  0.0000E+00  0.0000E+00  0.0000E+00  0.0000E+00
    -31.085  0.0000E+00  0.0000E+00  0.0000E+00  0.0000E+00
    -30.970  0.0000E+00  0.0000E+00  0.0000E+00  0.0000E+00
    -30.855 -0.7327E-30 -0.1835E-30 -0.8422E-31 -0.2110E-31
    -30.740 -0.6631E-26 -0.1831E-26 -0.7624E-27 -0.2105E-27
    -30.625 -0.3083E-22 -0.9379E-23 -0.3545E-23 -0.1078E-23
    -30.510 -0.7353E-19 -0.2466E-19 -0.8456E-20 -0.2836E-20
    -30.395 -0.8987E-16 -0.3323E-16 -0.1034E-16 -0.3823E-17
    -30.280 -0.5430E-13 -0.2216E-13 -0.6252E-14 -0.2551E-14
    -30.165 -0.1717E-10 -0.7737E-11 -0.1980E-11 -0.8919E-12
    -30.050 -0.2750E-08 -0.1369E-08 -0.3181E-09 -0.1583E-09
    -29.935 -0.2213E-06 -0.1219E-06 -0.2576E-07 -0.1417E-07
    -29.820 -0.8811E-05 -0.5384E-05 -0.1039E-05 -0.6331E-06
    -29.705 -0.1685E-03 -0.1149E-03 -0.2040E-04 -0.1384E-04
    -29.590 -0.1435E-02 -0.1111E-02 -0.1853E-03 -0.1415E-03
    -29.475 -0.4046E-02 -0.3865E-02 -0.6505E-03 -0.5858E-03
    -29.360  0.7219E-02  0.3494E-02  0.1794E-03 -0.1841E-03
    -29.245  0.5266E-01  0.4492E-01  0.6233E-02  0.4980E-02
    -29.130  0.8045E-01  0.8079E-01  0.1548E-01  0.1427E-01
    -29.015  0.4188E-01  0.4966E-01  0.2030E-01  0.1998E-01
    -28.901  0.2278E-02  0.5659E-02  0.2056E-01  0.2063E-01
    -28.786 -0.3746E-02 -0.4000E-02  0.2013E-01  0.2017E-01
    -28.671 -0.9994E-03 -0.1302E-02  0.2001E-01  0.2002E-01
    -28.556 -0.9852E-04 -0.1454E-03  0.2000E-01  0.2000E-01
    -28.441 -0.4424E-05 -0.7284E-05  0.2000E-01  0.2000E-01
    -28.326 -0.9617E-07 -0.1756E-06  0.2000E-01  0.2000E-01
    -28.211 -0.1039E-08 -0.2099E-08  0.2000E-01  0.2000E-01
    -28.096 -0.5646E-11 -0.1260E-10  0.2000E-01  0.2000E-01
    -27.981 -0.1553E-13 -0.3832E-13  0.2000E-01  0.2000E-01
    -27.866 -0.3863E-16 -0.7727E-16  0.2000E-01  0.2000E-01
    -27.751  0.0000E+00  0.0000E+00  0.2000E-01  0.2000E-01
    -27.636  0.0000E+00  0.0000E+00  0.2000E-01  0.2000E-01
    -27.521  0.0000E+00  0.0000E+00  0.2000E-01  0.2000E-01
    -27.406  0.0000E+00  0.0000E+00  0.2000E-01  0.2000E-01
    -27.291  0.0000E+00  0.0000E+00  0.2000E-01  0.2000E-01
    -27.176  0.0000E+00  0.0000E+00  0.2000E-01  0.2000E-01
    -27.061  0.0000E+00  0.0000E+00  0.2000E-01  0.2000E-01
    -26.946  0.0000E+00  0.0000E+00  0.2000E-01  0.2000E-01
    -26.831  0.0000E+00  0.0000E+00  0.2000E-01  0.2000E-01
    -26.716  0.0000E+00  0.0000E+00  0.2000E-01  0.2000E-01
    -26.601  0.0000E+00  0.0000E+00  0.2000E-01  0.2000E-01
    -26.487  0.0000E+00  0.0000E+00  0.2000E-01  0.2000E-01
    -26.372  0.0000E+00  0.0000E+00  0.2000E-01  0.2000E-01
    -26.257  0.0000E+00  0.0000E+00  0.2000E-01  0.2000E-01
    -26.142  0.0000E+00  0.0000E+00  0.2000E-01  0.2000E-01
    -26.027  0.0000E+00  0.0000E+00  0.2000E-01  0.2000E-01
    -25.912  0.0000E+00  0.0000E+00  0.2000E-01  0.2000E-01
    -25.797  0.0000E+00  0.0000E+00  0.2000E-01  0.2000E-01
    -25.682  0.0000E+00  0.0000E+00  0.2000E-01  0.2000E-01
    -25.567  0.0000E+00  0.0000E+00  0.2000E-01  0.2000E-01
    -25.452  0.0000E+00  0.0000E+00  0.2000E-01  0.2000E-01
    -25.337  0.0000E+00  0.0000E+00  0.2000E-01  0.2000E-01
    -25.222  0.0000E+00  0.0000E+00  0.2000E-01  0.2000E-01
    -25.107  0.0000E+00  0.0000E+00  0.2000E-01  0.2000E-01
    -24.992  0.0000E+00  0.0000E+00  0.2000E-01  0.2000E-01
    -24.877  0.0000E+00  0.0000E+00  0.2000E-01  0.2000E-01
    -24.762  0.0000E+00  0.0000E+00  0.2000E-01  0.2000E-01
    -24.647  0.0000E+00  0.0000E+00  0.2000E-01  0.2000E-01
    -24.532  0.0000E+00  0.0000E+00  0.2000E-01  0.2000E-01
    -24.417  0.0000E+00  0.0000E+00  0.2000E-01  0.2000E-01
    -24.302  0.0000E+00  0.0000E+00  0.2000E-01  0.2000E-01
    -24.187  0.0000E+00  0.0000E+00  0.2000E-01  0.2000E-01
    -24.073  0.0000E+00  0.0000E+00  0.2000E-01  0.2000E-01
    -23.958  0.0000E+00  0.0000E+00  0.2000E-01  0.2000E-01
    -23.843  0.0000E+00  0.0000E+00  0.2000E-01  0.2000E-01
    -23.728  0.0000E+00  0.0000E+00  0.2000E-01  0.2000E-01
    -23.613  0.0000E+00  0.0000E+00  0.2000E-01  0.2000E-01
    -23.498  0.0000E+00  0.0000E+00  0.2000E-01  0.2000E-01
    -23.383  0.0000E+00  0.0000E+00  0.2000E-01  0.2000E-01
    -23.268  0.0000E+00  0.0000E+00  0.2000E-01  0.2000E-01
    -23.153  0.0000E+00  0.0000E+00  0.2000E-01  0.2000E-01
    -23.038  0.0000E+00  0.0000E+00  0.2000E-01  0.2000E-01
    -22.923  0.0000E+00  0.0000E+00  0.2000E-01  0.2000E-01
    -22.808  0.0000E+00  0.0000E+00  0.2000E-01  0.2000E-01
    -22.693  0.0000E+00  0.0000E+00  0.2000E-01  0.2000E-01
    -22.578  0.0000E+00  0.0000E+00  0.2000E-01  0.2000E-01
    -22.463  0.0000E+00  0.0000E+00  0.2000E-01  0.2000E-01
    -22.348  0.0000E+00  0.0000E+00  0.2000E-01  0.2000E-01
    -22.233  0.0000E+00  0.0000E+00  0.2000E-01  0.2000E-01
    -22.118  0.0000E+00  0.0000E+00  0.2000E-01  0.2000E-01
    -22.003  0.0000E+00  0.0000E+00  0.2000E-01  0.2000E-01
    -21.888  0.0000E+00  0.0000E+00  0.2000E-01  0.2000E-01
    -21.774  0.0000E+00  0.0000E+00  0.2000E-01  0.2000E-01
    -21.659  0.0000E+00  0.0000E+00  0.2000E-01  0.2000E-01
    -21.544  0.0000E+00  0.0000E+00  0.2000E-01  0.2000E-01
    -21.429  0.0000E+00  0.0000E+00  0.2000E-01  0.2000E-01
    -21.314  0.0000E+00  0.0000E+00  0.2000E-01  0.2000E-01
    -21.199  0.0000E+00  0.0000E+00  0.2000E-01  0.2000E-01
    -21.084  0.0000E+00  0.0000E+00  0.2000E-01  0.2000E-01
    -20.969  0.0000E+00  0.0000E+00  0.2000E-01  0.2000E-01
    -20.854  0.0000E+00  0.0000E+00  0.2000E-01  0.2000E-01
    -20.739  0.0000E+00  0.0000E+00  0.2000E-01  0.2000E-01
    -20.624  0.0000E+00  0.0000E+00  0.2000E-01  0.2000E-01
    -20.509  0.0000E+00  0.0000E+00  0.2000E-01  0.2000E-01
    -20.394  0.0000E+00  0.0000E+00  0.2000E-01  0.2000E-01
    -20.279  0.0000E+00  0.0000E+00  0.2000E-01  0.2000E-01
    -20.164  0.0000E+00  0.0000E+00  0.2000E-01  0.2000E-01
    -20.049  0.0000E+00  0.0000E+00  0.2000E-01  0.2000E-01
    -19.934  0.0000E+00  0.0000E+00  0.2000E-01  0.2000E-01
    -19.819  0.0000E+00  0.0000E+00  0.2000E-01  0.2000E-01
    -19.704  0.0000E+00  0.0000E+00  0.2000E-01  0.2000E-01
    -19.589  0.0000E+00  0.0000E+00  0.2000E-01  0.2000E-01
    -19.474  0.0000E+00  0.0000E+00  0.2000E-01  0.2000E-01
    -19.360  0.0000E+00  0.0000E+00  0.2000E-01  0.2000E-01
    -19.245  0.0000E+00  0.0000E+00  0.2000E-01  0.2000E-01
    -19.130  0.0000E+00  0.0000E+00  0.2000E-01  0.2000E-01
    -19.015  0.0000E+00  0.0000E+00  0.2000E-01  0.2000E-01
    -18.900  0.0000E+00  0.0000E+00  0.2000E-01  0.2000E-01
    -18.785  0.0000E+00  0.0000E+00  0.2000E-01  0.2000E-01
    -18.670  0.0000E+00  0.0000E+00  0.2000E-01  0.2000E-01
    -18.555  0.0000E+00  0.0000E+00  0.2000E-01  0.2000E-01
    -18.440  0.0000E+00  0.0000E+00  0.2000E-01  0.2000E-01
    -18.325  0.0000E+00  0.0000E+00  0.2000E-01  0.2000E-01
    -18.210  0.0000E+00  0.0000E+00  0.2000E-01  0.2000E-01
    -18.095  0.0000E+00  0.0000E+00  0.2000E-01  0.2000E-01
    -17.980  0.0000E+00  0.0000E+00  0.2000E-01  0.2000E-01
    -17.865  0.0000E+00  0.0000E+00  0.2000E-01  0.2000E-01
    -17.750  0.0000E+00  0.0000E+00  0.2000E-01  0.2000E-01
    -17.635  0.0000E+00  0.0000E+00  0.2000E-01  0.2000E-01
    -17.520  0.0000E+00  0.0000E+00  0.2000E-01  0.2000E-01
    -17.405  0.0000E+00  0.0000E+00  0.2000E-01  0.2000E-01
    -17.290  0.0000E+00  0.0000E+00  0.2000E-01  0.2000E-01
    -17.175  0.0000E+00  0.0000E+00  0.2000E-01  0.2000E-01
    -17.060  0.0000E+00  0.0000E+00  0.2000E-01  0.2000E-01
    -16.946  0.0000E+00  0.0000E+00  0.2000E-01  0.2000E-01
    -16.831  0.0000E+00  0.0000E+00  0.2000E-01  0.2000E-01
    -16.716  0.0000E+00  0.0000E+00  0.2000E-01  0.2000E-01
    -16.601  0.0000E+00  0.0000E+00  0.2000E-01  0.2000E-01
    -16.486  0.0000E+00  0.0000E+00  0.2000E-01  0.2000E-01
    -16.371  0.0000E+00  0.0000E+00  0.2000E-01  0.2000E-01
    -16.256  0.0000E+00  0.0000E+00  0.2000E-01  0.2000E-01
    -16.141  0.0000E+00  0.0000E+00  0.2000E-01  0.2000E-01
    -16.026  0.0000E+00  0.0000E+00  0.2000E-01  0.2000E-01
    -15.911  0.0000E+00  0.0000E+00  0.2000E-01  0.2000E-01
    -15.796  0.0000E+00  0.0000E+00  0.2000E-01  0.2000E-01
    -15.681 -0.2839E-31  0.0000E+00  0.2000E-01  0.2000E-01
    -15.566 -0.3223E-27 -0.3035E-28  0.2000E-01  0.2000E-01
    -15.451 -0.1880E-23 -0.2104E-24  0.2000E-01  0.2000E-01
    -15.336 -0.5626E-20 -0.7492E-21  0.2000E-01  0.2000E-01
    -15.221 -0.8634E-17 -0.1368E-17  0.2000E-01  0.2000E-01
    -15.106 -0.6570E-14 -0.1240E-14  0.2000E-01  0.2000E-01
    -14.991 -0.2615E-11 -0.5888E-12  0.2000E-01  0.2000E-01
    -14.876 -0.5283E-09 -0.1420E-09  0.2000E-01  0.2000E-01
    -14.761 -0.5379E-07 -0.1729E-07  0.2000E-01  0.2000E-01
    -14.647 -0.2727E-05 -0.1052E-05  0.2000E-01  0.2000E-01
    -14.532 -0.6725E-04 -0.3140E-04  0.1999E-01  0.2000E-01
    -14.417 -0.7650E-03 -0.4405E-03  0.1990E-01  0.1995E-01
    -14.302 -0.3386E-02 -0.2578E-02  0.1951E-01  0.1965E-01
    -14.187 -0.1388E-03 -0.2947E-02  0.1950E-01  0.1931E-01
    -14.072  0.3465E-01  0.2200E-01  0.2348E-01  0.2184E-01
    -13.957  0.7854E-01  0.7110E-01  0.3251E-01  0.3001E-01
    -13.842  0.5964E-01  0.7100E-01  0.3937E-01  0.3817E-01
    -13.727  0.1155E-01  0.2189E-01  0.4069E-01  0.4069E-01
    -13.612 -0.3991E-02 -0.2965E-02  0.4023E-01  0.4035E-01
    -13.497 -0.1790E-02 -0.2569E-02  0.4003E-01  0.4005E-01
    -13.382 -0.2379E-03 -0.4379E-03  0.4000E-01  0.4000E-01
    -13.267 -0.1382E-04 -0.3115E-04  0.4000E-01  0.4000E-01
    -13.152 -0.3829E-06 -0.1042E-05  0.4000E-01  0.4000E-01
    -13.037 -0.5236E-08 -0.1708E-07  0.4000E-01  0.4000E-01
    -12.922 -0.3591E-10 -0.1400E-09  0.4000E-01  0.4000E-01
    -12.807 -0.1400E-12 -0.5876E-12  0.4000E-01  0.4000E-01
    -12.692 -0.6018E-11 -0.3318E-11  0.4000E-01  0.4000E-01
    -12.577 -0.1195E-08 -0.7077E-09  0.4000E-01  0.4000E-01
    -12.462 -0.1196E-06 -0.7615E-07  0.4000E-01  0.4000E-01
    -12.347 -0.5959E-05 -0.4086E-05  0.4000E-01  0.4000E-01
    -12.233 -0.1443E-03 -0.1069E-03  0.3998E-01  0.3999E-01
    -12.118 -0.1608E-02 -0.1298E-02  0.3980E-01  0.3984E-01
    -12.003 -0.6915E-02 -0.6292E-02  0.3900E-01  0.3911E-01
    -11.888  0.4927E-03 -0.2469E-02  0.3906E-01  0.3883E-01
    -11.773  0.7188E-01  0.6111E-01  0.4732E-01  0.4586E-01
    -11.658  0.1580E+00  0.1535E+00  0.6548E-01  0.6350E-01
    -11.543  0.1168E+00  0.1269E+00  0.7891E-01  0.7809E-01
    -11.428  0.2142E-01  0.2891E-01  0.8137E-01  0.8141E-01
    -11.313 -0.8043E-02 -0.7644E-02  0.8045E-01  0.8053E-01
    -11.198 -0.3445E-02 -0.4037E-02  0.8005E-01  0.8007E-01
    -11.083 -0.4474E-03 -0.5778E-03  0.8000E-01  0.8000E-01
    -10.968 -0.2550E-04 -0.3571E-04  0.8000E-01  0.8000E-01
    -10.853 -0.6942E-06 -0.1048E-05  0.8000E-01  0.8000E-01
    -10.738 -0.9330E-08 -0.1516E-07  0.8000E-01  0.8000E-01
    -10.623 -0.6291E-10 -0.1099E-09  0.8000E-01  0.8000E-01
    -10.508 -0.2146E-12 -0.4026E-12  0.8000E-01  0.8000E-01
    -10.393 -0.3863E-15 -0.7727E-15  0.8000E-01  0.8000E-01
    -10.278 -0.2483E-16 -0.7734E-20  0.8000E-01  0.8000E-01
    -10.163 -0.1704E-13 -0.1154E-16  0.8000E-01  0.8000E-01
    -10.048 -0.6122E-11 -0.8538E-14  0.8000E-01  0.8000E-01
     -9.934 -0.1115E-08 -0.3305E-11  0.8000E-01  0.8000E-01
     -9.819 -0.1022E-06 -0.6490E-09  0.8000E-01  0.8000E-01
     -9.704 -0.4653E-05 -0.6421E-07  0.8000E-01  0.8000E-01
     -9.589 -0.1025E-03 -0.3161E-05  0.7999E-01  0.8000E-01
     -9.474 -0.1027E-02 -0.7560E-04  0.7987E-01  0.7999E-01
     -9.359 -0.3778E-02 -0.8310E-03  0.7944E-01  0.7990E-01
     -9.244  0.2577E-02 -0.3504E-02  0.7973E-01  0.7949E-01
     -9.129  0.4266E-01  0.5176E-03  0.8464E-01  0.7955E-01
     -9.014  0.8056E-01  0.3681E-01  0.9390E-01  0.8378E-01
     -8.899  0.5190E-01  0.7928E-01  0.9986E-01  0.9290E-01
     -8.784  0.6806E-02  0.5758E-01  0.1006E+00  0.9952E-01
     -8.669 -0.4038E-02  0.1016E-01  0.1002E+00  0.1007E+00
     -8.554 -0.1400E-02 -0.4036E-02  0.1000E+00  0.1002E+00
     -8.439 -0.1623E-03 -0.1678E-02  0.1000E+00  0.1000E+00
     -8.324 -0.8394E-05 -0.2146E-03  0.1000E+00  0.1000E+00
     -8.209 -0.2086E-06 -0.1208E-04  0.1000E+00  0.1000E+00
     -8.094 -0.2567E-08 -0.3248E-06  0.1000E+00  0.1000E+00
     -7.979 -0.1587E-10 -0.4316E-08  0.1000E+00  0.1000E+00
     -7.864 -0.4968E-13 -0.2877E-10  0.1000E+00  0.1000E+00
     -7.749 -0.7727E-16 -0.9708E-13  0.1000E+00  0.1000E+00
     -7.634  0.0000E+00 -0.1545E-15  0.1000E+00  0.1000E+00
     -7.520  0.0000E+00  0.0000E+00  0.1000E+00  0.1000E+00
     -7.405  0.0000E+00  0.0000E+00  0.1000E+00  0.1000E+00
     -7.290  0.0000E+00  0.0000E+00  0.1000E+00  0.1000E+00
     -7.175  0.0000E+00  0.0000E+00  0.1000E+00  0.1000E+00
     -7.060  0.0000E+00  0.0000E+00  0.1000E+00  0.1000E+00
     -6.945  0.0000E+00  0.0000E+00  0.1000E+00  0.1000E+00
     -6.830  0.0000E+00  0.0000E+00  0.1000E+00  0.1000E+00
     -6.715  0.0000E+00  0.0000E+00  0.1000E+00  0.1000E+00
     -6.600  0.0000E+00  0.0000E+00  0.1000E+00  0.1000E+00
     -6.485  0.0000E+00  0.0000E+00  0.1000E+00  0.1000E+00
     -6.370  0.0000E+00  0.0000E+00  0.1000E+00  0.1000E+00
     -6.255  0.0000E+00  0.0000E+00  0.1000E+00  0.1000E+00
     -6.140  0.0000E+00  0.0000E+00  0.1000E+00  0.1000E+00
     -6.025  0.0000E+00  0.0000E+00  0.1000E+00  0.1000E+00
     -5.910  0.0000E+00  0.0000E+00  0.1000E+00  0.1000E+00
     -5.795  0.0000E+00  0.0000E+00  0.1000E+00  0.1000E+00
     -5.680  0.0000E+00  0.0000E+00  0.1000E+00  0.1000E+00
     -5.565  0.0000E+00  0.0000E+00  0.1000E+00  0.1000E+00
     -5.450  0.0000E+00  0.0000E+00  0.1000E+00  0.1000E+00
     -5.335  0.0000E+00  0.0000E+00  0.1000E+00  0.1000E+00
     -5.220  0.0000E+00  0.0000E+00  0.1000E+00  0.1000E+00
     -5.106  0.0000E+00  0.0000E+00  0.1000E+00  0.1000E+00
     -4.991  0.0000E+00  0.0000E+00  0.1000E+00  0.1000E+00
     -4.876  0.0000E+00  0.0000E+00  0.1000E+00  0.1000E+00
     -4.761  0.0000E+00  0.0000E+00  0.1000E+00  0.1000E+00
     -4.646  0.0000E+00  0.0000E+00  0.1000E+00  0.1000E+00
     -4.531  0.0000E+00  0.0000E+00  0.1000E+00  0.1000E+00
     -4.416  0.0000E+00  0.0000E+00  0.1000E+00  0.1000E+00
     -4.301  0.0000E+00  0.0000E+00  0.1000E+00  0.1000E+00
     -4.186  0.0000E+00  0.0000E+00  0.1000E+00  0.1000E+00
     -4.071  0.0000E+00  0.0000E+00  0.1000E+00  0.1000E+00
     -3.956  0.0000E+00  0.0000E+00  0.1000E+00  0.1000E+00
     -3.841  0.0000E+00  0.0000E+00  0.1000E+00  0.1000E+00
     -3.726 -0.1121E-28 -0.1469E-30  0.1000E+00  0.1000E+00
     -3.611 -0.8784E-25 -0.1561E-26  0.1000E+00  0.1000E+00
     -3.496 -0.3533E-21 -0.8527E-23  0.1000E+00  0.1000E+00
     -3.381 -0.7289E-18 -0.2390E-19  0.1000E+00  0.1000E+00
     -3.266 -0.7510E-15 -0.3433E-16  0.1000E+00  0.1000E+00
     -3.151 -0.4015E-12 -0.2443E-13  0.1000E+00  0.1000E+00
     -3.036 -0.1096E-09 -0.9099E-11  0.1000E+00  0.1000E+00
     -2.921 -0.1513E-07 -0.1719E-08  0.1000E+00  0.1000E+00
     -2.807 -0.1047E-05 -0.1635E-06  0.1000E+00  0.1000E+00
     -2.692 -0.3565E-04 -0.7729E-05  0.1000E+00  0.1000E+00
     -2.577 -0.5771E-03 -0.1772E-03  0.9993E-01  0.9998E-01
     -2.462 -0.4034E-02 -0.1857E-02  0.9947E-01  0.9977E-01
     -2.347 -0.7647E-02 -0.7307E-02  0.9859E-01  0.9893E-01
     -2.232  0.2888E-01  0.3047E-02  0.1019E+00  0.9928E-01
     -2.117  0.1269E+00  0.7964E-01  0.1165E+00  0.1084E+00
     -2.002  0.1535E+00  0.1601E+00  0.1341E+00  0.1268E+00
     -1.887  0.6116E-01  0.1093E+00  0.1412E+00  0.1394E+00
     -1.772 -0.2457E-02  0.1672E-01  0.1409E+00  0.1413E+00
     -1.657 -0.6295E-02 -0.8114E-02  0.1402E+00  0.1404E+00
     -1.542 -0.1300E-02 -0.3061E-02  0.1400E+00  0.1400E+00
     -1.427 -0.1071E-03 -0.3719E-03  0.1400E+00  0.1400E+00
     -1.312 -0.4093E-05 -0.2004E-04  0.1400E+00  0.1400E+00
     -1.197 -0.7631E-07 -0.5174E-06  0.1400E+00  0.1400E+00
     -1.082 -0.8386E-09 -0.6727E-08  0.1400E+00  0.1400E+00
     -0.967 -0.1594E-07 -0.1511E-07  0.1400E+00  0.1400E+00
     -0.852 -0.9823E-06 -0.9371E-06  0.1400E+00  0.1400E+00
     -0.737 -0.2971E-04 -0.2860E-04  0.1400E+00  0.1400E+00
     -0.622 -0.4228E-03 -0.4110E-03  0.1399E+00  0.1399E+00
     -0.507 -0.2520E-02 -0.2481E-02  0.1397E+00  0.1397E+00
     -0.393 -0.3070E-02 -0.3149E-02  0.1393E+00  0.1393E+00
     -0.278  0.2119E-01  0.2064E-01  0.1417E+00  0.1417E+00
     -0.163  0.7041E-01  0.6993E-01  0.1498E+00  0.1497E+00
     -0.048  0.7167E-01  0.7212E-01  0.1581E+00  0.1580E+00
      0.067  0.2271E-01  0.2328E-01  0.1607E+00  0.1607E+00
      0.182 -0.2835E-02 -0.2741E-02  0.1604E+00  0.1604E+00
      0.297 -0.2627E-02 -0.2667E-02  0.1601E+00  0.1601E+00
      0.412 -0.4568E-03 -0.4695E-03  0.1600E+00  0.1600E+00
      0.527 -0.5521E-04 -0.5362E-04  0.1600E+00  0.1600E+00
      0.642 -0.3620E-03 -0.3126E-03  0.1600E+00  0.1600E+00
      0.757 -0.2627E-02 -0.2192E-02  0.1597E+00  0.1597E+00
      0.872 -0.6228E-02 -0.4743E-02  0.1589E+00  0.1592E+00
      0.987  0.1368E-01  0.1169E-01  0.1605E+00  0.1605E+00
      1.102  0.8814E-01  0.6690E-01  0.1706E+00  0.1682E+00
      1.217  0.1465E+00  0.1180E+00  0.1875E+00  0.1818E+00
      1.332  0.9867E-01  0.1097E+00  0.1988E+00  0.1944E+00
      1.447  0.1982E-01  0.5112E-01  0.2011E+00  0.2002E+00
      1.562 -0.5971E-02  0.4152E-02  0.2004E+00  0.2007E+00
      1.677 -0.3133E-02 -0.4662E-02  0.2001E+00  0.2002E+00
      1.792 -0.4790E-03 -0.1484E-02  0.2000E+00  0.2000E+00
      1.907 -0.3239E-04 -0.1703E-03  0.2000E+00  0.2000E+00
      2.021 -0.1054E-05 -0.8845E-05  0.2000E+00  0.2000E+00
      2.136 -0.1701E-07 -0.2216E-06  0.2000E+00  0.2000E+00
      2.251 -0.1380E-09 -0.2752E-08  0.2000E+00  0.2000E+00
      2.366 -0.5673E-12 -0.1717E-10  0.2000E+00  0.2000E+00
      2.481 -0.1198E-14 -0.5432E-13  0.2000E+00  0.2000E+00
      2.596  0.0000E+00 -0.7727E-16  0.2000E+00  0.2000E+00
      2.711  0.0000E+00  0.0000E+00  0.2000E+00  0.2000E+00
      2.826  0.0000E+00  0.0000E+00  0.2000E+00  0.2000E+00
      2.941  0.0000E+00  0.0000E+00  0.2000E+00  0.2000E+00
      3.056  0.0000E+00  0.0000E+00  0.2000E+00  0.2000E+00
      3.171  0.0000E+00  0.0000E+00  0.2000E+00  0.2000E+00
      3.286  0.0000E+00  0.0000E+00  0.2000E+00  0.2000E+00
      3.28592957    -31.19954049  301     -8.78963978      1.00000000
    -31.200  0.0000E+00  0.0000E+00  0.0000E+00  0.0000E+00  0.0000E+00  0.0000E+00
    -31.085  0.0000E+00  0.0000E+00  0.0000E+00  0.0000E+00  0.0000E+00  0.0000E+00
    -30.970  0.0000E+00  0.0000E+00  0.0000E+00  0.0000E+00  0.0000E+00  0.0000E+00
    -30.855 -0.5958E-29 -0.1489E-29 -0.5045E-29 -0.1264E-29 -0.9002E-30 -0.2253E-30
    -30.740 -0.5393E-25 -0.1486E-25 -0.4566E-25 -0.1260E-25 -0.8148E-26 -0.2247E-26
    -30.625 -0.2507E-21 -0.7611E-22 -0.2123E-21 -0.6458E-22 -0.3788E-22 -0.1151E-22
    -30.510 -0.5980E-18 -0.2001E-18 -0.5063E-18 -0.1698E-18 -0.9034E-19 -0.3027E-19
    -30.395 -0.7309E-15 -0.2697E-15 -0.6189E-15 -0.2288E-15 -0.1104E-15 -0.4079E-16
    -30.280 -0.4416E-12 -0.1798E-12 -0.3739E-12 -0.1526E-12 -0.6671E-13 -0.2720E-13
    -30.165 -0.1396E-09 -0.6278E-10 -0.1182E-09 -0.5327E-10 -0.2110E-10 -0.9496E-11
    -30.050 -0.2237E-07 -0.1111E-07 -0.1894E-07 -0.9426E-08 -0.3379E-08 -0.1680E-08
    -29.935 -0.1800E-05 -0.9889E-06 -0.1524E-05 -0.8391E-06 -0.2719E-06 -0.1496E-06
    -29.820 -0.7165E-04 -0.4369E-04 -0.6067E-04 -0.3707E-04 -0.1083E-04 -0.6609E-05
    -29.705 -0.1370E-02 -0.9324E-03 -0.1160E-02 -0.7911E-03 -0.2070E-03 -0.1410E-03
    -29.590 -0.1167E-01 -0.9013E-02 -0.9880E-02 -0.7647E-02 -0.1763E-02 -0.1363E-02
    -29.475 -0.3291E-01 -0.3136E-01 -0.2786E-01 -0.2661E-01 -0.4972E-02 -0.4744E-02
    -29.360  0.5871E-01  0.2835E-01  0.4971E-01  0.2406E-01  0.8870E-02  0.4289E-02
    -29.245  0.4282E+00  0.3646E+00  0.3626E+00  0.3093E+00  0.6470E-01  0.5514E-01
    -29.130  0.6543E+00  0.6556E+00  0.5540E+00  0.5563E+00  0.9885E-01  0.9917E-01
    -29.015  0.3406E+00  0.4030E+00  0.2884E+00  0.3419E+00  0.5146E-01  0.6096E-01
    -28.901  0.1853E-01  0.4592E-01  0.1569E-01  0.3896E-01  0.2799E-02  0.6946E-02
    -28.786 -0.3046E-01 -0.3246E-01 -0.2579E-01 -0.2754E-01 -0.4602E-02 -0.4910E-02
    -28.671 -0.8128E-02 -0.1056E-01 -0.6882E-02 -0.8962E-02 -0.1228E-02 -0.1598E-02
    -28.556 -0.8012E-03 -0.1180E-02 -0.6784E-03 -0.1001E-02 -0.1210E-03 -0.1785E-03
    -28.441 -0.3598E-04 -0.5911E-04 -0.3046E-04 -0.5015E-04 -0.5435E-05 -0.8940E-05
    -28.326 -0.7821E-06 -0.1425E-05 -0.6622E-06 -0.1209E-05 -0.1182E-06 -0.2156E-06
    -28.211 -0.8447E-08 -0.1703E-07 -0.7152E-08 -0.1445E-07 -0.1276E-08 -0.2576E-08
    -28.096 -0.4591E-10 -0.1023E-09 -0.3888E-10 -0.8676E-10 -0.6937E-11 -0.1547E-10
    -27.981 -0.1263E-12 -0.3110E-12 -0.1069E-12 -0.2639E-12 -0.1908E-13 -0.4704E-13
    -27.866 -0.3142E-15 -0.6270E-15 -0.2660E-15 -0.5320E-15 -0.4747E-16 -0.9484E-16
    -27.751  0.0000E+00  0.0000E+00  0.0000E+00  0.0000E+00  0.0000E+00  0.0000E+00
    -27.636  0.0000E+00  0.0000E+00  0.0000E+00  0.0000E+00  0.0000E+00  0.0000E+00
    -27.521  0.0000E+00  0.0000E+00  0.0000E+00  0.0000E+00  0.0000E+00  0.0000E+00
    -27.406  0.0000E+00  0.0000E+00  0.0000E+00  0.0000E+00  0.0000E+00  0.0000E+00
    -27.291  0.0000E+00  0.0000E+00  0.0000E+00  0.0000E+00  0.0000E+00  0.0000E+00
    -27.176  0.0000E+00  0.0000E+00  0.0000E+00  0.0000E+00  0.0000E+00  0.0000E+00
    -27.061  0.0000E+00  0.0000E+00  0.0000E+00  0.0000E+00  0.0000E+00  0.0000E+00
    -26.946  0.0000E+00  0.0000E+00  0.0000E+00  0.0000E+00  0.0000E+00  0.0000E+00
    -26.831  0.0000E+00  0.0000E+00  0.0000E+00  0.0000E+00  0.0000E+00  0.0000E+00
    -26.716  0.0000E+00  0.0000E+00  0.0000E+00  0.0000E+00  0.0000E+00  0.0000E+00
    -26.601  0.0000E+00  0.0000E+00  0.0000E+00  0.0000E+00  0.0000E+00  0.0000E+00
    -26.487  0.0000E+00  0.0000E+00  0.0000E+00  0.0000E+00  0.0000E+00  0.0000E+00
    -26.372  0.0000E+00  0.0000E+00  0.0000E+00  0.0000E+00  0.0000E+00  0.0000E+00
    -26.257  0.0000E+00  0.0000E+00  0.0000E+00  0.0000E+00  0.0000E+00  0.0000E+00
    -26.142  0.0000E+00  0.0000E+00  0.0000E+00  0.0000E+00  0.0000E+00  0.0000E+00
    -26.027  0.0000E+00  0.0000E+00  0.0000E+00  0.0000E+00  0.0000E+00  0.0000E+00
    -25.912  0.0000E+00  0.0000E+00  0.0000E+00  0.0000E+00  0.0000E+00  0.0000E+00
    -25.797  0.0000E+00  0.0000E+00  0.0000E+00  0.0000E+00  0.0000E+00  0.0000E+00
    -25.682  0.0000E+00  0.0000E+00  0.0000E+00  0.0000E+00  0.0000E+00  0.0000E+00
    -25.567  0.0000E+00  0.0000E+00  0.0000E+00  0.0000E+00  0.0000E+00  0.0000E+00
    -25.452  0.0000E+00  0.0000E+00  0.0000E+00  0.0000E+00  0.0000E+00  0.0000E+00
    -25.337  0.0000E+00  0.0000E+00  0.0000E+00  0.0000E+00  0.0000E+00  0.0000E+00
    -25.222  0.0000E+00  0.0000E+00  0.0000E+00  0.0000E+00  0.0000E+00  0.0000E+00
    -25.107  0.0000E+00  0.0000E+00  0.0000E+00  0.0000E+00  0.0000E+00  0.0000E+00
    -24.992  0.0000E+00  0.0000E+00  0.0000E+00  0.0000E+00  0.0000E+00  0.0000E+00
    -24.877  0.0000E+00  0.0000E+00  0.0000E+00  0.0000E+00  0.0000E+00  0.0000E+00
    -24.762  0.0000E+00  0.0000E+00  0.0000E+00  0.0000E+00  0.0000E+00  0.0000E+00
    -24.647  0.0000E+00  0.0000E+00  0.0000E+00  0.0000E+00  0.0000E+00  0.0000E+00
    -24.532  0.0000E+00  0.0000E+00  0.0000E+00  0.0000E+00  0.0000E+00  0.0000E+00
    -24.417  0.0000E+00  0.0000E+00  0.0000E+00  0.0000E+00  0.0000E+00  0.0000E+00
    -24.302  0.0000E+00  0.0000E+00  0.0000E+00  0.0000E+00  0.0000E+00  0.0000E+00
    -24.187  0.0000E+00  0.0000E+00  0.0000E+00  0.0000E+00  0.0000E+00  0.0000E+00
    -24.073  0.0000E+00  0.0000E+00  0.0000E+00  0.0000E+00  0.0000E+00  0.0000E+00
    -23.958  0.0000E+00  0.0000E+00  0.0000E+00  0.0000E+00  0.0000E+00  0.0000E+00
    -23.843  0.0000E+00  0.0000E+00  0.0000E+00  0.0000E+00  0.0000E+00  0.0000E+00
    -23.728  0.0000E+00  0.0000E+00  0.0000E+00  0.0000E+00  0.0000E+00  0.0000E+00
    -23.613  0.0000E+00  0.0000E+00  0.0000E+00  0.0000E+00  0.0000E+00  0.0000E+00
    -23.498  0.0000E+00  0.0000E+00  0.0000E+00  0.0000E+00  0.0000E+00  0.0000E+00
    -23.383  0.0000E+00  0.0000E+00  0.0000E+00  0.0000E+00  0.0000E+00  0.0000E+00
    -23.268  0.0000E+00  0.0000E+00  0.0000E+00  0.0000E+00  0.0000E+00  0.0000E+00
    -23.153  0.0000E+00  0.0000E+00  0.0000E+00  0.0000E+00  0.0000E+00  0.0000E+00
    -23.038  0.0000E+00  0.0000E+00  0.0000E+00  0.0000E+00  0.0000E+00  0.0000E+00
    -22.923  0.0000E+00  0.0000E+00  0.0000E+00  0.0000E+00  0.0000E+00  0.0000E+00
    -22.808  0.0000E+00  0.0000E+00  0.0000E+00  0.0000E+00  0.0000E+00  0.0000E+00
    -22.693  0.0000E+00  0.0000E+00  0.0000E+00  0.0000E+00  0.0000E+00  0.0000E+00
    -22.578  0.0000E+00  0.0000E+00  0.0000E+00  0.0000E+00  0.0000E+00  0.0000E+00
    -22.463  0.0000E+00  0.0000E+00  0.0000E+00  0.0000E+00  0.0000E+00  0.0000E+00
    -22.348  0.0000E+00  0.0000E+00  0.0000E+00  0.0000E+00  0.0000E+00  0.0000E+00
    -22.233  0.0000E+00  0.0000E+00  0.0000E+00  0.0000E+00  0.0000E+00  0.0000E+00
    -22.118  0.0000E+00  0.0000E+00  0.0000E+00  0.0000E+00  0.0000E+00  0.0000E+00
    -22.003  0.0000E+00  0.0000E+00  0.0000E+00  0.0000E+00  0.0000E+00  0.0000E+00
    -21.888  0.0000E+00  0.0000E+00  0.0000E+00  0.0000E+00  0.0000E+00  0.0000E+00
    -21.774  0.0000E+00  0.0000E+00  0.0000E+00  0.0000E+00  0.0000E+00  0.0000E+00
    -21.659  0.0000E+00  0.0000E+00  0.0000E+00  0.0000E+00  0.0000E+00  0.0000E+00
    -21.544  0.0000E+00  0.0000E+00  0.0000E+00  0.0000E+00  0.0000E+00  0.0000E+00
    -21.429  0.0000E+00  0.0000E+00  0.0000E+00  0.0000E+00  0.0000E+00  0.0000E+00
    -21.314  0.0000E+00  0.0000E+00  0.0000E+00  0.0000E+00  0.0000E+00  0.0000E+00
    -21.199  0.0000E+00  0.0000E+00  0.0000E+00  0.0000E+00  0.0000E+00  0.0000E+00
    -21.084  0.0000E+00  0.0000E+00  0.0000E+00  0.0000E+00  0.0000E+00  0.0000E+00
    -20.969  0.0000E+00  0.0000E+00  0.0000E+00  0.0000E+00  0.0000E+00  0.0000E+00
    -20.854  0.0000E+00  0.0000E+00  0.0000E+00  0.0000E+00  0.0000E+00  0.0000E+00
    -20.739  0.0000E+00  0.0000E+00  0.0000E+00  0.0000E+00  0.0000E+00  0.0000E+00
    -20.624  0.0000E+00  0.0000E+00  0.0000E+00  0.0000E+00  0.0000E+00  0.0000E+00
    -20.509  0.0000E+00  0.0000E+00  0.0000E+00  0.0000E+00  0.0000E+00  0.0000E+00
    -20.394  0.0000E+00  0.0000E+00  0.0000E+00  0.0000E+00  0.0000E+00  0.0000E+00
    -20.279  0.0000E+00  0.0000E+00  0.0000E+00  0.0000E+00  0.0000E+00  0.0000E+00
    -20.164  0.0000E+00  0.0000E+00  0.0000E+00  0.0000E+00  0.0000E+00  0.0000E+00
    -20.049  0.0000E+00  0.0000E+00  0.0000E+00  0.0000E+00  0.0000E+00  0.0000E+00
    -19.934  0.0000E+00  0.0000E+00  0.0000E+00  0.0000E+00  0.0000E+00  0.0000E+00
    -19.819  0.0000E+00  0.0000E+00  0.0000E+00  0.0000E+00  0.0000E+00  0.0000E+00
    -19.704  0.0000E+00  0.0000E+00  0.0000E+00  0.0000E+00  0.0000E+00  0.0000E+00
    -19.589  0.0000E+00  0.0000E+00  0.0000E+00  0.0000E+00  0.0000E+00  0.0000E+00
    -19.474  0.0000E+00  0.0000E+00  0.0000E+00  0.0000E+00  0.0000E+00  0.0000E+00
    -19.360  0.0000E+00  0.0000E+00  0.0000E+00  0.0000E+00  0.0000E+00  0.0000E+00
    -19.245  0.0000E+00  0.0000E+00  0.0000E+00  0.0000E+00  0.0000E+00  0.0000E+00
    -19.130  0.0000E+00  0.0000E+00  0.0000E+00  0.0000E+00  0.0000E+00  0.0000E+00
    -19.015  0.0000E+00  0.0000E+00  0.0000E+00  0.0000E+00  0.0000E+00  0.0000E+00
    -18.900  0.0000E+00  0.0000E+00  0.0000E+00  0.0000E+00  0.0000E+00  0.0000E+00
    -18.785  0.0000E+00  0.0000E+00  0.0000E+00  0.0000E+00  0.0000E+00  0.0000E+00
    -18.670  0.0000E+00  0.0000E+00  0.0000E+00  0.0000E+00  0.0000E+00  0.0000E+00
    -18.555  0.0000E+00  0.0000E+00  0.0000E+00  0.0000E+00  0.0000E+00  0.0000E+00
    -18.440  0.0000E+00  0.0000E+00  0.0000E+00  0.0000E+00  0.0000E+00  0.0000E+00
    -18.325  0.0000E+00  0.0000E+00  0.0000E+00  0.0000E+00  0.0000E+00  0.0000E+00
    -18.210  0.0000E+00  0.0000E+00  0.0000E+00  0.0000E+00  0.0000E+00  0.0000E+00
    -18.095  0.0000E+00  0.0000E+00  0.0000E+00  0.0000E+00  0.0000E+00  0.0000E+00
    -17.980  0.0000E+00  0.0000E+00  0.0000E+00  0.0000E+00  0.0000E+00  0.0000E+00
    -17.865  0.0000E+00  0.0000E+00  0.0000E+00  0.0000E+00  0.0000E+00  0.0000E+00
    -17.750  0.0000E+00  0.0000E+00  0.0000E+00  0.0000E+00  0.0000E+00  0.0000E+00
    -17.635  0.0000E+00  0.0000E+00  0.0000E+00  0.0000E+00  0.0000E+00  0.0000E+00
    -17.520  0.0000E+00  0.0000E+00  0.0000E+00  0.0000E+00  0.0000E+00  0.0000E+00
    -17.405  0.0000E+00  0.0000E+00  0.0000E+00  0.0000E+00  0.0000E+00  0.0000E+00
    -17.290  0.0000E+00  0.0000E+00  0.0000E+00  0.0000E+00  0.0000E+00  0.0000E+00
    -17.175  0.0000E+00  0.0000E+00  0.0000E+00  0.0000E+00  0.0000E+00  0.0000E+00
    -17.060  0.0000E+00  0.0000E+00  0.0000E+00  0.0000E+00  0.0000E+00  0.0000E+00
    -16.946  0.0000E+00  0.0000E+00  0.0000E+00  0.0000E+00  0.0000E+00  0.0000E+00
    -16.831  0.0000E+00  0.0000E+00  0.0000E+00  0.0000E+00  0.0000E+00  0.0000E+00
    -16.716  0.0000E+00  0.0000E+00  0.0000E+00  0.0000E+00  0.0000E+00  0.0000E+00
    -16.601  0.0000E+00  0.0000E+00  0.0000E+00  0.0000E+00  0.0000E+00  0.0000E+00
    -16.486  0.0000E+00  0.0000E+00  0.0000E+00  0.0000E+00  0.0000E+00  0.0000E+00
    -16.371  0.0000E+00  0.0000E+00  0.0000E+00  0.0000E+00  0.0000E+00  0.0000E+00
    -16.256  0.0000E+00  0.0000E+00  0.0000E+00  0.0000E+00  0.0000E+00  0.0000E+00
    -16.141  0.0000E+00  0.0000E+00  0.0000E+00  0.0000E+00  0.0000E+00  0.0000E+00
    -16.026  0.0000E+00  0.0000E+00  0.0000E+00  0.0000E+00  0.0000E+00  0.0000E+00
    -15.911  0.0000E+00  0.0000E+00  0.0000E+00  0.0000E+00  0.0000E+00  0.0000E+00
    -15.796  0.0000E+00  0.0000E+00  0.0000E+00  0.0000E+00  0.0000E+00  0.0000E+00
    -15.681 -0.2582E-30  0.0000E+00 -0.2391E-31  0.0000E+00 -0.1748E-32  0.0000E+00
    -15.566 -0.2931E-26 -0.2728E-27 -0.2714E-27 -0.2712E-28 -0.1985E-28 -0.1911E-29
    -15.451 -0.1709E-22 -0.1892E-23 -0.1583E-23 -0.1881E-24 -0.1157E-24 -0.1325E-25