    2    2   50    2
  0.5000000E+03  0.1000000E-08  0.1000000E-08  0.1000000E-08  0.5000000E-15
  1.000000000000000E-004
  CAR 
 CO-Spin                                 
     10      1     10
 
  0.0000000E+00  0.0000000E+00  0.0000000E+00  0.1000000E+01
    1      -29.199540    -29.182777   1.000000   1.000000
    2      -13.986835    -13.956958   1.000000   1.000000
    3      -11.690662    -11.678580   1.000000   1.000000
    4      -11.690662    -11.678580   1.000000   1.000000
    5       -9.061387     -8.933743   1.033168   0.966832
    6       -2.095934     -2.043208   0.000000   0.000000
    7       -2.095934     -2.043208   0.000000   0.000000
    8       -0.160670     -0.159237   0.000000   0.000000
    9        1.116333      1.119723   0.000000   0.000000
   10        1.216124      1.285930   0.000000   0.000000
