       N       E                     dE             d eps       ncg     rms          rms(c)
DAV:   1     0.795905926462E+02    0.79591E+02   -0.24867E+03    56   0.419E+02
DAV:   2    -0.510184407287E+01   -0.84692E+02   -0.82628E+02    70   0.138E+02
DAV:   3    -0.139966725483E+02   -0.88948E+01   -0.88927E+01    62   0.558E+01
DAV:   4    -0.141255362083E+02   -0.12886E+00   -0.12886E+00    64   0.684E+00
DAV:   5    -0.141256183582E+02   -0.82150E-04   -0.82149E-04    58   0.208E-01    0.115E+01
DAV:   6    -0.107970105883E+02    0.33286E+01   -0.48049E+00    44   0.162E+01    0.438E+00
DAV:   7    -0.122637802846E+02   -0.14668E+01   -0.19008E+00    52   0.799E+00    0.198E+00
DAV:   8    -0.129803021970E+02   -0.71652E+00   -0.44113E-01    44   0.411E+00    0.868E-01
DAV:   9    -0.131059310007E+02   -0.12563E+00   -0.21681E-02    42   0.137E+00    0.417E-01
DAV:  10    -0.131593719523E+02   -0.53441E-01   -0.11199E-02    44   0.753E-01    0.119E-01
DAV:  11    -0.131594684363E+02   -0.96484E-04   -0.68034E-03    48   0.553E-01    0.466E-02
DAV:  12    -0.131634890018E+02   -0.40206E-02   -0.12776E-03    40   0.307E-01    0.357E-02
DAV:  13    -0.131665746256E+02   -0.30856E-02   -0.20139E-03    48   0.281E-01    0.290E-02
DAV:  14    -0.131671674893E+02   -0.59286E-03   -0.11775E-03    42   0.219E-01    0.185E-02
DAV:  15    -0.131691883459E+02   -0.20209E-02   -0.32812E-04    40   0.121E-01    0.107E-02
DAV:  16    -0.131706775913E+02   -0.14892E-02   -0.81910E-04    44   0.143E-01    0.940E-03
DAV:  17    -0.131709146803E+02   -0.23709E-03   -0.50932E-05    46   0.505E-02    0.562E-03
DAV:  18    -0.131714560932E+02   -0.54141E-03   -0.89029E-05    44   0.435E-02    0.378E-03
DAV:  19    -0.131716253886E+02   -0.16930E-03   -0.16702E-05    48   0.262E-02    0.191E-03
DAV:  20    -0.131717181575E+02   -0.92769E-04   -0.52922E-06    46   0.157E-02
   1 F= -.13171718E+02 E0= -.13175876E+02  d E =-.131717E+02  mag=     0.0642
       N       E                     dE             d eps       ncg     rms          rms(c)
DAV:   1     0.376282673885E+02    0.50800E+02   -0.33276E+03    48   0.349E+02    0.243E+01
DAV:   2    -0.238904217271E+02   -0.61519E+02   -0.74779E+02    60   0.130E+02    0.220E+01
DAV:   3    -0.160000470928E+02    0.78904E+01   -0.93999E+01    40   0.511E+01    0.234E+01
DAV:   4    -0.175778145997E+01    0.14242E+02   -0.23264E+01    40   0.228E+01    0.171E+01
DAV:   5    -0.836580685386E+01   -0.66080E+01   -0.74451E+01    58   0.157E+01    0.180E+01
DAV:   6    -0.130319185931E+01    0.70626E+01   -0.61643E+00    40   0.127E+01    0.899E+00
DAV:   7    -0.129661552218E+01    0.65763E-02   -0.10764E+00    60   0.194E+00    0.127E+01
DAV:   8    -0.138505676471E+01   -0.88441E-01   -0.88460E-02    40   0.152E+00    0.129E+01
DAV:   9    -0.136151773416E+01    0.23539E-01   -0.55959E-01    40   0.888E-01    0.873E+00
DAV:  10    -0.867607977025E+01   -0.73146E+01   -0.77126E+01    40   0.910E+00    0.332E+01
DAV:  11    -0.480862143713E+01    0.38675E+01   -0.40384E-01    40   0.304E+00    0.323E+01
DAV:  12    -0.192126809451E+01    0.28874E+01   -0.61572E+01    44   0.706E+00    0.110E+01
DAV:  13    -0.365998680156E+01   -0.17387E+01   -0.13803E+00    48   0.377E+00    0.133E+01
DAV:  14    -0.420496766883E+01   -0.54498E+00   -0.52576E-02    48   0.157E+00    0.138E+01
DAV:  15    -0.457040813152E+01   -0.36544E+00   -0.51418E-02    48   0.149E+00    0.143E+01
DAV:  16    -0.425180187826E+01    0.31861E+00   -0.84317E-02    60   0.200E+00    0.147E+01
DAV:  17    -0.359703042210E+01    0.65477E+00   -0.68978E-02    40   0.835E-01    0.141E+01
DAV:  18    -0.315932375721E+01    0.43771E+00   -0.63142E-02    52   0.520E-01    0.134E+01
DAV:  19    -0.302784910699E+01    0.13147E+00   -0.21552E-02    52   0.961E-01    0.133E+01
DAV:  20    -0.291722852187E+01    0.11062E+00   -0.21725E-02    50   0.111E+00    0.132E+01
DAV:  21    -0.273134701859E+01    0.18588E+00   -0.25296E-02    48   0.708E-01    0.132E+01
DAV:  22    -0.247960719003E+01    0.25174E+00   -0.68256E-02    52   0.146E+00    0.121E+01
DAV:  23    -0.302243807337E+01   -0.54283E+00   -0.17677E-01    40   0.144E+00    0.147E+01
DAV:  24    -0.328261829318E+01   -0.26018E+00   -0.19496E-02    60   0.413E-01    0.145E+01
DAV:  25    -0.353605113891E+01   -0.25343E+00   -0.70421E-02    44   0.190E+00    0.157E+01
DAV:  26    -0.367211273214E+01   -0.13606E+00   -0.28638E-02    52   0.116E+00    0.163E+01
DAV:  27    -0.353140459474E+01    0.14071E+00   -0.14488E-02    40   0.800E-01    0.159E+01
DAV:  28    -0.337417647286E+01    0.15723E+00   -0.99093E-03    54   0.477E-01    0.155E+01
DAV:  29    -0.334712788146E+01    0.27049E-01   -0.76175E-04    40   0.143E-01    0.153E+01
DAV:  30    -0.326750862264E+01    0.79619E-01   -0.35937E-03    48   0.190E-01    0.156E+01
DAV:  31    -0.406922143043E+01   -0.80171E+00   -0.20841E-01    52   0.165E+00    0.156E+01
DAV:  32    -0.332673427356E+01    0.74249E+00   -0.95488E-02    48   0.120E+00    0.155E+01
DAV:  33    -0.290603666777E+01    0.42070E+00   -0.17631E+01    44   0.274E+00    0.153E+01
DAV:  34    -0.391324740618E+01   -0.10072E+01   -0.67968E-01    40   0.317E+00    0.122E+01
DAV:  35    -0.301926988807E+01    0.89398E+00   -0.17392E+00    48   0.300E+00    0.381E+00
DAV:  36    -0.334794664545E+01   -0.32868E+00   -0.72333E-01    44   0.186E+00    0.933E+00
DAV:  37    -0.312672026459E+01    0.22123E+00   -0.16927E-01    40   0.124E+00    0.733E+00
DAV:  38    -0.297189409807E+01    0.15483E+00   -0.83510E-01    60   0.115E+00    0.411E+00
DAV:  39    -0.305394283941E+01   -0.82049E-01   -0.14626E-01    44   0.124E+00    0.351E+00
DAV:  40    -0.320265209988E+01   -0.14871E+00   -0.42228E-01    50   0.782E-01    0.720E+00
DAV:  41    -0.309212868957E+01    0.11052E+00   -0.16161E-01    40   0.707E-01    0.532E+00
DAV:  42    -0.308756577484E+01    0.45629E-02   -0.99787E-03    48   0.551E-01    0.499E+00
DAV:  43    -0.314532324725E+01   -0.57757E-01   -0.17531E-02    50   0.498E-01    0.527E+00
DAV:  44    -0.316823220480E+01   -0.22909E-01   -0.10262E-02    44   0.536E-01    0.482E+00
DAV:  45    -0.313909112995E+01    0.29141E-01   -0.14919E-01    48   0.778E-01    0.371E+00
DAV:  46    -0.313359457669E+01    0.54966E-02   -0.17860E-02    44   0.586E-01    0.332E+00
DAV:  47    -0.307729222237E+01    0.56302E-01   -0.60136E-02    44   0.492E-01    0.263E+00
DAV:  48    -0.305735659536E+01    0.19936E-01   -0.16313E-03    48   0.305E-01    0.260E+00
DAV:  49    -0.306255597601E+01   -0.51994E-02   -0.45595E-03    52   0.199E-01    0.289E+00
DAV:  50    -0.307287764935E+01   -0.10322E-01   -0.39343E-03    36   0.767E-02    0.317E+00
DAV:  51    -0.308336836217E+01   -0.10491E-01   -0.51959E-04    40   0.132E-01    0.321E+00
DAV:  52    -0.306718529284E+01    0.16183E-01   -0.26171E-02    40   0.233E-01    0.238E+00
DAV:  53    -0.306552097070E+01    0.16643E-02   -0.19777E-02    48   0.421E-01    0.307E+00
DAV:  54    -0.307219163242E+01   -0.66707E-02   -0.97235E-04    44   0.993E-02    0.326E+00
DAV:  55    -0.307436775262E+01   -0.21761E-02   -0.59743E-05    32   0.348E-02    0.332E+00
DAV:  56    -0.307501589523E+01   -0.64814E-03   -0.65660E-05    32   0.512E-02    0.328E+00
DAV:  57    -0.305770633873E+01    0.17310E-01   -0.63940E-02    52   0.372E-01    0.203E+00
DAV:  58    -0.305198471323E+01    0.57216E-02   -0.26256E-02    44   0.502E-01    0.280E+00
DAV:  59    -0.305232439828E+01   -0.33969E-03   -0.32301E-03    64   0.167E-01    0.310E+00
DAV:  60    -0.305018893202E+01    0.21355E-02   -0.53000E-04    36   0.918E-02
   2 F= -.30501889E+01 E0= -.30536401E+01  d E =0.101215E+02  mag=    -0.0013
       N       E                     dE             d eps       ncg     rms          rms(c)
DAV:   1    -0.303909600276E+01    0.13228E-01   -0.13586E+00    40   0.957E+00    0.295E+00
DAV:   2    -0.386299769762E+01   -0.82390E+00   -0.10196E+01    56   0.545E+00    0.218E+01
DAV:   3    -0.305167511841E+01    0.81132E+00   -0.85037E+00    48   0.421E+00    0.370E+00
DAV:   4    -0.315315946693E+01   -0.10148E+00   -0.16781E-02    44   0.142E+00    0.376E+00
DAV:   5    -0.310294182113E+01    0.50218E-01   -0.21054E-02    44   0.112E+00    0.297E+00
DAV:   6    -0.313056368278E+01   -0.27622E-01   -0.82579E-02    44   0.140E+00    0.155E+00
DAV:   7    -0.314074792191E+01   -0.10184E-01   -0.35635E-02    44   0.107E+00    0.116E+00
DAV:   8    -0.313790037052E+01    0.28476E-02   -0.13687E-03    40   0.306E-01    0.867E-01
DAV:   9    -0.313964014592E+01   -0.17398E-02   -0.28650E-03    52   0.301E-01    0.398E-01
DAV:  10    -0.314304580192E+01   -0.34057E-02   -0.20207E-03    48   0.359E-01    0.550E-02
DAV:  11    -0.314493238846E+01   -0.18866E-02   -0.93875E-04    52   0.261E-01    0.639E-02
DAV:  12    -0.314579131911E+01   -0.85893E-03   -0.88545E-05    44   0.729E-02    0.300E-02
DAV:  13    -0.314685505350E+01   -0.10637E-02   -0.15949E-04    52   0.841E-02    0.164E-02
DAV:  14    -0.314738656015E+01   -0.53151E-03   -0.88603E-05    52   0.648E-02    0.308E-02
DAV:  15    -0.314775567070E+01   -0.36911E-03   -0.10210E-04    56   0.593E-02    0.148E-02
DAV:  16    -0.314791876365E+01   -0.16309E-03   -0.15346E-05    38   0.345E-02    0.123E-02
DAV:  17    -0.314799055278E+01   -0.71789E-04   -0.72732E-06    32   0.202E-02
   3 F= -.31479906E+01 E0= -.31477898E+01  d E =0.100237E+02  mag=    -0.0000
       N       E                     dE             d eps       ncg     rms          rms(c)
DAV:   1    -0.314845902157E+01   -0.54026E-03   -0.68005E-01    40   0.682E+00    0.492E-01
DAV:   2    -0.314981890694E+01   -0.13599E-02   -0.16199E-02    52   0.108E+00    0.232E-01
DAV:   3    -0.315186925220E+01   -0.20503E-02   -0.34676E-03    48   0.404E-01    0.528E-01
DAV:   4    -0.315094680568E+01    0.92245E-03   -0.23020E-03    52   0.193E-01    0.119E-01
DAV:   5    -0.315178051425E+01   -0.83371E-03   -0.55148E-04    56   0.204E-01    0.443E-02
DAV:   6    -0.315203932889E+01   -0.25881E-03   -0.10398E-04    48   0.915E-02    0.912E-03
DAV:   7    -0.315211799695E+01   -0.78668E-04   -0.22700E-05    28   0.433E-02
   4 F= -.31521180E+01 E0= -.31518057E+01  d E =0.100196E+02  mag=    -0.0000
       N       E                     dE             d eps       ncg     rms          rms(c)
DAV:   1     0.549257770082E+02    0.58078E+02   -0.23724E+03    40   0.382E+02    0.232E+01
DAV:   2    -0.603023814397E+01   -0.60956E+02   -0.30502E+02    40   0.114E+02    0.254E+01
DAV:   3    -0.294432155615E+01    0.30859E+01   -0.35142E+01    40   0.429E+01    0.117E+01
DAV:   4    -0.563385462199E+01   -0.26895E+01   -0.41798E+01    42   0.177E+01    0.139E+01
DAV:   5    -0.440597023887E+01    0.12279E+01   -0.13777E+01    42   0.979E+00    0.465E+00
DAV:   6    -0.470771410119E+01   -0.30174E+00   -0.15859E+00    52   0.501E+00    0.248E+00
DAV:   7    -0.488600496914E+01   -0.17829E+00   -0.50654E-01    52   0.324E+00    0.207E+00
DAV:   8    -0.491959247729E+01   -0.33588E-01   -0.29648E-01    56   0.213E+00    0.106E+00
DAV:   9    -0.493126290044E+01   -0.11670E-01   -0.64194E-02    50   0.104E+00    0.365E-01
DAV:  10    -0.493230403105E+01   -0.10411E-02   -0.47611E-03    52   0.442E-01    0.440E-01
DAV:  11    -0.493221009048E+01    0.93941E-04   -0.16780E-02    54   0.425E-01    0.330E-01
DAV:  12    -0.493319344507E+01   -0.98335E-03   -0.37695E-03    48   0.301E-01    0.519E-02
DAV:  13    -0.493398188821E+01   -0.78844E-03   -0.23303E-04    44   0.142E-01    0.528E-02
DAV:  14    -0.493532166638E+01   -0.13398E-02   -0.61260E-04    60   0.155E-01    0.184E-02
DAV:  15    -0.493633826774E+01   -0.10166E-02   -0.27632E-04    44   0.122E-01    0.298E-02
DAV:  16    -0.493659320162E+01   -0.25493E-03   -0.74503E-05    40   0.717E-02    0.115E-02
DAV:  17    -0.493688285886E+01   -0.28966E-03   -0.80677E-05    40   0.625E-02    0.100E-02
DAV:  18    -0.493706003053E+01   -0.17717E-03   -0.39604E-05    32   0.474E-02    0.122E-02
DAV:  19    -0.493716323056E+01   -0.10320E-03   -0.23129E-05    24   0.311E-02    0.510E-03
DAV:  20    -0.493720835015E+01   -0.45120E-04   -0.13652E-05    28   0.243E-02
   5 F= -.49372084E+01 E0= -.49410747E+01  d E =0.823451E+01  mag=     0.0000
       N       E                     dE             d eps       ncg     rms          rms(c)
DAV:   1    -0.528932357154E+01   -0.35216E+00   -0.72059E+02    40   0.214E+02    0.100E+01
DAV:   2    -0.811024751832E+01   -0.28209E+01   -0.33253E+01    50   0.455E+01    0.590E+00
DAV:   3    -0.890614633682E+01   -0.79590E+00   -0.61687E+00    48   0.121E+01    0.329E+00
DAV:   4    -0.915566077360E+01   -0.24951E+00   -0.28542E+00    58   0.583E+00    0.229E+00
DAV:   5    -0.943909136760E+01   -0.28343E+00   -0.66160E-01    64   0.370E+00    0.557E-01
DAV:   6    -0.951670861530E+01   -0.77617E-01   -0.43207E-02    72   0.111E+00    0.322E-01
DAV:   7    -0.955051723523E+01   -0.33809E-01   -0.16510E-02    60   0.588E-01    0.166E-01
DAV:   8    -0.957811837565E+01   -0.27601E-01   -0.18090E-02    56   0.649E-01    0.779E-02
DAV:   9    -0.958458423731E+01   -0.64659E-02   -0.22860E-03    68   0.290E-01    0.341E-02
DAV:  10    -0.958661966299E+01   -0.20354E-02   -0.33392E-04    72   0.113E-01    0.272E-02
DAV:  11    -0.958827184017E+01   -0.16522E-02   -0.10245E-03    72   0.177E-01    0.750E-03
DAV:  12    -0.958852229025E+01   -0.25045E-03   -0.48919E-05    64   0.561E-02    0.496E-03
DAV:  13    -0.958878724915E+01   -0.26496E-03   -0.31134E-05    76   0.363E-02    0.298E-03
DAV:  14    -0.958917625057E+01   -0.38900E-03   -0.65706E-05    56   0.453E-02    0.474E-03
DAV:  15    -0.958923665357E+01   -0.60403E-04   -0.11526E-05    76   0.210E-02
   6 F= -.95892367E+01 E0= -.95966839E+01  d E =0.358248E+01  mag=    -0.0932
       N       E                     dE             d eps       ncg     rms          rms(c)
DAV:   1    -0.132691455504E+02   -0.36800E+01   -0.21932E+02    40   0.129E+02    0.354E+00
DAV:   2    -0.136964681154E+02   -0.42732E+00   -0.76816E+00    46   0.211E+01    0.319E+00
DAV:   3    -0.135788377977E+02    0.11763E+00   -0.59251E-01    44   0.478E+00    0.151E+00
DAV:   4    -0.135383441095E+02    0.40494E-01   -0.23118E-01    42   0.367E+00    0.343E-01
DAV:   5    -0.135373071022E+02    0.10370E-02   -0.84156E-03    44   0.580E-01    0.188E-01
DAV:   6    -0.135382295208E+02   -0.92242E-03   -0.16095E-03    44   0.340E-01    0.113E-01
DAV:   7    -0.135381073512E+02    0.12217E-03   -0.10139E-03    48   0.261E-01    0.539E-02
DAV:   8    -0.135393204437E+02   -0.12131E-02   -0.95084E-04    44   0.235E-01    0.990E-02
DAV:   9    -0.135406849245E+02   -0.13645E-02   -0.25052E-04    42   0.123E-01    0.296E-02
DAV:  10    -0.135447852648E+02   -0.41003E-02   -0.24920E-03    44   0.329E-01    0.727E-02
DAV:  11    -0.135453271152E+02   -0.54185E-03   -0.34701E-04    48   0.119E-01    0.268E-02
DAV:  12    -0.135466148390E+02   -0.12877E-02   -0.33355E-04    40   0.115E-01    0.240E-02
DAV:  13    -0.135479026551E+02   -0.12878E-02   -0.19519E-04    40   0.830E-02    0.118E-02
DAV:  14    -0.135480822700E+02   -0.17961E-03   -0.23943E-05    44   0.327E-02    0.237E-03
DAV:  15    -0.135482478742E+02   -0.16560E-03   -0.79991E-06    40   0.239E-02    0.268E-03
DAV:  16    -0.135484127534E+02   -0.16488E-03   -0.11829E-05    40   0.230E-02    0.105E-03
DAV:  17    -0.135484432017E+02   -0.30448E-04   -0.12215E-06    44   0.103E-02
   7 F= -.13548443E+02 E0= -.13552718E+02  d E =-.376725E+00  mag=     0.0696
       N       E                     dE             d eps       ncg     rms          rms(c)
DAV:   1    -0.147923613905E+02   -0.12439E+01   -0.64068E+01    44   0.746E+01    0.216E+00
DAV:   2    -0.148397849587E+02   -0.47424E-01   -0.16416E+00    44   0.108E+01    0.148E+00
DAV:   3    -0.147991005070E+02    0.40684E-01   -0.10265E-01    48   0.253E+00    0.675E-01
DAV:   4    -0.147884024906E+02    0.10698E-01   -0.48066E-02    54   0.171E+00    0.167E-01
DAV:   5    -0.147884617629E+02   -0.59272E-04   -0.12419E-03    46   0.309E-01    0.100E-01
DAV:   6    -0.147891605105E+02   -0.69875E-03   -0.37915E-04    40   0.182E-01    0.506E-02
DAV:   7    -0.147899392106E+02   -0.77870E-03   -0.14815E-04    44   0.102E-01    0.205E-02
DAV:   8    -0.147909790306E+02   -0.10398E-02   -0.12312E-04    44   0.798E-02    0.159E-02
DAV:   9    -0.147929246197E+02   -0.19456E-02   -0.57038E-04    46   0.148E-01    0.904E-03
DAV:  10    -0.147934523777E+02   -0.52776E-03   -0.80160E-05    48   0.493E-02    0.668E-03
DAV:  11    -0.147939598709E+02   -0.50749E-03   -0.45915E-05    46   0.434E-02    0.354E-03
DAV:  12    -0.147941397829E+02   -0.17991E-03   -0.82408E-06    40   0.221E-02    0.256E-03
DAV:  13    -0.147942799885E+02   -0.14021E-03   -0.41266E-06    40   0.175E-02    0.141E-03
DAV:  14    -0.147943338680E+02   -0.53879E-04   -0.15338E-06    40   0.126E-02
   8 F= -.14794334E+02 E0= -.14798549E+02  d E =-.162262E+01  mag=     0.0666
       N       E                     dE             d eps       ncg     rms          rms(c)
DAV:   1    -0.148133559065E+02   -0.19076E-01   -0.26665E+00    40   0.156E+01    0.510E-01
DAV:   2    -0.148124650039E+02    0.89090E-03   -0.57658E-02    44   0.207E+00    0.308E-01
DAV:   3    -0.148094928033E+02    0.29722E-02   -0.98137E-03    46   0.806E-01    0.791E-02
DAV:   4    -0.148095032397E+02   -0.10436E-04   -0.35895E-04    44   0.161E-01
   9 F= -.14809503E+02 E0= -.14813713E+02  d E =-.163779E+01  mag=     0.0660
       N       E                     dE             d eps       ncg     rms          rms(c)
DAV:   1    -0.148175448278E+02   -0.80520E-02   -0.38811E-01    40   0.595E+00    0.194E-01
DAV:   2    -0.148175386870E+02    0.61407E-05   -0.81427E-03    48   0.779E-01    0.108E-01
DAV:   3    -0.148173473295E+02    0.19136E-03   -0.12384E-03    44   0.287E-01    0.273E-02
DAV:   4    -0.148174010086E+02   -0.53679E-04   -0.52419E-05    44   0.631E-02
  10 F= -.14817401E+02 E0= -.14821620E+02  d E =-.164568E+01  mag=     0.0662
       N       E                     dE             d eps       ncg     rms          rms(c)
DAV:   1    -0.148174664634E+02   -0.11913E-03   -0.14814E-03    42   0.367E-01    0.116E-02
DAV:   2    -0.148174906322E+02   -0.24169E-04   -0.35331E-05    46   0.510E-02
  11 F= -.14817491E+02 E0= -.14821701E+02  d E =-.164577E+01  mag=     0.0662
