 vasp.5.4.4.18Apr17-6-g9f103f2a35 (build May 18 2018 14:42:58) complex          
  
 executed on             LinuxIFC date 2020.06.17  16:51:11
 running on    4 total cores
 distrk:  each k-point on    4 cores,    1 groups
 distr:  one band on NCORES_PER_BAND=   4 cores,    1 groups


--------------------------------------------------------------------------------------------------------


 INCAR:
 POTCAR:   PAW_GGA C 05Jan2001                    
 POTCAR:   PAW_GGA O 05Jan2001                    
 POTCAR:   PAW_GGA C 05Jan2001                    
   VRHFIN =C: s2p2                                                              
   LEXCH  = 91                                                                  
   EATOM  =   147.4688 eV,   10.8386 Ry                                         
                                                                                
   TITEL  = PAW_GGA C 05Jan2001                                                 
   LULTRA =        F    use ultrasoft PP ?                                      
   IUNSCR =        0    unscreen: 0-lin 1-nonlin 2-no                           
   RPACOR =     .000    partial core radius                                     
   POMASS =   12.011; ZVAL   =    4.000    mass and valenz                      
   RCORE  =    1.500    outmost cutoff radius                                   
   RWIGS  =    1.630; RWIGS  =     .863    wigner-seitz radius (au A)           
   ENMAX  =  400.000; ENMIN  =  300.000 eV                                      
   ICORE  =        2    local potential                                         
   LCOR   =        T    correct aug charges                                     
   LPAW   =        T    paw PP                                                  
   EAUG   =  644.873                                                            
   DEXC   =     .000                                                            
   RMAX   =    2.266    core radius for proj-oper                               
   RAUG   =    1.300    factor for augmentation sphere                          
   RDEP   =    1.501    radius for radial grids                                 
   RDEPT  =    1.300    core radius for aug-charge                              
   QCUT   =   -5.516; QGAM   =   11.033    optimization parameters              
                                                                                
   Description                                                                  
     l     E      TYP  RCUT    TYP  RCUT                                        
     0   .000     23  1.200                                                     
     0   .000     23  1.200                                                     
     1   .000     23  1.500                                                     
     1  2.500     23  1.500                                                     
     2   .000      7  1.500                                                     
  local pseudopotential read in
  atomic valenz-charges read in
  non local Contribution for L=           0  read in
    real space projection operators read in
  non local Contribution for L=           0  read in
    real space projection operators read in
  non local Contribution for L=           1  read in
    real space projection operators read in
  non local Contribution for L=           1  read in
    real space projection operators read in
    PAW grid and wavefunctions read in
 
   number of l-projection  operators is LMAX  =           4
   number of lm-projection operators is LMMAX =           8
 
 POTCAR:   PAW_GGA O 05Jan2001                    
   VRHFIN =O: s2p4                                                              
   LEXCH  = 91                                                                  
   EATOM  =   433.0277 eV,   31.8266 Ry                                         
                                                                                
   TITEL  = PAW_GGA O 05Jan2001                                                 
   LULTRA =        F    use ultrasoft PP ?                                      
   IUNSCR =        0    unscreen: 0-lin 1-nonlin 2-no                           
   RPACOR =     .000    partial core radius                                     
   POMASS =   16.000; ZVAL   =    6.000    mass and valenz                      
   RCORE  =    1.520    outmost cutoff radius                                   
   RWIGS  =    1.550; RWIGS  =     .820    wigner-seitz radius (au A)           
   ENMAX  =  400.000; ENMIN  =  300.000 eV                                      
   ICORE  =        2    local potential                                         
   LCOR   =        T    correct aug charges                                     
   LPAW   =        T    paw PP                                                  
   EAUG   =  605.392                                                            
   DEXC   =     .000                                                            
   RMAX   =    2.264    core radius for proj-oper                               
   RAUG   =    1.300    factor for augmentation sphere                          
   RDEP   =    1.550    radius for radial grids                                 
   QCUT   =   -5.520; QGAM   =   11.040    optimization parameters              
                                                                                
   Description                                                                  
     l     E      TYP  RCUT    TYP  RCUT                                        
     0   .000     23  1.200                                                     
     0  -.700     23  1.200                                                     
     1   .000     23  1.520                                                     
     1   .600     23  1.520                                                     
     2   .000      7  1.500                                                     
  local pseudopotential read in
  atomic valenz-charges read in
  non local Contribution for L=           0  read in
    real space projection operators read in
  non local Contribution for L=           0  read in
    real space projection operators read in
  non local Contribution for L=           1  read in
    real space projection operators read in
  non local Contribution for L=           1  read in
    real space projection operators read in
    PAW grid and wavefunctions read in
 
   number of l-projection  operators is LMAX  =           4
   number of lm-projection operators is LMMAX =           8
 
 PAW_GGA C 05Jan2001                    :
 energy of atom  1       EATOM= -147.4688
 kinetic energy error for atom=    0.0288 (will be added to EATOM!!)
 PAW_GGA O 05Jan2001                    :
 energy of atom  2       EATOM= -433.0277
 kinetic energy error for atom=    0.1156 (will be added to EATOM!!)
 
 
 POSCAR: CO-Spin                                 
  positions in direct lattice
  No initial velocities read in
 exchange correlation table for  LEXCH =        7
   RHO(1)=    0.500       N(1)  =     2000
   RHO(2)=  100.500       N(2)  =     4000
 


--------------------------------------------------------------------------------------------------------


 ion  position               nearest neighbor table
   1  0.000  0.000  0.550-   2 1.00
   2  0.000  0.000  0.450-   1 1.00
 
  LATTYP: Found a simple cubic cell.
 ALAT       =    10.0000000000
  
  Lattice vectors:
  
 A1 = (  10.0000000000,   0.0000000000,   0.0000000000)
 A2 = (   0.0000000000,  10.0000000000,   0.0000000000)
 A3 = (   0.0000000000,   0.0000000000,  10.0000000000)


Analysis of symmetry for initial positions (statically):
=====================================================================
 Subroutine PRICEL returns:
 Original cell was already a primitive cell.
 

 Routine SETGRP: Setting up the symmetry group for a 
 simple cubic supercell.


 Subroutine GETGRP returns: Found  8 space group operations
 (whereof  8 operations were pure point group operations)
 out of a pool of 48 trial point group operations.


The static configuration has the point symmetry C_4v.


Analysis of symmetry for dynamics (positions and initial velocities):
=====================================================================
 Subroutine PRICEL returns:
 Original cell was already a primitive cell.
 

 Routine SETGRP: Setting up the symmetry group for a 
 simple cubic supercell.


 Subroutine GETGRP returns: Found  8 space group operations
 (whereof  8 operations were pure point group operations)
 out of a pool of 48 trial point group operations.


The dynamic configuration has the point symmetry C_4v.


Analysis of structural, dynamic, and magnetic symmetry:
=====================================================================
 Subroutine PRICEL returns:
 Original cell was already a primitive cell.
 

 Routine SETGRP: Setting up the symmetry group for a 
 simple cubic supercell.


 Subroutine GETGRP returns: Found  8 space group operations
 (whereof  8 operations were pure point group operations)
 out of a pool of 48 trial point group operations.


The magnetic configuration has the point symmetry C_4v.


 Subroutine INISYM returns: Found  8 space group operations
 (whereof  8 operations are pure point group operations),
 and found     1 'primitive' translations

 
 
 KPOINTS: 1*1*1                                   

Automatic generation of k-mesh.
Space group operators:
 irot       det(A)        alpha          n_x          n_y          n_z        tau_x        tau_y        tau_z
    1     1.000000     0.000000     1.000000     0.000000     0.000000     0.000000     0.000000     0.000000
    2     1.000000    90.000000     0.000000     0.000000    -1.000000     0.000000     0.000000     0.000000
    3     1.000000   180.000000     0.000000     0.000000     1.000000     0.000000     0.000000     0.000000
    4     1.000000    90.000000     0.000000     0.000000     1.000000     0.000000     0.000000     0.000000
    5    -1.000000   180.000000     1.000000     0.000000     0.000000     0.000000     0.000000     0.000000
    6    -1.000000   180.000000     0.707107     0.707107     0.000000     0.000000     0.000000     0.000000
    7    -1.000000   180.000000     0.000000     1.000000     0.000000     0.000000     0.000000     0.000000
    8    -1.000000   180.000000     0.707107    -0.707107     0.000000     0.000000     0.000000     0.000000
 
 Subroutine IBZKPT returns following result:
 ===========================================
 
 Found      1 irreducible k-points:
 
 Following reciprocal coordinates:
            Coordinates               Weight
  0.000000  0.000000  0.000000      1.000000
 
 Following cartesian coordinates:
            Coordinates               Weight
  0.000000  0.000000  0.000000      1.000000
 


--------------------------------------------------------------------------------------------------------




 Dimension of arrays:
   k-points           NKPTS =      1   k-points in BZ     NKDIM =      1   number of bands    NBANDS=     10
   number of dos      NEDOS =    301   number of ions     NIONS =      2
   non local maximal  LDIM  =      4   non local SUM 2l+1 LMDIM =      8
   total plane-waves  NPLWV = 125000
   max r-space proj   IRMAX =      1   max aug-charges    IRDMAX=   1821
   dimension x,y,z NGX =    50 NGY =   50 NGZ =   50
   dimension x,y,z NGXF=   100 NGYF=  100 NGZF=  100
   support grid    NGXF=   100 NGYF=  100 NGZF=  100
   ions per type =               1   1
   NGX,Y,Z   is equivalent  to a cutoff of   8.31,  8.31,  8.31 a.u.
   NGXF,Y,Z  is equivalent  to a cutoff of  16.62, 16.62, 16.62 a.u.

 SYSTEM =  CO-Spin                                 
 POSCAR =  CO-Spin                                 

 Startparameter for this run:
   NWRITE =      2    write-flag & timer
   PREC   = normal    normal or accurate (medium, high low for compatibility)
   ISTART =      0    job   : 0-new  1-cont  2-samecut
   ICHARG =      2    charge: 1-file 2-atom 10-const
   ISPIN  =      2    spin polarized calculation?
   LNONCOLLINEAR =      F non collinear calculations
   LSORBIT =      F    spin-orbit coupling
   INIWAV =      1    electr: 0-lowe 1-rand  2-diag
   LASPH  =      F    aspherical Exc in radial PAW
   METAGGA=      F    non-selfconsistent MetaGGA calc.

 Electronic Relaxation 1
   ENCUT  =  400.0 eV  29.40 Ry    5.42 a.u.  16.31 16.31 16.31*2*pi/ulx,y,z
   ENINI  =  400.0     initial cutoff
   ENAUG  =  644.9 eV  augmentation charge cutoff
   NELM   =     60;   NELMIN=  2; NELMDL= -5     # of ELM steps 
   EDIFF  = 0.1E-03   stopping-criterion for ELM
   LREAL  =      F    real-space projection
   NLSPLINE    = F    spline interpolate recip. space projectors
   LCOMPAT=      F    compatible to vasp.4.4
   GGA_COMPAT  = T    GGA compatible to vasp.4.4-vasp.4.6
   LMAXPAW     = -100 max onsite density
   LMAXMIX     =    2 max onsite mixed and CHGCAR
   VOSKOWN=      0    Vosko Wilk Nusair interpolation
   ROPT   =    0.00000   0.00000
 Ionic relaxation
   EDIFFG = -.2E-01   stopping-criterion for IOM
   NSW    =     50    number of steps for IOM
   NBLOCK =      1;   KBLOCK =     50    inner block; outer block 
   IBRION =      2    ionic relax: 0-MD 1-quasi-New 2-CG
   NFREE  =      1    steps in history (QN), initial steepest desc. (CG)
   ISIF   =      2    stress and relaxation
   IWAVPR =     11    prediction:  0-non 1-charg 2-wave 3-comb
   ISYM   =      2    0-nonsym 1-usesym 2-fastsym
   LCORR  =      T    Harris-Foulkes like correction to forces

   POTIM  = 0.5000    time-step for ionic-motion
   TEIN   =    0.0    initial temperature
   TEBEG  =    0.0;   TEEND  =   0.0 temperature during run
   SMASS  =  -3.00    Nose mass-parameter (am)
   estimated Nose-frequenzy (Omega)   =  0.10E-29 period in steps =****** mass=  -0.229E-26a.u.
   SCALEE = 1.0000    scale energy and forces
   NPACO  =    256;   APACO  = 16.0  distance and # of slots for P.C.
   PSTRESS=    0.0 pullay stress

  Mass of Ions in am
   POMASS =  12.01 16.00
  Ionic Valenz
   ZVAL   =   4.00  6.00
  Atomic Wigner-Seitz radii
   RWIGS  =   0.86  0.82
  virtual crystal weights 
   VCA    =   1.00  1.00
   NELECT =      10.0000    total number of electrons
   NUPDOWN=      -1.0000    fix difference up-down

 DOS related values:
   EMIN   =  10.00;   EMAX   =-10.00  energy-range for DOS
   EFERMI =   0.00
   ISMEAR =     1;   SIGMA  =   0.20  broadening in eV -4-tet -1-fermi 0-gaus

 Electronic relaxation 2 (details)
   IALGO  =     38    algorithm
   LDIAG  =      T    sub-space diagonalisation (order eigenvalues)
   LSUBROT=      F    optimize rotation matrix (better conditioning)
   TURBO    =      0    0=normal 1=particle mesh
   IRESTART =      0    0=no restart 2=restart with 2 vectors
   NREBOOT  =      0    no. of reboots
   NMIN     =      0    reboot dimension
   EREF     =   0.00    reference energy to select bands
   IMIX   =      4    mixing-type and parameters
     AMIX     =   0.40;   BMIX     =  1.00
     AMIX_MAG =   1.60;   BMIX_MAG =  1.00
     AMIN     =   0.10
     WC   =   100.;   INIMIX=   1;  MIXPRE=   1;  MAXMIX= -45

 Intra band minimization:
   WEIMIN = 0.0010     energy-eigenvalue tresh-hold
   EBREAK =  0.25E-05  absolut break condition
   DEPER  =   0.30     relativ break condition  

   TIME   =   0.40     timestep for ELM

  volume/ion in A,a.u.               =     500.00      3374.17
  Fermi-wavevector in a.u.,A,eV,Ry     =   0.352702  0.666511  1.692549  0.124399
  Thomas-Fermi vector in A             =   1.266362
 
 Write flags
   LWAVE        =      T    write WAVECAR
   LDOWNSAMPLE  =      F    k-point downsampling of WAVECAR
   LCHARG       =      T    write CHGCAR
   LVTOT        =      T    write LOCPOT, total local potential
   LVHAR        =      F    write LOCPOT, Hartree potential only
   LELF         =      F    write electronic localiz. function (ELF)
   LORBIT       =      0    0 simple, 1 ext, 2 COOP (PROOUT), +10 PAW based schemes


 Dipole corrections
   LMONO  =      F    monopole corrections only (constant potential shift)
   LDIPOL =      F    correct potential (dipole corrections)
   IDIPOL =      0    1-x, 2-y, 3-z, 4-all directions 
   EPSILON=  1.0000000 bulk dielectric constant

 Exchange correlation treatment:
   GGA     =    --    GGA type
   LEXCH   =     7    internal setting for exchange type
   VOSKOWN=      0    Vosko Wilk Nusair interpolation
   LHFCALC =     F    Hartree Fock is set to
   LHFONE  =     F    Hartree Fock one center treatment
   AEXX    =    0.0000 exact exchange contribution

 Linear response parameters
   LEPSILON=     F    determine dielectric tensor
   LRPA    =     F    only Hartree local field effects (RPA)
   LNABLA  =     F    use nabla operator in PAW spheres
   LVEL    =     F    velocity operator in full k-point grid
   LINTERFAST=   F  fast interpolation
   KINTER  =     0    interpolate to denser k-point grid
   CSHIFT  =0.1000    complex shift for real part using Kramers Kronig
   OMEGAMAX=  -1.0    maximum frequency
   DEG_THRESHOLD= 0.2000000E-02 threshold for treating states as degnerate
   RTIME   =   -0.100 relaxation time in fs
  (WPLASMAI=    0.000 imaginary part of plasma frequency in eV, 0.658/RTIME)
   DFIELD  = 0.0000000 0.0000000 0.0000000 field for delta impulse in time
 
 Orbital magnetization related:
   ORBITALMAG=     F  switch on orbital magnetization
   LCHIMAG   =     F  perturbation theory with respect to B field
   DQ        =  0.001000  dq finite difference perturbation B field
   LLRAUG    =     F  two centre corrections for induced B field



--------------------------------------------------------------------------------------------------------


 conjugate gradient relaxation of ions
 charge density and potential will be updated during run
 spin polarized calculation
 Variant of blocked Davidson
 Davidson routine will perform the subspace rotation
 perform sub-space diagonalisation
    after iterative eigenvector-optimisation
 modified Broyden-mixing scheme, WC =      100.0
 initial mixing is a Kerker type mixing with AMIX =  0.4000 and BMIX =      1.0000
 Hartree-type preconditioning will be used
 using additional bands            5
 reciprocal scheme for non local part
 calculate Harris-corrections to forces 
   (improved forces if not selfconsistent)
 use gradient corrections 
 use of overlap-Matrix (Vanderbilt PP)
 Methfessel and Paxton  Order N= 1 SIGMA  =   0.20


--------------------------------------------------------------------------------------------------------


  energy-cutoff  :      400.00
  volume of cell :     1000.00
      direct lattice vectors                 reciprocal lattice vectors
    10.000000000  0.000000000  0.000000000     0.100000000  0.000000000  0.000000000
     0.000000000 10.000000000  0.000000000     0.000000000  0.100000000  0.000000000
     0.000000000  0.000000000 10.000000000     0.000000000  0.000000000  0.100000000

  length of vectors
    10.000000000 10.000000000 10.000000000     0.100000000  0.100000000  0.100000000


 
 k-points in units of 2pi/SCALE and weight: 1*1*1                                   
   0.00000000  0.00000000  0.00000000       1.000
 
 k-points in reciprocal lattice and weights: 1*1*1                                   
   0.00000000  0.00000000  0.00000000       1.000
 
 position of ions in fractional coordinates (direct lattice) 
   0.00000000  0.00000000  0.55000000
   0.00000000  0.00000000  0.45000000
 
 position of ions in cartesian coordinates  (Angst):
   0.00000000  0.00000000  5.50000000
   0.00000000  0.00000000  4.50000000
 


--------------------------------------------------------------------------------------------------------


 k-point  1 :   0.0000 0.0000 0.0000  plane waves:   18037

 maximum and minimum number of plane-waves per node :      4520     4501

 maximum number of plane-waves:     18037
 maximum index in each direction: 
   IXMAX=   16   IYMAX=   16   IZMAX=   16
   IXMIN=  -16   IYMIN=  -16   IZMIN=  -16


 parallel 3D FFT for wavefunctions:
    minimum data exchange during FFTs selected (reduces bandwidth)
 parallel 3D FFT for charge:
    minimum data exchange during FFTs selected (reduces bandwidth)


 total amount of memory used by VASP MPI-rank0    88159. kBytes
=======================================================================

   base      :      30000. kBytes
   nonl-proj :        722. kBytes
   fftplans  :      17904. kBytes
   grid      :      38080. kBytes
   one-center:          6. kBytes
   wavefun   :       1447. kBytes
 
     INWAV:  cpu time    0.0000: real time    0.0000
 Broyden mixing: mesh for mixing (old mesh)
   NGX = 33   NGY = 33   NGZ = 33
  (NGX  =100   NGY  =100   NGZ  =100)
  gives a total of  35937 points

 initial charge density was supplied:
 charge density of overlapping atoms calculated
 number of electron      10.0000000 magnetization       2.0000000
 keeping initial charge density in first step


--------------------------------------------------------------------------------------------------------


 Maximum index for augmentation-charges          395 (set IRDMAX)


--------------------------------------------------------------------------------------------------------


 First call to EWALD:  gamma=   0.177
 Maximum number of real-space cells 3x 3x 3
 Maximum number of reciprocal cells 3x 3x 3

    FEWALD:  cpu time    0.0016: real time    0.0016


--------------------------------------- Iteration      1(   1)  ---------------------------------------


    POTLOK:  cpu time    1.5306: real time    3.1036
    SETDIJ:  cpu time    0.0081: real time    0.0204
     EDDAV:  cpu time    0.2230: real time    0.4456
       DOS:  cpu time    0.0002: real time    0.0002
    --------------------------------------------
      LOOP:  cpu time    1.7620: real time    3.5699

 eigenvalue-minimisations  :    56
 total energy-change (2. order) : 0.7959059E+02  (-0.2486662E+03)
 number of electron      10.0000000 magnetization       2.0000000
 augmentation part       10.0000000 magnetization       2.0000000

 Free energy of the ion-electron system (eV)
  ---------------------------------------------------
  alpha Z        PSCENC =         0.43084729
  Ewald energy   TEWEN  =       142.04706552
  -Hartree energ DENC   =      -583.41492833
  -exchange      EXHF   =         0.00000000
  -V(xc)+E(xc)   XCENC  =        40.88822337
  PAW double counting   =       284.04872827     -287.19049540
  entropy T*S    EENTRO =        -0.03416091
  eigenvalues    EBANDS =       -97.53678933
  atomic energy  EATOM  =       580.35210216
  Solvation  Ediel_sol  =         0.00000000
  ---------------------------------------------------
  free energy    TOTEN  =        79.59059265 eV

  energy without entropy =       79.62475355  energy(sigma->0) =       79.60197962


--------------------------------------------------------------------------------------------------------




--------------------------------------- Iteration      1(   2)  ---------------------------------------


     EDDAV:  cpu time    0.1946: real time    0.3878
       DOS:  cpu time    0.0002: real time    0.0002
    --------------------------------------------
      LOOP:  cpu time    0.1948: real time    0.3880

 eigenvalue-minimisations  :    70
 total energy-change (2. order) :-0.8469244E+02  (-0.8262757E+02)
 number of electron      10.0000000 magnetization       2.0000000
 augmentation part       10.0000000 magnetization       2.0000000

 Free energy of the ion-electron system (eV)
  ---------------------------------------------------
  alpha Z        PSCENC =         0.43084729
  Ewald energy   TEWEN  =       142.04706552
  -Hartree energ DENC   =      -583.41492833
  -exchange      EXHF   =         0.00000000
  -V(xc)+E(xc)   XCENC  =        40.88822337
  PAW double counting   =       284.04872827     -287.19049540
  entropy T*S    EENTRO =         0.00579791
  eigenvalues    EBANDS =      -182.26918486
  atomic energy  EATOM  =       580.35210216
  Solvation  Ediel_sol  =         0.00000000
  ---------------------------------------------------
  free energy    TOTEN  =        -5.10184407 eV

  energy without entropy =       -5.10764198  energy(sigma->0) =       -5.10377671


--------------------------------------------------------------------------------------------------------




--------------------------------------- Iteration      1(   3)  ---------------------------------------


     EDDAV:  cpu time    0.2058: real time    0.4135
       DOS:  cpu time    0.0002: real time    0.0002
    --------------------------------------------
      LOOP:  cpu time    0.2060: real time    0.4137

 eigenvalue-minimisations  :    62
 total energy-change (2. order) :-0.8894828E+01  (-0.8892674E+01)
 number of electron      10.0000000 magnetization       2.0000000
 augmentation part       10.0000000 magnetization       2.0000000

 Free energy of the ion-electron system (eV)
  ---------------------------------------------------
  alpha Z        PSCENC =         0.43084729
  Ewald energy   TEWEN  =       142.04706552
  -Hartree energ DENC   =      -583.41492833
  -exchange      EXHF   =         0.00000000
  -V(xc)+E(xc)   XCENC  =        40.88822337
  PAW double counting   =       284.04872827     -287.19049540
  entropy T*S    EENTRO =         0.00579791
  eigenvalues    EBANDS =      -191.16401334
  atomic energy  EATOM  =       580.35210216
  Solvation  Ediel_sol  =         0.00000000
  ---------------------------------------------------
  free energy    TOTEN  =       -13.99667255 eV

  energy without entropy =      -14.00247045  energy(sigma->0) =      -13.99860518


--------------------------------------------------------------------------------------------------------




--------------------------------------- Iteration      1(   4)  ---------------------------------------


     EDDAV:  cpu time    0.2158: real time    0.4338
       DOS:  cpu time    0.0002: real time    0.0002
    --------------------------------------------
      LOOP:  cpu time    0.2160: real time    0.4340

 eigenvalue-minimisations  :    64
 total energy-change (2. order) :-0.1288637E+00  (-0.1288559E+00)
 number of electron      10.0000000 magnetization       2.0000000
 augmentation part       10.0000000 magnetization       2.0000000

 Free energy of the ion-electron system (eV)
  ---------------------------------------------------
  alpha Z        PSCENC =         0.43084729
  Ewald energy   TEWEN  =       142.04706552
  -Hartree energ DENC   =      -583.41492833
  -exchange      EXHF   =         0.00000000
  -V(xc)+E(xc)   XCENC  =        40.88822337
  PAW double counting   =       284.04872827     -287.19049540
  entropy T*S    EENTRO =         0.00579791
  eigenvalues    EBANDS =      -191.29287700
  atomic energy  EATOM  =       580.35210216
  Solvation  Ediel_sol  =         0.00000000
  ---------------------------------------------------
  free energy    TOTEN  =       -14.12553621 eV

  energy without entropy =      -14.13133411  energy(sigma->0) =      -14.12746884


--------------------------------------------------------------------------------------------------------




--------------------------------------- Iteration      1(   5)  ---------------------------------------


     EDDAV:  cpu time    0.2198: real time    0.4371
       DOS:  cpu time    0.0002: real time    0.0002
    CHARGE:  cpu time    0.0542: real time    0.1086
    MIXING:  cpu time    0.0256: real time    0.0543
    --------------------------------------------
      LOOP:  cpu time    0.2998: real time    0.6002

 eigenvalue-minimisations  :    58
 total energy-change (2. order) :-0.8214984E-04  (-0.8214905E-04)
 number of electron      10.0000122 magnetization       1.0942618
 augmentation part        0.8318169 magnetization       1.1027850

 Broyden mixing:
  rms(total) = 0.11473E+01    rms(broyden)= 0.11465E+01
  rms(prec ) = 0.12824E+01
  weight for this iteration     100.00

 Free energy of the ion-electron system (eV)
  ---------------------------------------------------
  alpha Z        PSCENC =         0.43084729
  Ewald energy   TEWEN  =       142.04706552
  -Hartree energ DENC   =      -583.41492833
  -exchange      EXHF   =         0.00000000
  -V(xc)+E(xc)   XCENC  =        40.88822337
  PAW double counting   =       284.04872827     -287.19049540
  entropy T*S    EENTRO =         0.00579791
  eigenvalues    EBANDS =      -191.29295915
  atomic energy  EATOM  =       580.35210216
  Solvation  Ediel_sol  =         0.00000000
  ---------------------------------------------------
  free energy    TOTEN  =       -14.12561836 eV

  energy without entropy =      -14.13141626  energy(sigma->0) =      -14.12755099


--------------------------------------------------------------------------------------------------------




--------------------------------------- Iteration      1(   6)  ---------------------------------------


    POTLOK:  cpu time    1.4956: real time    2.9968
    SETDIJ:  cpu time    0.0108: real time    0.0164
     EDDAV:  cpu time    0.1775: real time    0.3695
       DOS:  cpu time    0.0003: real time    0.0003
    CHARGE:  cpu time    0.0660: real time    0.1281
    MIXING:  cpu time    0.0230: real time    0.0490
    --------------------------------------------
      LOOP:  cpu time    1.7732: real time    3.5601

 eigenvalue-minimisations  :    44
 total energy-change (2. order) : 0.3328608E+01  (-0.4804872E+00)
 number of electron      10.0000111 magnetization       0.5761791
 augmentation part        0.7726043 magnetization       0.5566085

 Broyden mixing:
  rms(total) = 0.43761E+00    rms(broyden)= 0.43734E+00
  rms(prec ) = 0.51544E+00
  weight for this iteration     100.00

 eigenvalues of (default mixing * dielectric matrix)
  average eigenvalue GAMMA=   0.8893
  0.8893

 Free energy of the ion-electron system (eV)
  ---------------------------------------------------
  alpha Z        PSCENC =         0.43084729
  Ewald energy   TEWEN  =       142.04706552
  -Hartree energ DENC   =      -602.84867499
  -exchange      EXHF   =         0.00000000
  -V(xc)+E(xc)   XCENC  =        43.71174539
  PAW double counting   =       354.06353055     -357.55761195
  entropy T*S    EENTRO =         0.00586434
  eigenvalues    EBANDS =      -171.00187890
  atomic energy  EATOM  =       580.35210216
  Solvation  Ediel_sol  =         0.00000000
  ---------------------------------------------------
  free energy    TOTEN  =       -10.79701059 eV

  energy without entropy =      -10.80287493  energy(sigma->0) =      -10.79896537


--------------------------------------------------------------------------------------------------------




--------------------------------------- Iteration      1(   7)  ---------------------------------------


    POTLOK:  cpu time    1.5219: real time    3.0473
    SETDIJ:  cpu time    0.0086: real time    0.0201
     EDDAV:  cpu time    0.2292: real time    0.4624
       DOS:  cpu time    0.0003: real time    0.0003
    CHARGE:  cpu time    0.0521: real time    0.0973
    MIXING:  cpu time    0.0246: real time    0.0545
    --------------------------------------------
      LOOP:  cpu time    1.8367: real time    3.6819

 eigenvalue-minimisations  :    52
 total energy-change (2. order) :-0.1466770E+01  (-0.1900766E+00)
 number of electron      10.0000110 magnetization       0.2271258
 augmentation part        0.7620133 magnetization       0.1614549

 Broyden mixing:
  rms(total) = 0.19800E+00    rms(broyden)= 0.19797E+00
  rms(prec ) = 0.22548E+00
  weight for this iteration     100.00

 eigenvalues of (default mixing * dielectric matrix)
  average eigenvalue GAMMA=   1.0915
  0.8925  1.2906

 Free energy of the ion-electron system (eV)
  ---------------------------------------------------
  alpha Z        PSCENC =         0.43084729
  Ewald energy   TEWEN  =       142.04706552
  -Hartree energ DENC   =      -610.55175749
  -exchange      EXHF   =         0.00000000
  -V(xc)+E(xc)   XCENC  =        42.99145242
  PAW double counting   =       392.01738927     -395.60634496
  entropy T*S    EENTRO =         0.01256703
  eigenvalues    EBANDS =      -163.95710152
  atomic energy  EATOM  =       580.35210216
  Solvation  Ediel_sol  =         0.00000000
  ---------------------------------------------------
  free energy    TOTEN  =       -12.26378028 eV

  energy without entropy =      -12.27634731  energy(sigma->0) =      -12.26796929


--------------------------------------------------------------------------------------------------------




--------------------------------------- Iteration      1(   8)  ---------------------------------------


    POTLOK:  cpu time    1.5121: real time    3.0228
    SETDIJ:  cpu time    0.0118: real time    0.0305
     EDDAV:  cpu time    0.2135: real time    0.4304
       DOS:  cpu time    0.0002: real time    0.0002
    CHARGE:  cpu time    0.0711: real time    0.1414
    MIXING:  cpu time    0.0319: real time    0.0667
    --------------------------------------------
      LOOP:  cpu time    1.8408: real time    3.6922

 eigenvalue-minimisations  :    44
 total energy-change (2. order) :-0.7165219E+00  (-0.4411295E-01)
 number of electron      10.0000109 magnetization       0.1150647
 augmentation part        0.7567283 magnetization       0.0953980

 Broyden mixing:
  rms(total) = 0.86817E-01    rms(broyden)= 0.86791E-01
  rms(prec ) = 0.97057E-01
  weight for this iteration     100.00

 eigenvalues of (default mixing * dielectric matrix)
  average eigenvalue GAMMA=   1.1243
  1.7797  0.8742  0.7191

 Free energy of the ion-electron system (eV)
  ---------------------------------------------------
  alpha Z        PSCENC =         0.43084729
  Ewald energy   TEWEN  =       142.04706552
  -Hartree energ DENC   =      -614.22521308
  -exchange      EXHF   =         0.00000000
  -V(xc)+E(xc)   XCENC  =        42.55905837
  PAW double counting   =       420.03147595     -423.65496821
  entropy T*S    EENTRO =         0.00860190
  eigenvalues    EBANDS =      -160.52927209
  atomic energy  EATOM  =       580.35210216
  Solvation  Ediel_sol  =         0.00000000
  ---------------------------------------------------
  free energy    TOTEN  =       -12.98030220 eV

  energy without entropy =      -12.98890410  energy(sigma->0) =      -12.98316950


--------------------------------------------------------------------------------------------------------




--------------------------------------- Iteration      1(   9)  ---------------------------------------


    POTLOK:  cpu time    1.5346: real time    3.0788
    SETDIJ:  cpu time    0.0149: real time    0.0304
     EDDAV:  cpu time    0.1505: real time    0.2963
       DOS:  cpu time    0.0003: real time    0.0003
    CHARGE:  cpu time    0.0886: real time    0.1822
    MIXING:  cpu time    0.0380: real time    0.0761
    --------------------------------------------
      LOOP:  cpu time    1.8269: real time    3.6640

 eigenvalue-minimisations  :    42
 total energy-change (2. order) :-0.1256288E+00  (-0.2168127E-02)
 number of electron      10.0000109 magnetization       0.0471227
 augmentation part        0.7548184 magnetization      -0.0072833

 Broyden mixing:
  rms(total) = 0.41696E-01    rms(broyden)= 0.41688E-01
  rms(prec ) = 0.50082E-01
  weight for this iteration     100.00

 eigenvalues of (default mixing * dielectric matrix)
  average eigenvalue GAMMA=   1.2163
  2.0913  1.2372  0.8849  0.6520

 Free energy of the ion-electron system (eV)
  ---------------------------------------------------
  alpha Z        PSCENC =         0.43084729
  Ewald energy   TEWEN  =       142.04706552
  -Hartree energ DENC   =      -614.49349827
  -exchange      EXHF   =         0.00000000
  -V(xc)+E(xc)   XCENC  =        42.44374969
  PAW double counting   =       427.72223162     -431.36558071
  entropy T*S    EENTRO =         0.01232949
  eigenvalues    EBANDS =      -160.25517780
  atomic energy  EATOM  =       580.35210216
  Solvation  Ediel_sol  =         0.00000000
  ---------------------------------------------------
  free energy    TOTEN  =       -13.10593100 eV

  energy without entropy =      -13.11826049  energy(sigma->0) =      -13.11004083


--------------------------------------------------------------------------------------------------------




--------------------------------------- Iteration      1(  10)  ---------------------------------------


    POTLOK:  cpu time    1.5276: real time    3.0592
    SETDIJ:  cpu time    0.0216: real time    0.0520
     EDDAV:  cpu time    0.2316: real time    0.4594
       DOS:  cpu time    0.0003: real time    0.0003
    CHARGE:  cpu time    0.0691: real time    0.1378
    MIXING:  cpu time    0.0199: real time    0.0373
    --------------------------------------------
      LOOP:  cpu time    1.8701: real time    3.7460

 eigenvalue-minimisations  :    44
 total energy-change (2. order) :-0.5344095E-01  (-0.1119917E-02)
 number of electron      10.0000109 magnetization       0.0490303
 augmentation part        0.7538213 magnetization      -0.0192408

 Broyden mixing:
  rms(total) = 0.11941E-01    rms(broyden)= 0.11922E-01
  rms(prec ) = 0.18214E-01
  weight for this iteration     100.00

 eigenvalues of (default mixing * dielectric matrix)
  average eigenvalue GAMMA=   1.2467
  2.3245  1.5027  0.8572  0.8572  0.6920

 Free energy of the ion-electron system (eV)
  ---------------------------------------------------
  alpha Z        PSCENC =         0.43084729
  Ewald energy   TEWEN  =       142.04706552
  -Hartree energ DENC   =      -614.42596736
  -exchange      EXHF   =         0.00000000
  -V(xc)+E(xc)   XCENC  =        42.38626064
  PAW double counting   =       433.82423318     -437.41886403
  entropy T*S    EENTRO =         0.01284244
  eigenvalues    EBANDS =      -160.36789180
  atomic energy  EATOM  =       580.35210216
  Solvation  Ediel_sol  =         0.00000000
  ---------------------------------------------------
  free energy    TOTEN  =       -13.15937195 eV

  energy without entropy =      -13.17221439  energy(sigma->0) =      -13.16365277


--------------------------------------------------------------------------------------------------------




--------------------------------------- Iteration      1(  11)  ---------------------------------------


    POTLOK:  cpu time    1.5426: real time    3.0980
    SETDIJ:  cpu time    0.0118: real time    0.0245
     EDDAV:  cpu time    0.2020: real time    0.4016
       DOS:  cpu time    0.0010: real time    0.0003
    CHARGE:  cpu time    0.0568: real time    0.1203
    MIXING:  cpu time    0.0297: real time    0.0603
    --------------------------------------------
      LOOP:  cpu time    1.8439: real time    3.7050

 eigenvalue-minimisations  :    48
 total energy-change (2. order) :-0.9648395E-04  (-0.6803410E-03)
 number of electron      10.0000109 magnetization       0.0554010
 augmentation part        0.7543077 magnetization      -0.0069132

 Broyden mixing:
  rms(total) = 0.46597E-02    rms(broyden)= 0.46567E-02
  rms(prec ) = 0.11195E-01
  weight for this iteration     100.00

 eigenvalues of (default mixing * dielectric matrix)
  average eigenvalue GAMMA=   1.1729
  2.3773  1.5173  0.8683  0.7871  0.7871  0.7005

 Free energy of the ion-electron system (eV)
  ---------------------------------------------------
  alpha Z        PSCENC =         0.43084729
  Ewald energy   TEWEN  =       142.04706552
  -Hartree energ DENC   =      -614.39639420
  -exchange      EXHF   =         0.00000000
  -V(xc)+E(xc)   XCENC  =        42.38347189
  PAW double counting   =       434.86218314     -438.44882231
  entropy T*S    EENTRO =         0.01246047
  eigenvalues    EBANDS =      -160.40238239
  atomic energy  EATOM  =       580.35210216
  Solvation  Ediel_sol  =         0.00000000
  ---------------------------------------------------
  free energy    TOTEN  =       -13.15946844 eV

  energy without entropy =      -13.17192890  energy(sigma->0) =      -13.16362193


--------------------------------------------------------------------------------------------------------




--------------------------------------- Iteration      1(  12)  ---------------------------------------


    POTLOK:  cpu time    1.5337: real time    3.0672
    SETDIJ:  cpu time    0.0304: real time    0.0719
     EDDAV:  cpu time    0.1504: real time    0.2987
       DOS:  cpu time    0.0004: real time    0.0004
    CHARGE:  cpu time    0.0517: real time    0.0981
    MIXING:  cpu time    0.0269: real time    0.0536
    --------------------------------------------
      LOOP:  cpu time    1.7935: real time    3.5899

 eigenvalue-minimisations  :    40
 total energy-change (2. order) :-0.4020566E-02  (-0.1277574E-03)
 number of electron      10.0000109 magnetization       0.0682853
 augmentation part        0.7544334 magnetization       0.0051208

 Broyden mixing:
  rms(total) = 0.35670E-02    rms(broyden)= 0.35662E-02
  rms(prec ) = 0.89055E-02
  weight for this iteration     100.00

 eigenvalues of (default mixing * dielectric matrix)
  average eigenvalue GAMMA=   1.1964
  2.4007  1.5391  1.4004  0.8262  0.8262  0.7245  0.6577

 Free energy of the ion-electron system (eV)
  ---------------------------------------------------
  alpha Z        PSCENC =         0.43084729
  Ewald energy   TEWEN  =       142.04706552
  -Hartree energ DENC   =      -614.50672470
  -exchange      EXHF   =         0.00000000
  -V(xc)+E(xc)   XCENC  =        42.38495810
  PAW double counting   =       435.08105844     -438.66530164
  entropy T*S    EENTRO =         0.01251903
  eigenvalues    EBANDS =      -160.30001320
  atomic energy  EATOM  =       580.35210216
  Solvation  Ediel_sol  =         0.00000000
  ---------------------------------------------------
  free energy    TOTEN  =       -13.16348900 eV

  energy without entropy =      -13.17600803  energy(sigma->0) =      -13.16766201


--------------------------------------------------------------------------------------------------------




--------------------------------------- Iteration      1(  13)  ---------------------------------------


    POTLOK:  cpu time    1.5111: real time    3.0377
    SETDIJ:  cpu time    0.0116: real time    0.0255
     EDDAV:  cpu time    0.2110: real time    0.4199
       DOS:  cpu time    0.0010: real time    0.0002
    CHARGE:  cpu time    0.0655: real time    0.1319
    MIXING:  cpu time    0.0647: real time    0.1245
    --------------------------------------------
      LOOP:  cpu time    1.8649: real time    3.7398

 eigenvalue-minimisations  :    48
 total energy-change (2. order) :-0.3085624E-02  (-0.2013878E-03)
 number of electron      10.0000109 magnetization       0.0709044
 augmentation part        0.7544171 magnetization       0.0098575

 Broyden mixing:
  rms(total) = 0.28997E-02    rms(broyden)= 0.28983E-02
  rms(prec ) = 0.58048E-02
  weight for this iteration     100.00

 eigenvalues of (default mixing * dielectric matrix)
  average eigenvalue GAMMA=   1.2677
  2.4300  2.2944  1.4489  0.9247  0.9247  0.8287  0.6451  0.6451

 Free energy of the ion-electron system (eV)
  ---------------------------------------------------
  alpha Z        PSCENC =         0.43084729
  Ewald energy   TEWEN  =       142.04706552
  -Hartree energ DENC   =      -614.68474069
  -exchange      EXHF   =         0.00000000
  -V(xc)+E(xc)   XCENC  =        42.38887952
  PAW double counting   =       435.16479981     -438.74554054
  entropy T*S    EENTRO =         0.01236328
  eigenvalues    EBANDS =      -160.13235097
  atomic energy  EATOM  =       580.35210216
  Solvation  Ediel_sol  =         0.00000000
  ---------------------------------------------------
  free energy    TOTEN  =       -13.16657463 eV

  energy without entropy =      -13.17893790  energy(sigma->0) =      -13.17069572


--------------------------------------------------------------------------------------------------------




--------------------------------------- Iteration      1(  14)  ---------------------------------------


    POTLOK:  cpu time    1.5219: real time    3.0585
    SETDIJ:  cpu time    0.0134: real time    0.0250
     EDDAV:  cpu time    0.1491: real time    0.2999
       DOS:  cpu time    0.0010: real time    0.0003
    CHARGE:  cpu time    0.0641: real time    0.1317
    MIXING:  cpu time    0.0405: real time    0.0808
    --------------------------------------------
      LOOP:  cpu time    1.7900: real time    3.5961

 eigenvalue-minimisations  :    42
 total energy-change (2. order) :-0.5928636E-03  (-0.1177490E-03)
 number of electron      10.0000109 magnetization       0.0679022
 augmentation part        0.7542672 magnetization       0.0049576

 Broyden mixing:
  rms(total) = 0.18518E-02    rms(broyden)= 0.18513E-02
  rms(prec ) = 0.34948E-02
  weight for this iteration     100.00

 eigenvalues of (default mixing * dielectric matrix)
  average eigenvalue GAMMA=   1.3173
  3.0947  2.3699  1.2813  1.2813  0.9009  0.9009  0.7500  0.6381  0.6381

 Free energy of the ion-electron system (eV)
  ---------------------------------------------------
  alpha Z        PSCENC =         0.43084729
  Ewald energy   TEWEN  =       142.04706552
  -Hartree energ DENC   =      -614.79193741
  -exchange      EXHF   =         0.00000000
  -V(xc)+E(xc)   XCENC  =        42.39108220
  PAW double counting   =       435.01368498     -438.59323850
  entropy T*S    EENTRO =         0.01249142
  eigenvalues    EBANDS =      -160.02926515
  atomic energy  EATOM  =       580.35210216
  Solvation  Ediel_sol  =         0.00000000
  ---------------------------------------------------
  free energy    TOTEN  =       -13.16716749 eV

  energy without entropy =      -13.17965891  energy(sigma->0) =      -13.17133130


--------------------------------------------------------------------------------------------------------




--------------------------------------- Iteration      1(  15)  ---------------------------------------


    POTLOK:  cpu time    1.5238: real time    3.0562
    SETDIJ:  cpu time    0.0071: real time    0.0192
     EDDAV:  cpu time    0.1996: real time    0.3927
       DOS:  cpu time    0.0002: real time    0.0002
    CHARGE:  cpu time    0.0820: real time    0.1625
    MIXING:  cpu time    0.0254: real time    0.0518
    --------------------------------------------
      LOOP:  cpu time    1.8381: real time    3.6826

 eigenvalue-minimisations  :    40
 total energy-change (2. order) :-0.2020857E-02  (-0.3281217E-04)
 number of electron      10.0000109 magnetization       0.0616736
 augmentation part        0.7543347 magnetization      -0.0008032

 Broyden mixing:
  rms(total) = 0.10668E-02    rms(broyden)= 0.10667E-02
  rms(prec ) = 0.23604E-02
  weight for this iteration     100.00

 eigenvalues of (default mixing * dielectric matrix)
  average eigenvalue GAMMA=   1.4195
  3.8138  2.3893  1.6524  1.6524  0.9171  0.9171  0.8788  0.7148  0.6443  0.6155

 Free energy of the ion-electron system (eV)
  ---------------------------------------------------
  alpha Z        PSCENC =         0.43084729
  Ewald energy   TEWEN  =       142.04706552
  -Hartree energ DENC   =      -614.81309059
  -exchange      EXHF   =         0.00000000
  -V(xc)+E(xc)   XCENC  =        42.38929486
  PAW double counting   =       434.92846951     -438.50842868
  entropy T*S    EENTRO =         0.01245909
  eigenvalues    EBANDS =      -160.00790750
  atomic energy  EATOM  =       580.35210216
  Solvation  Ediel_sol  =         0.00000000
  ---------------------------------------------------
  free energy    TOTEN  =       -13.16918835 eV

  energy without entropy =      -13.18164744  energy(sigma->0) =      -13.17334138


--------------------------------------------------------------------------------------------------------




--------------------------------------- Iteration      1(  16)  ---------------------------------------


    POTLOK:  cpu time    1.5279: real time    3.0667
    SETDIJ:  cpu time    0.0218: real time    0.0430
     EDDAV:  cpu time    0.2061: real time    0.4119
       DOS:  cpu time    0.0010: real time    0.0003
    CHARGE:  cpu time    0.0534: real time    0.1069
    MIXING:  cpu time    0.0380: real time    0.0829
    --------------------------------------------
      LOOP:  cpu time    1.8491: real time    3.7117

 eigenvalue-minimisations  :    44
 total energy-change (2. order) :-0.1489245E-02  (-0.8191037E-04)
 number of electron      10.0000109 magnetization       0.0622041
 augmentation part        0.7543735 magnetization      -0.0011605

 Broyden mixing:
  rms(total) = 0.93954E-03    rms(broyden)= 0.93871E-03
  rms(prec ) = 0.14222E-02
  weight for this iteration     100.00

 eigenvalues of (default mixing * dielectric matrix)
  average eigenvalue GAMMA=   1.5131
  4.9349  2.4613  2.2285  1.4926  0.9844  0.9515  0.8384  0.8384  0.6973  0.6428
  0.5741

 Free energy of the ion-electron system (eV)
  ---------------------------------------------------
  alpha Z        PSCENC =         0.43084729
  Ewald energy   TEWEN  =       142.04706552
  -Hartree energ DENC   =      -614.84217698
  -exchange      EXHF   =         0.00000000
  -V(xc)+E(xc)   XCENC  =        42.38854950
  PAW double counting   =       434.85141137     -438.43320162
  entropy T*S    EENTRO =         0.01252532
  eigenvalues    EBANDS =      -159.97780015
  atomic energy  EATOM  =       580.35210216
  Solvation  Ediel_sol  =         0.00000000
  ---------------------------------------------------
  free energy    TOTEN  =       -13.17067759 eV

  energy without entropy =      -13.18320291  energy(sigma->0) =      -13.17485270


--------------------------------------------------------------------------------------------------------




--------------------------------------- Iteration      1(  17)  ---------------------------------------


    POTLOK:  cpu time    1.5479: real time    3.0959
    SETDIJ:  cpu time    0.0123: real time    0.0353
     EDDAV:  cpu time    0.2305: real time    0.4642
       DOS:  cpu time    0.0002: real time    0.0002
    CHARGE:  cpu time    0.0718: real time    0.1419
    MIXING:  cpu time    0.0443: real time    0.0879
    --------------------------------------------
      LOOP:  cpu time    1.9062: real time    3.8254

 eigenvalue-minimisations  :    46
 total energy-change (2. order) :-0.2370890E-03  (-0.5093174E-05)
 number of electron      10.0000109 magnetization       0.0635202
 augmentation part        0.7543552 magnetization       0.0011849

 Broyden mixing:
  rms(total) = 0.56154E-03    rms(broyden)= 0.56123E-03
  rms(prec ) = 0.96546E-03
  weight for this iteration     100.00

 eigenvalues of (default mixing * dielectric matrix)
  average eigenvalue GAMMA=   1.5516
  5.7416  2.5641  2.2594  1.4610  1.1016  1.1016  0.8820  0.8820  0.7145  0.7145
  0.6327  0.5643

 Free energy of the ion-electron system (eV)
  ---------------------------------------------------
  alpha Z        PSCENC =         0.43084729
  Ewald energy   TEWEN  =       142.04706552
  -Hartree energ DENC   =      -614.84416847
  -exchange      EXHF   =         0.00000000
  -V(xc)+E(xc)   XCENC  =        42.38839198
  PAW double counting   =       434.85868102     -438.44082777
  entropy T*S    EENTRO =         0.01245605
  eigenvalues    EBANDS =      -159.97546245
  atomic energy  EATOM  =       580.35210216
  Solvation  Ediel_sol  =         0.00000000
  ---------------------------------------------------
  free energy    TOTEN  =       -13.17091468 eV

  energy without entropy =      -13.18337073  energy(sigma->0) =      -13.17506670


--------------------------------------------------------------------------------------------------------




--------------------------------------- Iteration      1(  18)  ---------------------------------------


    POTLOK:  cpu time    1.5544: real time    3.1138
    SETDIJ:  cpu time    0.0172: real time    0.0398
     EDDAV:  cpu time    0.1771: real time    0.3532
       DOS:  cpu time    0.0002: real time    0.0002
    CHARGE:  cpu time    0.0710: real time    0.1311
    MIXING:  cpu time    0.0556: real time    0.1285
    --------------------------------------------
      LOOP:  cpu time    1.8756: real time    3.7666

 eigenvalue-minimisations  :    44
 total energy-change (2. order) :-0.5414129E-03  (-0.8902907E-05)
 number of electron      10.0000109 magnetization       0.0639460
 augmentation part        0.7543138 magnetization       0.0015199

 Broyden mixing:
  rms(total) = 0.37840E-03    rms(broyden)= 0.37826E-03
  rms(prec ) = 0.58708E-03
  weight for this iteration     100.00

 eigenvalues of (default mixing * dielectric matrix)
  average eigenvalue GAMMA=   1.6082
  6.4185  2.7862  2.3461  1.6531  1.5116  0.9760  0.9760  0.8266  0.8266  0.7114
  0.6782  0.5816  0.6151

 Free energy of the ion-electron system (eV)
  ---------------------------------------------------
  alpha Z        PSCENC =         0.43084729
  Ewald energy   TEWEN  =       142.04706552
  -Hartree energ DENC   =      -614.83858605
  -exchange      EXHF   =         0.00000000
  -V(xc)+E(xc)   XCENC  =        42.38768506
  PAW double counting   =       434.87802159     -438.46016619
  entropy T*S    EENTRO =         0.01246140
  eigenvalues    EBANDS =      -159.98088687
  atomic energy  EATOM  =       580.35210216
  Solvation  Ediel_sol  =         0.00000000
  ---------------------------------------------------
  free energy    TOTEN  =       -13.17145609 eV

  energy without entropy =      -13.18391749  energy(sigma->0) =      -13.17560989


--------------------------------------------------------------------------------------------------------




--------------------------------------- Iteration      1(  19)  ---------------------------------------


    POTLOK:  cpu time    1.5166: real time    3.0342
    SETDIJ:  cpu time    0.0171: real time    0.0368
     EDDAV:  cpu time    0.2751: real time    0.5557
       DOS:  cpu time    0.0002: real time    0.0002
    CHARGE:  cpu time    0.0765: real time    0.1398
    MIXING:  cpu time    0.0570: real time    0.1235
    --------------------------------------------
      LOOP:  cpu time    1.9425: real time    3.8903

 eigenvalue-minimisations  :    48
 total energy-change (2. order) :-0.1692954E-03  (-0.1670197E-05)
 number of electron      10.0000109 magnetization       0.0641088
 augmentation part        0.7543309 magnetization       0.0016091

 Broyden mixing:
  rms(total) = 0.19084E-03    rms(broyden)= 0.19078E-03
  rms(prec ) = 0.32572E-03
  weight for this iteration     100.00

 eigenvalues of (default mixing * dielectric matrix)
  average eigenvalue GAMMA=   1.7561
  7.4670  3.5811  2.4412  2.1235  1.4643  1.2341  1.1279  0.9000  0.9000  0.7447
  0.7326  0.6755  0.6197  0.5743

 Free energy of the ion-electron system (eV)
  ---------------------------------------------------
  alpha Z        PSCENC =         0.43084729
  Ewald energy   TEWEN  =       142.04706552
  -Hartree energ DENC   =      -614.82855419
  -exchange      EXHF   =         0.00000000
  -V(xc)+E(xc)   XCENC  =        42.38706355
  PAW double counting   =       434.88956677     -438.47152606
  entropy T*S    EENTRO =         0.01246571
  eigenvalues    EBANDS =      -159.99065614
  atomic energy  EATOM  =       580.35210216
  Solvation  Ediel_sol  =         0.00000000
  ---------------------------------------------------
  free energy    TOTEN  =       -13.17162539 eV

  energy without entropy =      -13.18409110  energy(sigma->0) =      -13.17578063


--------------------------------------------------------------------------------------------------------




--------------------------------------- Iteration      1(  20)  ---------------------------------------


    POTLOK:  cpu time    1.5268: real time    3.0589
    SETDIJ:  cpu time    0.0096: real time    0.0198
     EDDAV:  cpu time    0.2106: real time    0.4248
       DOS:  cpu time    0.0010: real time    0.0003
    --------------------------------------------
      LOOP:  cpu time    1.7478: real time    3.5038

 eigenvalue-minimisations  :    46
 total energy-change (2. order) :-0.9276894E-04  (-0.5292171E-06)
 number of electron      10.0000109 magnetization       0.0641088
 augmentation part        0.7543309 magnetization       0.0016091

 Free energy of the ion-electron system (eV)
  ---------------------------------------------------
  alpha Z        PSCENC =         0.43084729
  Ewald energy   TEWEN  =       142.04706552
  -Hartree energ DENC   =      -614.81817948
  -exchange      EXHF   =         0.00000000
  -V(xc)+E(xc)   XCENC  =        42.38648146
  PAW double counting   =       434.89192088     -438.47361188
  entropy T*S    EENTRO =         0.01247495
  eigenvalues    EBANDS =      -160.00081904
  atomic energy  EATOM  =       580.35210216
  Solvation  Ediel_sol  =         0.00000000
  ---------------------------------------------------
  free energy    TOTEN  =       -13.17171816 eV

  energy without entropy =      -13.18419311  energy(sigma->0) =      -13.17587647


--------------------------------------------------------------------------------------------------------




 average (electrostatic) potential at core
  the test charge radii are     0.6991  0.7215
  (the norm of the test charge is              1.0000)
       1 -62.3166       2 -85.0816
 
 
 
 E-fermi :  -8.4153     XC(G=0):  -0.4927     alpha+bet : -0.1758


 spin component 1

 k-point     1 :       0.0000    0.0000    0.0000
  band No.  band energies     occupation 
      1     -31.3395      1.00000
      2     -13.8882      1.00000
      3     -13.0845      1.00000
      4     -13.0845      1.00000
      5      -8.6941      1.03198
      6      -0.6411      0.00000
      7      -0.6411      0.00000
      8      -0.1016      0.00000
      9       1.1360      0.00000
     10       1.2795      0.00000

 spin component 2

 k-point     1 :       0.0000    0.0000    0.0000
  band No.  band energies     occupation 
      1     -31.3260      1.00000
      2     -13.8753      1.00000
      3     -13.0722      1.00000
      4     -13.0722      1.00000
      5      -8.5601      0.96802
      6      -0.5880      0.00000
      7      -0.5880      0.00000
      8      -0.0993      0.00000
      9       1.1408      0.00000
     10       1.2899      0.00000


--------------------------------------------------------------------------------------------------------


 soft charge-density along one line, spin component           1
         0         1         2         3         4         5         6         7         8         9
 total charge-density along one line
 
 soft charge-density along one line, spin component           2
         0         1         2         3         4         5         6         7         8         9
 total charge-density along one line
 
 pseudopotential strength for first ion, spin component:           1
 10.588   0.000   0.025   0.000   0.000   0.000  -0.042   0.000   0.000   0.000  -0.000   0.000   0.041   0.000  -0.000   0.000
  0.025   0.000  -0.001   0.000  -0.000   0.000   0.001   0.000  -0.000   0.000  -0.000   0.000   0.000   0.000  -0.000   0.000
  0.000   0.000  -0.000   0.000  -4.474   0.000  -0.000   0.000  -0.000   0.000  -0.023   0.000  -0.000   0.000  -0.000   0.000
 -0.042   0.000   0.001   0.000  -0.000   0.000  -4.554   0.000   0.000   0.000  -0.000   0.000  -0.043   0.000   0.000   0.000
  0.000   0.000  -0.000   0.000  -0.000   0.000   0.000   0.000  -4.474   0.000  -0.000   0.000   0.000   0.000  -0.023   0.000
 -0.000   0.000  -0.000   0.000  -0.023   0.000  -0.000   0.000  -0.000   0.000  -0.851   0.000  -0.000   0.000  -0.000   0.000
  0.041   0.000   0.000   0.000  -0.000   0.000  -0.043   0.000   0.000   0.000  -0.000   0.000  -0.854   0.000   0.000   0.000
 -0.000   0.000  -0.000   0.000  -0.000   0.000   0.000   0.000  -0.023   0.000  -0.000   0.000   0.000   0.000  -0.851   0.000
 pseudopotential strength for first ion, spin component:           2
 10.580   0.000   0.025   0.000   0.000   0.000  -0.044   0.000   0.000   0.000  -0.000   0.000   0.043   0.000  -0.000   0.000
  0.025   0.000  -0.001   0.000  -0.000   0.000   0.001   0.000  -0.000   0.000  -0.000   0.000   0.000   0.000  -0.000   0.000
  0.000   0.000  -0.000   0.000  -4.473   0.000  -0.000   0.000   0.000   0.000  -0.021   0.000  -0.000   0.000   0.000   0.000
 -0.044   0.000   0.001   0.000  -0.000   0.000  -4.550   0.000  -0.000   0.000  -0.000   0.000  -0.041   0.000  -0.000   0.000
  0.000   0.000  -0.000   0.000   0.000   0.000  -0.000   0.000  -4.473   0.000   0.000   0.000  -0.000   0.000  -0.021   0.000
 -0.000   0.000  -0.000   0.000  -0.021   0.000  -0.000   0.000   0.000   0.000  -0.851   0.000  -0.000   0.000   0.000   0.000
  0.043   0.000   0.000   0.000  -0.000   0.000  -0.041   0.000  -0.000   0.000  -0.000   0.000  -0.854   0.000  -0.000   0.000
 -0.000   0.000  -0.000   0.000   0.000   0.000  -0.000   0.000  -0.021   0.000   0.000   0.000  -0.000   0.000  -0.851   0.000
 total augmentation occupancy for first ion, spin component:           1
  1.908  -1.106  -0.000  -0.042   0.000   0.000  -0.149  -0.000
 -1.106   1.880   0.000   1.110   0.000   0.000   0.408   0.000
  0.000   0.000   0.732  -0.000   0.000   0.128   0.000   0.000
 -0.042   1.110  -0.000   1.894   0.000   0.000   0.282  -0.000
  0.000   0.000   0.000   0.000   0.732   0.000   0.000   0.128
  0.000   0.000   0.128   0.000   0.000   0.022   0.000   0.000
 -0.149   0.408   0.000   0.282   0.000   0.000   0.095   0.000
 -0.000   0.000   0.000   0.000   0.128   0.000   0.000   0.022
 total augmentation occupancy for first ion, spin component:           2
  0.025  -0.001  -0.000   0.031   0.000  -0.000   0.002   0.000
 -0.001   0.005   0.000   0.004   0.000  -0.000   0.000   0.000
  0.000   0.000   0.003  -0.000   0.000   0.000   0.000   0.000
  0.031   0.004  -0.000   0.039   0.000   0.000   0.002   0.000
  0.000   0.000   0.000   0.000   0.003   0.000   0.000   0.000
 -0.000  -0.000   0.000  -0.000   0.000  -0.000   0.000   0.000
  0.002   0.000   0.000   0.002   0.000   0.000   0.000   0.000
  0.000   0.000   0.000   0.000   0.000   0.000   0.000  -0.000


------------------------ aborting loop because EDIFF is reached ----------------------------------------


    CHARGE:  cpu time    0.0558: real time    0.1158
    FORLOC:  cpu time    0.0175: real time    0.0353
    FORNL :  cpu time    0.0405: real time    0.0843
    STRESS:  cpu time    0.1026: real time    0.2041
    FORHAR:  cpu time    0.0648: real time    0.1327
    MIXING:  cpu time    0.0479: real time    0.0901
    OFIELD:  cpu time    0.0001: real time    0.0001

  FORCE on cell =-STRESS in cart. coord.  units (eV):
  Direction    XX          YY          ZZ          XY          YZ          ZX
  --------------------------------------------------------------------------------------
  Alpha Z     0.43085     0.43085     0.43085
  Ewald     -68.45434   -68.45434   278.95571     0.00000     0.00000    -0.00000
  Hartree   170.20024   170.20024   274.41782    -0.00000    -0.00000    -0.00000
  E(xc)     -45.27598   -45.27598   -43.99674    -0.00000    -0.00000     0.00000
  Local    -242.58727  -242.58727  -640.37504    -0.00000    -0.00000    -0.00000
  n-local   -19.33647   -19.33647   -32.39682    -0.00000    -0.00000    -0.00000
  augment     7.10601     7.10601     4.60695     0.00000     0.00000     0.00000
  Kinetic   197.10296   197.10298   185.08736     0.00002     0.00000     0.00000
  Fock        0.00000     0.00000     0.00000     0.00000     0.00000     0.00000
  -------------------------------------------------------------------------------------
  Total      -0.81398    -0.81398    26.73009     0.00000     0.00000     0.00000
  in kB      -1.30414    -1.30414    42.82635     0.00000     0.00000     0.00000
  external pressure =       13.41 kB  Pullay stress =        0.00 kB


 VOLUME and BASIS-vectors are now :
 -----------------------------------------------------------------------------
  energy-cutoff  :      400.00
  volume of cell :     1000.00
      direct lattice vectors                 reciprocal lattice vectors
    10.000000000  0.000000000  0.000000000     0.100000000  0.000000000  0.000000000
     0.000000000 10.000000000  0.000000000     0.000000000  0.100000000  0.000000000
     0.000000000  0.000000000 10.000000000     0.000000000  0.000000000  0.100000000

  length of vectors
    10.000000000 10.000000000 10.000000000     0.100000000  0.100000000  0.100000000


 FORCES acting on ions
    electron-ion (+dipol)            ewald-force                    non-local-force                 convergence-correction
 -----------------------------------------------------------------------------------------------
   0.242E-14 0.770E-13 -.289E+03   -.654E-16 -.972E-17 0.344E+03   0.000E+00 -.724E-24 -.279E+02   0.289E-13 0.693E-14 0.130E-02
   0.598E-14 0.583E-13 0.245E+03   0.108E-15 0.309E-16 -.344E+03   0.000E+00 0.000E+00 0.713E+02   0.582E-13 0.256E-13 0.167E-02
 -----------------------------------------------------------------------------------------------
   0.841E-14 0.135E-12 -.434E+02   0.428E-16 0.212E-16 0.000E+00   0.000E+00 -.724E-24 0.434E+02   0.871E-13 0.326E-13 0.297E-02
 
 
 POSITION                                       TOTAL-FORCE (eV/Angst)
 -----------------------------------------------------------------------------------
      0.00000      0.00000      5.50000         0.000000      0.000000     27.494465
      0.00000      0.00000      4.50000         0.000000      0.000000    -27.494465
 -----------------------------------------------------------------------------------
    total drift:                                0.000000      0.000000      0.009858


--------------------------------------------------------------------------------------------------------



  FREE ENERGIE OF THE ION-ELECTRON SYSTEM (eV)
  ---------------------------------------------------
  free  energy   TOTEN  =       -13.17171816 eV

  energy  without entropy=      -13.18419311  energy(sigma->0) =      -13.17587647
 


--------------------------------------------------------------------------------------------------------


    POTLOK:  cpu time    1.4211: real time    2.8491


--------------------------------------------------------------------------------------------------------




--------------------------------------------------------------------------------------------------------


    WAVPRE:  cpu time    4.1243: real time    8.2761
    FEWALD:  cpu time    0.0004: real time    0.0109
    ORTHCH:  cpu time    0.0054: real time    0.0174
     LOOP+:  cpu time   36.1713: real time   72.6014


--------------------------------------- Iteration      2(   1)  ---------------------------------------


    POTLOK:  cpu time    1.5365: real time    3.0829
    SETDIJ:  cpu time    0.0204: real time    0.0426
     EDDAV:  cpu time    0.2165: real time    0.4359
       DOS:  cpu time    0.0003: real time    0.0003
    CHARGE:  cpu time    0.0664: real time    0.1267
    MIXING:  cpu time    0.0145: real time    0.0330
    --------------------------------------------
      LOOP:  cpu time    1.8556: real time    3.7215

 eigenvalue-minimisations  :    48
 total energy-change (2. order) : 0.5079989E+02  (-0.3327621E+03)
 number of electron       9.9999987 magnetization       0.2092965
 augmentation part        0.1169945 magnetization      -0.1712683

 Broyden mixing:
  rms(total) = 0.24298E+01    rms(broyden)= 0.24278E+01
  rms(prec ) = 0.33223E+01
  weight for this iteration     100.00

 Free energy of the ion-electron system (eV)
  ---------------------------------------------------
  alpha Z        PSCENC =         0.43084729
  Ewald energy   TEWEN  =       -98.01660741
  -Hartree energ DENC   =      -407.10469616
  -exchange      EXHF   =         0.00000000
  -V(xc)+E(xc)   XCENC  =        39.37385738
  PAW double counting   =       434.89255086     -438.47420931
  entropy T*S    EENTRO =        -0.02496474
  eigenvalues    EBANDS =       -73.80061268
  atomic energy  EATOM  =       580.35210216
  Solvation  Ediel_sol  =         0.00000000
  ---------------------------------------------------
  free energy    TOTEN  =        37.62826739 eV

  energy without entropy =       37.65323213  energy(sigma->0) =       37.63658897


--------------------------------------------------------------------------------------------------------




--------------------------------------- Iteration      2(   2)  ---------------------------------------


    POTLOK:  cpu time    1.5194: real time    3.0449
    SETDIJ:  cpu time    0.0069: real time    0.0192
     EDDAV:  cpu time    0.2396: real time    0.4774
       DOS:  cpu time    0.0002: real time    0.0002
    CHARGE:  cpu time    0.0547: real time    0.1023
    MIXING:  cpu time    0.0276: real time    0.0659
    --------------------------------------------
      LOOP:  cpu time    1.8475: real time    3.7099

 eigenvalue-minimisations  :    60
 total energy-change (2. order) :-0.6151869E+02  (-0.7477898E+02)
 number of electron      10.0000052 magnetization       0.1643165
 augmentation part        0.7112615 magnetization       0.1546583

 Broyden mixing:
  rms(total) = 0.21959E+01    rms(broyden)= 0.21948E+01
  rms(prec ) = 0.33199E+01
  weight for this iteration     100.00

 eigenvalues of (default mixing * dielectric matrix)
  average eigenvalue GAMMA=   0.5325
  0.5325

 Free energy of the ion-electron system (eV)
  ---------------------------------------------------
  alpha Z        PSCENC =         0.43084729
  Ewald energy   TEWEN  =       -98.01660741
  -Hartree energ DENC   =      -335.87553110
  -exchange      EXHF   =         0.00000000
  -V(xc)+E(xc)   XCENC  =        34.10976213
  PAW double counting   =       267.65259362     -270.60448799
  entropy T*S    EENTRO =         0.00744578
  eigenvalues    EBANDS =      -201.94654621
  atomic energy  EATOM  =       580.35210216
  Solvation  Ediel_sol  =         0.00000000
  ---------------------------------------------------
  free energy    TOTEN  =       -23.89042173 eV

  energy without entropy =      -23.89786750  energy(sigma->0) =      -23.89290365


--------------------------------------------------------------------------------------------------------




--------------------------------------- Iteration      2(   3)  ---------------------------------------


    POTLOK:  cpu time    1.5315: real time    3.0663
    SETDIJ:  cpu time    0.0109: real time    0.0279
     EDDAV:  cpu time    0.1536: real time    0.3007
       DOS:  cpu time    0.0002: real time    0.0002
    CHARGE:  cpu time    0.0635: real time    0.1325
    MIXING:  cpu time    0.0138: real time    0.0244
    --------------------------------------------
      LOOP:  cpu time    1.7735: real time    3.5521

 eigenvalue-minimisations  :    40
 total energy-change (2. order) : 0.7890375E+01  (-0.9399852E+01)
 number of electron      10.0000100 magnetization       0.1250522
 augmentation part        0.9438420 magnetization       0.1529784

 Broyden mixing:
  rms(total) = 0.23373E+01    rms(broyden)= 0.23357E+01
  rms(prec ) = 0.34454E+01
  weight for this iteration     100.00

 eigenvalues of (default mixing * dielectric matrix)
  average eigenvalue GAMMA=   0.5629
  0.5629  0.5629

 Free energy of the ion-electron system (eV)
  ---------------------------------------------------
  alpha Z        PSCENC =         0.43084729
  Ewald energy   TEWEN  =       -98.01660741
  -Hartree energ DENC   =      -357.66062099
  -exchange      EXHF   =         0.00000000
  -V(xc)+E(xc)   XCENC  =        35.15775373
  PAW double counting   =       292.44954482     -295.53268868
  entropy T*S    EENTRO =         0.01212718
  eigenvalues    EBANDS =      -173.19250519
  atomic energy  EATOM  =       580.35210216
  Solvation  Ediel_sol  =         0.00000000
  ---------------------------------------------------
  free energy    TOTEN  =       -16.00004709 eV

  energy without entropy =      -16.01217427  energy(sigma->0) =      -16.00408949


--------------------------------------------------------------------------------------------------------




--------------------------------------- Iteration      2(   4)  ---------------------------------------


    POTLOK:  cpu time    1.5367: real time    3.0751
    SETDIJ:  cpu time    0.0153: real time    0.0440
     EDDAV:  cpu time    0.1746: real time    0.3413
       DOS:  cpu time    0.0003: real time    0.0003
    CHARGE:  cpu time    0.0796: real time    0.1641
    MIXING:  cpu time    0.0248: real time    0.0455
    --------------------------------------------
      LOOP:  cpu time    1.8313: real time    3.6704

 eigenvalue-minimisations  :    40
 total energy-change (2. order) : 0.1424227E+02  (-0.2326408E+01)
 number of electron      10.0000050 magnetization       0.2461585
 augmentation part        0.2842059 magnetization      -0.7142866

 Broyden mixing:
  rms(total) = 0.17120E+01    rms(broyden)= 0.17054E+01
  rms(prec ) = 0.26175E+01
  weight for this iteration     100.00

 eigenvalues of (default mixing * dielectric matrix)
  average eigenvalue GAMMA=   0.4716
  0.5160  0.4494  0.4494

 Free energy of the ion-electron system (eV)
  ---------------------------------------------------
  alpha Z        PSCENC =         0.43084729
  Ewald energy   TEWEN  =       -98.01660741
  -Hartree energ DENC   =      -385.50681577
  -exchange      EXHF   =         0.00000000
  -V(xc)+E(xc)   XCENC  =        36.74427211
  PAW double counting   =       332.92529324     -336.52041190
  entropy T*S    EENTRO =        -0.21452078
  eigenvalues    EBANDS =      -131.95194039
  atomic energy  EATOM  =       580.35210216
  Solvation  Ediel_sol  =         0.00000000
  ---------------------------------------------------
  free energy    TOTEN  =        -1.75778146 eV

  energy without entropy =       -1.54326068  energy(sigma->0) =       -1.68627453


--------------------------------------------------------------------------------------------------------




--------------------------------------- Iteration      2(   5)  ---------------------------------------


    POTLOK:  cpu time    1.5273: real time    3.0590
    SETDIJ:  cpu time    0.0079: real time    0.0256
     EDDAV:  cpu time    0.2376: real time    0.4777
       DOS:  cpu time    0.0002: real time    0.0002
    CHARGE:  cpu time    0.0568: real time    0.1128
    MIXING:  cpu time    0.0196: real time    0.0303
    --------------------------------------------
      LOOP:  cpu time    1.8494: real time    3.7055

 eigenvalue-minimisations  :    58
 total energy-change (2. order) :-0.6608025E+01  (-0.7445126E+01)
 number of electron      10.0000096 magnetization       0.2614397
 augmentation part        0.8564979 magnetization       0.3283464

 Broyden mixing:
  rms(total) = 0.17955E+01    rms(broyden)= 0.17929E+01
  rms(prec ) = 0.28327E+01
  weight for this iteration     100.00

 eigenvalues of (default mixing * dielectric matrix)
  average eigenvalue GAMMA=   0.6215
  0.8029  0.8029  0.5943  0.2860

 Free energy of the ion-electron system (eV)
  ---------------------------------------------------
  alpha Z        PSCENC =         0.43084729
  Ewald energy   TEWEN  =       -98.01660741
  -Hartree energ DENC   =      -376.20379847
  -exchange      EXHF   =         0.00000000
  -V(xc)+E(xc)   XCENC  =        36.39808868
  PAW double counting   =       310.11438571     -313.45139839
  entropy T*S    EENTRO =         0.03090930
  eigenvalues    EBANDS =      -148.02033572
  atomic energy  EATOM  =       580.35210216
  Solvation  Ediel_sol  =         0.00000000
  ---------------------------------------------------
  free energy    TOTEN  =        -8.36580685 eV

  energy without entropy =       -8.39671615  energy(sigma->0) =       -8.37610995


--------------------------------------------------------------------------------------------------------




--------------------------------------- Iteration      2(   6)  ---------------------------------------


    POTLOK:  cpu time    1.5432: real time    3.0980
    SETDIJ:  cpu time    0.0100: real time    0.0235
     EDDAV:  cpu time    0.1518: real time    0.3069
       DOS:  cpu time    0.0003: real time    0.0003
    CHARGE:  cpu time    0.0621: real time    0.1106
    MIXING:  cpu time    0.0357: real time    0.0814
    --------------------------------------------
      LOOP:  cpu time    1.8031: real time    3.6206

 eigenvalue-minimisations  :    40
 total energy-change (2. order) : 0.7062615E+01  (-0.6164313E+00)
 number of electron      10.0000084 magnetization       0.2530922
 augmentation part        0.6526998 magnetization       0.2233228

 Broyden mixing:
  rms(total) = 0.89891E+00    rms(broyden)= 0.89780E+00
  rms(prec ) = 0.13816E+01
  weight for this iteration     100.00

 eigenvalues of (default mixing * dielectric matrix)
  average eigenvalue GAMMA=   0.5046
  0.8099  0.8099  0.5984  0.2842  0.0203

 Free energy of the ion-electron system (eV)
  ---------------------------------------------------
  alpha Z        PSCENC =         0.43084729
  Ewald energy   TEWEN  =       -98.01660741
  -Hartree energ DENC   =      -394.16986355
  -exchange      EXHF   =         0.00000000
  -V(xc)+E(xc)   XCENC  =        37.30839642
  PAW double counting   =       323.70880578     -327.20592302
  entropy T*S    EENTRO =        -0.01051997
  eigenvalues    EBANDS =      -123.70042956
  atomic energy  EATOM  =       580.35210216
  Solvation  Ediel_sol  =         0.00000000
  ---------------------------------------------------
  free energy    TOTEN  =        -1.30319186 eV

  energy without entropy =       -1.29267189  energy(sigma->0) =       -1.29968520


--------------------------------------------------------------------------------------------------------




--------------------------------------- Iteration      2(   7)  ---------------------------------------


    POTLOK:  cpu time    1.5186: real time    3.0444
    SETDIJ:  cpu time    0.0142: real time    0.0383
     EDDAV:  cpu time    0.1953: real time    0.3833
       DOS:  cpu time    0.0002: real time    0.0002
    CHARGE:  cpu time    0.0655: real time    0.1167
    MIXING:  cpu time    0.0236: real time    0.0645
    --------------------------------------------
      LOOP:  cpu time    1.8175: real time    3.6473

 eigenvalue-minimisations  :    60
 total energy-change (2. order) : 0.6576337E-02  (-0.1076391E+00)
 number of electron      10.0000057 magnetization       0.2588334
 augmentation part        0.4889165 magnetization      -0.0366141

 Broyden mixing:
  rms(total) = 0.12670E+01    rms(broyden)= 0.12664E+01
  rms(prec ) = 0.13116E+01
  weight for this iteration     100.00

 eigenvalues of (default mixing * dielectric matrix)
  average eigenvalue GAMMA=   0.4370
  0.8141  0.8141  0.6041  0.2697  0.0877  0.0320

 Free energy of the ion-electron system (eV)
  ---------------------------------------------------
  alpha Z        PSCENC =         0.43084729
  Ewald energy   TEWEN  =       -98.01660741
  -Hartree energ DENC   =      -394.84281517
  -exchange      EXHF   =         0.00000000
  -V(xc)+E(xc)   XCENC  =        37.36846561
  PAW double counting   =       323.60854191     -327.09976317
  entropy T*S    EENTRO =        -0.06920210
  eigenvalues    EBANDS =      -123.02818465
  atomic energy  EATOM  =       580.35210216
  Solvation  Ediel_sol  =         0.00000000
  ---------------------------------------------------
  free energy    TOTEN  =        -1.29661552 eV

  energy without entropy =       -1.22741343  energy(sigma->0) =       -1.27354816


--------------------------------------------------------------------------------------------------------




--------------------------------------- Iteration      2(   8)  ---------------------------------------


[...]
  energy-cutoff  :      400.00
  volume of cell :     1000.00
      direct lattice vectors                 reciprocal lattice vectors
    10.000000000  0.000000000  0.000000000     0.100000000  0.000000000  0.000000000
     0.000000000 10.000000000  0.000000000     0.000000000  0.100000000  0.000000000
     0.000000000  0.000000000 10.000000000     0.000000000  0.000000000  0.100000000

  length of vectors
    10.000000000 10.000000000 10.000000000     0.100000000  0.100000000  0.100000000


 FORCES acting on ions
    electron-ion (+dipol)            ewald-force                    non-local-force                 convergence-correction
 -----------------------------------------------------------------------------------------------
   -.611E-15 0.142E-12 -.235E+03   0.440E-16 0.339E-17 0.263E+03   0.000E+00 -.207E-24 -.284E+02   0.303E-13 0.140E-13 0.579E-02
   0.392E-14 0.500E-13 0.203E+03   -.119E-17 0.178E-16 -.263E+03   0.000E+00 -.129E-25 0.600E+02   0.680E-13 0.243E-13 0.433E-01
 -----------------------------------------------------------------------------------------------
   0.330E-14 0.192E-12 -.316E+02   0.428E-16 0.212E-16 0.000E+00   0.000E+00 -.220E-24 0.316E+02   0.984E-13 0.383E-13 0.491E-01
 
 
 POSITION                                       TOTAL-FORCE (eV/Angst)
 -----------------------------------------------------------------------------------
      0.00000      0.00000      5.57149        -0.000000      0.000000     -0.086724
      0.00000      0.00000      4.42851         0.000000      0.000000      0.086724
 -----------------------------------------------------------------------------------
    total drift:                                0.000000      0.000000     -0.005840


--------------------------------------------------------------------------------------------------------



  FREE ENERGIE OF THE ION-ELECTRON SYSTEM (eV)
  ---------------------------------------------------
  free  energy   TOTEN  =       -14.81740101 eV

  energy  without entropy=      -14.83005903  energy(sigma->0) =      -14.82162035
 
 d Force = 0.7541872E-02[-0.105E-02, 0.161E-01]  d Energy = 0.7897769E-02-0.356E-03
 d Force = 0.3213718E+01[ 0.318E+01, 0.325E+01]  d Ewald  = 0.3213535E+01 0.183E-03


--------------------------------------------------------------------------------------------------------


    POTLOK:  cpu time    1.4186: real time    2.8582


--------------------------------------------------------------------------------------------------------




--------------------------------------------------------------------------------------------------------


    WAVPRE:  cpu time    0.0534: real time    0.0901
    FEWALD:  cpu time    0.0017: real time    0.0091
    ORTHCH:  cpu time    0.0022: real time    0.0022
     LOOP+:  cpu time    8.7102: real time   17.4672


--------------------------------------- Iteration     11(   1)  ---------------------------------------


    POTLOK:  cpu time    1.5117: real time    3.0321
    SETDIJ:  cpu time    0.0067: real time    0.0192
     EDDAV:  cpu time    0.1747: real time    0.3532
       DOS:  cpu time    0.0010: real time    0.0002
    CHARGE:  cpu time    0.0589: real time    0.1106
    MIXING:  cpu time    0.0104: real time    0.0197
    --------------------------------------------
      LOOP:  cpu time    1.7635: real time    3.5352

 eigenvalue-minimisations  :    42
 total energy-change (2. order) :-0.1191339E-03  (-0.1481384E-03)
 number of electron      10.0000042 magnetization       0.0660909
 augmentation part        0.6637239 magnetization       0.0026968

 Broyden mixing:
  rms(total) = 0.11587E-02    rms(broyden)= 0.11537E-02
  rms(prec ) = 0.14632E-02
  weight for this iteration     100.00

 Free energy of the ion-electron system (eV)
  ---------------------------------------------------
  alpha Z        PSCENC =         0.43084729
  Ewald energy   TEWEN  =        99.23888946
  -Hartree energ DENC   =      -581.62909937
  -exchange      EXHF   =         0.00000000
  -V(xc)+E(xc)   XCENC  =        41.10663557
  PAW double counting   =       377.36026811     -380.60346813
  entropy T*S    EENTRO =         0.01260446
  eigenvalues    EBANDS =      -151.08624602
  atomic energy  EATOM  =       580.35210216
  Solvation  Ediel_sol  =         0.00000000
  ---------------------------------------------------
  free energy    TOTEN  =       -14.81746646 eV

  energy without entropy =      -14.83007092  energy(sigma->0) =      -14.82166795


--------------------------------------------------------------------------------------------------------




--------------------------------------- Iteration     11(   2)  ---------------------------------------


    POTLOK:  cpu time    1.5021: real time    3.0142
    SETDIJ:  cpu time    0.0074: real time    0.0115
     EDDAV:  cpu time    0.1779: real time    0.3668
       DOS:  cpu time    0.0002: real time    0.0002
    --------------------------------------------
      LOOP:  cpu time    1.6876: real time    3.3928

 eigenvalue-minimisations  :    46
 total energy-change (2. order) :-0.2416879E-04  (-0.3533081E-05)
 number of electron      10.0000042 magnetization       0.0660909
 augmentation part        0.6637239 magnetization       0.0026968

 Free energy of the ion-electron system (eV)
  ---------------------------------------------------
  alpha Z        PSCENC =         0.43084729
  Ewald energy   TEWEN  =        99.23888946
  -Hartree energ DENC   =      -581.65243778
  -exchange      EXHF   =         0.00000000
  -V(xc)+E(xc)   XCENC  =        41.10801651
  PAW double counting   =       377.39408624     -380.63766776
  entropy T*S    EENTRO =         0.01263061
  eigenvalues    EBANDS =      -151.06395737
  atomic energy  EATOM  =       580.35210216
  Solvation  Ediel_sol  =         0.00000000
  ---------------------------------------------------
  free energy    TOTEN  =       -14.81749063 eV

  energy without entropy =      -14.83012125  energy(sigma->0) =      -14.82170084


--------------------------------------------------------------------------------------------------------




 average (electrostatic) potential at core
  the test charge radii are     0.6991  0.7215
  (the norm of the test charge is              1.0000)
       1 -62.6211       2 -84.2143
 
 
 
 E-fermi :  -8.7896     XC(G=0):  -0.5595     alpha+bet : -0.1758


 spin component 1

 k-point     1 :       0.0000    0.0000    0.0000
  band No.  band energies     occupation 
      1     -29.1995      1.00000
      2     -13.9868      1.00000
      3     -11.6907      1.00000
      4     -11.6907      1.00000
      5      -9.0614      1.03317
      6      -2.0959      0.00000
      7      -2.0959      0.00000
      8      -0.1607      0.00000
      9       1.1163      0.00000
     10       1.2161      0.00000

 spin component 2

 k-point     1 :       0.0000    0.0000    0.0000
  band No.  band energies     occupation 
      1     -29.1828      1.00000
      2     -13.9570      1.00000
      3     -11.6786      1.00000
      4     -11.6786      1.00000
      5      -8.9337      0.96683
      6      -2.0432      0.00000
      7      -2.0432      0.00000
      8      -0.1592      0.00000
      9       1.1197      0.00000
     10       1.2859      0.00000


--------------------------------------------------------------------------------------------------------


 soft charge-density along one line, spin component           1
         0         1         2         3         4         5         6         7         8         9
 total charge-density along one line
 
 soft charge-density along one line, spin component           2
         0         1         2         3         4         5         6         7         8         9
 total charge-density along one line
 
 pseudopotential strength for first ion, spin component:           1
 10.562   0.000   0.025   0.000  -0.000   0.000  -0.021   0.000  -0.000   0.000   0.000   0.000   0.020   0.000   0.000   0.000
  0.025   0.000  -0.001   0.000   0.000   0.000   0.001   0.000   0.000   0.000   0.000   0.000   0.000   0.000   0.000   0.000
 -0.000   0.000   0.000   0.000  -4.532   0.000   0.000   0.000   0.000   0.000  -0.012   0.000   0.000   0.000   0.000   0.000
 -0.021   0.000   0.001   0.000   0.000   0.000  -4.544   0.000   0.000   0.000   0.000   0.000  -0.022   0.000   0.000   0.000
 -0.000   0.000   0.000   0.000   0.000   0.000   0.000   0.000  -4.532   0.000   0.000   0.000   0.000   0.000  -0.012   0.000
  0.000   0.000   0.000   0.000  -0.012   0.000   0.000   0.000   0.000   0.000  -0.853   0.000   0.000   0.000   0.000   0.000
  0.020   0.000   0.000   0.000   0.000   0.000  -0.022   0.000   0.000   0.000   0.000   0.000  -0.853   0.000   0.000   0.000
  0.000   0.000   0.000   0.000   0.000   0.000   0.000   0.000  -0.012   0.000   0.000   0.000   0.000   0.000  -0.853   0.000
 pseudopotential strength for first ion, spin component:           2
 10.554   0.000   0.025   0.000   0.000   0.000  -0.023   0.000  -0.000   0.000  -0.000   0.000   0.021   0.000   0.000   0.000
  0.025   0.000  -0.001   0.000  -0.000   0.000   0.001   0.000   0.000   0.000  -0.000   0.000   0.000   0.000   0.000   0.000
  0.000   0.000  -0.000   0.000  -4.531   0.000   0.000   0.000   0.000   0.000  -0.010   0.000   0.000   0.000   0.000   0.000
 -0.023   0.000   0.001   0.000   0.000   0.000  -4.541   0.000  -0.000   0.000   0.000   0.000  -0.020   0.000  -0.000   0.000
 -0.000   0.000   0.000   0.000   0.000   0.000  -0.000   0.000  -4.531   0.000   0.000   0.000  -0.000   0.000  -0.010   0.000
 -0.000   0.000  -0.000   0.000  -0.010   0.000   0.000   0.000   0.000   0.000  -0.853   0.000   0.000   0.000   0.000   0.000
  0.021   0.000   0.000   0.000   0.000   0.000  -0.020   0.000  -0.000   0.000   0.000   0.000  -0.853   0.000  -0.000   0.000
  0.000   0.000   0.000   0.000   0.000   0.000  -0.000   0.000  -0.010   0.000   0.000   0.000  -0.000   0.000  -0.853   0.000
 total augmentation occupancy for first ion, spin component:           1
  1.860  -0.670   0.000   0.175   0.000   0.000  -0.115   0.000
 -0.670   1.278   0.000   0.934   0.000  -0.000   0.310   0.000
  0.000   0.000   0.599   0.000   0.000   0.089   0.000   0.000
  0.175   0.934  -0.000   1.513   0.000   0.000   0.264   0.000
  0.000   0.000   0.000   0.000   0.599   0.000   0.000   0.089
  0.000  -0.000   0.089   0.000   0.000   0.013  -0.000   0.000
 -0.115   0.310   0.000   0.264   0.000  -0.000   0.077   0.000
  0.000   0.000   0.000   0.000   0.089   0.000   0.000   0.013
 total augmentation occupancy for first ion, spin component:           2
  0.024   0.003  -0.000   0.031   0.000   0.000   0.002   0.000
  0.003   0.009   0.000   0.011   0.000  -0.000   0.002   0.000
 -0.000   0.000   0.003  -0.000   0.000   0.000   0.000   0.000
  0.031   0.011   0.000   0.038  -0.000  -0.000   0.003   0.000
  0.000   0.000   0.000   0.000   0.003   0.000   0.000   0.000
  0.000  -0.000   0.000  -0.000   0.000  -0.000   0.000   0.000
  0.002   0.002   0.000   0.003   0.000   0.000   0.000   0.000
  0.000   0.000   0.000   0.000   0.000   0.000   0.000  -0.000


------------------------ aborting loop because EDIFF is reached ----------------------------------------


    CHARGE:  cpu time    0.0573: real time    0.1105
    FORLOC:  cpu time    0.0197: real time    0.0518
    FORNL :  cpu time    0.0224: real time    0.0463
    STRESS:  cpu time    0.0886: real time    0.1754
    FORHAR:  cpu time    0.0709: real time    0.1310
    MIXING:  cpu time    0.0150: real time    0.0372
    OFIELD:  cpu time    0.0001: real time    0.0001

  FORCE on cell =-STRESS in cart. coord.  units (eV):
  Direction    XX          YY          ZZ          XY          YZ          ZX
  --------------------------------------------------------------------------------------
  Alpha Z     0.43085     0.43085     0.43085
  Ewald     -68.55924   -68.55924   236.35734     0.00000     0.00000     0.00000
  Hartree   157.47068   157.47068   266.75294    -0.00000    -0.00000    -0.00000
  E(xc)     -43.93527   -43.93527   -42.70498     0.00000    -0.00000    -0.00000
  Local    -226.08294  -226.08294  -614.15293    -0.00000    -0.00000    -0.00000
  n-local   -17.26192   -17.26192   -28.55111     0.00000     0.00000     0.00000
  augment     6.68133     6.68133     6.20204    -0.00000    -0.00000     0.00000
  Kinetic   190.46083   190.46081   174.87761    -0.00003    -0.00000    -0.00000
  Fock        0.00000     0.00000     0.00000     0.00000     0.00000     0.00000
  -------------------------------------------------------------------------------------
  Total      -0.79569    -0.79569    -0.78824     0.00000     0.00000     0.00000
  in kB      -1.27484    -1.27484    -1.26290     0.00000     0.00000     0.00000
  external pressure =       -1.27 kB  Pullay stress =        0.00 kB


 VOLUME and BASIS-vectors are now :
 -----------------------------------------------------------------------------
  energy-cutoff  :      400.00
  volume of cell :     1000.00
      direct lattice vectors                 reciprocal lattice vectors
    10.000000000  0.000000000  0.000000000     0.100000000  0.000000000  0.000000000
     0.000000000 10.000000000  0.000000000     0.000000000  0.100000000  0.000000000
     0.000000000  0.000000000 10.000000000     0.000000000  0.000000000  0.100000000

  length of vectors
    10.000000000 10.000000000 10.000000000     0.100000000  0.100000000  0.100000000


 FORCES acting on ions
    electron-ion (+dipol)            ewald-force                    non-local-force                 convergence-correction
 -----------------------------------------------------------------------------------------------
   0.447E-14 0.114E-13 -.235E+03   0.214E-16 -.522E-16 0.263E+03   0.000E+00 0.258E-25 -.284E+02   0.328E-13 0.169E-13 0.298E-02
   0.269E-14 0.174E-12 0.203E+03   0.214E-16 0.734E-16 -.263E+03   0.000E+00 0.969E-26 0.600E+02   0.788E-13 0.287E-13 -.328E-01
 -----------------------------------------------------------------------------------------------
   0.716E-14 0.185E-12 -.316E+02   0.428E-16 0.212E-16 0.000E+00   0.000E+00 0.355E-25 0.316E+02   0.112E-12 0.456E-13 -.299E-01
 
 
 POSITION                                       TOTAL-FORCE (eV/Angst)
 -----------------------------------------------------------------------------------
      0.00000      0.00000      5.57112         0.000000     -0.000000     -0.011492
      0.00000      0.00000      4.42888         0.000000      0.000000      0.011492
 -----------------------------------------------------------------------------------
    total drift:                                0.000000      0.000000     -0.007786


--------------------------------------------------------------------------------------------------------



  FREE ENERGIE OF THE ION-ELECTRON SYSTEM (eV)
  ---------------------------------------------------
  free  energy   TOTEN  =       -14.81749063 eV

  energy  without entropy=      -14.83012125  energy(sigma->0) =      -14.82170084
 
 d Force = 0.3626868E-04[ 0.849E-05, 0.641E-04]  d Energy = 0.8962357E-04-0.534E-04
 d Force =-0.1942338E+00[-0.194E+00,-0.194E+00]  d Ewald  =-0.1942338E+00-0.409E-07


--------------------------------------------------------------------------------------------------------


    POTLOK:  cpu time    1.4173: real time    2.8429


--------------------------------------------------------------------------------------------------------




--------------------------------------------------------------------------------------------------------


  
 reached required accuracy - stopping structural energy minimisation
 writing wavefunctions
     LOOP+:  cpu time    8.9433: real time   17.9585
    4ORBIT:  cpu time    0.0000: real time    0.0000

volume of typ            1:     0.3 %

volume of typ            2:     0.2 %
 
total charge     
 
# of ion       s       p       d       tot
------------------------------------------
    1        1.045   1.509   0.127   2.681
    2        1.479   3.309   0.049   4.838
--------------------------------------------------
tot           2.52    4.82    0.18    7.52
 
magnetization (x)
 
# of ion       s       p       d       tot
------------------------------------------
    1        0.013   0.023   0.000   0.035
    2       -0.000   0.005   0.000   0.005
--------------------------------------------------
tot           0.01    0.03    0.00    0.04
 
orbital moment (x)
 
# of ion     s             p             d             tot
-----------------------------------------------------------------
    1     0.000000E+00  0.560911E-14  0.763195E-15  0.637230E-14
    2     0.000000E+00  0.229380E-16 -0.137480E-15 -0.114542E-15
------------------------------------------------------------------------------
tot        0.000000E+00  0.563205E-14  0.625714E-15  0.625776E-14
 
orbital moment (y)
 
# of ion     s             p             d             tot
-----------------------------------------------------------------
    1     0.000000E+00  0.733253E-14  0.986904E-15  0.831943E-14
    2     0.000000E+00 -0.711207E-16 -0.148447E-15 -0.219568E-15
------------------------------------------------------------------------------
tot        0.000000E+00  0.726141E-14  0.838457E-15  0.809986E-14
 
orbital moment (z)
 
# of ion     s             p             d             tot
-----------------------------------------------------------------
    1     0.000000E+00  0.173612E-07  0.473939E-09  0.178351E-07
    2     0.000000E+00  0.133133E-07  0.460909E-09  0.137743E-07
------------------------------------------------------------------------------
tot        0.000000E+00  0.306745E-07  0.934848E-09  0.316094E-07
 
orbital moment (x)
 
# of ion     s             p             d             tot
-----------------------------------------------------------------
    1     0.000000E+00  0.663215E-13  0.430412E-12  0.496734E-12
    2     0.000000E+00 -0.155476E-11 -0.727215E-13 -0.162748E-11
------------------------------------------------------------------------------
tot        0.000000E+00 -0.148844E-11  0.357691E-12 -0.113075E-11
 
orbital moment (y)
 
# of ion     s             p             d             tot
-----------------------------------------------------------------
    1     0.000000E+00  0.270726E-12  0.175801E-11  0.202874E-11
    2     0.000000E+00 -0.635061E-11 -0.296996E-12 -0.664761E-11
------------------------------------------------------------------------------
tot        0.000000E+00 -0.607989E-11  0.146102E-11 -0.461887E-11
 
orbital moment (z)
 
# of ion     s             p             d             tot
-----------------------------------------------------------------
    1     0.000000E+00 -0.208713E-13 -0.127443E-14 -0.221458E-13
    2     0.000000E+00 -0.286091E-13 -0.191194E-14 -0.305210E-13
------------------------------------------------------------------------------
tot        0.000000E+00 -0.494804E-13 -0.318636E-14 -0.526668E-13
 

 total amount of memory used by VASP MPI-rank0    88159. kBytes
=======================================================================

   base      :      30000. kBytes
   nonl-proj :        722. kBytes
   fftplans  :      17904. kBytes
   grid      :      38080. kBytes
   one-center:          6. kBytes
   wavefun   :       1447. kBytes
 
  
  
 General timing and accounting informations for this job:
 ========================================================
  
                  Total CPU time used (sec):      359.029
                            User time (sec):      340.501
                          System time (sec):       18.528
                         Elapsed time (sec):      715.565
  
                   Maximum memory used (kb):      203332.
                   Average memory used (kb):           0.
  
                          Minor page faults:       690384
                          Major page faults:            0
                 Voluntary context switches:         1275
