PROCAR new format
# of k-points:    1         # of bands:   10         # of ions:    2

 k-point     1 :    0.00000000 0.00000000 0.00000000     weight = 1.00000000

band     1 # energy  -29.19954049 # occ.  1.00000000
 
ion      s      p      d    tot
    1  0.163  0.138  0.025  0.325
    2  0.580  0.090  0.006  0.676
tot    0.743  0.227  0.031  1.001
 
band     2 # energy  -13.98683500 # occ.  1.00000000
 
ion      s      p      d    tot
    1  0.182  0.017  0.001  0.200
    2  0.158  0.416  0.006  0.581
tot    0.340  0.433  0.007  0.780
 
band     3 # energy  -11.69066168 # occ.  1.00000000
 
ion      s      p      d    tot
    1  0.000  0.165  0.015  0.180
    2  0.000  0.510  0.006  0.516
tot    0.000  0.676  0.020  0.696
 
band     4 # energy  -11.69066168 # occ.  1.00000000
 
ion      s      p      d    tot
    1  0.000  0.165  0.015  0.180
    2  0.000  0.510  0.006  0.516
tot    0.000  0.676  0.020  0.696
 
band     5 # energy   -9.06138728 # occ.  1.03316777
 
ion      s      p      d    tot
    1  0.179  0.271  0.008  0.458
    2  0.001  0.126  0.001  0.128
tot    0.179  0.398  0.009  0.586
 
band     6 # energy   -2.09593446 # occ.  0.00000000
 
ion      s      p      d    tot
    1  0.000  0.317  0.007  0.324
    2  0.000  0.196  0.009  0.205
tot    0.000  0.513  0.016  0.529
 
band     7 # energy   -2.09593440 # occ.  0.00000000
 
ion      s      p      d    tot
    1  0.000  0.317  0.007  0.324
    2  0.000  0.196  0.009  0.205
tot    0.000  0.513  0.016  0.529
 
band     8 # energy   -0.16066996 # occ.  0.00000000
 
ion      s      p      d    tot
    1  0.006  0.006  0.000  0.013
    2  0.004  0.003  0.000  0.007
tot    0.010  0.009  0.000  0.020
 
band     9 # energy    1.11633284 # occ.  0.00000000
 
ion      s      p      d    tot
    1  0.001  0.000  0.002  0.003
    2  0.012  0.001  0.000  0.012
tot    0.013  0.001  0.002  0.015
 
band    10 # energy    1.21612380 # occ.  0.00000000
 
ion      s      p      d    tot
    1  0.000  0.026  0.000  0.026
    2  0.000  0.001  0.001  0.002
tot    0.000  0.027  0.002  0.028
 
# of k-points:    1         # of bands:   10         # of ions:    2

 k-point     1 :    0.00000000 0.00000000 0.00000000     weight = 1.00000000

band     1 # energy  -29.18277703 # occ.  1.00000000
 
ion      s      p      d    tot
    1  0.162  0.138  0.025  0.325
    2  0.581  0.089  0.006  0.676
tot    0.743  0.227  0.030  1.001
 
band     2 # energy  -13.95695766 # occ.  1.00000000
 
ion      s      p      d    tot
    1  0.180  0.018  0.001  0.199
    2  0.158  0.419  0.006  0.583
tot    0.338  0.437  0.007  0.782
 
band     3 # energy  -11.67857987 # occ.  1.00000000
 
ion      s      p      d    tot
    1  0.000  0.164  0.015  0.179
    2  0.000  0.512  0.006  0.518
tot    0.000  0.676  0.020  0.696
 
band     4 # energy  -11.67857987 # occ.  1.00000000
 
ion      s      p      d    tot
    1  0.000  0.164  0.015  0.179
    2  0.000  0.512  0.006  0.518
tot    0.000  0.676  0.020  0.696
 
band     5 # energy   -8.93374313 # occ.  0.96683223
 
ion      s      p      d    tot
    1  0.180  0.269  0.009  0.457
    2  0.001  0.124  0.001  0.126
tot    0.181  0.392  0.010  0.583
 
band     6 # energy   -2.04320845 # occ.  0.00000000
 
ion      s      p      d    tot
    1  0.000  0.317  0.007  0.323
    2  0.000  0.195  0.009  0.204
tot    0.000  0.511  0.016  0.527
 
band     7 # energy   -2.04320845 # occ.  0.00000000
 
ion      s      p      d    tot
    1  0.000  0.317  0.007  0.323
    2  0.000  0.195  0.009  0.204
tot    0.000  0.511  0.016  0.527
 
band     8 # energy   -0.15923679 # occ.  0.00000000
 
ion      s      p      d    tot
    1  0.006  0.006  0.000  0.013
    2  0.004  0.003  0.000  0.007
tot    0.010  0.009  0.000  0.019
 
band     9 # energy    1.11972269 # occ.  0.00000000
 
ion      s      p      d    tot
    1  0.001  0.000  0.002  0.003
    2  0.012  0.001  0.000  0.012
tot    0.013  0.001  0.002  0.015
 
band    10 # energy    1.28592957 # occ.  0.00000000
 
ion      s      p      d    tot
    1  0.014  0.007  0.000  0.021
    2  0.001  0.001  0.000  0.001
tot    0.015  0.007  0.000  0.022
 
