<?xml version="1.0" encoding="ISO-8859-1"?>
<modeling>
 <generator>
  <i name="program" type="string">vasp </i>
  <i name="version" type="string">5.4.4.18Apr17-6-g9f103f2a35  </i>
  <i name="subversion" type="string">(build May 18 2018 14:42:58) complex            parallel </i>
  <i name="platform" type="string">LinuxIFC </i>
  <i name="date" type="string">2020 06 17 </i>
  <i name="time" type="string">16:51:11 </i>
 </generator>
 <incar>
  <i type="string" name="SYSTEM"> CO-Spin</i>
  <i type="string" name="PREC">normal</i>
  <i type="int" name="ISPIN">     2</i>
  <i type="int" name="IBRION">     2</i>
  <i name="EDIFFG">     -0.02000000</i>
  <i type="int" name="NSW">    50</i>
  <i name="ENCUT">    400.00000000</i>
  <v name="RWIGS">      0.86300000      0.82000000</v>
  <v name="MAGMOM">      1.00000000      1.00000000</v>
  <i type="logical" name="LVTOT"> T  </i>
  <v type="int" name="KPOINT_BSE">    -1     0     0     0</v>
 </incar>
 <structure name="primitive_cell" >
  <crystal>
   <varray name="basis" >
    <v>      10.00000000       0.00000000       0.00000000 </v>
    <v>       0.00000000      10.00000000       0.00000000 </v>
    <v>       0.00000000       0.00000000      10.00000000 </v>
   </varray>
   <i name="volume">   1000.00000000 </i>
   <varray name="rec_basis" >
    <v>       0.10000000       0.00000000       0.00000000 </v>
    <v>       0.00000000       0.10000000       0.00000000 </v>
    <v>       0.00000000       0.00000000       0.10000000 </v>
   </varray>
  </crystal>
  <varray name="positions" >
   <v>       0.00000000       0.00000000      -0.45000000 </v>
   <v>       0.00000000       0.00000000       0.45000000 </v>
  </varray>
 </structure>
 <varray name="primitive_index" >
  <v type="int" >        1 </v>
  <v type="int" >        2 </v>
 </varray>
 <kpoints>
  <generation param="Gamma">
   <v type="int" name="divisions">       1        1        1 </v>
   <v name="usershift">      0.00000000       0.00000000       0.00000000 </v>
   <v name="genvec1">      1.00000000       0.00000000       0.00000000 </v>
   <v name="genvec2">      0.00000000       1.00000000       0.00000000 </v>
   <v name="genvec3">      0.00000000       0.00000000       1.00000000 </v>
   <v name="shift">      0.00000000       0.00000000       0.00000000 </v>
  </generation>
  <varray name="kpointlist" >
   <v>       0.00000000       0.00000000       0.00000000 </v>
  </varray>
  <varray name="weights" >
   <v>       1.00000000 </v>
  </varray>
 </kpoints>
 <parameters>
  <separator name="general" >
   <i type="string" name="SYSTEM">CO-Spin</i>
   <i type="logical" name="LCOMPAT"> F  </i>
  </separator>
  <separator name="electronic" >
   <i type="string" name="PREC">normal</i>
   <i name="ENMAX">    400.00000000</i>
   <i name="ENAUG">    644.87300000</i>
   <i name="EDIFF">      0.00010000</i>
   <i type="int" name="IALGO">    38</i>
   <i type="int" name="IWAVPR">    11</i>
   <i type="int" name="NBANDS">    10</i>
   <i name="NELECT">     10.00000000</i>
   <i type="int" name="TURBO">     0</i>
   <i type="int" name="IRESTART">     0</i>
   <i type="int" name="NREBOOT">     0</i>
   <i type="int" name="NMIN">     0</i>
   <i name="EREF">      0.00000000</i>
   <separator name="electronic smearing" >
    <i type="int" name="ISMEAR">     1</i>
    <i name="SIGMA">      0.20000000</i>
    <i name="KSPACING">      0.50000000</i>
    <i type="logical" name="KGAMMA"> T  </i>
   </separator>
   <separator name="electronic projectors" >
    <i type="logical" name="LREAL"> F  </i>
    <v name="ROPT">      0.00000000      0.00000000</v>
    <i type="int" name="LMAXPAW">  -100</i>
    <i type="int" name="LMAXMIX">     2</i>
    <i type="logical" name="NLSPLINE"> F  </i>
   </separator>
   <separator name="electronic startup" >
    <i type="int" name="ISTART">     0</i>
    <i type="int" name="ICHARG">     2</i>
    <i type="int" name="INIWAV">     1</i>
   </separator>
   <separator name="electronic spin" >
    <i type="int" name="ISPIN">     2</i>
    <i type="logical" name="LNONCOLLINEAR"> F  </i>
    <v name="MAGMOM">      1.00000000      1.00000000</v>
    <i name="NUPDOWN">     -1.00000000</i>
    <i type="logical" name="LSORBIT"> F  </i>
    <v name="SAXIS">      0.00000000      0.00000000      1.00000000</v>
    <i type="logical" name="LSPIRAL"> F  </i>
    <v name="QSPIRAL">      0.00000000      0.00000000      0.00000000</v>
    <i type="logical" name="LZEROZ"> F  </i>
   </separator>
   <separator name="electronic exchange-correlation" >
    <i type="logical" name="LASPH"> F  </i>
    <i type="logical" name="LMETAGGA"> F  </i>
   </separator>
   <separator name="electronic convergence" >
    <i type="int" name="NELM">    60</i>
    <i type="int" name="NELMDL">    -5</i>
    <i type="int" name="NELMIN">     2</i>
    <i name="ENINI">    400.00000000</i>
    <separator name="electronic convergence detail" >
     <i type="logical" name="LDIAG"> T  </i>
     <i type="logical" name="LSUBROT"> F  </i>
     <i name="WEIMIN">      0.00100000</i>
     <i name="EBREAK">      0.00000250</i>
     <i name="DEPER">      0.30000000</i>
     <i type="int" name="NRMM">     4</i>
     <i name="TIME">      0.40000000</i>
    </separator>
   </separator>
   <separator name="electronic mixer" >
    <i name="AMIX">      0.40000000</i>
    <i name="BMIX">      1.00000000</i>
    <i name="AMIN">      0.10000000</i>
    <i name="AMIX_MAG">      1.60000000</i>
    <i name="BMIX_MAG">      1.00000000</i>
    <separator name="electronic mixer details" >
     <i type="int" name="IMIX">     4</i>
     <i type="logical" name="MIXFIRST"> F  </i>
     <i type="int" name="MAXMIX">   -45</i>
     <i name="WC">    100.00000000</i>
     <i type="int" name="INIMIX">     1</i>
     <i type="int" name="MIXPRE">     1</i>
     <i type="int" name="MREMOVE">     5</i>
    </separator>
   </separator>
   <separator name="electronic dipolcorrection" >
    <i type="logical" name="LDIPOL"> F  </i>
    <i type="logical" name="LMONO"> F  </i>
    <i type="int" name="IDIPOL">     0</i>
    <i name="EPSILON">      1.00000000</i>
    <v name="DIPOL">   -100.00000000   -100.00000000   -100.00000000</v>
    <i name="EFIELD">      0.00000000</i>
   </separator>
  </separator>
  <separator name="grids" >
   <i type="int" name="NGX">    50</i>
   <i type="int" name="NGY">    50</i>
   <i type="int" name="NGZ">    50</i>
   <i type="int" name="NGXF">   100</i>
   <i type="int" name="NGYF">   100</i>
   <i type="int" name="NGZF">   100</i>
   <i type="logical" name="ADDGRID"> F  </i>
  </separator>
  <separator name="ionic" >
   <i type="int" name="NSW">    50</i>
   <i type="int" name="IBRION">     2</i>
   <i type="int" name="MDALGO">     0</i>
   <i type="int" name="ISIF">     2</i>
   <i name="PSTRESS">      0.00000000</i>
   <i name="EDIFFG">     -0.02000000</i>
   <i type="int" name="NFREE">     1</i>
   <i name="POTIM">      0.50000000</i>
   <i name="SMASS">     -3.00000000</i>
   <i name="SCALEE">      1.00000000</i>
  </separator>
  <separator name="ionic md" >
   <i name="TEBEG">      0.00010000</i>
   <i name="TEEND">      0.00010000</i>
   <i type="int" name="NBLOCK">     1</i>
   <i type="int" name="KBLOCK">    50</i>
   <i type="int" name="NPACO">   256</i>
   <i name="APACO">     16.00000000</i>
  </separator>
  <separator name="symmetry" >
   <i type="int" name="ISYM">     2</i>
   <i name="SYMPREC">      0.00001000</i>
  </separator>
  <separator name="dos" >
   <i type="int" name="LORBIT">     0</i>
   <v name="RWIGS">      0.86300000      0.82000000</v>
   <i type="int" name="NEDOS">   301</i>
   <i name="EMIN">     10.00000000</i>
   <i name="EMAX">    -10.00000000</i>
   <i name="EFERMI">      0.00000000</i>
  </separator>
  <separator name="writing" >
   <i type="int" name="NWRITE">     2</i>
   <i type="logical" name="LWAVE"> T  </i>
   <i type="logical" name="LDOWNSAMPLE"> F  </i>
   <i type="logical" name="LCHARG"> T  </i>
   <i type="logical" name="LPARD"> F  </i>
   <i type="logical" name="LVTOT"> T  </i>
   <i type="logical" name="LVHAR"> F  </i>
   <i type="logical" name="LELF"> F  </i>
   <i type="logical" name="LOPTICS"> F  </i>
   <v name="STM">      0.00000000      0.00000000      0.00000000      0.00000000      0.00000000      0.00000000      0.00000000</v>
  </separator>
  <separator name="performance" >
   <i type="int" name="NPAR">     1</i>
   <i type="int" name="NSIM">     4</i>
   <i type="int" name="NBLK">    -1</i>
   <i type="logical" name="LPLANE"> T  </i>
   <i type="logical" name="LSCALAPACK"> T  </i>
   <i type="logical" name="LSCAAWARE"> F  </i>
   <i type="logical" name="LSCALU"> F  </i>
   <i type="logical" name="LASYNC"> F  </i>
   <i type="logical" name="LORBITALREAL"> F  </i>
  </separator>
  <separator name="miscellaneous" >
   <i type="int" name="IDIOT">     3</i>
   <i type="int" name="ISPECIAL">     0</i>
   <i type="logical" name="LMUSIC"> F  </i>
   <v name="POMASS">     12.01100000     16.00000000</v>
   <v name="DARWINR">      0.00000000      0.00000000</v>
   <v name="DARWINV">      1.00000000      1.00000000</v>
   <i type="logical" name="LCORR"> T  </i>
  </separator>
  <i type="logical" name="GGA_COMPAT"> T  </i>
  <i type="logical" name="LBERRY"> F  </i>
  <i type="int" name="ICORELEVEL">     0</i>
  <i type="logical" name="LDAU"> F  </i>
  <i type="int" name="I_CONSTRAINED_M">     0</i>
  <separator name="electronic exchange-correlation" >
   <i type="string" name="GGA">--</i>
   <i type="int" name="VOSKOWN">     0</i>
   <i type="logical" name="LHFCALC"> F  </i>
   <i type="string" name="PRECFOCK"></i>
   <i type="logical" name="LSYMGRAD"> F  </i>
   <i type="logical" name="LHFONE"> F  </i>
   <i type="logical" name="LRHFCALC"> F  </i>
   <i type="logical" name="LTHOMAS"> F  </i>
   <i type="logical" name="LMODELHF"> F  </i>
   <i name="ENCUT4O">     -1.00000000</i>
   <i type="int" name="EXXOEP">     0</i>
   <i type="int" name="FOURORBIT">     0</i>
   <i name="AEXX">      0.00000000</i>
   <i name="HFALPHA">      0.00000000</i>
   <i name="MCALPHA">      0.00000000</i>
   <i name="ALDAX">      1.00000000</i>
   <i name="AGGAX">      1.00000000</i>
   <i name="ALDAC">      1.00000000</i>
   <i name="AGGAC">      1.00000000</i>
   <i type="int" name="NKREDX">     1</i>
   <i type="int" name="NKREDY">     1</i>
   <i type="int" name="NKREDZ">     1</i>
   <i type="logical" name="SHIFTRED"> F  </i>
   <i type="logical" name="ODDONLY"> F  </i>
   <i type="logical" name="EVENONLY"> F  </i>
   <i type="int" name="LMAXFOCK">     0</i>
   <i type="int" name="NMAXFOCKAE">     0</i>
   <i type="logical" name="LFOCKAEDFT"> F  </i>
   <i name="HFSCREEN">      0.00000000</i>
   <i name="HFSCREENC">      0.00000000</i>
   <i type="int" name="NBANDSGWLOW">     0</i>
  </separator>
  <separator name="vdW DFT" >
   <i type="logical" name="LUSE_VDW"> F  </i>
   <i name="Zab_VDW">     -0.84910000</i>
   <i name="PARAM1">      0.12340000</i>
   <i name="PARAM2">      1.00000000</i>
   <i name="PARAM3">      0.00000000</i>
  </separator>
  <separator name="model GW" >
   <i type="int" name="MODEL_GW">     0</i>
   <i name="MODEL_EPS0">    300.00000000</i>
   <i name="MODEL_ALPHA">      1.00000000</i>
  </separator>
  <separator name="linear response parameters" >
   <i type="logical" name="LEPSILON"> F  </i>
   <i type="logical" name="LRPA"> F  </i>
   <i type="logical" name="LNABLA"> F  </i>
   <i type="logical" name="LVEL"> F  </i>
   <i type="int" name="KINTER">     0</i>
   <i name="CSHIFT">      0.10000000</i>
   <i name="OMEGAMAX">     -1.00000000</i>
   <i name="DEG_THRESHOLD">      0.00200000</i>
   <i name="RTIME">     -0.10000000</i>
   <i name="WPLASMAI">      0.00000000</i>
   <v name="DFIELD">      0.00000000      0.00000000      0.00000000</v>
   <v name="WPLASMA">      0.00000000      0.00000000      0.00000000      0.00000000      0.00000000      0.00000000      0.00000000      0.00000000      0.00000000</v>
  </separator>
  <separator name="orbital magnetization" >
   <i type="logical" name="NUCIND"> F  </i>
   <v name="MAGPOS">      0.00000000      0.00000000      0.00000000</v>
   <i type="logical" name="LNICSALL"> T  </i>
   <i type="logical" name="ORBITALMAG"> F  </i>
   <i type="logical" name="LMAGBLOCH"> F  </i>
   <i type="logical" name="LCHIMAG"> F  </i>
   <i type="logical" name="LGAUGE"> T  </i>
   <i type="int" name="MAGATOM">     0</i>
   <v name="MAGDIPOL">      0.00000000      0.00000000      0.00000000</v>
   <v name="AVECCONST">      0.00000000      0.00000000      0.00000000</v>
  </separator>
  <separator name="response functions" >
   <i type="logical" name="LADDER"> F  </i>
   <i type="logical" name="LRPAFORCE"> F  </i>
   <i type="logical" name="LFXC"> F  </i>
   <i type="logical" name="LHARTREE"> T  </i>
   <i type="int" name="IBSE">     0</i>
   <v type="int" name="KPOINT">    -1     0     0     0</v>
   <i type="logical" name="LTCTE"> F  </i>
   <i type="logical" name="LTETE"> F  </i>
   <i type="logical" name="LTRIPLET"> F  </i>
   <i type="logical" name="LFXCEPS"> F  </i>
   <i type="logical" name="LFXHEG"> F  </i>
   <i type="int" name="NATURALO">     2</i>
   <i type="logical" name="L2ORDER"> F  </i>
   <i type="logical" name="LMP2LT"> F  </i>
   <i type="logical" name="LUSEW"> F  </i>
   <i name="ENCUTGW">     -2.00000000</i>
   <i name="ENCUTGWSOFT">     -2.00000000</i>
   <i name="ENCUTLF">     -1.00000000</i>
   <i type="int" name="LMAXMP2">    -1</i>
   <i name="SCISSOR">      0.00000000</i>
   <i type="int" name="NOMEGA">     0</i>
   <i type="int" name="NOMEGAR">     0</i>
   <i type="int" name="NBANDSGW">    -1</i>
   <i type="int" name="NBANDSO">    -1</i>
   <i type="int" name="NBANDSV">    -1</i>
   <i type="int" name="NELM">     1</i>
   <i type="int" name="NELMHF">     1</i>
   <i type="int" name="DIM">     3</i>
   <i type="int" name="ANTIRES">     0</i>
   <i name="OMEGAMAX">    -30.00000000</i>
   <i name="OMEGAMIN">    -30.00000000</i>
   <i name="OMEGATL">   -200.00000000</i>
   <i type="int" name="OMEGAGRID">   140</i>
   <i name="CSHIFT">     -0.10000000</i>
   <i type="logical" name="SELFENERGY"> F  </i>
   <i type="logical" name="LSPECTRAL"> F  </i>
   <i type="logical" name="LSPECTRALGW"> F  </i>
   <i type="logical" name="LSINGLES"> F  </i>
   <i type="logical" name="LFERMIGW"> F  </i>
   <i type="logical" name="ODDONLYGW"> F  </i>
   <i type="logical" name="EVENONLYGW"> F  </i>
   <i type="int" name="NKREDLFX">     1</i>
   <i type="int" name="NKREDLFY">     1</i>
   <i type="int" name="NKREDLFZ">     1</i>
   <i type="int" name="MAXMEM">  2800</i>
   <i type="int" name="TELESCOPE">     0</i>
   <i type="int" name="TAUPAR">     1</i>
   <i type="int" name="OMEGAPAR">    -1</i>
   <i name="LAMBDA">      1.00000000</i>
  </separator>
  <separator name="External order field" >
   <i name="OFIELD_KAPPA">      0.00000000</i>
   <v name="OFIELD_K">      0.00000000      0.00000000      0.00000000</v>
   <i name="OFIELD_Q6_NEAR">      0.00000000</i>
   <i name="OFIELD_Q6_FAR">      0.00000000</i>
   <i name="OFIELD_A">      0.00000000</i>
  </separator>
 </parameters>
 <atominfo>
  <atoms>       2 </atoms>
  <types>       2 </types>
  <array name="atoms" >
   <dimension dim="1">ion</dimension>
   <field type="string">element</field>
   <field type="int">atomtype</field>
   <set>
    <rc><c>C </c><c>   1</c></rc>
    <rc><c>O </c><c>   2</c></rc>
   </set>
  </array>
  <array name="atomtypes" >
   <dimension dim="1">type</dimension>
   <field type="int">atomspertype</field>
   <field type="string">element</field>
   <field>mass</field>
   <field>valence</field>
   <field type="string">pseudopotential</field>
   <set>
    <rc><c>   1</c><c>C </c><c>     12.01100000</c><c>      4.00000000</c><c> PAW_GGA C 05Jan2001                    </c></rc>
    <rc><c>   1</c><c>O </c><c>     16.00000000</c><c>      6.00000000</c><c> PAW_GGA O 05Jan2001                    </c></rc>
   </set>
  </array>
 </atominfo>
 <structure name="initialpos" >
  <crystal>
   <varray name="basis" >
    <v>      10.00000000       0.00000000       0.00000000 </v>
    <v>       0.00000000      10.00000000       0.00000000 </v>
    <v>       0.00000000       0.00000000      10.00000000 </v>
   </varray>
   <i name="volume">   1000.00000000 </i>
   <varray name="rec_basis" >
    <v>       0.10000000       0.00000000       0.00000000 </v>
    <v>       0.00000000       0.10000000       0.00000000 </v>
    <v>       0.00000000       0.00000000       0.10000000 </v>
   </varray>
  </crystal>
  <varray name="positions" >
   <v>       0.00000000       0.00000000       0.55000000 </v>
   <v>       0.00000000       0.00000000       0.45000000 </v>
  </varray>
 </structure>
 <calculation>
  <scstep>
   <time name="dav">    0.22    0.45</time>
   <time name="total">    1.76    3.57</time>
   <energy>
    <i name="alphaZ">      0.43084729 </i>
    <i name="ewald">    142.04706552 </i>
    <i name="hartreedc">   -583.41492833 </i>
    <i name="XCdc">     40.88822337 </i>
    <i name="pawpsdc">    284.04872827 </i>
    <i name="pawaedc">   -287.19049540 </i>
    <i name="eentropy">     -0.03416091 </i>
    <i name="bandstr">    -97.53678933 </i>
    <i name="atom">    580.35210216 </i>
    <i name="e_fr_energy">     79.59059265 </i>
    <i name="e_wo_entrp">     79.62475355 </i>
    <i name="e_0_energy">     79.60197962 </i>
   </energy>
  </scstep>
  <scstep>
   <time name="dav">    0.19    0.39</time>
   <time name="total">    0.19    0.39</time>
   <energy>
    <i name="e_fr_energy">     -5.10184407 </i>
    <i name="e_wo_entrp">     -5.10764198 </i>
    <i name="e_0_energy">     -5.10377671 </i>
   </energy>
  </scstep>
  <scstep>
   <time name="dav">    0.21    0.41</time>
   <time name="total">    0.21    0.41</time>
   <energy>
    <i name="e_fr_energy">    -13.99667255 </i>
    <i name="e_wo_entrp">    -14.00247045 </i>
    <i name="e_0_energy">    -13.99860518 </i>
   </energy>
  </scstep>
  <scstep>
   <time name="dav">    0.22    0.43</time>
   <time name="total">    0.22    0.43</time>
   <energy>
    <i name="e_fr_energy">    -14.12553621 </i>
    <i name="e_wo_entrp">    -14.13133411 </i>
    <i name="e_0_energy">    -14.12746884 </i>
   </energy>
  </scstep>
  <scstep>
   <time name="dav">    0.22    0.44</time>
   <time name="total">    0.30    0.60</time>
   <energy>
    <i name="e_fr_energy">    -14.12561836 </i>
    <i name="e_wo_entrp">    -14.13141626 </i>
    <i name="e_0_energy">    -14.12755099 </i>
   </energy>
  </scstep>
  <scstep>
   <time name="dav">    0.18    0.37</time>
   <time name="total">    1.77    3.56</time>
   <energy>
    <i name="e_fr_energy">    -10.79701059 </i>
    <i name="e_wo_entrp">    -10.80287493 </i>
    <i name="e_0_energy">    -10.79896537 </i>
   </energy>
  </scstep>
  <scstep>
   <time name="dav">    0.23    0.46</time>
   <time name="total">    1.84    3.68</time>
   <energy>
    <i name="e_fr_energy">    -12.26378028 </i>
    <i name="e_wo_entrp">    -12.27634731 </i>
    <i name="e_0_energy">    -12.26796929 </i>
   </energy>
  </scstep>
  <scstep>
   <time name="dav">    0.21    0.43</time>
   <time name="total">    1.84    3.69</time>
   <energy>
    <i name="e_fr_energy">    -12.98030220 </i>
    <i name="e_wo_entrp">    -12.98890410 </i>
    <i name="e_0_energy">    -12.98316950 </i>
   </energy>
  </scstep>
  <scstep>
   <time name="dav">    0.15    0.30</time>
   <time name="total">    1.83    3.66</time>
   <energy>
    <i name="e_fr_energy">    -13.10593100 </i>
    <i name="e_wo_entrp">    -13.11826049 </i>
    <i name="e_0_energy">    -13.11004083 </i>
   </energy>
  </scstep>
  <scstep>
   <time name="dav">    0.23    0.46</time>
   <time name="total">    1.87    3.75</time>
   <energy>
    <i name="e_fr_energy">    -13.15937195 </i>
    <i name="e_wo_entrp">    -13.17221439 </i>
    <i name="e_0_energy">    -13.16365277 </i>
   </energy>
  </scstep>
  <scstep>
   <time name="dav">    0.20    0.40</time>
   <time name="total">    1.84    3.71</time>
   <energy>
    <i name="e_fr_energy">    -13.15946844 </i>
    <i name="e_wo_entrp">    -13.17192890 </i>
    <i name="e_0_energy">    -13.16362193 </i>
   </energy>
  </scstep>
  <scstep>
   <time name="dav">    0.15    0.30</time>
   <time name="total">    1.79    3.59</time>
   <energy>
    <i name="e_fr_energy">    -13.16348900 </i>
    <i name="e_wo_entrp">    -13.17600803 </i>
    <i name="e_0_energy">    -13.16766201 </i>
   </energy>
  </scstep>
  <scstep>
   <time name="dav">    0.21    0.42</time>
   <time name="total">    1.86    3.74</time>
   <energy>
    <i name="e_fr_energy">    -13.16657463 </i>
    <i name="e_wo_entrp">    -13.17893790 </i>
    <i name="e_0_energy">    -13.17069572 </i>
   </energy>
  </scstep>
  <scstep>
   <time name="dav">    0.15    0.30</time>
   <time name="total">    1.79    3.60</time>
   <energy>
    <i name="e_fr_energy">    -13.16716749 </i>
    <i name="e_wo_entrp">    -13.17965891 </i>
    <i name="e_0_energy">    -13.17133130 </i>
   </energy>
  </scstep>
  <scstep>
   <time name="dav">    0.20    0.39</time>
   <time name="total">    1.84    3.68</time>
   <energy>
    <i name="e_fr_energy">    -13.16918835 </i>
    <i name="e_wo_entrp">    -13.18164744 </i>
    <i name="e_0_energy">    -13.17334138 </i>
   </energy>
  </scstep>
  <scstep>
   <time name="dav">    0.21    0.41</time>
   <time name="total">    1.85    3.71</time>
   <energy>
    <i name="e_fr_energy">    -13.17067759 </i>
    <i name="e_wo_entrp">    -13.18320291 </i>
    <i name="e_0_energy">    -13.17485270 </i>
   </energy>
  </scstep>
  <scstep>
   <time name="dav">    0.23    0.46</time>
   <time name="total">    1.91    3.83</time>
   <energy>
    <i name="e_fr_energy">    -13.17091468 </i>
    <i name="e_wo_entrp">    -13.18337073 </i>
    <i name="e_0_energy">    -13.17506670 </i>
   </energy>
  </scstep>
  <scstep>
   <time name="dav">    0.18    0.35</time>
   <time name="total">    1.88    3.77</time>
   <energy>
    <i name="e_fr_energy">    -13.17145609 </i>
    <i name="e_wo_entrp">    -13.18391749 </i>
    <i name="e_0_energy">    -13.17560989 </i>
   </energy>
  </scstep>
  <scstep>
   <time name="dav">    0.28    0.56</time>
   <time name="total">    1.94    3.89</time>
   <energy>
    <i name="e_fr_energy">    -13.17162539 </i>
    <i name="e_wo_entrp">    -13.18409110 </i>
    <i name="e_0_energy">    -13.17578063 </i>
   </energy>
  </scstep>
  <scstep>
   <time name="dav">    0.21    0.42</time>
   <time name="total">    1.75    3.50</time>
   <energy>
    <i name="alphaZ">      0.43084729 </i>
    <i name="ewald">    142.04706552 </i>
    <i name="hartreedc">   -614.81817948 </i>
    <i name="XCdc">     42.38648146 </i>
    <i name="pawpsdc">    434.89192088 </i>
    <i name="pawaedc">   -438.47361188 </i>
    <i name="eentropy">      0.01247495 </i>
    <i name="bandstr">   -160.00081904 </i>
    <i name="atom">    580.35210216 </i>
    <i name="e_fr_energy">    -13.17171816 </i>
    <i name="e_wo_entrp">    -13.18419311 </i>
    <i name="e_0_energy">    -13.17587647 </i>
   </energy>
  </scstep>
  <structure>
   <crystal>
    <varray name="basis" >
     <v>      10.00000000       0.00000000       0.00000000 </v>
     <v>       0.00000000      10.00000000       0.00000000 </v>
     <v>       0.00000000       0.00000000      10.00000000 </v>
    </varray>
    <i name="volume">   1000.00000000 </i>
    <varray name="rec_basis" >
     <v>       0.10000000       0.00000000       0.00000000 </v>
     <v>       0.00000000       0.10000000       0.00000000 </v>
     <v>       0.00000000       0.00000000       0.10000000 </v>
    </varray>
   </crystal>
   <varray name="positions" >
    <v>       0.00000000       0.00000000       0.55000000 </v>
    <v>       0.00000000       0.00000000       0.45000000 </v>
   </varray>
  </structure>
  <varray name="forces" >
   <v>       0.00000000       0.00000000      27.49446534 </v>
   <v>       0.00000000       0.00000000     -27.49446534 </v>
  </varray>
  <varray name="stress" >
   <v>      -1.30414396       0.00000000       0.00000000 </v>
   <v>       0.00000000      -1.30414396       0.00000000 </v>
   <v>      -0.00000000       0.00000000      42.82634922 </v>
  </varray>
  <energy>
   <i name="e_fr_energy">    -13.17171816 </i>
   <i name="e_wo_entrp">    -13.17587647 </i>
   <i name="e_0_energy">      0.01247495 </i>
  </energy>
  <time name="totalsc">   36.17   72.60</time>
 </calculation>
 <calculation>
  <scstep>
   <time name="dav">    0.22    0.44</time>
   <time name="total">    1.86    3.72</time>
   <energy>
    <i name="alphaZ">      0.43084729 </i>
    <i name="ewald">    -98.01660741 </i>
    <i name="hartreedc">   -407.10469616 </i>
    <i name="XCdc">     39.37385738 </i>
    <i name="pawpsdc">    434.89255086 </i>
    <i name="pawaedc">   -438.47420931 </i>
    <i name="eentropy">     -0.02496474 </i>
    <i name="bandstr">    -73.80061268 </i>
    <i name="atom">    580.35210216 </i>
    <i name="e_fr_energy">     37.62826739 </i>
    <i name="e_wo_entrp">     37.65323213 </i>
    <i name="e_0_energy">     37.63658897 </i>
   </energy>
  </scstep>
  <scstep>
   <time name="dav">    0.24    0.48</time>
   <time name="total">    1.85    3.71</time>
   <energy>
    <i name="e_fr_energy">    -23.89042173 </i>
    <i name="e_wo_entrp">    -23.89786750 </i>
    <i name="e_0_energy">    -23.89290365 </i>
   </energy>
  </scstep>
  <scstep>
   <time name="dav">    0.15    0.30</time>
   <time name="total">    1.77    3.55</time>
   <energy>
    <i name="e_fr_energy">    -16.00004709 </i>
    <i name="e_wo_entrp">    -16.01217427 </i>
    <i name="e_0_energy">    -16.00408949 </i>
   </energy>
  </scstep>
  <scstep>
   <time name="dav">    0.17    0.34</time>
   <time name="total">    1.83    3.67</time>
   <energy>
    <i name="e_fr_energy">     -1.75778146 </i>
    <i name="e_wo_entrp">     -1.54326068 </i>
    <i name="e_0_energy">     -1.68627453 </i>
   </energy>
  </scstep>
  <scstep>
   <time name="dav">    0.24    0.48</time>
   <time name="total">    1.85    3.71</time>
   <energy>
    <i name="e_fr_energy">     -8.36580685 </i>
    <i name="e_wo_entrp">     -8.39671615 </i>
    <i name="e_0_energy">     -8.37610995 </i>
   </energy>
  </scstep>
  <scstep>
   <time name="dav">    0.15    0.31</time>
   <time name="total">    1.80    3.62</time>
   <energy>
    <i name="e_fr_energy">     -1.30319186 </i>
    <i name="e_wo_entrp">     -1.29267189 </i>
    <i name="e_0_energy">     -1.29968520 </i>
   </energy>
  </scstep>
  <scstep>
   <time name="dav">    0.20    0.38</time>
   <time name="total">    1.82    3.65</time>
   <energy>
    <i name="e_fr_energy">     -1.29661552 </i>
    <i name="e_wo_entrp">     -1.22741343 </i>
    <i name="e_0_energy">     -1.27354816 </i>
   </energy>
  </scstep>
  <scstep>
   <time name="dav">    0.20    0.39</time>
   <time name="total">    1.80    3.61</time>
   <energy>
    <i name="e_fr_energy">     -1.38505676 </i>
    <i name="e_wo_entrp">     -1.32046183 </i>
    <i name="e_0_energy">     -1.36352512 </i>
   </energy>
  </scstep>
  <scstep>
   <time name="dav">    0.19    0.40</time>
   <time name="total">    1.81    3.63</time>
   <energy>
    <i name="e_fr_energy">     -1.36151773 </i>
    <i name="e_wo_entrp">     -1.29984522 </i>
    <i name="e_0_energy">     -1.34096023 </i>
   </energy>
  </scstep>
  <scstep>
   <time name="dav">    0.19    0.38</time>
   <time name="total">    1.83    3.65</time>
   <energy>
    <i name="e_fr_energy">     -8.67607977 </i>
    <i name="e_wo_entrp">     -8.68286812 </i>
    <i name="e_0_energy">     -8.67834255 </i>
   </energy>
  </scstep>
  <scstep>
   <time name="dav">    0.23    0.47</time>
   <time name="total">    1.90    3.81</time>
   <energy>
    <i name="e_fr_energy">     -4.80862144 </i>
    <i name="e_wo_entrp">     -4.84141290 </i>
    <i name="e_0_energy">     -4.81955193 </i>
   </energy>
  </scstep>
  <scstep>
   <time name="dav">    0.15    0.30</time>
   <time name="total">    1.79    3.59</time>
   <energy>
    <i name="e_fr_energy">     -1.92126809 </i>
    <i name="e_wo_entrp">     -1.96212378 </i>
    <i name="e_0_energy">     -1.93488666 </i>
   </energy>
  </scstep>
  <scstep>
   <time name="dav">    0.28    0.56</time>
   <time name="total">    1.98    3.97</time>
   <energy>
    <i name="e_fr_energy">     -3.65998680 </i>
    <i name="e_wo_entrp">     -3.66668354 </i>
    <i name="e_0_energy">     -3.66221905 </i>
   </energy>
  </scstep>
  <scstep>
   <time name="dav">    0.20    0.39</time>
   <time name="total">    1.88    3.75</time>
   <energy>
    <i name="e_fr_energy">     -4.20496767 </i>
    <i name="e_wo_entrp">     -4.21205816 </i>
    <i name="e_0_energy">     -4.20733117 </i>
   </energy>
  </scstep>
  <scstep>
   <time name="dav">    0.18    0.36</time>
   <time name="total">    1.81    3.64</time>
   <energy>
    <i name="e_fr_energy">     -4.57040813 </i>
    <i name="e_wo_entrp">     -4.57890495 </i>
    <i name="e_0_energy">     -4.57324040 </i>
   </energy>
  </scstep>
  <scstep>
   <time name="dav">    0.20    0.40</time>
   <time name="total">    1.84    3.69</time>
   <energy>
    <i name="e_fr_energy">     -4.25180188 </i>
    <i name="e_wo_entrp">     -4.26502401 </i>
    <i name="e_0_energy">     -4.25620926 </i>
   </energy>
  </scstep>
  <scstep>
   <time name="dav">    0.18    0.36</time>
   <time name="total">    1.86    3.72</time>
   <energy>
    <i name="e_fr_energy">     -3.59703042 </i>
    <i name="e_wo_entrp">     -3.61334808 </i>
    <i name="e_0_energy">     -3.60246964 </i>
   </energy>
  </scstep>
  <scstep>
   <time name="dav">    0.21    0.42</time>
   <time name="total">    1.88    3.77</time>
   <energy>
    <i name="e_fr_energy">     -3.15932376 </i>
    <i name="e_wo_entrp">     -3.18205050 </i>
    <i name="e_0_energy">     -3.16689934 </i>
   </energy>
  </scstep>
  <scstep>
   <time name="dav">    0.22    0.43</time>
   <time name="total">    1.88    3.77</time>
   <energy>
    <i name="e_fr_energy">     -3.02784911 </i>
    <i name="e_wo_entrp">     -3.05058694 </i>
    <i name="e_0_energy">     -3.03542839 </i>
   </energy>
  </scstep>
  <scstep>
   <time name="dav">    0.20    0.40</time>
   <time name="total">    1.86    3.72</time>
   <energy>
    <i name="e_fr_energy">     -2.91722852 </i>
    <i name="e_wo_entrp">     -2.93938699 </i>
    <i name="e_0_energy">     -2.92461468 </i>
   </energy>
  </scstep>
  <scstep>
   <time name="dav">    0.19    0.38</time>
   <time name="total">    1.87    3.76</time>
   <energy>
    <i name="e_fr_energy">     -2.73134702 </i>
    <i name="e_wo_entrp">     -2.77501003 </i>
    <i name="e_0_energy">     -2.74590135 </i>
   </energy>
  </scstep>
  <scstep>
   <time name="dav">    0.18    0.37</time>
   <time name="total">    1.86    3.72</time>
   <energy>
    <i name="e_fr_energy">     -2.47960719 </i>
    <i name="e_wo_entrp">     -2.50850309 </i>
    <i name="e_0_energy">     -2.48923916 </i>
   </energy>
  </scstep>
  <scstep>
   <time name="dav">    0.16    0.33</time>
   <time name="total">    1.86    3.73</time>
   <energy>
    <i name="e_fr_energy">     -3.02243807 </i>
    <i name="e_wo_entrp">     -3.07879114 </i>
    <i name="e_0_energy">     -3.04122243 </i>
   </energy>
  </scstep>
  <scstep>
   <time name="dav">    0.25    0.49</time>
   <time name="total">    1.91    3.83</time>
   <energy>
    <i name="e_fr_energy">     -3.28261829 </i>
    <i name="e_wo_entrp">     -3.30696408 </i>
    <i name="e_0_energy">     -3.29073355 </i>
   </energy>
  </scstep>
  <scstep>
   <time name="dav">    0.17    0.35</time>
   <time name="total">    1.85    3.71</time>
   <energy>
    <i name="e_fr_energy">     -3.53605114 </i>
    <i name="e_wo_entrp">     -3.55925757 </i>
    <i name="e_0_energy">     -3.54378662 </i>
   </energy>
  </scstep>
  <scstep>
   <time name="dav">    0.24    0.47</time>
   <time name="total">    1.91    3.83</time>
   <energy>
    <i name="e_fr_energy">     -3.67211273 </i>
    <i name="e_wo_entrp">     -3.69251699 </i>
    <i name="e_0_energy">     -3.67891415 </i>
   </energy>
  </scstep>
  <scstep>
   <time name="dav">    0.17    0.34</time>
   <time name="total">    1.88    3.77</time>
   <energy>
    <i name="e_fr_energy">     -3.53140459 </i>
    <i name="e_wo_entrp">     -3.55879502 </i>
    <i name="e_0_energy">     -3.54053474 </i>
   </energy>
  </scstep>
  <scstep>
   <time name="dav">    0.15    0.30</time>
   <time name="total">    1.84    3.68</time>
   <energy>
    <i name="e_fr_energy">     -3.37417647 </i>
    <i name="e_wo_entrp">     -3.40965134 </i>
    <i name="e_0_energy">     -3.38600143 </i>
   </energy>
  </scstep>
  <scstep>
   <time name="dav">    0.14    0.27</time>
   <time name="total">    1.81    3.63</time>
   <energy>
    <i name="e_fr_energy">     -3.34712788 </i>
    <i name="e_wo_entrp">     -3.38087575 </i>
    <i name="e_0_energy">     -3.35837717 </i>
   </energy>
  </scstep>
  <scstep>
   <time name="dav">    0.18    0.37</time>
   <time name="total">    1.83    3.68</time>
   <energy>
    <i name="e_fr_energy">     -3.26750862 </i>
    <i name="e_wo_entrp">     -3.31884348 </i>
    <i name="e_0_energy">     -3.28462024 </i>
   </energy>
  </scstep>
  <scstep>
   <time name="dav">    0.21    0.41</time>
   <time name="total">    1.93    3.86</time>
   <energy>
    <i name="e_fr_energy">     -4.06922143 </i>
    <i name="e_wo_entrp">     -4.08263213 </i>
    <i name="e_0_energy">     -4.07369166 </i>
   </energy>
  </scstep>
  <scstep>
   <time name="dav">    0.16    0.32</time>
   <time name="total">    1.86    3.73</time>
   <energy>
    <i name="e_fr_energy">     -3.32673427 </i>
    <i name="e_wo_entrp">     -3.36393884 </i>
    <i name="e_0_energy">     -3.33913580 </i>
   </energy>
  </scstep>
  <scstep>
   <time name="dav">    0.17    0.33</time>
   <time name="total">    1.86    3.71</time>
   <energy>
    <i name="e_fr_energy">     -2.90603667 </i>
    <i name="e_wo_entrp">     -2.92915341 </i>
    <i name="e_0_energy">     -2.91374225 </i>
   </energy>
  </scstep>
  <scstep>
   <time name="dav">    0.23    0.45</time>
   <time name="total">    1.95    3.92</time>
   <energy>
    <i name="e_fr_energy">     -3.91324741 </i>
    <i name="e_wo_entrp">     -3.93096532 </i>
    <i name="e_0_energy">     -3.91915338 </i>
   </energy>
  </scstep>
  <scstep>
   <time name="dav">    0.24    0.48</time>
   <time name="total">    1.95    3.91</time>
   <energy>
    <i name="e_fr_energy">     -3.01926989 </i>
    <i name="e_wo_entrp">     -3.00468081 </i>
    <i name="e_0_energy">     -3.01440686 </i>
   </energy>
  </scstep>
  <scstep>
   <time name="dav">    0.17    0.34</time>
   <time name="total">    1.87    3.75</time>
   <energy>
    <i name="e_fr_energy">     -3.34794665 </i>
    <i name="e_wo_entrp">     -3.37703611 </i>
    <i name="e_0_energy">     -3.35764313 </i>
   </energy>
  </scstep>
  <scstep>
   <time name="dav">    0.15    0.30</time>
   <time name="total">    1.87    3.77</time>
   <energy>
    <i name="e_fr_energy">     -3.12672026 </i>
    <i name="e_wo_entrp">     -3.19498533 </i>
    <i name="e_0_energy">     -3.14947528 </i>
   </energy>
  </scstep>
  <scstep>
   <time name="dav">    0.29    0.58</time>
   <time name="total">    2.00    4.01</time>
   <energy>
    <i name="e_fr_energy">     -2.97189410 </i>
    <i name="e_wo_entrp">     -2.91696573 </i>
    <i name="e_0_energy">     -2.95358464 </i>
   </energy>
  </scstep>
  <scstep>
   <time name="dav">    0.23    0.46</time>
   <time name="total">    1.94    3.90</time>
   <energy>
    <i name="e_fr_energy">     -3.05394284 </i>
    <i name="e_wo_entrp">     -3.05964134 </i>
    <i name="e_0_energy">     -3.05584234 </i>
   </energy>
  </scstep>
  <scstep>
   <time name="dav">    0.21    0.41</time>
   <time name="total">    1.91    3.82</time>
   <energy>
    <i name="e_fr_energy">     -3.20265210 </i>
    <i name="e_wo_entrp">     -3.25724068 </i>
    <i name="e_0_energy">     -3.22084829 </i>
   </energy>
  </scstep>
  <scstep>
   <time name="dav">    0.15    0.31</time>
   <time name="total">    1.92    3.87</time>
   <energy>
    <i name="e_fr_energy">     -3.09212869 </i>
    <i name="e_wo_entrp">     -3.14512979 </i>
    <i name="e_0_energy">     -3.10979572 </i>
   </energy>
  </scstep>
  <scstep>
   <time name="dav">    0.22    0.43</time>
   <time name="total">    1.95    3.90</time>
   <energy>
    <i name="e_fr_energy">     -3.08756577 </i>
    <i name="e_wo_entrp">     -3.13942374 </i>
    <i name="e_0_energy">     -3.10485176 </i>
   </energy>
  </scstep>
  <scstep>
   <time name="dav">    0.20    0.40</time>
   <time name="total">    1.93    3.86</time>
   <energy>
    <i name="e_fr_energy">     -3.14532325 </i>
    <i name="e_wo_entrp">     -3.19721859 </i>
    <i name="e_0_energy">     -3.16262169 </i>
   </energy>
  </scstep>
  <scstep>
   <time name="dav">    0.19    0.37</time>
   <time name="total">    1.95    3.90</time>
   <energy>
    <i name="e_fr_energy">     -3.16823220 </i>
    <i name="e_wo_entrp">     -3.21635479 </i>
    <i name="e_0_energy">     -3.18427307 </i>
   </energy>
  </scstep>
  <scstep>
   <time name="dav">    0.17    0.33</time>
   <time name="total">    1.91    3.84</time>
   <energy>
    <i name="e_fr_energy">     -3.13909113 </i>
    <i name="e_wo_entrp">     -3.18815758 </i>
    <i name="e_0_energy">     -3.15544661 </i>
   </energy>
  </scstep>
  <scstep>
   <time name="dav">    0.20    0.40</time>
   <time name="total">    1.96    3.94</time>
   <energy>
    <i name="e_fr_energy">     -3.13359458 </i>
    <i name="e_wo_entrp">     -3.18149405 </i>
    <i name="e_0_energy">     -3.14956107 </i>
   </energy>
  </scstep>
  <scstep>
   <time name="dav">    0.19    0.38</time>
   <time name="total">    1.91    3.84</time>
   <energy>
    <i name="e_fr_energy">     -3.07729222 </i>
    <i name="e_wo_entrp">     -3.10499555 </i>
    <i name="e_0_energy">     -3.08652666 </i>
   </energy>
  </scstep>
  <scstep>
   <time name="dav">    0.25    0.49</time>
   <time name="total">    2.01    4.04</time>
   <energy>
    <i name="e_fr_energy">     -3.05735660 </i>
    <i name="e_wo_entrp">     -3.07919656 </i>
    <i name="e_0_energy">     -3.06463658 </i>
   </energy>
  </scstep>
  <scstep>
   <time name="dav">    0.25    0.51</time>
   <time name="total">    2.01    4.02</time>
   <energy>
    <i name="e_fr_energy">     -3.06255598 </i>
    <i name="e_wo_entrp">     -3.08951748 </i>
    <i name="e_0_energy">     -3.07154314 </i>
   </energy>
  </scstep>
  <scstep>
   <time name="dav">    0.16    0.32</time>
   <time name="total">    1.91    3.85</time>
   <energy>
    <i name="e_fr_energy">     -3.07287765 </i>
    <i name="e_wo_entrp">     -3.10802625 </i>
    <i name="e_0_energy">     -3.08459385 </i>
   </energy>
  </scstep>
  <scstep>
   <time name="dav">    0.18    0.35</time>
   <time name="total">    1.96    3.92</time>
   <energy>
    <i name="e_fr_energy">     -3.08336836 </i>
    <i name="e_wo_entrp">     -3.12186667 </i>
    <i name="e_0_energy">     -3.09620113 </i>
   </energy>
  </scstep>
  <scstep>
   <time name="dav">    0.15    0.32</time>
   <time name="total">    1.87    3.74</time>
   <energy>
    <i name="e_fr_energy">     -3.06718529 </i>
    <i name="e_wo_entrp">     -3.07928630 </i>
    <i name="e_0_energy">     -3.07121896 </i>
   </energy>
  </scstep>
  <scstep>
   <time name="dav">    0.18    0.35</time>
   <time name="total">    1.91    3.84</time>
   <energy>
    <i name="e_fr_energy">     -3.06552097 </i>
    <i name="e_wo_entrp">     -3.08946390 </i>
    <i name="e_0_energy">     -3.07350195 </i>
   </energy>
  </scstep>
  <scstep>
   <time name="dav">    0.18    0.35</time>
   <time name="total">    1.91    3.85</time>
   <energy>
    <i name="e_fr_energy">     -3.07219163 </i>
    <i name="e_wo_entrp">     -3.10121161 </i>
    <i name="e_0_energy">     -3.08186496 </i>
   </energy>
  </scstep>
  <scstep>
   <time name="dav">    0.15    0.29</time>
   <time name="total">    1.89    3.80</time>
   <energy>
    <i name="e_fr_energy">     -3.07436775 </i>
    <i name="e_wo_entrp">     -3.10508780 </i>
    <i name="e_0_energy">     -3.08460777 </i>
   </energy>
  </scstep>
  <scstep>
   <time name="dav">    0.16    0.32</time>
   <time name="total">    1.91    3.84</time>
   <energy>
    <i name="e_fr_energy">     -3.07501590 </i>
    <i name="e_wo_entrp">     -3.10470469 </i>
    <i name="e_0_energy">     -3.08491216 </i>
   </energy>
  </scstep>
  <scstep>
   <time name="dav">    0.21    0.42</time>
   <time name="total">    1.96    3.93</time>
   <energy>
    <i name="e_fr_energy">     -3.05770634 </i>
    <i name="e_wo_entrp">     -3.05133285 </i>
    <i name="e_0_energy">     -3.05558184 </i>
   </energy>
  </scstep>
  <scstep>
   <time name="dav">    0.24    0.48</time>
   <time name="total">    1.96    3.91</time>
   <energy>
    <i name="e_fr_energy">     -3.05198471 </i>
    <i name="e_wo_entrp">     -3.05855191 </i>
    <i name="e_0_energy">     -3.05417378 </i>
   </energy>
  </scstep>
  <scstep>
   <time name="dav">    0.26    0.52</time>
   <time name="total">    1.98    3.97</time>
   <energy>
    <i name="e_fr_energy">     -3.05232440 </i>
    <i name="e_wo_entrp">     -3.06348961 </i>
    <i name="e_0_energy">     -3.05604614 </i>
   </energy>
  </scstep>
  <scstep>
   <time name="dav">    0.20    0.39</time>
   <time name="total">    1.74    3.49</time>
   <energy>
    <i name="alphaZ">      0.43084729 </i>
    <i name="ewald">    -98.01660741 </i>
    <i name="hartreedc">   -400.51571507 </i>
    <i name="XCdc">     38.66580474 </i>
    <i name="pawpsdc">    291.22171934 </i>
    <i name="pawaedc">   -294.31937602 </i>
    <i name="eentropy">      0.01035359 </i>
    <i name="bandstr">   -120.87931756 </i>
    <i name="atom">    580.35210216 </i>
    <i name="e_fr_energy">     -3.05018893 </i>
    <i name="e_wo_entrp">     -3.06054252 </i>
    <i name="e_0_energy">     -3.05364013 </i>
   </energy>
  </scstep>
  <structure>
   <crystal>
    <varray name="basis" >
     <v>      10.00000000       0.00000000       0.00000000 </v>
     <v>       0.00000000      10.00000000       0.00000000 </v>
     <v>       0.00000000       0.00000000      10.00000000 </v>
    </varray>
    <i name="volume">   1000.00000000 </i>
    <varray name="rec_basis" >
     <v>       0.10000000       0.00000000       0.00000000 </v>
     <v>       0.00000000       0.10000000       0.00000000 </v>
     <v>       0.00000000       0.00000000       0.10000000 </v>
    </varray>
   </crystal>
   <varray name="positions" >
    <v>       0.00000000       0.00000000       0.68264060 </v>
    <v>       0.00000000       0.00000000       0.31735940 </v>
   </varray>
  </structure>
  <varray name="forces" >
   <v>       0.00000000      -0.00000000      -0.28717465 </v>
   <v>       0.00000000       0.00000000       0.28717465 </v>
  </varray>
  <varray name="stress" >
   <v>      -3.64700460       0.00000000       0.00000000 </v>
   <v>       0.00000000      -3.64700460       0.00000000 </v>
   <v>       0.00000000       0.00000000      -8.70469139 </v>
  </varray>
  <energy>
   <i name="e_fr_energy">     -3.05018893 </i>
   <i name="e_wo_entrp">     -3.05364013 </i>
   <i name="e_0_energy">      0.01035359 </i>
  </energy>
  <time name="totalsc">  115.16  230.99</time>
 </calculation>
 <calculation>
  <scstep>
   <time name="dav">    0.20    0.39</time>
   <time name="total">    1.83    3.68</time>
   <energy>
    <i name="alphaZ">      0.43084729 </i>
    <i name="ewald">    -97.50656373 </i>
    <i name="hartreedc">   -400.99166243 </i>
    <i name="XCdc">     38.66025790 </i>
    <i name="pawpsdc">    291.18117092 </i>
    <i name="pawaedc">   -294.27773804 </i>
    <i name="eentropy">      0.00146559 </i>
    <i name="bandstr">   -120.88897566 </i>
    <i name="atom">    580.35210216 </i>
    <i name="e_fr_energy">     -3.03909600 </i>
    <i name="e_wo_entrp">     -3.04056160 </i>
    <i name="e_0_energy">     -3.03958453 </i>
   </energy>
  </scstep>
  <scstep>
   <time name="dav">    0.17    0.34</time>
   <time name="total">    1.76    3.77</time>
   <energy>
    <i name="e_fr_energy">     -3.86299770 </i>
    <i name="e_wo_entrp">     -3.90886911 </i>
    <i name="e_0_energy">     -3.87828817 </i>
   </energy>
  </scstep>
  <scstep>
   <time name="dav">    0.14    0.29</time>
   <time name="total">    1.73    3.47</time>
   <energy>
    <i name="e_fr_energy">     -3.05167512 </i>
    <i name="e_wo_entrp">     -3.09873476 </i>
    <i name="e_0_energy">     -3.06736166 </i>
   </energy>
  </scstep>
  <scstep>
   <time name="dav">    0.14    0.28</time>
   <time name="total">    1.74    3.48</time>
   <energy>
    <i name="e_fr_energy">     -3.15315947 </i>
    <i name="e_wo_entrp">     -3.20190446 </i>
    <i name="e_0_energy">     -3.16940780 </i>
   </energy>
  </scstep>
  <scstep>
   <time name="dav">    0.16    0.31</time>
   <time name="total">    1.77    3.54</time>
   <energy>
    <i name="e_fr_energy">     -3.10294182 </i>
    <i name="e_wo_entrp">     -3.14880267 </i>
    <i name="e_0_energy">     -3.11822877 </i>
   </energy>
  </scstep>
  <scstep>
   <time name="dav">    0.13    0.27</time>
   <time name="total">    1.75    3.52</time>
   <energy>
    <i name="e_fr_energy">     -3.13056368 </i>
    <i name="e_wo_entrp">     -3.15570741 </i>
    <i name="e_0_energy">     -3.13894492 </i>
   </energy>
  </scstep>
  <scstep>
   <time name="dav">    0.13    0.25</time>
   <time name="total">    1.76    3.54</time>
   <energy>
    <i name="e_fr_energy">     -3.14074792 </i>
    <i name="e_wo_entrp">     -3.16526743 </i>
    <i name="e_0_energy">     -3.14892109 </i>
   </energy>
  </scstep>
  <scstep>
   <time name="dav">    0.15    0.29</time>
   <time name="total">    1.75    3.51</time>
   <energy>
    <i name="e_fr_energy">     -3.13790037 </i>
    <i name="e_wo_entrp">     -3.15562035 </i>
    <i name="e_0_energy">     -3.14380703 </i>
   </energy>
  </scstep>
  <scstep>
   <time name="dav">    0.16    0.35</time>
   <time name="total">    1.79    3.59</time>
   <energy>
    <i name="e_fr_energy">     -3.13964015 </i>
    <i name="e_wo_entrp">     -3.14543795 </i>
    <i name="e_0_energy">     -3.14157275 </i>
   </energy>
  </scstep>
  <scstep>
   <time name="dav">    0.13    0.27</time>
   <time name="total">    1.75    3.50</time>
   <energy>
    <i name="e_fr_energy">     -3.14304580 </i>
    <i name="e_wo_entrp">     -3.14227960 </i>
    <i name="e_0_energy">     -3.14279040 </i>
   </energy>
  </scstep>
  <scstep>
   <time name="dav">    0.17    0.34</time>
   <time name="total">    1.82    3.63</time>
   <energy>
    <i name="e_fr_energy">     -3.14493239 </i>
    <i name="e_wo_entrp">     -3.14338439 </i>
    <i name="e_0_energy">     -3.14441639 </i>
   </energy>
  </scstep>
  <scstep>
   <time name="dav">    0.14    0.29</time>
   <time name="total">    1.76    3.54</time>
   <energy>
    <i name="e_fr_energy">     -3.14579132 </i>
    <i name="e_wo_entrp">     -3.14496546 </i>
    <i name="e_0_energy">     -3.14551603 </i>
   </energy>
  </scstep>
  <scstep>
   <time name="dav">    0.16    0.34</time>
   <time name="total">    1.78    3.58</time>
   <energy>
    <i name="e_fr_energy">     -3.14685505 </i>
    <i name="e_wo_entrp">     -3.14643734 </i>
    <i name="e_0_energy">     -3.14671581 </i>
   </energy>
  </scstep>
  <scstep>
   <time name="dav">    0.17    0.35</time>
   <time name="total">    1.79    3.57</time>
   <energy>
    <i name="e_fr_energy">     -3.14738656 </i>
    <i name="e_wo_entrp">     -3.14607156 </i>
    <i name="e_0_energy">     -3.14694823 </i>
   </energy>
  </scstep>
  <scstep>
   <time name="dav">    0.16    0.32</time>
   <time name="total">    1.76    3.54</time>
   <energy>
    <i name="e_fr_energy">     -3.14775567 </i>
    <i name="e_wo_entrp">     -3.14730957 </i>
    <i name="e_0_energy">     -3.14760697 </i>
   </energy>
  </scstep>
  <scstep>
   <time name="dav">    0.13    0.27</time>
   <time name="total">    1.75    3.52</time>
   <energy>
    <i name="e_fr_energy">     -3.14791876 </i>
    <i name="e_wo_entrp">     -3.14741304 </i>
    <i name="e_0_energy">     -3.14775019 </i>
   </energy>
  </scstep>
  <scstep>
   <time name="dav">    0.11    0.23</time>
   <time name="total">    1.65    3.30</time>
   <energy>
    <i name="alphaZ">      0.43084729 </i>
    <i name="ewald">    -97.50656373 </i>
    <i name="hartreedc">   -401.37648090 </i>
    <i name="XCdc">     38.87578502 </i>
    <i name="pawpsdc">    291.61619800 </i>
    <i name="pawaedc">   -294.73019102 </i>
    <i name="eentropy">     -0.00060225 </i>
    <i name="bandstr">   -120.80908512 </i>
    <i name="atom">    580.35210216 </i>
    <i name="e_fr_energy">     -3.14799055 </i>
    <i name="e_wo_entrp">     -3.14738830 </i>
    <i name="e_0_energy">     -3.14778980 </i>
   </energy>
  </scstep>
  <structure>
   <crystal>
    <varray name="basis" >
     <v>      10.00000000       0.00000000       0.00000000 </v>
     <v>       0.00000000      10.00000000       0.00000000 </v>
     <v>       0.00000000       0.00000000      10.00000000 </v>
    </varray>
    <i name="volume">   1000.00000000 </i>
    <varray name="rec_basis" >
     <v>       0.10000000       0.00000000       0.00000000 </v>
     <v>       0.00000000       0.10000000       0.00000000 </v>
     <v>       0.00000000       0.00000000       0.10000000 </v>
    </varray>
   </crystal>
   <varray name="positions" >
    <v>       0.00000000       0.00000000       0.68126951 </v>
    <v>       0.00000000       0.00000000       0.31873049 </v>
   </varray>
  </structure>
  <varray name="forces" >
   <v>       0.00000000       0.00000000      -0.20590070 </v>
   <v>       0.00000000       0.00000000       0.20590070 </v>
  </varray>
  <varray name="stress" >
   <v>      -1.58768231       0.00000000       0.00000000 </v>
   <v>       0.00000000      -1.58768231       0.00000000 </v>
   <v>      -0.00000000       0.00000000      -3.08368221 </v>
  </varray>
  <energy>
   <i name="e_fr_energy">     -3.14799055 </i>
   <i name="e_wo_entrp">     -3.14778980 </i>
   <i name="e_0_energy">     -0.00060225 </i>
  </energy>
  <time name="totalsc">   31.72   63.91</time>
 </calculation>
 <calculation>
  <scstep>
   <time name="dav">    0.13    0.27</time>
   <time name="total">    1.72    3.44</time>
   <energy>
    <i name="alphaZ">      0.43084729 </i>
    <i name="ewald">    -97.13539780 </i>
    <i name="hartreedc">   -401.74428810 </i>
    <i name="XCdc">     38.87624434 </i>
    <i name="pawpsdc">    291.61487820 </i>
    <i name="pawaedc">   -294.72886070 </i>
    <i name="eentropy">     -0.00125489 </i>
    <i name="bandstr">   -120.81272952 </i>
    <i name="atom">    580.35210216 </i>
    <i name="e_fr_energy">     -3.14845902 </i>
    <i name="e_wo_entrp">     -3.14720414 </i>
    <i name="e_0_energy">     -3.14804073 </i>
   </energy>
  </scstep>
  <scstep>
   <time name="dav">    0.15    0.32</time>
   <time name="total">    1.75    3.51</time>
   <energy>
    <i name="e_fr_energy">     -3.14981891 </i>
    <i name="e_wo_entrp">     -3.15076916 </i>
    <i name="e_0_energy">     -3.15013566 </i>
   </energy>
  </scstep>
  <scstep>
   <time name="dav">    0.17    0.34</time>
   <time name="total">    1.78    3.56</time>
   <energy>
    <i name="e_fr_energy">     -3.15186925 </i>
    <i name="e_wo_entrp">     -3.14080016 </i>
    <i name="e_0_energy">     -3.14817955 </i>
   </energy>
  </scstep>
  <scstep>
   <time name="dav">    0.17    0.35</time>
   <time name="total">    1.77    3.55</time>
   <energy>
    <i name="e_fr_energy">     -3.15094681 </i>
    <i name="e_wo_entrp">     -3.15182187 </i>
    <i name="e_0_energy">     -3.15123850 </i>
   </energy>
  </scstep>
  <scstep>
   <time name="dav">    0.17    0.35</time>
   <time name="total">    1.77    3.55</time>
   <energy>
    <i name="e_fr_energy">     -3.15178051 </i>
    <i name="e_wo_entrp">     -3.15163688 </i>
    <i name="e_0_energy">     -3.15173264 </i>
   </energy>
  </scstep>
  <scstep>
   <time name="dav">    0.15    0.30</time>
   <time name="total">    1.76    3.53</time>
   <energy>
    <i name="e_fr_energy">     -3.15203933 </i>
    <i name="e_wo_entrp">     -3.15114980 </i>
    <i name="e_0_energy">     -3.15174282 </i>
   </energy>
  </scstep>
  <scstep>
   <time name="dav">    0.11    0.22</time>
   <time name="total">    1.63    3.27</time>
   <energy>
    <i name="alphaZ">      0.43084729 </i>
    <i name="ewald">    -97.13539780 </i>
    <i name="hartreedc">   -401.72648749 </i>
    <i name="XCdc">     38.87093306 </i>
    <i name="pawpsdc">    291.59457019 </i>
    <i name="pawaedc">   -294.70791932 </i>
    <i name="eentropy">     -0.00093699 </i>
    <i name="bandstr">   -120.82982910 </i>
    <i name="atom">    580.35210216 </i>
    <i name="e_fr_energy">     -3.15211800 </i>
    <i name="e_wo_entrp">     -3.15118101 </i>
    <i name="e_0_energy">     -3.15180567 </i>
   </energy>
  </scstep>
  <structure>
   <crystal>
    <varray name="basis" >
     <v>      10.00000000       0.00000000       0.00000000 </v>
     <v>       0.00000000      10.00000000       0.00000000 </v>
     <v>       0.00000000       0.00000000      10.00000000 </v>
    </varray>
    <i name="volume">   1000.00000000 </i>
    <varray name="rec_basis" >
     <v>       0.10000000       0.00000000       0.00000000 </v>
     <v>       0.00000000       0.10000000       0.00000000 </v>
     <v>       0.00000000       0.00000000       0.10000000 </v>
    </varray>
   </crystal>
   <varray name="positions" >
    <v>       0.00000000       0.00000000       0.68029377 </v>
    <v>       0.00000000       0.00000000       0.31970623 </v>
   </varray>
  </structure>
  <varray name="forces" >
   <v>      -0.00000000      -0.00000000      -0.21327250 </v>
   <v>       0.00000000       0.00000000       0.21327250 </v>
  </varray>
  <varray name="stress" >
   <v>      -1.57248890       0.00000000       0.00000000 </v>
   <v>       0.00000000      -1.57248890       0.00000000 </v>
   <v>       0.00000000       0.00000000      -3.12229720 </v>
  </varray>
  <energy>
   <i name="e_fr_energy">     -3.15211800 </i>
   <i name="e_wo_entrp">     -3.15180567 </i>
   <i name="e_0_energy">     -0.00093699 </i>
  </energy>
  <time name="totalsc">   13.93   27.93</time>
 </calculation>
 <calculation>
  <scstep>
   <time name="dav">    0.14    0.27</time>
   <time name="total">    1.74    3.49</time>
   <energy>
    <i name="alphaZ">      0.43084729 </i>
    <i name="ewald">    -50.07066720 </i>
    <i name="hartreedc">   -450.29479230 </i>
    <i name="XCdc">     76.20113936 </i>
    <i name="pawpsdc">    291.59613767 </i>
    <i name="pawaedc">   -294.70950940 </i>
    <i name="eentropy">      0.00579791 </i>
    <i name="bandstr">    -98.58527848 </i>
    <i name="atom">    580.35210216 </i>
    <i name="e_fr_energy">     54.92577701 </i>
    <i name="e_wo_entrp">     54.91997910 </i>
    <i name="e_0_energy">     54.92384437 </i>
   </energy>
  </scstep>
  <scstep>
   <time name="dav">    0.13    0.27</time>
   <time name="total">    1.73    3.47</time>
   <energy>
    <i name="e_fr_energy">     -6.03023814 </i>
    <i name="e_wo_entrp">     -6.04360758 </i>
    <i name="e_0_energy">     -6.03469462 </i>
   </energy>
  </scstep>
  <scstep>
   <time name="dav">    0.16    0.33</time>
   <time name="total">    1.78    3.57</time>
   <energy>
    <i name="e_fr_energy">     -2.94432156 </i>
    <i name="e_wo_entrp">     -2.95592045 </i>
    <i name="e_0_energy">     -2.94818785 </i>
   </energy>
  </scstep>
  <scstep>
   <time name="dav">    0.15    0.30</time>
   <time name="total">    1.76    3.53</time>
   <energy>
    <i name="e_fr_energy">     -5.63385462 </i>
    <i name="e_wo_entrp">     -5.65966457 </i>
    <i name="e_0_energy">     -5.64245794 </i>
   </energy>
  </scstep>
  <scstep>
   <time name="dav">    0.16    0.31</time>
   <time name="total">    1.76    3.52</time>
   <energy>
    <i name="e_fr_energy">     -4.40597024 </i>
    <i name="e_wo_entrp">     -4.41767773 </i>
    <i name="e_0_energy">     -4.40987274 </i>
   </energy>
  </scstep>
  <scstep>
   <time name="dav">    0.16    0.33</time>
   <time name="total">    1.75    3.51</time>
   <energy>
    <i name="e_fr_energy">     -4.70771410 </i>
    <i name="e_wo_entrp">     -4.71931218 </i>
    <i name="e_0_energy">     -4.71158013 </i>
   </energy>
  </scstep>
  <scstep>
   <time name="dav">    0.16    0.33</time>
   <time name="total">    1.78    3.57</time>
   <energy>
    <i name="e_fr_energy">     -4.88600497 </i>
    <i name="e_wo_entrp">     -4.89760711 </i>
    <i name="e_0_energy">     -4.88987235 </i>
   </energy>
  </scstep>
  <scstep>
   <time name="dav">    0.22    0.45</time>
   <time name="total">    1.82    3.64</time>
   <energy>
    <i name="e_fr_energy">     -4.91959248 </i>
    <i name="e_wo_entrp">     -4.93118959 </i>
    <i name="e_0_energy">     -4.92345818 </i>
   </energy>
  </scstep>
  <scstep>
   <time name="dav">    0.15    0.31</time>
   <time name="total">    1.76    3.55</time>
   <energy>
    <i name="e_fr_energy">     -4.93126290 </i>
    <i name="e_wo_entrp">     -4.94286182 </i>
    <i name="e_0_energy">     -4.93512921 </i>
   </energy>
  </scstep>
  <scstep>
   <time name="dav">    0.13    0.27</time>
   <time name="total">    1.72    3.43</time>
   <energy>
    <i name="e_fr_energy">     -4.93230403 </i>
    <i name="e_wo_entrp">     -4.94390393 </i>
    <i name="e_0_energy">     -4.93617066 </i>
   </energy>
  </scstep>
  <scstep>
   <time name="dav">    0.13    0.26</time>
   <time name="total">    1.72    3.44</time>
   <energy>
    <i name="e_fr_energy">     -4.93221009 </i>
    <i name="e_wo_entrp">     -4.94380892 </i>
    <i name="e_0_energy">     -4.93607637 </i>
   </energy>
  </scstep>
  <scstep>
   <time name="dav">    0.12    0.25</time>
   <time name="total">    1.73    3.47</time>
   <energy>
    <i name="e_fr_energy">     -4.93319345 </i>
    <i name="e_wo_entrp">     -4.94479281 </i>
    <i name="e_0_energy">     -4.93705990 </i>
   </energy>
  </scstep>
  <scstep>
   <time name="dav">    0.11    0.23</time>
   <time name="total">    1.73    3.47</time>
   <energy>
    <i name="e_fr_energy">     -4.93398189 </i>
    <i name="e_wo_entrp">     -4.94558126 </i>
    <i name="e_0_energy">     -4.93784835 </i>
   </energy>
  </scstep>
  <scstep>
   <time name="dav">    0.14    0.30</time>
   <time name="total">    1.73    3.48</time>
   <energy>
    <i name="e_fr_energy">     -4.93532167 </i>
    <i name="e_wo_entrp">     -4.94692081 </i>
    <i name="e_0_energy">     -4.93918805 </i>
   </energy>
  </scstep>
  <scstep>
   <time name="dav">    0.12    0.24</time>
   <time name="total">    1.72    3.46</time>
   <energy>
    <i name="e_fr_energy">     -4.93633827 </i>
    <i name="e_wo_entrp">     -4.94793736 </i>
    <i name="e_0_energy">     -4.94020463 </i>
   </energy>
  </scstep>
  <scstep>
   <time name="dav">    0.11    0.23</time>
   <time name="total">    1.70    3.41</time>
   <energy>
    <i name="e_fr_energy">     -4.93659320 </i>
    <i name="e_wo_entrp">     -4.94819229 </i>
    <i name="e_0_energy">     -4.94045957 </i>
   </energy>
  </scstep>
  <scstep>
   <time name="dav">    0.16    0.30</time>
   <time name="total">    1.78    3.58</time>
   <energy>
    <i name="e_fr_energy">     -4.93688286 </i>
    <i name="e_wo_entrp">     -4.94848203 </i>
    <i name="e_0_energy">     -4.94074925 </i>
   </energy>
  </scstep>
  <scstep>
   <time name="dav">    0.12    0.25</time>
   <time name="total">    1.75    3.51</time>
   <energy>
    <i name="e_fr_energy">     -4.93706003 </i>
    <i name="e_wo_entrp">     -4.94865921 </i>
    <i name="e_0_energy">     -4.94092643 </i>
   </energy>
  </scstep>
  <scstep>
   <time name="dav">    0.10    0.21</time>
   <time name="total">    1.72    3.45</time>
   <energy>
    <i name="e_fr_energy">     -4.93716323 </i>
    <i name="e_wo_entrp">     -4.94876239 </i>
    <i name="e_0_energy">     -4.94102962 </i>
   </energy>
  </scstep>
  <scstep>
   <time name="dav">    0.11    0.22</time>
   <time name="total">    1.63    3.27</time>
   <energy>
    <i name="alphaZ">      0.43084729 </i>
    <i name="ewald">    -50.07066720 </i>
    <i name="hartreedc">   -447.71824621 </i>
    <i name="XCdc">     38.43110746 </i>
    <i name="pawpsdc">    289.67863626 </i>
    <i name="pawaedc">   -292.70430478 </i>
    <i name="eentropy">      0.01159914 </i>
    <i name="bandstr">   -123.34828246 </i>
    <i name="atom">    580.35210216 </i>
    <i name="e_fr_energy">     -4.93720835 </i>
    <i name="e_wo_entrp">     -4.94880749 </i>
    <i name="e_0_energy">     -4.94107473 </i>
   </energy>
  </scstep>
  <structure>
   <crystal>
    <varray name="basis" >
     <v>      10.00000000       0.00000000       0.00000000 </v>
     <v>       0.00000000      10.00000000       0.00000000 </v>
     <v>       0.00000000       0.00000000      10.00000000 </v>
    </varray>
    <i name="volume">   1000.00000000 </i>
    <varray name="rec_basis" >
     <v>       0.10000000       0.00000000       0.00000000 </v>
     <v>       0.00000000       0.10000000       0.00000000 </v>
     <v>       0.00000000       0.00000000       0.10000000 </v>
    </varray>
   </crystal>
   <varray name="positions" >
    <v>       0.00000000       0.00000000       0.61514688 </v>
    <v>       0.00000000       0.00000000       0.38485312 </v>
   </varray>
  </structure>
  <varray name="forces" >
   <v>       0.00000000       0.00000000      -3.58878753 </v>
   <v>       0.00000000       0.00000000       3.58878753 </v>
  </varray>
  <varray name="stress" >
   <v>      -1.57355789       0.00000000       0.00000000 </v>
   <v>       0.00000000      -1.57355789       0.00000000 </v>
   <v>      -0.00000000       0.00000000     -14.90185117 </v>
  </varray>
  <energy>
   <i name="e_fr_energy">     -4.93720835 </i>
   <i name="e_wo_entrp">     -4.94107473 </i>
   <i name="e_0_energy">      0.01159914 </i>
  </energy>
  <time name="totalsc">   36.61   73.42</time>
 </calculation>
 <calculation>
  <scstep>
   <time name="dav">    0.13    0.26</time>
   <time name="total">    1.73    3.48</time>
   <energy>
    <i name="alphaZ">      0.43084729 </i>
    <i name="ewald">      7.03721629 </i>
    <i name="hartreedc">   -499.74504958 </i>
    <i name="XCdc">     39.36553508 </i>
    <i name="pawpsdc">    289.67713901 </i>
    <i name="pawaedc">   -292.70282780 </i>
    <i name="eentropy">      0.01191600 </i>
    <i name="bandstr">   -129.71620202 </i>
    <i name="atom">    580.35210216 </i>
    <i name="e_fr_energy">     -5.28932357 </i>
    <i name="e_wo_entrp">     -5.30123957 </i>
    <i name="e_0_energy">     -5.29329557 </i>
   </energy>
  </scstep>
  <scstep>
   <time name="dav">    0.15    0.31</time>
   <time name="total">    1.75    3.50</time>
   <energy>
    <i name="e_fr_energy">     -8.11024752 </i>
    <i name="e_wo_entrp">     -8.12184333 </i>
    <i name="e_0_energy">     -8.11411279 </i>
   </energy>
  </scstep>
  <scstep>
   <time name="dav">    0.13    0.27</time>
   <time name="total">    1.73    3.47</time>
   <energy>
    <i name="e_fr_energy">     -8.90614634 </i>
    <i name="e_wo_entrp">     -8.91880960 </i>
    <i name="e_0_energy">     -8.91036742 </i>
   </energy>
  </scstep>
  <scstep>
   <time name="dav">    0.15    0.31</time>
   <time name="total">    1.73    3.45</time>
   <energy>
    <i name="e_fr_energy">     -9.15566077 </i>
    <i name="e_wo_entrp">     -9.16727732 </i>
    <i name="e_0_energy">     -9.15953295 </i>
   </energy>
  </scstep>
  <scstep>
   <time name="dav">    0.15    0.31</time>
   <time name="total">    1.71    3.45</time>
   <energy>
    <i name="e_fr_energy">     -9.43909137 </i>
    <i name="e_wo_entrp">     -9.45573447 </i>
    <i name="e_0_energy">     -9.44463907 </i>
   </energy>
  </scstep>
  <scstep>
   <time name="dav">    0.18    0.36</time>
   <time name="total">    1.76    3.53</time>
   <energy>
    <i name="e_fr_energy">     -9.51670862 </i>
    <i name="e_wo_entrp">     -9.53557330 </i>
    <i name="e_0_energy">     -9.52299684 </i>
   </energy>
  </scstep>
  <scstep>
   <time name="dav">    0.16    0.31</time>
   <time name="total">    1.73    3.48</time>
   <energy>
    <i name="e_fr_energy">     -9.55051724 </i>
    <i name="e_wo_entrp">     -9.57092599 </i>
    <i name="e_0_energy">     -9.55732015 </i>
   </energy>
  </scstep>
  <scstep>
   <time name="dav">    0.15    0.32</time>
   <time name="total">    1.74    3.50</time>
   <energy>
    <i name="e_fr_energy">     -9.57811838 </i>
    <i name="e_wo_entrp">     -9.59937576 </i>
    <i name="e_0_energy">     -9.58520417 </i>
   </energy>
  </scstep>
  <scstep>
   <time name="dav">    0.18    0.38</time>
   <time name="total">    1.79    3.59</time>
   <energy>
    <i name="e_fr_energy">     -9.58458424 </i>
    <i name="e_wo_entrp">     -9.60679857 </i>
    <i name="e_0_energy">     -9.59198901 </i>
   </energy>
  </scstep>
  <scstep>
   <time name="dav">    0.18    0.35</time>
   <time name="total">    1.78    3.58</time>
   <energy>
    <i name="e_fr_energy">     -9.58661966 </i>
    <i name="e_wo_entrp">     -9.60859298 </i>
    <i name="e_0_energy">     -9.59394410 </i>
   </energy>
  </scstep>
  <scstep>
   <time name="dav">    0.18    0.36</time>
   <time name="total">    1.78    3.57</time>
   <energy>
    <i name="e_fr_energy">     -9.58827184 </i>
    <i name="e_wo_entrp">     -9.61058080 </i>
    <i name="e_0_energy">     -9.59570816 </i>
   </energy>
  </scstep>
  <scstep>
   <time name="dav">    0.16    0.31</time>
   <time name="total">    1.76    3.52</time>
   <energy>
    <i name="e_fr_energy">     -9.58852229 </i>
    <i name="e_wo_entrp">     -9.61086451 </i>
    <i name="e_0_energy">     -9.59596970 </i>
   </energy>
  </scstep>
  <scstep>
   <time name="dav">    0.22    0.43</time>
   <time name="total">    1.81    3.63</time>
   <energy>
    <i name="e_fr_energy">     -9.58878725 </i>
    <i name="e_wo_entrp">     -9.61111752 </i>
    <i name="e_0_energy">     -9.59623067 </i>
   </energy>
  </scstep>
  <scstep>
   <time name="dav">    0.15    0.32</time>
   <time name="total">    1.75    3.53</time>
   <energy>
    <i name="e_fr_energy">     -9.58917625 </i>
    <i name="e_wo_entrp">     -9.61154691 </i>
    <i name="e_0_energy">     -9.59663314 </i>
   </energy>
  </scstep>
  <scstep>
   <time name="dav">    0.19    0.39</time>
   <time name="total">    1.71    3.42</time>
   <energy>
    <i name="alphaZ">      0.43084729 </i>
    <i name="ewald">      7.03721629 </i>
    <i name="hartreedc">   -502.84903696 </i>
    <i name="XCdc">     38.57534774 </i>
    <i name="pawpsdc">    300.64544802 </i>
    <i name="pawaedc">   -303.58971184 </i>
    <i name="eentropy">      0.02234180 </i>
    <i name="bandstr">   -130.21379116 </i>
    <i name="atom">    580.35210216 </i>
    <i name="e_fr_energy">     -9.58923665 </i>
    <i name="e_wo_entrp">     -9.61157845 </i>
    <i name="e_0_energy">     -9.59668392 </i>
   </energy>
  </scstep>
  <structure>
   <crystal>
    <varray name="basis" >
     <v>      10.00000000       0.00000000       0.00000000 </v>
     <v>       0.00000000      10.00000000       0.00000000 </v>
     <v>       0.00000000       0.00000000      10.00000000 </v>
    </varray>
    <i name="volume">   1000.00000000 </i>
    <varray name="rec_basis" >
     <v>       0.10000000       0.00000000       0.00000000 </v>
     <v>       0.00000000       0.10000000       0.00000000 </v>
     <v>       0.00000000       0.00000000       0.10000000 </v>
    </varray>
   </crystal>
   <varray name="positions" >
    <v>       0.00000000       0.00000000       0.58257344 </v>
    <v>       0.00000000       0.00000000       0.41742656 </v>
   </varray>
  </structure>
  <varray name="forces" >
   <v>       0.00000000       0.00000000     -11.45090136 </v>
   <v>       0.00000000       0.00000000      11.45090136 </v>
  </varray>
  <varray name="stress" >
   <v>      -1.40413901       0.00000000       0.00000000 </v>
   <v>       0.00000000      -1.40413901       0.00000000 </v>
   <v>       0.00000000       0.00000000     -31.77996857 </v>
  </varray>
  <energy>
   <i name="e_fr_energy">     -9.58923665 </i>
   <i name="e_wo_entrp">     -9.59668392 </i>
   <i name="e_0_energy">      0.02234180 </i>
  </energy>
  <time name="totalsc">   28.03   56.23</time>
 </calculation>
 <calculation>
  <scstep>
   <time name="dav">    0.15    0.30</time>
   <time name="total">    1.72    3.45</time>
   <energy>
    <i name="alphaZ">      0.43084729 </i>
    <i name="ewald">     57.70489471 </i>
    <i name="hartreedc">   -541.16500897 </i>
    <i name="XCdc">     39.39392002 </i>
    <i name="pawpsdc">    300.64013864 </i>
    <i name="pawaedc">   -303.58433087 </i>
    <i name="eentropy">      0.01360375 </i>
    <i name="bandstr">   -147.05531228 </i>
    <i name="atom">    580.35210216 </i>
    <i name="e_fr_energy">    -13.26914555 </i>
    <i name="e_wo_entrp">    -13.28274930 </i>
    <i name="e_0_energy">    -13.27368013 </i>
   </energy>
  </scstep>
  <scstep>
   <time name="dav">    0.14    0.29</time>
   <time name="total">    1.75    3.50</time>
   <energy>
    <i name="e_fr_energy">    -13.69646812 </i>
    <i name="e_wo_entrp">    -13.70806453 </i>
    <i name="e_0_energy">    -13.70033359 </i>
   </energy>
  </scstep>
  <scstep>
   <time name="dav">    0.16    0.30</time>
   <time name="total">    1.73    3.48</time>
   <energy>
    <i name="e_fr_energy">    -13.57883780 </i>
    <i name="e_wo_entrp">    -13.59043622 </i>
    <i name="e_0_energy">    -13.58270394 </i>
   </energy>
  </scstep>
  <scstep>
   <time name="dav">    0.13    0.26</time>
   <time name="total">    1.75    3.50</time>
   <energy>
    <i name="e_fr_energy">    -13.53834411 </i>
    <i name="e_wo_entrp">    -13.54998841 </i>
    <i name="e_0_energy">    -13.54222554 </i>
   </energy>
  </scstep>
  <scstep>
   <time name="dav">    0.19    0.19</time>
   <time name="total">    2.15    3.28</time>
   <energy>
    <i name="e_fr_energy">    -13.53730710 </i>
    <i name="e_wo_entrp">    -13.54906500 </i>
    <i name="e_0_energy">    -13.54122640 </i>
   </energy>
  </scstep>
  <scstep>
   <time name="dav">    0.27    0.39</time>
   <time name="total">    2.65    3.59</time>
   <energy>
    <i name="e_fr_energy">    -13.53822952 </i>
    <i name="e_wo_entrp">    -13.55056972 </i>
    <i name="e_0_energy">    -13.54234292 </i>
   </energy>
  </scstep>
  <scstep>
   <time name="dav">    0.17    0.35</time>
   <time name="total">    1.81    3.63</time>
   <energy>
    <i name="e_fr_energy">    -13.53810735 </i>
    <i name="e_wo_entrp">    -13.55100672 </i>
    <i name="e_0_energy">    -13.54240714 </i>
   </energy>
  </scstep>
  <scstep>
   <time name="dav">    0.16    0.33</time>
   <time name="total">    1.76    3.54</time>
   <energy>
    <i name="e_fr_energy">    -13.53932044 </i>
    <i name="e_wo_entrp">    -13.55175626 </i>
    <i name="e_0_energy">    -13.54346572 </i>
   </energy>
  </scstep>
  <scstep>
   <time name="dav">    0.15    0.30</time>
   <time name="total">    1.76    3.53</time>
   <energy>
    <i name="e_fr_energy">    -13.54068492 </i>
    <i name="e_wo_entrp">    -13.55346259 </i>
    <i name="e_0_energy">    -13.54494414 </i>
   </energy>
  </scstep>
  <scstep>
   <time name="dav">    0.12    0.24</time>
   <time name="total">    1.81    3.35</time>
   <energy>
    <i name="e_fr_energy">    -13.54478526 </i>
    <i name="e_wo_entrp">    -13.55729129 </i>
    <i name="e_0_energy">    -13.54895394 </i>
   </energy>
  </scstep>
  <scstep>
   <time name="dav">    0.12    0.24</time>
   <time name="total">    1.70    3.41</time>
   <energy>
    <i name="e_fr_energy">    -13.54532712 </i>
    <i name="e_wo_entrp">    -13.55804474 </i>
    <i name="e_0_energy">    -13.54956632 </i>
   </energy>
  </scstep>
  <scstep>
   <time name="dav">    0.13    0.27</time>
   <time name="total">    1.75    3.50</time>
   <energy>
    <i name="e_fr_energy">    -13.54661484 </i>
    <i name="e_wo_entrp">    -13.55949237 </i>
    <i name="e_0_energy">    -13.55090735 </i>
   </energy>
  </scstep>
  <scstep>
   <time name="dav">    0.09    0.19</time>
   <time name="total">    1.68    3.37</time>
   <energy>
    <i name="e_fr_energy">    -13.54790266 </i>
    <i name="e_wo_entrp">    -13.56075831 </i>
    <i name="e_0_energy">    -13.55218787 </i>
   </energy>
  </scstep>
  <scstep>
   <time name="dav">    0.10    0.10</time>
   <time name="total">    1.67    3.11</time>
   <energy>
    <i name="e_fr_energy">    -13.54808227 </i>
    <i name="e_wo_entrp">    -13.56090925 </i>
    <i name="e_0_energy">    -13.55235793 </i>
   </energy>
  </scstep>
  <scstep>
   <time name="dav">    0.09    0.19</time>
   <time name="total">    1.67    2.87</time>
   <energy>
    <i name="e_fr_energy">    -13.54824787 </i>
    <i name="e_wo_entrp">    -13.56106616 </i>
    <i name="e_0_energy">    -13.55252064 </i>
   </energy>
  </scstep>
  <scstep>
   <time name="dav">    0.09    0.19</time>
   <time name="total">    1.67    3.35</time>
   <energy>
    <i name="e_fr_energy">    -13.54841275 </i>
    <i name="e_wo_entrp">    -13.56123962 </i>
    <i name="e_0_energy">    -13.55268838 </i>
   </energy>
  </scstep>
  <scstep>
   <time name="dav">    0.10    0.20</time>
   <time name="total">    1.60    3.22</time>
   <energy>
    <i name="alphaZ">      0.43084729 </i>
    <i name="ewald">     57.70489471 </i>
    <i name="hartreedc">   -547.39128756 </i>
    <i name="XCdc">     39.89817027 </i>
    <i name="pawpsdc">    332.85007642 </i>
    <i name="pawaedc">   -335.90226231 </i>
    <i name="eentropy">      0.01282410 </i>
    <i name="bandstr">   -141.50380829 </i>
    <i name="atom">    580.35210216 </i>
    <i name="e_fr_energy">    -13.54844320 </i>
    <i name="e_wo_entrp">    -13.56126731 </i>
    <i name="e_0_energy">    -13.55271790 </i>
   </energy>
  </scstep>
  <structure>
   <crystal>
    <varray name="basis" >
     <v>      10.00000000       0.00000000       0.00000000 </v>
     <v>       0.00000000      10.00000000       0.00000000 </v>
     <v>       0.00000000       0.00000000      10.00000000 </v>
    </varray>
    <i name="volume">   1000.00000000 </i>
    <varray name="rec_basis" >
     <v>       0.10000000       0.00000000       0.00000000 </v>
     <v>       0.00000000       0.10000000       0.00000000 </v>
     <v>       0.00000000       0.00000000       0.10000000 </v>
    </varray>
   </crystal>
   <varray name="positions" >
    <v>       0.00000000       0.00000000       0.56628672 </v>
    <v>       0.00000000       0.00000000       0.43371328 </v>
   </varray>
  </structure>
  <varray name="forces" >
   <v>       0.00000000      -0.00000000     -11.11001341 </v>
   <v>       0.00000000       0.00000000      11.11001341 </v>
  </varray>
  <varray name="stress" >
   <v>      -1.32997121       0.00000000      -0.00000000 </v>
   <v>       0.00000000      -1.32997121       0.00000000 </v>
   <v>       0.00000000       0.00000000     -24.70382062 </v>
  </varray>
  <energy>
   <i name="e_fr_energy">    -13.54844320 </i>
   <i name="e_wo_entrp">    -13.55271790 </i>
   <i name="e_0_energy">      0.01282410 </i>
  </energy>
  <time name="totalsc">   32.36   61.11</time>
 </calculation>
 <calculation>
  <scstep>
   <time name="dav">    0.10    0.15</time>
   <time name="total">    1.66    3.23</time>
   <energy>
    <i name="alphaZ">      0.43084729 </i>
    <i name="ewald">     93.90812842 </i>
    <i name="hartreedc">   -570.43582244 </i>
    <i name="XCdc">     40.51329740 </i>
    <i name="pawpsdc">    332.84796396 </i>
    <i name="pawaedc">   -335.90014374 </i>
    <i name="eentropy">      0.01273094 </i>
    <i name="bandstr">   -156.52146538 </i>
    <i name="atom">    580.35210216 </i>
    <i name="e_fr_energy">    -14.79236139 </i>
    <i name="e_wo_entrp">    -14.80509233 </i>
    <i name="e_0_energy">    -14.79660504 </i>
   </energy>
  </scstep>
  <scstep>
   <time name="dav">    0.10    0.20</time>
   <time name="total">    1.68    2.99</time>
   <energy>
    <i name="e_fr_energy">    -14.83978496 </i>
    <i name="e_wo_entrp">    -14.85238818 </i>
    <i name="e_0_energy">    -14.84398603 </i>
   </energy>
  </scstep>
  <scstep>
   <time name="dav">    0.11    0.16</time>
   <time name="total">    1.68    2.40</time>
   <energy>
    <i name="e_fr_energy">    -14.79910051 </i>
    <i name="e_wo_entrp">    -14.81178174 </i>
    <i name="e_0_energy">    -14.80332759 </i>
   </energy>
  </scstep>
  <scstep>
   <time name="dav">    0.12    0.24</time>
   <time name="total">    1.69    3.41</time>
   <energy>
    <i name="e_fr_energy">    -14.78840249 </i>
    <i name="e_wo_entrp">    -14.80093264 </i>
    <i name="e_0_energy">    -14.79257921 </i>
   </energy>
  </scstep>
  <scstep>
   <time name="dav">    0.10    0.19</time>
   <time name="total">    1.68    3.35</time>
   <energy>
    <i name="e_fr_energy">    -14.78846176 </i>
    <i name="e_wo_entrp">    -14.80120653 </i>
    <i name="e_0_energy">    -14.79271002 </i>
   </energy>
  </scstep>
  <scstep>
   <time name="dav">    0.09    0.19</time>
   <time name="total">    1.67    3.35</time>
   <energy>
    <i name="e_fr_energy">    -14.78916051 </i>
    <i name="e_wo_entrp">    -14.80160039 </i>
    <i name="e_0_energy">    -14.79330714 </i>
   </energy>
  </scstep>
  <scstep>
   <time name="dav">    0.09    0.21</time>
   <time name="total">    1.67    3.35</time>
   <energy>
    <i name="e_fr_energy">    -14.78993921 </i>
    <i name="e_wo_entrp">    -14.80262705 </i>
    <i name="e_0_energy">    -14.79416849 </i>
   </energy>
  </scstep>
  <scstep>
   <time name="dav">    0.09    0.19</time>
   <time name="total">    1.63    3.28</time>
   <energy>
    <i name="e_fr_energy">    -14.79097903 </i>
    <i name="e_wo_entrp">    -14.80359172 </i>
    <i name="e_0_energy">    -14.79518326 </i>
   </energy>
  </scstep>
  <scstep>
   <time name="dav">    0.10    0.22</time>
   <time name="total">    1.66    3.34</time>
   <energy>
    <i name="e_fr_energy">    -14.79292462 </i>
    <i name="e_wo_entrp">    -14.80556030 </i>
    <i name="e_0_energy">    -14.79713651 </i>
   </energy>
  </scstep>
  <scstep>
   <time name="dav">    0.10    0.20</time>
   <time name="total">    1.67    3.36</time>
   <energy>
    <i name="e_fr_energy">    -14.79345238 </i>
    <i name="e_wo_entrp">    -14.80609953 </i>
    <i name="e_0_energy">    -14.79766810 </i>
   </energy>
  </scstep>
  <scstep>
   <time name="dav">    0.10    0.19</time>
   <time name="total">    1.68    3.37</time>
   <energy>
    <i name="e_fr_energy">    -14.79395987 </i>
    <i name="e_wo_entrp">    -14.80660276 </i>
    <i name="e_0_energy">    -14.79817417 </i>
   </energy>
  </scstep>
  <scstep>
   <time name="dav">    0.09    0.19</time>
   <time name="total">    1.66    3.32</time>
   <energy>
    <i name="e_fr_energy">    -14.79413978 </i>
    <i name="e_wo_entrp">    -14.80678712 </i>
    <i name="e_0_energy">    -14.79835556 </i>
   </energy>
  </scstep>
  <scstep>
   <time name="dav">    0.09    0.19</time>
   <time name="total">    1.67    3.34</time>
   <energy>
    <i name="e_fr_energy">    -14.79427999 </i>
    <i name="e_wo_entrp">    -14.80692104 </i>
    <i name="e_0_energy">    -14.79849367 </i>
   </energy>
  </scstep>
  <scstep>
   <time name="dav">    0.09    0.19</time>
   <time name="total">    1.59    3.20</time>
   <energy>
    <i name="alphaZ">      0.43084729 </i>
    <i name="ewald">     93.90812842 </i>
    <i name="hartreedc">   -577.38545352 </i>
    <i name="XCdc">     40.95090404 </i>
    <i name="pawpsdc">    370.87670318 </i>
    <i name="pawaedc">   -374.08996976 </i>
    <i name="eentropy">      0.01264447 </i>
    <i name="bandstr">   -149.85024015 </i>
[...]
        <r>   -24.7623     0.0000     0.0000     0.0000 </r>
        <r>   -24.6473     0.0000     0.0000     0.0000 </r>
        <r>   -24.5323     0.0000     0.0000     0.0000 </r>
        <r>   -24.4174     0.0000     0.0000     0.0000 </r>
        <r>   -24.3024     0.0000     0.0000     0.0000 </r>
        <r>   -24.1875     0.0000     0.0000     0.0000 </r>
        <r>   -24.0725     0.0000     0.0000     0.0000 </r>
        <r>   -23.9576     0.0000     0.0000     0.0000 </r>
        <r>   -23.8426     0.0000     0.0000     0.0000 </r>
        <r>   -23.7277     0.0000     0.0000     0.0000 </r>
        <r>   -23.6127     0.0000     0.0000     0.0000 </r>
        <r>   -23.4978     0.0000     0.0000     0.0000 </r>
        <r>   -23.3828     0.0000     0.0000     0.0000 </r>
        <r>   -23.2679     0.0000     0.0000     0.0000 </r>
        <r>   -23.1529     0.0000     0.0000     0.0000 </r>
        <r>   -23.0380     0.0000     0.0000     0.0000 </r>
        <r>   -22.9230     0.0000     0.0000     0.0000 </r>
        <r>   -22.8081     0.0000     0.0000     0.0000 </r>
        <r>   -22.6931     0.0000     0.0000     0.0000 </r>
        <r>   -22.5782     0.0000     0.0000     0.0000 </r>
        <r>   -22.4632     0.0000     0.0000     0.0000 </r>
        <r>   -22.3483     0.0000     0.0000     0.0000 </r>
        <r>   -22.2333     0.0000     0.0000     0.0000 </r>
        <r>   -22.1184     0.0000     0.0000     0.0000 </r>
        <r>   -22.0034     0.0000     0.0000     0.0000 </r>
        <r>   -21.8885     0.0000     0.0000     0.0000 </r>
        <r>   -21.7735     0.0000     0.0000     0.0000 </r>
        <r>   -21.6586     0.0000     0.0000     0.0000 </r>
        <r>   -21.5436     0.0000     0.0000     0.0000 </r>
        <r>   -21.4287     0.0000     0.0000     0.0000 </r>
        <r>   -21.3137     0.0000     0.0000     0.0000 </r>
        <r>   -21.1988     0.0000     0.0000     0.0000 </r>
        <r>   -21.0838     0.0000     0.0000     0.0000 </r>
        <r>   -20.9689     0.0000     0.0000     0.0000 </r>
        <r>   -20.8539     0.0000     0.0000     0.0000 </r>
        <r>   -20.7389     0.0000     0.0000     0.0000 </r>
        <r>   -20.6240     0.0000     0.0000     0.0000 </r>
        <r>   -20.5090     0.0000     0.0000     0.0000 </r>
        <r>   -20.3941     0.0000     0.0000     0.0000 </r>
        <r>   -20.2791     0.0000     0.0000     0.0000 </r>
        <r>   -20.1642     0.0000     0.0000     0.0000 </r>
        <r>   -20.0492     0.0000     0.0000     0.0000 </r>
        <r>   -19.9343     0.0000     0.0000     0.0000 </r>
        <r>   -19.8193     0.0000     0.0000     0.0000 </r>
        <r>   -19.7044     0.0000     0.0000     0.0000 </r>
        <r>   -19.5894     0.0000     0.0000     0.0000 </r>
        <r>   -19.4745     0.0000     0.0000     0.0000 </r>
        <r>   -19.3595     0.0000     0.0000     0.0000 </r>
        <r>   -19.2446     0.0000     0.0000     0.0000 </r>
        <r>   -19.1296     0.0000     0.0000     0.0000 </r>
        <r>   -19.0147     0.0000     0.0000     0.0000 </r>
        <r>   -18.8997     0.0000     0.0000     0.0000 </r>
        <r>   -18.7848     0.0000     0.0000     0.0000 </r>
        <r>   -18.6698     0.0000     0.0000     0.0000 </r>
        <r>   -18.5549     0.0000     0.0000     0.0000 </r>
        <r>   -18.4399     0.0000     0.0000     0.0000 </r>
        <r>   -18.3250     0.0000     0.0000     0.0000 </r>
        <r>   -18.2100     0.0000     0.0000     0.0000 </r>
        <r>   -18.0951     0.0000     0.0000     0.0000 </r>
        <r>   -17.9801     0.0000     0.0000     0.0000 </r>
        <r>   -17.8652     0.0000     0.0000     0.0000 </r>
        <r>   -17.7502     0.0000     0.0000     0.0000 </r>
        <r>   -17.6353     0.0000     0.0000     0.0000 </r>
        <r>   -17.5203     0.0000     0.0000     0.0000 </r>
        <r>   -17.4054     0.0000     0.0000     0.0000 </r>
        <r>   -17.2904     0.0000     0.0000     0.0000 </r>
        <r>   -17.1754     0.0000     0.0000     0.0000 </r>
        <r>   -17.0605     0.0000     0.0000     0.0000 </r>
        <r>   -16.9455     0.0000     0.0000     0.0000 </r>
        <r>   -16.8306     0.0000     0.0000     0.0000 </r>
        <r>   -16.7156     0.0000     0.0000     0.0000 </r>
        <r>   -16.6007     0.0000     0.0000     0.0000 </r>
        <r>   -16.4857     0.0000     0.0000     0.0000 </r>
        <r>   -16.3708     0.0000     0.0000     0.0000 </r>
        <r>   -16.2558     0.0000     0.0000     0.0000 </r>
        <r>   -16.1409     0.0000     0.0000     0.0000 </r>
        <r>   -16.0259     0.0000     0.0000     0.0000 </r>
        <r>   -15.9110     0.0000     0.0000     0.0000 </r>
        <r>   -15.7960     0.0000     0.0000     0.0000 </r>
        <r>   -15.6811     0.0000     0.0000     0.0000 </r>
        <r>   -15.5661    -0.0000    -0.0000    -0.0000 </r>
        <r>   -15.4512    -0.0000    -0.0000    -0.0000 </r>
        <r>   -15.3362    -0.0000    -0.0000    -0.0000 </r>
        <r>   -15.2213    -0.0000    -0.0000    -0.0000 </r>
        <r>   -15.1063    -0.0000    -0.0000    -0.0000 </r>
        <r>   -14.9914    -0.0000    -0.0000    -0.0000 </r>
        <r>   -14.8764    -0.0000    -0.0000    -0.0000 </r>
        <r>   -14.7615    -0.0000    -0.0000    -0.0000 </r>
        <r>   -14.6465    -0.0000    -0.0000    -0.0000 </r>
        <r>   -14.5316    -0.0002    -0.0007    -0.0000 </r>
        <r>   -14.4166    -0.0035    -0.0092    -0.0001 </r>
        <r>   -14.3017    -0.0204    -0.0540    -0.0008 </r>
        <r>   -14.1867    -0.0233    -0.0617    -0.0009 </r>
        <r>   -14.0718     0.1738     0.4608     0.0067 </r>
        <r>   -13.9568     0.5614     1.4889     0.0217 </r>
        <r>   -13.8419     0.5607     1.4869     0.0217 </r>
        <r>   -13.7269     0.1728     0.4583     0.0067 </r>
        <r>   -13.6120    -0.0234    -0.0621    -0.0009 </r>
        <r>   -13.4970    -0.0203    -0.0538    -0.0008 </r>
        <r>   -13.3820    -0.0035    -0.0092    -0.0001 </r>
        <r>   -13.2671    -0.0002    -0.0007    -0.0000 </r>
        <r>   -13.1521    -0.0000    -0.0000    -0.0000 </r>
        <r>   -13.0372    -0.0000    -0.0000    -0.0000 </r>
        <r>   -12.9222    -0.0000    -0.0000    -0.0000 </r>
        <r>   -12.8073    -0.0000    -0.0000    -0.0000 </r>
        <r>   -12.6923    -0.0000    -0.0000    -0.0000 </r>
        <r>   -12.5774    -0.0000    -0.0000    -0.0000 </r>
        <r>   -12.4624    -0.0000    -0.0000    -0.0000 </r>
        <r>   -12.3475    -0.0000    -0.0001    -0.0000 </r>
        <r>   -12.2325    -0.0000    -0.0027    -0.0000 </r>
        <r>   -12.1176    -0.0000    -0.0332    -0.0004 </r>
        <r>   -12.0026    -0.0000    -0.1611    -0.0018 </r>
        <r>   -11.8877    -0.0000    -0.0632    -0.0007 </r>
        <r>   -11.7727     0.0000     1.5647     0.0175 </r>
        <r>   -11.6578     0.0000     3.9299     0.0440 </r>
        <r>   -11.5428     0.0000     3.2495     0.0364 </r>
        <r>   -11.4279     0.0000     0.7402     0.0083 </r>
        <r>   -11.3129    -0.0000    -0.1957    -0.0022 </r>
        <r>   -11.1980    -0.0000    -0.1034    -0.0012 </r>
        <r>   -11.0830    -0.0000    -0.0148    -0.0002 </r>
        <r>   -10.9681    -0.0000    -0.0009    -0.0000 </r>
        <r>   -10.8531    -0.0000    -0.0000    -0.0000 </r>
        <r>   -10.7382    -0.0000    -0.0000    -0.0000 </r>
        <r>   -10.6232    -0.0000    -0.0000    -0.0000 </r>
        <r>   -10.5083    -0.0000    -0.0000    -0.0000 </r>
        <r>   -10.3933    -0.0000    -0.0000    -0.0000 </r>
        <r>   -10.2784    -0.0000    -0.0000    -0.0000 </r>
        <r>   -10.1634    -0.0000    -0.0000    -0.0000 </r>
        <r>   -10.0485    -0.0000    -0.0000    -0.0000 </r>
        <r>    -9.9335    -0.0000    -0.0000    -0.0000 </r>
        <r>    -9.8185    -0.0000    -0.0000    -0.0000 </r>
        <r>    -9.7036    -0.0000    -0.0000    -0.0000 </r>
        <r>    -9.5886    -0.0000    -0.0000    -0.0000 </r>
        <r>    -9.4737    -0.0000    -0.0005    -0.0000 </r>
        <r>    -9.3587    -0.0000    -0.0051    -0.0000 </r>
        <r>    -9.2438    -0.0002    -0.0217    -0.0002 </r>
        <r>    -9.1288     0.0000     0.0032     0.0000 </r>
        <r>    -9.0139     0.0019     0.2281     0.0017 </r>
        <r>    -8.8989     0.0042     0.4912     0.0036 </r>
        <r>    -8.7840     0.0030     0.3568     0.0026 </r>
        <r>    -8.6690     0.0005     0.0629     0.0005 </r>
        <r>    -8.5541    -0.0002    -0.0250    -0.0002 </r>
        <r>    -8.4391    -0.0001    -0.0104    -0.0001 </r>
        <r>    -8.3242    -0.0000    -0.0013    -0.0000 </r>
        <r>    -8.2092    -0.0000    -0.0001    -0.0000 </r>
        <r>    -8.0943    -0.0000    -0.0000    -0.0000 </r>
        <r>    -7.9793    -0.0000    -0.0000    -0.0000 </r>
        <r>    -7.8644    -0.0000    -0.0000    -0.0000 </r>
        <r>    -7.7494    -0.0000    -0.0000    -0.0000 </r>
        <r>    -7.6345    -0.0000    -0.0000    -0.0000 </r>
        <r>    -7.5195     0.0000     0.0000     0.0000 </r>
        <r>    -7.4046     0.0000     0.0000     0.0000 </r>
        <r>    -7.2896     0.0000     0.0000     0.0000 </r>
        <r>    -7.1747     0.0000     0.0000     0.0000 </r>
        <r>    -7.0597     0.0000     0.0000     0.0000 </r>
        <r>    -6.9448     0.0000     0.0000     0.0000 </r>
        <r>    -6.8298     0.0000     0.0000     0.0000 </r>
        <r>    -6.7149     0.0000     0.0000     0.0000 </r>
        <r>    -6.5999     0.0000     0.0000     0.0000 </r>
        <r>    -6.4850     0.0000     0.0000     0.0000 </r>
        <r>    -6.3700     0.0000     0.0000     0.0000 </r>
        <r>    -6.2551     0.0000     0.0000     0.0000 </r>
        <r>    -6.1401     0.0000     0.0000     0.0000 </r>
        <r>    -6.0251     0.0000     0.0000     0.0000 </r>
        <r>    -5.9102     0.0000     0.0000     0.0000 </r>
        <r>    -5.7952     0.0000     0.0000     0.0000 </r>
        <r>    -5.6803     0.0000     0.0000     0.0000 </r>
        <r>    -5.5653     0.0000     0.0000     0.0000 </r>
        <r>    -5.4504     0.0000     0.0000     0.0000 </r>
        <r>    -5.3354     0.0000     0.0000     0.0000 </r>
        <r>    -5.2205     0.0000     0.0000     0.0000 </r>
        <r>    -5.1055     0.0000     0.0000     0.0000 </r>
        <r>    -4.9906     0.0000     0.0000     0.0000 </r>
        <r>    -4.8756     0.0000     0.0000     0.0000 </r>
        <r>    -4.7607     0.0000     0.0000     0.0000 </r>
        <r>    -4.6457     0.0000     0.0000     0.0000 </r>
        <r>    -4.5308     0.0000     0.0000     0.0000 </r>
        <r>    -4.4158     0.0000     0.0000     0.0000 </r>
        <r>    -4.3009     0.0000     0.0000     0.0000 </r>
        <r>    -4.1859     0.0000     0.0000     0.0000 </r>
        <r>    -4.0710     0.0000     0.0000     0.0000 </r>
        <r>    -3.9560     0.0000     0.0000     0.0000 </r>
        <r>    -3.8411     0.0000     0.0000     0.0000 </r>
        <r>    -3.7261    -0.0000    -0.0000    -0.0000 </r>
        <r>    -3.6112    -0.0000    -0.0000    -0.0000 </r>
        <r>    -3.4962    -0.0000    -0.0000    -0.0000 </r>
        <r>    -3.3813    -0.0000    -0.0000    -0.0000 </r>
        <r>    -3.2663    -0.0000    -0.0000    -0.0000 </r>
        <r>    -3.1514    -0.0000    -0.0000    -0.0000 </r>
        <r>    -3.0364    -0.0000    -0.0000    -0.0000 </r>
        <r>    -2.9215    -0.0000    -0.0000    -0.0000 </r>
        <r>    -2.8065    -0.0000    -0.0000    -0.0000 </r>
        <r>    -2.6916    -0.0000    -0.0001    -0.0000 </r>
        <r>    -2.5766    -0.0000    -0.0017    -0.0001 </r>
        <r>    -2.4616    -0.0000    -0.0181    -0.0009 </r>
        <r>    -2.3467    -0.0000    -0.0711    -0.0033 </r>
        <r>    -2.2317     0.0000     0.0296     0.0014 </r>
        <r>    -2.1168     0.0000     0.7750     0.0365 </r>
        <r>    -2.0018     0.0000     1.5582     0.0734 </r>
        <r>    -1.8869     0.0000     1.0640     0.0501 </r>
        <r>    -1.7719     0.0000     0.1627     0.0077 </r>
        <r>    -1.6570    -0.0000    -0.0790    -0.0037 </r>
        <r>    -1.5420    -0.0000    -0.0298    -0.0014 </r>
        <r>    -1.4271    -0.0000    -0.0036    -0.0002 </r>
        <r>    -1.3121    -0.0000    -0.0002    -0.0000 </r>
        <r>    -1.1972    -0.0000    -0.0000    -0.0000 </r>
        <r>    -1.0822    -0.0000    -0.0000    -0.0000 </r>
        <r>    -0.9673    -0.0000    -0.0000    -0.0000 </r>
        <r>    -0.8523    -0.0000    -0.0000    -0.0000 </r>
        <r>    -0.7374    -0.0000    -0.0000    -0.0000 </r>
        <r>    -0.6224    -0.0001    -0.0001    -0.0000 </r>
        <r>    -0.5075    -0.0005    -0.0004    -0.0000 </r>
        <r>    -0.3925    -0.0006    -0.0005    -0.0000 </r>
        <r>    -0.2776     0.0038     0.0030     0.0000 </r>
        <r>    -0.1626     0.0130     0.0101     0.0001 </r>
        <r>    -0.0477     0.0134     0.0104     0.0001 </r>
        <r>     0.0673     0.0043     0.0034     0.0000 </r>
        <r>     0.1822    -0.0005    -0.0004    -0.0000 </r>
        <r>     0.2972    -0.0005    -0.0004    -0.0000 </r>
        <r>     0.4121    -0.0001    -0.0001    -0.0000 </r>
        <r>     0.5271    -0.0000    -0.0000    -0.0000 </r>
        <r>     0.6420    -0.0002    -0.0000    -0.0000 </r>
        <r>     0.7570    -0.0012    -0.0001    -0.0000 </r>
        <r>     0.8719    -0.0022    -0.0001    -0.0000 </r>
        <r>     0.9869     0.0089     0.0004    -0.0000 </r>
        <r>     1.1018     0.0375     0.0020     0.0000 </r>
        <r>     1.2168     0.0452     0.0036     0.0004 </r>
        <r>     1.3318     0.0191     0.0034     0.0008 </r>
        <r>     1.4467     0.0005     0.0016     0.0005 </r>
        <r>     1.5617    -0.0016     0.0001     0.0001 </r>
        <r>     1.6766    -0.0005    -0.0001    -0.0000 </r>
        <r>     1.7916    -0.0001    -0.0000    -0.0000 </r>
        <r>     1.9065    -0.0000    -0.0000    -0.0000 </r>
        <r>     2.0215    -0.0000    -0.0000    -0.0000 </r>
        <r>     2.1364    -0.0000    -0.0000    -0.0000 </r>
        <r>     2.2514    -0.0000    -0.0000    -0.0000 </r>
        <r>     2.3663    -0.0000    -0.0000    -0.0000 </r>
        <r>     2.4813    -0.0000    -0.0000    -0.0000 </r>
        <r>     2.5962    -0.0000    -0.0000    -0.0000 </r>
        <r>     2.7112     0.0000     0.0000     0.0000 </r>
        <r>     2.8261     0.0000     0.0000     0.0000 </r>
        <r>     2.9411     0.0000     0.0000     0.0000 </r>
        <r>     3.0560     0.0000     0.0000     0.0000 </r>
        <r>     3.1710     0.0000     0.0000     0.0000 </r>
        <r>     3.2859     0.0000     0.0000     0.0000 </r>
       </set>
      </set>
     </set>
    </array>
   </partial>
  </dos>
  <projected>
   <eigenvalues>
    <array>
     <dimension dim="1">band</dimension>
     <dimension dim="2">kpoint</dimension>
     <dimension dim="3">spin</dimension>
     <field>eigene</field>
     <field>occ</field>
     <set>
      <set comment="spin 1">
       <set comment="kpoint 1">
        <r>  -29.1995    1.0000 </r>
        <r>  -13.9868    1.0000 </r>
        <r>  -11.6907    1.0000 </r>
        <r>  -11.6907    1.0000 </r>
        <r>   -9.0614    1.0332 </r>
        <r>   -2.0959    0.0000 </r>
        <r>   -2.0959    0.0000 </r>
        <r>   -0.1607    0.0000 </r>
        <r>    1.1163    0.0000 </r>
        <r>    1.2161    0.0000 </r>
       </set>
      </set>
      <set comment="spin 2">
       <set comment="kpoint 1">
        <r>  -29.1828    1.0000 </r>
        <r>  -13.9570    1.0000 </r>
        <r>  -11.6786    1.0000 </r>
        <r>  -11.6786    1.0000 </r>
        <r>   -8.9337    0.9668 </r>
        <r>   -2.0432    0.0000 </r>
        <r>   -2.0432    0.0000 </r>
        <r>   -0.1592    0.0000 </r>
        <r>    1.1197    0.0000 </r>
        <r>    1.2859    0.0000 </r>
       </set>
      </set>
     </set>
    </array>
   </eigenvalues>
   <array>
    <dimension dim="1">ion</dimension>
    <dimension dim="2">band</dimension>
    <dimension dim="3">kpoint</dimension>
    <dimension dim="4">spin</dimension>
    <field>  s  </field>
    <field>  p  </field>
    <field>  d  </field>
    <set>
     <set comment="spin1">
      <set comment="kpoint 1">
       <set comment="band 1">
        <r>  0.1626  0.1377  0.0246 </r>
        <r>  0.5803  0.0897  0.0060 </r>
       </set>
       <set comment="band 2">
        <r>  0.1819  0.0168  0.0012 </r>
        <r>  0.1584  0.4161  0.0060 </r>
       </set>
       <set comment="band 3">
        <r>  0.0000  0.1654  0.0146 </r>
        <r>  0.0000  0.5104  0.0058 </r>
       </set>
       <set comment="band 4">
        <r>  0.0000  0.1654  0.0146 </r>
        <r>  0.0000  0.5104  0.0058 </r>
       </set>
       <set comment="band 5">
        <r>  0.1785  0.2713  0.0084 </r>
        <r>  0.0009  0.1264  0.0010 </r>
       </set>
       <set comment="band 6">
        <r>  0.0000  0.3166  0.0070 </r>
        <r>  0.0000  0.1962  0.0091 </r>
       </set>
       <set comment="band 7">
        <r>  0.0000  0.3166  0.0070 </r>
        <r>  0.0000  0.1962  0.0091 </r>
       </set>
       <set comment="band 8">
        <r>  0.0063  0.0065  0.0001 </r>
        <r>  0.0038  0.0028  0.0000 </r>
       </set>
       <set comment="band 9">
        <r>  0.0014  0.0001  0.0019 </r>
        <r>  0.0115  0.0005  0.0000 </r>
       </set>
       <set comment="band 10">
        <r>  0.0000  0.0260  0.0001 </r>
        <r>  0.0000  0.0005  0.0015 </r>
       </set>
      </set>
     </set>
     <set comment="spin2">
      <set comment="kpoint 1">
       <set comment="band 1">
        <r>  0.1623  0.1377  0.0245 </r>
        <r>  0.5806  0.0894  0.0059 </r>
       </set>
       <set comment="band 2">
        <r>  0.1798  0.0179  0.0013 </r>
        <r>  0.1579  0.4188  0.0061 </r>
       </set>
       <set comment="band 3">
        <r>  0.0000  0.1639  0.0147 </r>
        <r>  0.0000  0.5121  0.0057 </r>
       </set>
       <set comment="band 4">
        <r>  0.0000  0.1639  0.0147 </r>
        <r>  0.0000  0.5121  0.0057 </r>
       </set>
       <set comment="band 5">
        <r>  0.1800  0.2686  0.0086 </r>
        <r>  0.0011  0.1239  0.0009 </r>
       </set>
       <set comment="band 6">
        <r>  0.0000  0.3165  0.0068 </r>
        <r>  0.0000  0.1946  0.0092 </r>
       </set>
       <set comment="band 7">
        <r>  0.0000  0.3165  0.0068 </r>
        <r>  0.0000  0.1946  0.0092 </r>
       </set>
       <set comment="band 8">
        <r>  0.0063  0.0064  0.0001 </r>
        <r>  0.0037  0.0029  0.0000 </r>
       </set>
       <set comment="band 9">
        <r>  0.0011  0.0002  0.0018 </r>
        <r>  0.0116  0.0006  0.0000 </r>
       </set>
       <set comment="band 10">
        <r>  0.0141  0.0067  0.0001 </r>
        <r>  0.0005  0.0006  0.0002 </r>
       </set>
      </set>
     </set>
    </set>
   </array>
  </projected>
 </calculation>
 <structure name="finalpos" >
  <crystal>
   <varray name="basis" >
    <v>      10.00000000       0.00000000       0.00000000 </v>
    <v>       0.00000000      10.00000000       0.00000000 </v>
    <v>       0.00000000       0.00000000      10.00000000 </v>
   </varray>
   <i name="volume">   1000.00000000 </i>
   <varray name="rec_basis" >
    <v>       0.10000000       0.00000000       0.00000000 </v>
    <v>       0.00000000       0.10000000       0.00000000 </v>
    <v>       0.00000000       0.00000000       0.10000000 </v>
   </varray>
  </crystal>
  <varray name="positions" >
   <v>       0.00000000       0.00000000       0.55711206 </v>
   <v>       0.00000000       0.00000000       0.44288794 </v>
  </varray>
 </structure>
</modeling>
