CO-Spin                                 
           1
    10.000000    0.000000    0.000000
     0.000000   10.000000    0.000000
     0.000000    0.000000   10.000000
   C    O 
   1   1
Direct configuration=     1
   0.00000000  0.00000000  0.55000000
   0.00000000  0.00000000  0.45000000
Direct configuration=     2
   0.00000000  0.00000000  0.68264060
   0.00000000  0.00000000  0.31735940
Direct configuration=     3
   0.00000000  0.00000000  0.68126951
   0.00000000  0.00000000  0.31873049
Direct configuration=     4
   0.00000000  0.00000000  0.68029377
   0.00000000  0.00000000  0.31970623
Direct configuration=     5
   0.00000000  0.00000000  0.61514688
   0.00000000  0.00000000  0.38485312
Direct configuration=     6
   0.00000000  0.00000000  0.58257344
   0.00000000  0.00000000  0.41742656
Direct configuration=     7
   0.00000000  0.00000000  0.56628672
   0.00000000  0.00000000  0.43371328
Direct configuration=     8
   0.00000000  0.00000000  0.55814336
   0.00000000  0.00000000  0.44185664
Direct configuration=     9
   0.00000000  0.00000000  0.55654417
   0.00000000  0.00000000  0.44345583
Direct configuration=    10
   0.00000000  0.00000000  0.55714899
   0.00000000  0.00000000  0.44285101
Direct configuration=    11
   0.00000000  0.00000000  0.55711206
   0.00000000  0.00000000  0.44288794
