   1   1   0   0
  0.1039844E+02  0.2381570E-09  0.2381570E-09  0.2381570E-09  0.5000000E-15
  1.000000000000000E-004
  CAR 
 bcc Fe                                  
     50.35421533     -4.46357713  301      6.77592497      1.00000000
     -4.464  0.0000E+00  0.0000E+00  0.0000E+00  0.0000E+00
     -4.281  0.0000E+00  0.0000E+00  0.0000E+00  0.0000E+00
     -4.098  0.0000E+00  0.0000E+00  0.0000E+00  0.0000E+00
     -3.915  0.0000E+00  0.0000E+00  0.0000E+00  0.0000E+00
     -3.733 -0.1772E-34  0.0000E+00 -0.3239E-35  0.0000E+00
     -3.550 -0.6685E-28 -0.2777E-35 -0.1221E-28 -0.5074E-36
     -3.367 -0.4685E-22 -0.1271E-28 -0.8561E-23 -0.2323E-29
     -3.184 -0.6079E-17 -0.1082E-22 -0.1111E-17 -0.1977E-23
     -3.002 -0.1398E-12 -0.1706E-17 -0.2555E-13 -0.3117E-18
     -2.819 -0.5981E-09 -0.4777E-13 -0.1093E-09 -0.8729E-14
     -2.636 -0.4514E-06 -0.2491E-09 -0.8258E-07 -0.4552E-10
     -2.454 -0.5618E-04 -0.2301E-06 -0.1035E-04 -0.4209E-07
     -2.271 -0.8587E-03 -0.3548E-04 -0.1672E-03 -0.6526E-05
     -2.088  0.3805E-02 -0.7212E-03  0.5281E-03 -0.1383E-03
     -1.905  0.2163E-01  0.2221E-02  0.4481E-02  0.2676E-03
     -1.723  0.8867E-02  0.2068E-01  0.6101E-02  0.4045E-02
     -1.540  0.2068E-01  0.1056E-01  0.9879E-02  0.5975E-02
     -1.357  0.1860E-01  0.1722E-01  0.1328E-01  0.9121E-02
     -1.175  0.4406E-01  0.2165E-01  0.2133E-01  0.1308E-01
     -0.992  0.8457E-01  0.3023E-01  0.3678E-01  0.1860E-01
     -0.809  0.9320E-02  0.8965E-01  0.3849E-01  0.3498E-01
     -0.626 -0.7873E-02  0.2044E-01  0.3705E-01  0.3872E-01
     -0.444  0.2989E-01 -0.6984E-02  0.4251E-01  0.3744E-01
     -0.261  0.1093E+00  0.7274E-02  0.6247E-01  0.3877E-01
     -0.078  0.5859E-01  0.9877E-01  0.7318E-01  0.5682E-01
      0.105  0.8615E-01  0.6762E-01  0.8892E-01  0.6917E-01
      0.287  0.8955E-01  0.6999E-01  0.1053E+00  0.8196E-01
      0.470  0.6067E-01  0.6907E-01  0.1164E+00  0.9458E-01
      0.653 -0.9284E-02  0.8569E-01  0.1147E+00  0.1102E+00
      0.835  0.3271E-01  0.3550E-01  0.1207E+00  0.1167E+00
      1.018  0.2223E+00 -0.1195E-01  0.1613E+00  0.1145E+00
      1.201  0.1820E+00  0.4175E-01  0.1945E+00  0.1222E+00
      1.384  0.3122E+00  0.1944E+00  0.2516E+00  0.1577E+00
      1.566  0.3295E+00  0.1330E+00  0.3118E+00  0.1820E+00
      1.749  0.3712E+00  0.9306E-01  0.3796E+00  0.1990E+00
      1.932  0.8121E+00  0.1849E+00  0.5280E+00  0.2328E+00
      2.115  0.7287E+00  0.1170E+00  0.6612E+00  0.2542E+00
      2.297  0.8486E+00  0.2698E-01  0.8162E+00  0.2591E+00
      2.480  0.7495E+00  0.6370E-01  0.9532E+00  0.2707E+00
      2.663  0.4593E+00  0.4139E+00  0.1037E+01  0.3464E+00
      2.845  0.4181E+00  0.5306E+00  0.1113E+01  0.4433E+00
      3.028  0.5275E+00  0.2789E+00  0.1210E+01  0.4943E+00
      3.211  0.1361E+01  0.3772E+00  0.1459E+01  0.5632E+00
      3.394  0.1280E+01  0.3944E+00  0.1692E+01  0.6353E+00
      3.576  0.6587E+00  0.4449E+00  0.1813E+01  0.7166E+00
      3.759  0.8590E+00  0.8442E+00  0.1970E+01  0.8708E+00
      3.942  0.1511E+01  0.6077E+00  0.2246E+01  0.9819E+00
      4.125  0.1316E+01  0.2231E+00  0.2486E+01  0.1023E+01
      4.307  0.7740E+00  0.3300E+00  0.2628E+01  0.1083E+01
      4.490  0.4087E+00  0.4754E+00  0.2702E+01  0.1170E+01
      4.673  0.3461E+00  0.8871E+00  0.2766E+01  0.1332E+01
      4.855  0.6818E+00  0.1423E+01  0.2890E+01  0.1592E+01
      5.038  0.4959E+00  0.9753E+00  0.2981E+01  0.1770E+01
      5.221  0.2934E+00  0.8869E+00  0.3035E+01  0.1932E+01
      5.404  0.8867E+00  0.1105E+01  0.3197E+01  0.2134E+01
      5.586  0.1393E+01  0.1022E+01  0.3451E+01  0.2321E+01
      5.769  0.1674E+01  0.1079E+01  0.3757E+01  0.2518E+01
      5.952  0.2034E+01  0.1016E+01  0.4129E+01  0.2704E+01
      6.135  0.1957E+01  0.5188E+00  0.4486E+01  0.2798E+01
      6.317  0.9543E+00  0.1431E+00  0.4661E+01  0.2825E+01
      6.500  0.5789E+00  0.2023E+00  0.4767E+01  0.2861E+01
      6.683  0.9527E+00  0.4797E+00  0.4941E+01  0.2949E+01
      6.865  0.7370E+00  0.3086E+00  0.5075E+01  0.3006E+01
      7.048  0.4951E+00  0.2724E+00  0.5166E+01  0.3055E+01
      7.231  0.3659E+00  0.1907E+00  0.5233E+01  0.3090E+01
      7.414  0.3257E+00  0.5293E+00  0.5292E+01  0.3187E+01
      7.596  0.2403E+00  0.9122E+00  0.5336E+01  0.3354E+01
      7.779  0.5751E-01  0.7127E+00  0.5347E+01  0.3484E+01
      7.962  0.6273E-01  0.8916E+00  0.5358E+01  0.3647E+01
      8.145  0.1243E+00  0.1262E+01  0.5381E+01  0.3877E+01
      8.327  0.3539E+00  0.1178E+01  0.5445E+01  0.4092E+01
      8.510  0.1512E+00  0.1532E+01  0.5473E+01  0.4372E+01
      8.693  0.9433E-01  0.2108E+01  0.5490E+01  0.4758E+01
      8.875  0.1294E+00  0.1420E+01  0.5514E+01  0.5017E+01
      9.058  0.6864E-01  0.7952E+00  0.5526E+01  0.5162E+01
      9.241 -0.9205E-02  0.4504E+00  0.5525E+01  0.5245E+01
      9.424  0.6279E-01  0.2826E+00  0.5536E+01  0.5296E+01
      9.606  0.2795E+00  0.2896E+00  0.5587E+01  0.5349E+01
      9.789  0.1893E+00  0.1060E+00  0.5622E+01  0.5368E+01
      9.972  0.5083E-01  0.3248E+00  0.5631E+01  0.5428E+01
     10.155  0.1808E+00  0.2542E+00  0.5664E+01  0.5474E+01
     10.337  0.1264E+00  0.1216E+00  0.5687E+01  0.5496E+01
     10.520  0.1164E+00  0.1146E+00  0.5709E+01  0.5517E+01
     10.703  0.5215E-01  0.7454E-01  0.5718E+01  0.5531E+01
     10.885  0.2089E-01  0.1438E+00  0.5722E+01  0.5557E+01
     11.068  0.1554E+00  0.2032E+00  0.5750E+01  0.5594E+01
     11.251  0.1360E+00  0.1623E+00  0.5775E+01  0.5624E+01
     11.434  0.1116E+00  0.1651E+00  0.5796E+01  0.5654E+01
     11.616  0.1862E+00  0.1033E+00  0.5830E+01  0.5673E+01
     11.799  0.8466E-01  0.1002E+00  0.5845E+01  0.5691E+01
     11.982 -0.2148E-02  0.1343E+00  0.5845E+01  0.5716E+01
     12.164  0.3795E-01  0.4202E-01  0.5852E+01  0.5724E+01
     12.347  0.1916E-01  0.1262E+00  0.5855E+01  0.5747E+01
     12.530  0.2881E-01  0.2283E+00  0.5860E+01  0.5788E+01
     12.713  0.1680E+00  0.2045E+00  0.5891E+01  0.5826E+01
     12.895  0.8263E-01  0.1033E+00  0.5906E+01  0.5845E+01
     13.078  0.7403E-01  0.9375E-03  0.5920E+01  0.5845E+01
     13.261  0.4890E-01  0.3745E-01  0.5929E+01  0.5852E+01
     13.444 -0.7071E-02  0.2039E-01  0.5927E+01  0.5855E+01
     13.626  0.3864E-01  0.9888E-02  0.5934E+01  0.5857E+01
     13.809  0.8390E-01  0.1580E+00  0.5950E+01  0.5886E+01
     13.992  0.7077E-01  0.1064E+00  0.5963E+01  0.5906E+01
     14.174  0.1116E+00  0.6579E-01  0.5983E+01  0.5918E+01
     14.357  0.5116E-01  0.6637E-01  0.5992E+01  0.5930E+01
     14.540 -0.9071E-03  0.8093E-01  0.5992E+01  0.5944E+01
     14.723 -0.5891E-02  0.4297E-01  0.5991E+01  0.5952E+01
     14.905  0.5662E-02  0.5827E-01  0.5992E+01  0.5963E+01
     15.088  0.1449E+00  0.7133E-01  0.6019E+01  0.5976E+01
     15.271  0.2453E+00  0.4838E-01  0.6063E+01  0.5985E+01
     15.454  0.1314E+00  0.4085E-01  0.6088E+01  0.5992E+01
     15.636  0.6805E-01 -0.6795E-03  0.6100E+01  0.5992E+01
     15.819  0.2719E+00 -0.1878E-02  0.6150E+01  0.5992E+01
     16.002  0.3873E+00 -0.9753E-02  0.6220E+01  0.5990E+01
     16.184  0.2268E+00  0.4372E-01  0.6262E+01  0.5998E+01
     16.367  0.1646E+00  0.2809E+00  0.6292E+01  0.6049E+01
     16.550  0.2808E+00  0.2268E+00  0.6343E+01  0.6091E+01
     16.733  0.8192E-01  0.8947E-01  0.6358E+01  0.6107E+01
     16.915 -0.1748E-01  0.2921E+00  0.6355E+01  0.6161E+01
     17.098  0.3096E-01  0.4576E+00  0.6361E+01  0.6244E+01
     17.281  0.1737E+00  0.2817E+00  0.6392E+01  0.6296E+01
     17.464  0.2765E+00  0.2497E+00  0.6443E+01  0.6341E+01
     17.646  0.1518E+00  0.9029E-01  0.6471E+01  0.6358E+01
     17.829  0.1934E+00 -0.1840E-02  0.6506E+01  0.6357E+01
     18.012  0.4083E+00  0.5143E-01  0.6581E+01  0.6367E+01
     18.194  0.3072E+00  0.2193E+00  0.6637E+01  0.6407E+01
     18.377  0.6545E-01  0.2609E+00  0.6649E+01  0.6455E+01
     18.560  0.6098E-02  0.1883E+00  0.6650E+01  0.6489E+01
     18.743  0.9791E-01  0.2608E+00  0.6668E+01  0.6537E+01
     18.925  0.1596E+00  0.3274E+00  0.6697E+01  0.6596E+01
     19.108  0.1784E+00  0.2681E+00  0.6729E+01  0.6645E+01
     19.291  0.1592E+00  0.6613E-01  0.6759E+01  0.6658E+01
     19.474  0.4020E+00  0.7071E-01  0.6832E+01  0.6670E+01
     19.656  0.4414E+00  0.1133E+00  0.6913E+01  0.6691E+01
     19.839  0.1504E+00  0.2337E+00  0.6940E+01  0.6734E+01
     20.022 -0.8018E-02  0.1811E+00  0.6939E+01  0.6767E+01
     20.204 -0.7141E-02  0.3327E+00  0.6937E+01  0.6828E+01
     20.387  0.6504E-02  0.2749E+00  0.6939E+01  0.6878E+01
     20.570  0.9937E-01  0.2607E+00  0.6957E+01  0.6926E+01
     20.753  0.2843E+00  0.7797E-01  0.7009E+01  0.6940E+01
     20.935  0.2929E+00 -0.1151E-01  0.7062E+01  0.6938E+01
     21.118  0.1003E+00  0.2901E-01  0.7081E+01  0.6943E+01
     21.301  0.1130E+00  0.1304E+00  0.7101E+01  0.6967E+01
     21.484  0.2526E+00  0.3378E+00  0.7147E+01  0.7029E+01
     21.666  0.2105E+00  0.2576E+00  0.7186E+01  0.7076E+01
     21.849  0.3776E+00  0.3692E-01  0.7255E+01  0.7082E+01
     22.032  0.2535E+00  0.1423E+00  0.7301E+01  0.7108E+01
     22.214  0.1247E+00  0.2291E+00  0.7324E+01  0.7150E+01
     22.397  0.1312E+00  0.3687E+00  0.7348E+01  0.7218E+01
     22.580  0.1342E-01  0.4136E+00  0.7350E+01  0.7293E+01
     22.763  0.1272E+00  0.5829E-01  0.7374E+01  0.7304E+01
     22.945  0.1915E+00  0.1203E+00  0.7409E+01  0.7326E+01
     23.128  0.2417E+00  0.1275E+00  0.7453E+01  0.7349E+01
     23.311  0.9258E-01  0.1016E+00  0.7470E+01  0.7368E+01
     23.493  0.4444E-01  0.1753E+00  0.7478E+01  0.7400E+01
     23.676  0.3247E+00  0.2460E+00  0.7537E+01  0.7445E+01
     23.859  0.2030E+00  0.1398E+00  0.7574E+01  0.7470E+01
     24.042  0.1042E-01  0.2873E-01  0.7576E+01  0.7476E+01
     24.224  0.1067E+00  0.2484E+00  0.7596E+01  0.7521E+01
     24.407  0.1948E+00  0.2267E+00  0.7631E+01  0.7562E+01
     24.590  0.6893E-01  0.5033E-01  0.7644E+01  0.7571E+01
     24.773  0.1973E+00  0.1834E-01  0.7680E+01  0.7575E+01
     24.955  0.3473E+00  0.1368E+00  0.7743E+01  0.7600E+01
     25.138  0.3431E+00  0.1826E+00  0.7806E+01  0.7633E+01
     25.321  0.3074E+00  0.2832E+00  0.7862E+01  0.7685E+01
     25.503  0.2988E+00  0.3511E+00  0.7917E+01  0.7749E+01
     25.686  0.2678E+00  0.3298E+00  0.7966E+01  0.7809E+01
     25.869  0.2223E+00  0.2158E+00  0.8006E+01  0.7849E+01
     26.052  0.2648E+00  0.4264E+00  0.8055E+01  0.7927E+01
     26.234  0.2045E+00  0.3673E+00  0.8092E+01  0.7994E+01
     26.417  0.2085E+00  0.1879E+00  0.8130E+01  0.8028E+01
     26.600  0.4073E+00  0.2160E+00  0.8205E+01  0.8068E+01
     26.783  0.2324E+00  0.2037E+00  0.8247E+01  0.8105E+01
     26.965  0.8147E-01  0.2090E+00  0.8262E+01  0.8143E+01
     27.148  0.9386E-01  0.3431E+00  0.8279E+01  0.8206E+01
     27.331  0.4528E-01  0.3361E+00  0.8287E+01  0.8267E+01
     27.513  0.1188E+00  0.2251E-01  0.8309E+01  0.8271E+01
     27.696  0.3516E+00  0.3786E-01  0.8373E+01  0.8278E+01
     27.879  0.3229E+00  0.1132E+00  0.8432E+01  0.8299E+01
     28.062  0.3557E+00  0.2103E+00  0.8497E+01  0.8337E+01
     28.244  0.2458E+00  0.2106E+00  0.8542E+01  0.8376E+01
     28.427  0.2043E+00  0.4753E+00  0.8580E+01  0.8463E+01
     28.610  0.4015E+00  0.4562E+00  0.8653E+01  0.8546E+01
     28.793  0.3681E+00  0.1830E+00  0.8720E+01  0.8579E+01
     28.975  0.1800E+00  0.2723E+00  0.8753E+01  0.8629E+01
     29.158  0.1378E+00  0.3983E+00  0.8778E+01  0.8702E+01
     29.341  0.2135E+00  0.1798E+00  0.8817E+01  0.8735E+01
     29.523  0.1668E+00  0.9526E-01  0.8848E+01  0.8752E+01
     29.706  0.2576E-01  0.2143E+00  0.8852E+01  0.8791E+01
     29.889  0.4883E-01  0.1651E+00  0.8861E+01  0.8822E+01
     30.072  0.1768E+00  0.6139E-01  0.8894E+01  0.8833E+01
     30.254  0.2436E+00  0.1164E+00  0.8938E+01  0.8854E+01
     30.437  0.3825E+00  0.2145E+00  0.9008E+01  0.8893E+01
     30.620  0.1545E+00  0.2050E+00  0.9036E+01  0.8931E+01
     30.803  0.7375E-01  0.3086E+00  0.9050E+01  0.8987E+01
     30.985  0.7533E-01  0.2139E+00  0.9064E+01  0.9026E+01
     31.168  0.1402E+00  0.1302E+00  0.9089E+01  0.9050E+01
     31.351  0.8097E-01  0.1451E+00  0.9104E+01  0.9077E+01
     31.533  0.7375E-01  0.1076E+00  0.9117E+01  0.9096E+01
     31.716  0.2473E+00  0.6041E-01  0.9163E+01  0.9107E+01
     31.899  0.2562E+00 -0.5786E-02  0.9209E+01  0.9106E+01
     32.082  0.2292E+00  0.2944E+00  0.9251E+01  0.9160E+01
     32.264  0.8440E-01  0.3830E+00  0.9267E+01  0.9230E+01
     32.447  0.6451E-01  0.8891E-01  0.9279E+01  0.9246E+01
     32.630  0.1437E+00  0.6990E-01  0.9305E+01  0.9259E+01
     32.813  0.1460E+00  0.1392E+00  0.9331E+01  0.9284E+01
     32.995  0.2895E+00  0.9455E-01  0.9384E+01  0.9302E+01
     33.178  0.6359E+00  0.1181E+00  0.9501E+01  0.9323E+01
     33.361  0.6815E+00  0.2652E+00  0.9625E+01  0.9372E+01
     33.543  0.3001E+00  0.5627E+00  0.9680E+01  0.9475E+01
     33.726  0.1072E+00  0.8346E+00  0.9700E+01  0.9627E+01
     33.909  0.3790E-01  0.2677E+00  0.9706E+01  0.9676E+01
     34.092 -0.3409E-02  0.1472E+00  0.9706E+01  0.9703E+01
     34.274  0.7852E-01  0.2416E-01  0.9720E+01  0.9707E+01
     34.457  0.1834E+00 -0.1045E-01  0.9754E+01  0.9705E+01
     34.640  0.1770E+00  0.4402E-02  0.9786E+01  0.9706E+01
     34.823  0.4420E-01  0.1169E+00  0.9794E+01  0.9728E+01
     35.005  0.1504E-01  0.1989E+00  0.9797E+01  0.9764E+01
     35.188  0.1060E+00  0.1580E+00  0.9816E+01  0.9793E+01
     35.371  0.2918E+00  0.8078E-01  0.9870E+01  0.9807E+01
     35.553  0.4383E+00  0.3099E+00  0.9950E+01  0.9864E+01
     35.736  0.9591E-01  0.3797E+00  0.9967E+01  0.9934E+01
     35.919  0.5662E-01  0.9309E-01  0.9977E+01  0.9951E+01
     36.102  0.3447E+00  0.5527E-01  0.1004E+02  0.9961E+01
     36.284  0.2327E+00  0.2568E-01  0.1008E+02  0.9965E+01
     36.467  0.3770E+00  0.1835E+00  0.1015E+02  0.9999E+01
     36.650  0.7714E+00  0.3594E+00  0.1029E+02  0.1006E+02
     36.832  0.2913E+00  0.3881E+00  0.1035E+02  0.1014E+02
     37.015  0.1493E+00  0.5225E+00  0.1037E+02  0.1023E+02
     37.198  0.1940E+00  0.4389E+00  0.1041E+02  0.1031E+02
     37.381  0.2457E-01  0.2259E+00  0.1041E+02  0.1035E+02
     37.563  0.2193E+00  0.1736E+00  0.1045E+02  0.1038E+02
     37.746  0.4913E+00  0.1516E+00  0.1054E+02  0.1041E+02
     37.929  0.2084E+00  0.2139E+00  0.1058E+02  0.1045E+02
     38.112  0.2016E+00  0.2854E+00  0.1062E+02  0.1050E+02
     38.294  0.1624E+00  0.3240E+00  0.1065E+02  0.1056E+02
     38.477  0.9888E-01  0.2254E+00  0.1067E+02  0.1060E+02
     38.660  0.9896E-01  0.1745E+00  0.1068E+02  0.1064E+02
     38.842  0.1210E+00  0.1634E+00  0.1071E+02  0.1067E+02
     39.025  0.1967E+00  0.1271E+00  0.1074E+02  0.1069E+02
     39.208  0.2084E+00  0.1699E+00  0.1078E+02  0.1072E+02
     39.391  0.2524E+00  0.2758E+00  0.1083E+02  0.1077E+02
     39.573  0.3812E+00  0.1060E+00  0.1090E+02  0.1079E+02
     39.756  0.2222E+00  0.6961E-01  0.1094E+02  0.1080E+02
     39.939  0.2033E+00  0.2903E+00  0.1097E+02  0.1086E+02
     40.122  0.4805E+00  0.4912E+00  0.1106E+02  0.1094E+02
     40.304  0.2574E+00  0.2882E+00  0.1111E+02  0.1100E+02
     40.487  0.2393E+00  0.2721E+00  0.1115E+02  0.1105E+02
     40.670  0.3621E+00  0.3059E+00  0.1122E+02  0.1110E+02
     40.852  0.1456E+00  0.2543E+00  0.1124E+02  0.1115E+02
     41.035  0.1229E+00  0.3453E-01  0.1127E+02  0.1116E+02
     41.218  0.2179E+00  0.1657E+00  0.1131E+02  0.1119E+02
     41.401  0.2785E+00  0.4709E+00  0.1136E+02  0.1127E+02
     41.583  0.2327E+00  0.2519E+00  0.1140E+02  0.1132E+02
     41.766  0.2373E+00  0.1849E+00  0.1144E+02  0.1135E+02
     41.949  0.2888E+00  0.2114E+00  0.1150E+02  0.1139E+02
     42.132  0.4177E+00  0.2643E+00  0.1157E+02  0.1144E+02
     42.314  0.2385E+00  0.1590E+00  0.1162E+02  0.1147E+02
     42.497  0.6177E-02  0.4345E+00  0.1162E+02  0.1155E+02
     42.680  0.9744E-01  0.3632E+00  0.1164E+02  0.1161E+02
     42.862  0.3378E-01  0.4438E-01  0.1164E+02  0.1162E+02
     43.045  0.4543E-01  0.9502E-01  0.1165E+02  0.1164E+02
     43.228  0.1618E+00  0.5870E-01  0.1168E+02  0.1165E+02
     43.411  0.1075E+00  0.7710E-01  0.1170E+02  0.1166E+02
     43.593  0.7219E-01  0.1714E+00  0.1171E+02  0.1170E+02
     43.776  0.1913E+00  0.4885E-01  0.1175E+02  0.1170E+02
     43.959  0.2255E+00  0.9660E-01  0.1179E+02  0.1172E+02
     44.142  0.9533E-01  0.1258E+00  0.1181E+02  0.1174E+02
     44.324  0.1325E-02  0.3133E-01  0.1181E+02  0.1175E+02
     44.507  0.6975E-01  0.1558E+00  0.1182E+02  0.1178E+02
     44.690  0.1183E+00  0.1388E+00  0.1184E+02  0.1180E+02
     44.872  0.1333E+00  0.8838E-01  0.1186E+02  0.1182E+02
     45.055  0.1530E+00  0.2620E+00  0.1189E+02  0.1187E+02
     45.238  0.8379E-01  0.6306E-01  0.1191E+02  0.1188E+02
     45.421  0.2029E-03  0.7250E-01  0.1191E+02  0.1189E+02
     45.603  0.1148E-01  0.8207E-01  0.1191E+02  0.1191E+02
     45.786  0.2821E-01 -0.3070E-03  0.1192E+02  0.1191E+02
     45.969 -0.4396E-03  0.1542E-01  0.1192E+02  0.1191E+02
     46.152  0.2257E-01  0.2652E-01  0.1192E+02  0.1192E+02
     46.334  0.9655E-01  0.3420E-03  0.1194E+02  0.1192E+02
     46.517  0.1037E+00 -0.8305E-02  0.1196E+02  0.1191E+02
     46.700  0.4775E-01  0.7942E-01  0.1196E+02  0.1193E+02
     46.882 -0.3421E-02  0.1727E+00  0.1196E+02  0.1196E+02
     47.065 -0.1258E-02  0.2518E-01  0.1196E+02  0.1197E+02
     47.248 -0.1943E-02 -0.2221E-03  0.1196E+02  0.1197E+02
     47.431  0.1037E-01  0.2124E-01  0.1197E+02  0.1197E+02
     47.613  0.4670E-01  0.2164E-02  0.1197E+02  0.1197E+02
     47.796  0.8734E-01  0.5180E-01  0.1199E+02  0.1198E+02
     47.979  0.5816E-01  0.1052E+00  0.1200E+02  0.1200E+02
     48.162 -0.2025E-02  0.1517E-01  0.1200E+02  0.1200E+02
     48.344 -0.1371E-02 -0.3844E-02  0.1200E+02  0.1200E+02
     48.527 -0.3213E-04 -0.2358E-03  0.1200E+02  0.1200E+02
     48.710 -0.1129E-06 -0.1850E-05  0.1200E+02  0.1200E+02
     48.892 -0.6804E-10 -0.2423E-08  0.1200E+02  0.1200E+02
     49.075 -0.7349E-14 -0.5629E-12  0.1200E+02  0.1200E+02
     49.258  0.0000E+00 -0.2916E-16  0.1200E+02  0.1200E+02
     49.441  0.0000E+00  0.0000E+00  0.1200E+02  0.1200E+02
     49.623  0.0000E+00  0.0000E+00  0.1200E+02  0.1200E+02
     49.806  0.0000E+00  0.0000E+00  0.1200E+02  0.1200E+02
     49.989  0.0000E+00  0.0000E+00  0.1200E+02  0.1200E+02
     50.171  0.0000E+00  0.0000E+00  0.1200E+02  0.1200E+02
     50.354  0.0000E+00  0.0000E+00  0.1200E+02  0.1200E+02
