bcc Fe                                  
           1
    -1.375000    1.375000    1.375000
     1.375000   -1.375000    1.375000
     1.375000    1.375000   -1.375000
   Fe
   1
Direct configuration=     1
   0.00000000  0.00000000  0.00000000
