bcc Fe                                  
   2.75000000000000     
    -0.500000    0.500000    0.500000
     0.500000   -0.500000    0.500000
     0.500000    0.500000   -0.500000
   Fe
     1
Direct
  0.000000  0.000000  0.000000
 
   20   20   20
  87.791      82.988      70.179      53.207      36.171      22.007      12.175      6.8107      4.8105      4.2278    
  4.0382      4.2278      4.8105      6.8107      12.175      22.007      36.171      53.207      70.179      82.988    
  82.988      81.421      71.397      56.067      39.473      24.881      14.150      7.7952      5.0963      4.3108    
  4.0064      4.0681      4.4895      5.6852      9.4552      17.261      29.417      44.972      61.576      75.569    
  70.179      71.397      64.829      52.621      38.243      24.897      14.625      8.2015      5.2300      4.2990    
  3.9155      3.8625      4.1447      4.8019      6.9206      12.154      21.276      33.882      48.292      61.576    
  53.207      56.067      52.621      44.046      32.954      22.099      13.435      7.8304      5.1107      4.1920    
  3.7780      3.6444      3.7966      4.2342      5.1921      8.0131      13.829      22.788      33.882      44.972    
  36.171      39.473      38.243      32.954      25.340      17.501      11.070      6.8436      4.7607      4.0063    
  3.6104      3.4406      3.4957      3.7839      4.3049      5.4743      8.4443      13.829      21.276      29.417    
  22.007      24.881      24.897      22.099      17.501      12.526      8.3682      5.6430      4.3140      3.7709    
  3.4301      3.2652      3.2663      3.4334      3.7898      4.3351      5.4743      8.0131      12.154      17.261    
  12.175      14.150      14.625      13.435      11.070      8.3682      6.0885      4.6227      3.9092      3.5201    
  3.2540      3.1222      3.1069      3.1992      3.4183      3.7898      4.3049      5.1921      6.9206      9.4552    
  6.8107      7.7952      8.2015      7.8304      6.8436      5.6430      4.6227      3.9679      3.5791      3.2868    
  3.0983      3.0106      3.0036      3.0639      3.1992      3.4334      3.7839      4.2342      4.8019      5.6852    
  4.8105      5.0963      5.2300      5.1107      4.7607      4.3140      3.9092      3.5791      3.3011      3.0971    
  2.9767      2.9317      2.9450      3.0036      3.1069      3.2663      3.4957      3.7966      4.1447      4.4895    
  4.2278      4.3108      4.2990      4.1920      4.0063      3.7709      3.5201      3.2868      3.0971      2.9666    
  2.8997      2.8913      2.9317      3.0106      3.1222      3.2652      3.4406      3.6444      3.8625      4.0681    
  4.0382      4.0064      3.9155      3.7780      3.6104      3.4301      3.2540      3.0983      2.9767      2.8997    
  2.8733      2.8997      2.9767      3.0983      3.2540      3.4301      3.6104      3.7780      3.9155      4.0064    
  4.2278      4.0681      3.8625      3.6444      3.4406      3.2652      3.1222      3.0106      2.9317      2.8913    
  2.8997      2.9666      3.0971      3.2868      3.5201      3.7709      4.0063      4.1920      4.2990      4.3108    
  4.8105      4.4895      4.1447      3.7966      3.4957      3.2663      3.1069      3.0036      2.9450      2.9317    
  2.9767      3.0971      3.3011      3.5791      3.9092      4.3140      4.7607      5.1107      5.2300      5.0963    
  6.8107      5.6852      4.8019      4.2342      3.7839      3.4334      3.1992      3.0639      3.0036      3.0106    
  3.0983      3.2868      3.5791      3.9679      4.6227      5.6430      6.8436      7.8304      8.2015      7.7952    
  12.175      9.4552      6.9206      5.1921      4.3049      3.7898      3.4183      3.1992      3.1069      3.1222    
  3.2540      3.5201      3.9092      4.6227      6.0885      8.3682      11.070      13.435      14.625      14.150    
  22.007      17.261      12.154      8.0131      5.4743      4.3351      3.7898      3.4334      3.2663      3.2652    
  3.4301      3.7709      4.3140      5.6430      8.3682      12.526      17.501      22.099      24.897      24.881    
  36.171      29.417      21.276      13.829      8.4443      5.4743      4.3049      3.7839      3.4957      3.4406    
  3.6104      4.0063      4.7607      6.8436      11.070      17.501      25.340      32.954      38.243      39.473    
  53.207      44.972      33.882      22.788      13.829      8.0131      5.1921      4.2342      3.7966      3.6444    
  3.7780      4.1920      5.1107      7.8304      13.435      22.099      32.954      44.046      52.621      56.067    
  70.179      61.576      48.292      33.882      21.276      12.154      6.9206      4.8019      4.1447      3.8625    
  3.9155      4.2990      5.2300      8.2015      14.625      24.897      38.243      52.621      64.829      71.397    
  82.988      75.569      61.576      44.972      29.417      17.261      9.4552      5.6852      4.4895      4.0681    
  4.0064      4.3108      5.0963      7.7952      14.150      24.881      39.473      56.067      71.397      81.421    
  82.988      81.421      71.397      56.067      39.473      24.881      14.150      7.7952      5.0963      4.3108    
  4.0064      4.0681      4.4895      5.6852      9.4552      17.261      29.417      44.972      61.576      75.569    
  81.421      82.985      75.564      61.572      44.970      29.417      17.261      9.4557      5.6857      4.4898    
  4.0681      4.0061      4.3105      5.0961      7.7950      14.150      24.882      39.475      56.070      71.399    
  71.397      75.564      71.394      60.273      45.547      30.820      18.697      10.454      6.1186      4.5740    
  4.0614      3.8883      4.0614      4.5739      6.1181      10.454      18.696      30.820      45.550      60.277    
  56.067      61.572      60.273      52.621      41.038      28.634      17.941      10.367      6.1665      4.5418    
  3.9843      3.7339      3.7883      4.1473      4.9098      7.2784      12.639      21.455      33.050      45.548    
  39.473      44.970      45.547      41.038      32.955      23.663      15.316      9.2386      5.7788      4.3788    
  3.8459      3.5636      3.5329      3.7537      4.2266      5.2454      8.0406      13.474      21.454      30.819    
  24.881      29.417      30.820      28.634      23.663      17.502      11.770      7.5349      5.1193      4.1216    
  3.6638      3.3942      3.3207      3.4350      3.7538      4.2769      5.3875      8.0407      12.639      18.696    
  14.150      17.261      18.697      17.941      15.316      11.770      8.3681      5.8535      4.4456      3.8332    
  3.4616      3.2371      3.1584      3.2096      3.4010      3.7583      4.2771      5.2456      7.2785      10.453    
  7.7952      9.4557      10.454      10.367      9.2386      7.5349      5.8535      4.6224      3.9361      3.5475    
  3.2647      3.0999      3.0406      3.0672      3.1797      3.4010      3.7539      4.2266      4.9097      6.1180    
  5.0963      5.6857      6.1186      6.1665      5.7788      5.1193      4.4456      3.9361      3.5791      3.2935    
  3.0958      2.9898      2.9598      2.9877      3.0673      3.2097      3.4349      3.7535      4.1471      4.5738    
  4.3108      4.4898      4.5740      4.5418      4.3788      4.1216      3.8332      3.5475      3.2935      3.0973    
  2.9714      2.9144      2.9151      2.9598      3.0406      3.1584      3.3206      3.5327      3.7882      4.0615    
  4.0064      4.0681      4.0614      3.9843      3.8459      3.6638      3.4616      3.2647      3.0958      2.9714    
  2.8997      2.8820      2.9144      2.9897      3.0998      3.2370      3.3942      3.5637      3.7341      3.8885    
  4.0681      4.0061      3.8883      3.7339      3.5636      3.3942      3.2371      3.0999      2.9898      2.9144    
  2.8820      2.8996      2.9712      3.0957      3.2647      3.4617      3.6639      3.8461      3.9846      4.0615    
  4.4895      4.3105      4.0614      3.7883      3.5329      3.3207      3.1584      3.0406      2.9598      2.9151    
  2.9144      2.9712      3.0971      3.2935      3.5476      3.8334      4.1219      4.3790      4.5418      4.5738    
  5.6852      5.0961      4.5739      4.1473      3.7537      3.4350      3.2096      3.0672      2.9877      2.9598    
  2.9897      3.0957      3.2935      3.5793      3.9364      4.4459      5.1194      5.7786      6.1661      6.1180    
  9.4552      7.7950      6.1181      4.9098      4.2266      3.7538      3.4010      3.1797      3.0673      3.0406    
  3.0998      3.2647      3.5476      3.9364      4.6228      5.8537      7.5348      9.2380      10.366      10.453    
  17.261      14.150      10.454      7.2784      5.2454      4.2769      3.7583      3.4010      3.2097      3.1584    
  3.2370      3.4617      3.8334      4.4459      5.8537      8.3680      11.769      15.315      17.940      18.696    
  29.417      24.882      18.696      12.639      8.0406      5.3875      4.2771      3.7539      3.4349      3.3206    
  3.3942      3.6639      4.1219      5.1194      7.5348      11.769      17.501      23.661      28.633      30.819    
  44.972      39.475      30.820      21.455      13.474      8.0407      5.2456      4.2266      3.7535      3.5327    
  3.5637      3.8461      4.3790      5.7786      9.2380      15.315      23.661      32.954      41.038      45.548    
  61.576      56.070      45.550      33.050      21.454      12.639      7.2785      4.9097      4.1471      3.7882    
  3.7341      3.9846      4.5418      6.1661      10.366      17.940      28.633      41.038      52.622      60.277    
  75.569      71.399      60.277      45.548      30.819      18.696      10.453      6.1180      4.5738      4.0615    
  3.8885      4.0615      4.5738      6.1180      10.453      18.696      30.819      45.548      60.277      71.399    
  70.179      71.397      64.829      52.621      38.243      24.897      14.625      8.2015      5.2300      4.2990    
  3.9155      3.8625      4.1447      4.8019      6.9206      12.154      21.276      33.882      48.292      61.576    
  71.397      75.564      71.394      60.273      45.547      30.820      18.697      10.454      6.1186      4.5740    
  4.0614      3.8883      4.0614      4.5739      6.1181      10.454      18.696      30.820      45.550      60.277    
  64.829      71.394      70.175      61.572      48.290      33.882      21.277      12.155      6.9211      4.8020    
  4.1447      3.8624      3.9154      4.2990      5.2297      8.2011      14.625      24.898      38.245      52.622    
  52.621      60.273      61.572      56.067      45.549      33.051      21.456      12.640      7.2788      4.9097    
  4.1470      3.7882      3.7341      3.9845      4.5418      6.1660      10.366      17.941      28.633      41.038    
  38.243      45.547      48.290      45.549      38.247      28.636      19.193      11.722      7.0099      4.8203    
  4.0643      3.6743      3.5453      3.6743      4.0644      4.8205      7.0099      11.721      19.191      28.633    
  24.897      30.820      33.882      33.051      28.636      22.101      15.316      9.7826      6.2301      4.5471    
  3.9079      3.5329      3.3705      3.4111      3.6610      4.1234      5.0234      7.3460      11.721      17.940    
  14.625      18.697      21.277      21.456      19.193      15.316      11.070      7.5342      5.2661      4.1910    
  3.7022      3.3783      3.2207      3.2133      3.3538      3.6648      4.1454      5.0234      7.0099      10.366    
  8.2015      10.454      12.155      12.640      11.722      9.7826      7.5342      5.6422      4.4453      3.8524    
  3.4785      3.2253      3.0986      3.0778      3.1526      3.3397      3.6648      4.1233      4.8205      6.1661    
  5.2300      6.1186      6.9211      7.2788      7.0099      6.2301      5.2661      4.4453      3.9091      3.5476    
  3.2680      3.0889      3.0035      2.9914      3.0391      3.1526      3.3538      3.6609      4.0644      4.5418    
  4.2990      4.5740      4.8020      4.9097      4.8203      4.5471      4.1910      3.8524      3.5476      3.2871    
  3.0959      2.9820      2.9368      2.9441      2.9915      3.0779      3.2133      3.4110      3.6743      3.9846    
  3.9155      4.0614      4.1447      4.1470      4.0643      3.9079      3.7022      3.4785      3.2680      3.0959    
  2.9768      2.9144      2.9041      2.9369      3.0036      3.0987      3.2207      3.3705      3.5453      3.7341    
  3.8625      3.8883      3.8624      3.7882      3.6743      3.5329      3.3783      3.2253      3.0889      2.9820    
  2.9144      2.8913      2.9144      2.9820      3.0888      3.2253      3.3783      3.5330      3.6743      3.7882    
  4.1447      4.0614      3.9154      3.7341      3.5453      3.3705      3.2207      3.0986      3.0035      2.9368    
  2.9041      2.9144      2.9767      3.0958      3.2679      3.4784      3.7023      3.9080      4.0644      4.1471    
  4.8019      4.5739      4.2990      3.9845      3.6743      3.4111      3.2133      3.0778      2.9914      2.9441    
  2.9369      2.9820      3.0958      3.2869      3.5476      3.8526      4.1913      4.5475      4.8205      4.9097    
  6.9206      6.1181      5.2297      4.5418      4.0644      3.6610      3.3538      3.1526      3.0391      2.9915    
  3.0036      3.0888      3.2679      3.5476      3.9093      4.4458      5.2668      6.2305      7.0099      7.2785    
  12.154      10.454      8.2011      6.1660      4.8205      4.1234      3.6648      3.3397      3.1526      3.0779    
  3.0987      3.2253      3.4784      3.8526      4.4458      5.6429      7.5348      9.7826      11.721      12.639    
  21.276      18.696      14.625      10.366      7.0099      5.0234      4.1454      3.6648      3.3538      3.2133    
  3.2207      3.3783      3.7023      4.1913      5.2668      7.5348      11.070      15.315      19.191      21.454    
  33.882      30.820      24.898      17.941      11.721      7.3460      5.0234      4.1233      3.6609      3.4110    
  3.3705      3.5330      3.9080      4.5475      6.2305      9.7826      15.315      22.099      28.633      33.050    
  48.292      45.550      38.245      28.633      19.191      11.721      7.0099      4.8205      4.0644      3.6743    
  3.5453      3.6743      4.0644      4.8205      7.0099      11.721      19.191      28.633      38.245      45.550    
  61.576      60.277      52.622      41.038      28.633      17.940      10.366      6.1661      4.5418      3.9846    
  3.7341      3.7882      4.1471      4.9097      7.2785      12.639      21.454      33.050      45.550      56.070    
  53.207      56.067      52.621      44.046      32.954      22.099      13.435      7.8304      5.1107      4.1920    
  3.7780      3.6444      3.7966      4.2342      5.1921      8.0131      13.829      22.788      33.882      44.972    
  56.067      61.572      60.273      52.621      41.038      28.634      17.941      10.367      6.1665      4.5418    
  3.9843      3.7339      3.7883      4.1473      4.9098      7.2784      12.639      21.455      33.050      45.548    
  52.621      60.273      61.572      56.067      45.549      33.051      21.456      12.640      7.2788      4.9097    
  4.1470      3.7882      3.7341      3.9845      4.5418      6.1660      10.366      17.941      28.633      41.038    
  44.046      52.621      56.067      53.208      44.974      33.883      22.789      13.830      8.0131      5.1916    
  4.2338      3.7966      3.6446      3.7780      4.1918      5.1103      7.8300      13.435      22.099      32.954    
  32.954      41.038      45.549      44.974      39.477      30.822      21.456      13.474      8.0401      5.2448    
  4.2262      3.7536      3.5329      3.5636      3.8459      4.3788      5.7787      9.2382      15.315      23.661    
  22.099      28.634      33.051      33.883      30.822      24.900      17.941      11.721      7.3448      5.0225    
  4.1230      3.6610      3.4111      3.3704      3.5329      3.9081      4.5477      6.2307      9.7826      15.315    
  13.435      17.941      21.456      22.789      21.456      17.941      13.434      9.2367      6.2292      4.6184    
  3.9425      3.5292      3.2892      3.2139      3.2892      3.5292      3.9428      4.6192      6.2305      9.2380    
  7.8304      10.367      12.640      13.830      13.474      11.721      9.2367      6.8418      5.1184      4.1911    
  3.7157      3.3758      3.1744      3.0966      3.1229      3.2594      3.5308      3.9426      4.5475      5.7786    
  5.1107      6.1665      7.2788      8.0131      8.0401      7.3448      6.2292      5.1184      4.3137      3.8336    
  3.4787      3.2223      3.0731      3.0131      3.0221      3.0980      3.2593      3.5290      3.9080      4.3790    
  4.1920      4.5418      4.9097      5.1916      5.2448      5.0225      4.6184      4.1911      3.8336      3.5206    
  3.2650      3.0889      2.9917      2.9576      2.9698      3.0221      3.1229      3.2892      3.5330      3.8461    
  3.7780      3.9843      4.1470      4.2338      4.2262      4.1230      3.9425      3.7157      3.4787      3.2650    
  3.0985      2.9897      2.9368      2.9300      2.9577      3.0132      3.0967      3.2140      3.3705      3.5637    
  3.6444      3.7339      3.7882      3.7966      3.7536      3.6610      3.5292      3.3758      3.2223      3.0889    
  2.9897      2.9316      2.9151      2.9369      2.9918      3.0732      3.1745      3.2892      3.4110      3.5327    
  3.7966      3.7883      3.7341      3.6446      3.5329      3.4111      3.2892      3.1744      3.0731      2.9917    
  2.9368      2.9151      2.9317      2.9898      3.0888      3.2221      3.3756      3.5290      3.6609      3.7535    
  4.2342      4.1473      3.9845      3.7780      3.5636      3.3704      3.2139      3.0966      3.0131      2.9576    
  2.9300      2.9369      2.9898      3.0983      3.2646      3.4783      3.7155      3.9426      4.1233      4.2266    
  5.1921      4.9098      4.5418      4.1918      3.8459      3.5329      3.2892      3.1229      3.0221      2.9698    
  2.9577      2.9918      3.0888      3.2646      3.5201      3.8333      4.1914      4.6192      5.0234      5.2456    
  8.0131      7.2784      6.1660      5.1103      4.3788      3.9081      3.5292      3.2594      3.0980      3.0221    
  3.0132      3.0732      3.2221      3.4783      3.8333      4.3141      5.1195      6.2307      7.3460      8.0407    
  13.829      12.639      10.366      7.8300      5.7787      4.5477      3.9428      3.5308      3.2593      3.1229    
  3.0967      3.1745      3.3756      3.7155      4.1914      5.1195      6.8435      9.2382      11.721      13.474    
  22.788      21.455      17.941      13.435      9.2382      6.2307      4.6192      3.9426      3.5290      3.2892    
  3.2140      3.2892      3.5290      3.9426      4.6192      6.2307      9.2382      13.435      17.941      21.455    
  33.882      33.050      28.633      22.099      15.315      9.7826      6.2305      4.5475      3.9080      3.5330    
  3.3705      3.4110      3.6609      4.1233      5.0234      7.3460      11.721      17.941      24.898      30.820    
  44.972      45.548      41.038      32.954      23.661      15.315      9.2380      5.7786      4.3790      3.8461    
  3.5637      3.5327      3.7535      4.2266      5.2456      8.0407      13.474      21.455      30.820      39.475    
  36.171      39.473      38.243      32.954      25.340      17.501      11.070      6.8436      4.7607      4.0063    
  3.6104      3.4406      3.4957      3.7839      4.3049      5.4743      8.4443      13.829      21.276      29.417    
  39.473      44.970      45.547      41.038      32.955      23.663      15.316      9.2386      5.7788      4.3788    
  3.8459      3.5636      3.5329      3.7537      4.2266      5.2454      8.0406      13.474      21.454      30.819    
  38.243      45.547      48.290      45.549      38.247      28.636      19.193      11.722      7.0099      4.8203    
  4.0643      3.6743      3.5453      3.6743      4.0644      4.8205      7.0099      11.721      19.191      28.633    
  32.954      41.038      45.549      44.974      39.477      30.822      21.456      13.474      8.0401      5.2448    
  4.2262      3.7536      3.5329      3.5636      3.8459      4.3788      5.7787      9.2382      15.315      23.661    
  25.340      32.955      38.247      39.477      36.175      29.420      21.277      13.829      8.4430      5.4732    
  4.3043      3.7837      3.4957      3.4405      3.6103      4.0063      4.7607      6.8435      11.070      17.501    
  17.501      23.663      28.636      30.822      29.420      24.883      18.696      12.637      8.0387      5.3862    
  4.2765      3.7538      3.4350      3.3205      3.3942      3.6639      4.1220      5.1195      7.5348      11.769    
  11.070      15.316      19.193      21.456      21.277      18.696      14.623      10.363      7.0080      5.0224    
  4.1451      3.6649      3.3539      3.2133      3.2207      3.3783      3.7024      4.1914      5.2668      7.5348    
  6.8436      9.2386      11.722      13.474      13.829      12.637      10.363      7.8278      5.7774      4.5474    
  3.9431      3.5311      3.2595      3.1230      3.0967      3.1745      3.3756      3.7155      4.1913      5.1194    
  4.7607      5.7788      7.0099      8.0401      8.4430      8.0387      7.0080      5.7774      4.7604      4.1224    
  3.7030      3.3761      3.1619      3.0500      3.0165      3.0500      3.1618      3.3756      3.7023      4.1219    
  4.0063      4.3788      4.8203      5.2448      5.4732      5.3862      5.0224      4.5474      4.1224      3.7718    
  3.4623      3.2255      3.0732      2.9943      2.9697      2.9871      3.0500      3.1745      3.3783      3.6639    
  3.6104      3.8459      4.0643      4.2262      4.3043      4.2765      4.1451      3.9431      3.7030      3.4623    
  3.2544      3.0999      3.0035      2.9577      2.9496      2.9697      3.0165      3.0967      3.2207      3.3942    
  3.4406      3.5636      3.6743      3.7536      3.7837      3.7538      3.6649      3.5311      3.3761      3.2255    
  3.0999      3.0105      2.9597      2.9442      2.9577      2.9944      3.0500      3.1229      3.2133      3.3206    
  3.4957      3.5329      3.5453      3.5329      3.4957      3.4350      3.3539      3.2595      3.1619      3.0732    
  3.0035      2.9597      2.9449      2.9598      3.0036      3.0731      3.1618      3.2593      3.3538      3.4349    
  3.7839      3.7537      3.6743      3.5636      3.4405      3.3205      3.2133      3.1230      3.0500      2.9943    
  2.9577      2.9442      2.9598      3.0106      3.0998      3.2252      3.3756      3.5308      3.6648      3.7539    
  4.3049      4.2266      4.0644      3.8459      3.6103      3.3942      3.2207      3.0967      3.0165      2.9697    
  2.9496      2.9577      3.0036      3.0998      3.2540      3.4616      3.7024      3.9428      4.1454      4.2771    
  5.4743      5.2454      4.8205      4.3788      4.0063      3.6639      3.3783      3.1745      3.0500      2.9871    
  2.9697      2.9944      3.0731      3.2252      3.4616      3.7710      4.1220      4.5477      5.0234      5.3875    
  8.4443      8.0406      7.0099      5.7787      4.7607      4.1220      3.7024      3.3756      3.1618      3.0500    
  3.0165      3.0500      3.1618      3.3756      3.7024      4.1220      4.7607      5.7787      7.0099      8.0406    
  13.829      13.474      11.721      9.2382      6.8435      5.1195      4.1914      3.7155      3.3756      3.1745    
  3.0967      3.1229      3.2593      3.5308      3.9428      4.5477      5.7787      7.8300      10.366      12.639    
  21.276      21.454      19.191      15.315      11.070      7.5348      5.2668      4.1913      3.7023      3.3783    
  3.2207      3.2133      3.3538      3.6648      4.1454      5.0234      7.0099      10.366      14.625      18.696    
  29.417      30.819      28.633      23.661      17.501      11.769      7.5348      5.1194      4.1219      3.6639    
  3.3942      3.3206      3.4349      3.7539      4.2771      5.3875      8.0406      12.639      18.696      24.882    
  22.007      24.881      24.897      22.099      17.501      12.526      8.3682      5.6430      4.3140      3.7709    
  3.4301      3.2652      3.2663      3.4334      3.7898      4.3351      5.4743      8.0131      12.154      17.261    
  24.881      29.417      30.820      28.634      23.663      17.502      11.770      7.5349      5.1193      4.1216    
  3.6638      3.3942      3.3207      3.4350      3.7538      4.2769      5.3875      8.0407      12.639      18.696    
  24.897      30.820      33.882      33.051      28.636      22.101      15.316      9.7826      6.2301      4.5471    
  3.9079      3.5329      3.3705      3.4111      3.6610      4.1234      5.0234      7.3460      11.721      17.940    
  22.099      28.634      33.051      33.883      30.822      24.900      17.941      11.721      7.3448      5.0225    
  4.1230      3.6610      3.4111      3.3704      3.5329      3.9081      4.5477      6.2307      9.7826      15.315    
  17.501      23.663      28.636      30.822      29.420      24.883      18.696      12.637      8.0387      5.3862    
  4.2765      3.7538      3.4350      3.3205      3.3942      3.6639      4.1220      5.1195      7.5348      11.769    
  12.526      17.502      22.101      24.900      24.883      22.007      17.259      12.151      8.0107      5.4730    
  4.3349      3.7899      3.4335      3.2663      3.2652      3.4301      3.7710      4.3141      5.6429      8.3680    
  8.3682      11.770      15.316      17.941      18.696      17.259      14.146      10.450      7.2765      5.2449    
  4.2773      3.7588      3.4013      3.2098      3.1584      3.2370      3.4616      3.8333      4.4458      5.8537    
  5.6430      7.5349      9.7826      11.721      12.637      12.151      10.450      8.1988      6.1654      4.8212    
  4.1245      3.6657      3.3401      3.1528      3.0780      3.0987      3.2252      3.4783      3.8526      4.4459    
  4.3140      5.1193      6.2301      7.3448      8.0387      8.0107      7.2765      6.1654      5.1111      4.3804    
  3.9096      3.5300      3.2597      3.0981      3.0222      3.0132      3.0731      3.2221      3.4784      3.8334    
  3.7709      4.1216      4.5471      5.0225      5.3862      5.4730      5.2449      4.8212      4.3804      4.0080    
  3.6651      3.3788      3.1745      3.0500      2.9871      2.9697      2.9944      3.0732      3.2253      3.4617    
  3.4301      3.6638      3.9079      4.1230      4.2765      4.3349      4.2773      4.1245      3.9096      3.6651    
  3.4307      3.2370      3.0984      3.0130      2.9696      2.9567      2.9697      3.0132      3.0987      3.2370    
  3.2652      3.3942      3.5329      3.6610      3.7538      3.7899      3.7588      3.6657      3.5300      3.3788    
  3.2370      3.1218      3.0402      2.9913      2.9698      2.9697      2.9871      3.0221      3.0779      3.1584    
  3.2663      3.3207      3.3705      3.4111      3.4350      3.4335      3.4013      3.3401      3.2597      3.1745    
  3.0984      3.0402      3.0033      2.9876      2.9915      3.0132      3.0500      3.0980      3.1526      3.2097    
  3.4334      3.4350      3.4111      3.3704      3.3205      3.2663      3.2098      3.1528      3.0981      3.0500    
  3.0130      2.9913      2.9876      3.0036      3.0406      3.0987      3.1745      3.2594      3.3397      3.4010    
  3.7898      3.7538      3.6610      3.5329      3.3942      3.2652      3.1584      3.0780      3.0222      2.9871    
  2.9696      2.9698      2.9915      3.0406      3.1222      3.2370      3.3783      3.5292      3.6648      3.7583    
  4.3351      4.2769      4.1234      3.9081      3.6639      3.4301      3.2370      3.0987      3.0132      2.9697    
  2.9567      2.9697      3.0132      3.0987      3.2370      3.4301      3.6639      3.9081      4.1234      4.2769    
  5.4743      5.3875      5.0234      4.5477      4.1220      3.7710      3.4616      3.2252      3.0731      2.9944    
  2.9697      2.9871      3.0500      3.1745      3.3783      3.6639      4.0063      4.3788      4.8205      5.2454    
  8.0131      8.0407      7.3460      6.2307      5.1195      4.3141      3.8333      3.4783      3.2221      3.0732    
  3.0132      3.0221      3.0980      3.2594      3.5292      3.9081      4.3788      5.1103      6.1660      7.2784    
  12.154      12.639      11.721      9.7826      7.5348      5.6429      4.4458      3.8526      3.4784      3.2253    
  3.0987      3.0779      3.1526      3.3397      3.6648      4.1234      4.8205      6.1660      8.2011      10.454    
  17.261      18.696      17.940      15.315      11.769      8.3680      5.8537      4.4459      3.8334      3.4617    
  3.2370      3.1584      3.2097      3.4010      3.7583      4.2769      5.2454      7.2784      10.454      14.150    
  12.175      14.150      14.625      13.435      11.070      8.3682      6.0885      4.6227      3.9092      3.5201    
  3.2540      3.1222      3.1069      3.1992      3.4183      3.7898      4.3049      5.1921      6.9206      9.4552    
  14.150      17.261      18.697      17.941      15.316      11.770      8.3681      5.8535      4.4456      3.8332    
  3.4616      3.2371      3.1584      3.2096      3.4010      3.7583      4.2771      5.2456      7.2785      10.453    
  14.625      18.697      21.277      21.456      19.193      15.316      11.070      7.5342      5.2661      4.1910    