bcc Fe                                  
   2.75000000000000     
    -0.500000    0.500000    0.500000
     0.500000   -0.500000    0.500000
     0.500000    0.500000   -0.500000
   Fe
     1
Direct
  0.000000  0.000000  0.000000
 
   20   20   20
 0.87791376318E+02 0.82988404741E+02 0.70179407423E+02 0.53206917659E+02 0.36170891798E+02
 0.22006631354E+02 0.12174699546E+02 0.68107401242E+01 0.48104764010E+01 0.42277716559E+01
 0.40382292038E+01 0.42277716559E+01 0.48104764010E+01 0.68107401242E+01 0.12174699546E+02
 0.22006631354E+02 0.36170891798E+02 0.53206917659E+02 0.70179407423E+02 0.82988404741E+02
 0.82988404741E+02 0.81421203360E+02 0.71396677650E+02 0.56066756914E+02 0.39472856760E+02
 0.24881176366E+02 0.14149694695E+02 0.77951921804E+01 0.50963211449E+01 0.43108244468E+01
 0.40063610962E+01 0.40680747618E+01 0.44894568269E+01 0.56852212739E+01 0.94551563499E+01
 0.17260550280E+02 0.29417435430E+02 0.44972181356E+02 0.61575710084E+02 0.75568976277E+02
 0.70179407423E+02 0.71396677650E+02 0.64829171083E+02 0.52620783530E+02 0.38243491619E+02
 0.24897453932E+02 0.14625234716E+02 0.82015012191E+01 0.52299622735E+01 0.42990395093E+01
 0.39154644010E+01 0.38624507542E+01 0.41447386194E+01 0.48019194210E+01 0.69206043934E+01
 0.12153870799E+02 0.21275737367E+02 0.33881519451E+02 0.48292370564E+02 0.61575710084E+02
 0.53206917659E+02 0.56066756914E+02 0.52620783530E+02 0.44046239607E+02 0.32953775104E+02
 0.22099140489E+02 0.13435283232E+02 0.78303938428E+01 0.51106763287E+01 0.41919713877E+01
 0.37779751386E+01 0.36444389574E+01 0.37965797599E+01 0.42341734455E+01 0.51920880764E+01
 0.80131041993E+01 0.13829410465E+02 0.22787671272E+02 0.33881519451E+02 0.44972181356E+02
 0.36170891798E+02 0.39472856760E+02 0.38243491619E+02 0.32953775104E+02 0.25339636959E+02
 0.17501200372E+02 0.11069893981E+02 0.68435736753E+01 0.47607357592E+01 0.40063026656E+01
 0.36103696191E+01 0.34405720128E+01 0.34957489153E+01 0.37838869747E+01 0.43048985576E+01
 0.54742578734E+01 0.84442691192E+01 0.13829410465E+02 0.21275737367E+02 0.29417435430E+02
 0.22006631354E+02 0.24881176366E+02 0.24897453932E+02 0.22099140489E+02 0.17501200372E+02
 0.12525882344E+02 0.83681548790E+01 0.56430287269E+01 0.43140341607E+01 0.37709085764E+01
 0.34300630849E+01 0.32652339361E+01 0.32663148831E+01 0.34334340949E+01 0.37897923524E+01
 0.43351264779E+01 0.54742578734E+01 0.80131041993E+01 0.12153870799E+02 0.17260550280E+02
 0.12174699546E+02 0.14149694695E+02 0.14625234716E+02 0.13435283232E+02 0.11069893981E+02
 0.83681548790E+01 0.60885384988E+01 0.46227153264E+01 0.39092269780E+01 0.35200852412E+01
 0.32540442335E+01 0.31221767664E+01 0.31069221265E+01 0.31992461883E+01 0.34183226518E+01
 0.37897923524E+01 0.43048985576E+01 0.51920880764E+01 0.69206043934E+01 0.94551563499E+01
 0.68107401242E+01 0.77951921804E+01 0.82015012191E+01 0.78303938428E+01 0.68435736753E+01
 0.56430287269E+01 0.46227153264E+01 0.39679241011E+01 0.35791325409E+01 0.32868051794E+01
 0.30982897989E+01 0.30106241131E+01 0.30036399010E+01 0.30639276510E+01 0.31992461883E+01
 0.34334340949E+01 0.37838869747E+01 0.42341734455E+01 0.48019194210E+01 0.56852212739E+01
 0.48104764010E+01 0.50963211449E+01 0.52299622735E+01 0.51106763287E+01 0.47607357592E+01
 0.43140341607E+01 0.39092269780E+01 0.35791325409E+01 0.33010859806E+01 0.30971259045E+01
 0.29766992587E+01 0.29316524705E+01 0.29450045034E+01 0.30036399010E+01 0.31069221265E+01
 0.32663148831E+01 0.34957489153E+01 0.37965797599E+01 0.41447386194E+01 0.44894568269E+01
 0.42277716559E+01 0.43108244468E+01 0.42990395093E+01 0.41919713877E+01 0.40063026656E+01
 0.37709085764E+01 0.35200852412E+01 0.32868051794E+01 0.30971259045E+01 0.29666404661E+01
 0.28996758017E+01 0.28913309575E+01 0.29316524705E+01 0.30106241131E+01 0.31221767664E+01
 0.32652339361E+01 0.34405720128E+01 0.36444389574E+01 0.38624507542E+01 0.40680747618E+01
 0.40382292038E+01 0.40063610962E+01 0.39154644010E+01 0.37779751386E+01 0.36103696191E+01
 0.34300630849E+01 0.32540442335E+01 0.30982897989E+01 0.29766992587E+01 0.28996758017E+01
 0.28733456128E+01 0.28996758017E+01 0.29766992587E+01 0.30982897989E+01 0.32540442335E+01
 0.34300630849E+01 0.36103696191E+01 0.37779751386E+01 0.39154644010E+01 0.40063610962E+01
 0.42277716559E+01 0.40680747618E+01 0.38624507542E+01 0.36444389574E+01 0.34405720128E+01
 0.32652339361E+01 0.31221767664E+01 0.30106241131E+01 0.29316524705E+01 0.28913309575E+01
 0.28996758017E+01 0.29666404661E+01 0.30971259045E+01 0.32868051794E+01 0.35200852412E+01
 0.37709085764E+01 0.40063026656E+01 0.41919713877E+01 0.42990395093E+01 0.43108244468E+01
 0.48104764010E+01 0.44894568269E+01 0.41447386194E+01 0.37965797599E+01 0.34957489153E+01
 0.32663148831E+01 0.31069221265E+01 0.30036399010E+01 0.29450045034E+01 0.29316524705E+01
 0.29766992587E+01 0.30971259045E+01 0.33010859806E+01 0.35791325409E+01 0.39092269780E+01
 0.43140341607E+01 0.47607357592E+01 0.51106763287E+01 0.52299622735E+01 0.50963211449E+01
 0.68107401242E+01 0.56852212739E+01 0.48019194210E+01 0.42341734455E+01 0.37838869747E+01
 0.34334340949E+01 0.31992461883E+01 0.30639276510E+01 0.30036399010E+01 0.30106241131E+01
 0.30982897989E+01 0.32868051794E+01 0.35791325409E+01 0.39679241011E+01 0.46227153264E+01
 0.56430287269E+01 0.68435736753E+01 0.78303938428E+01 0.82015012191E+01 0.77951921804E+01
 0.12174699546E+02 0.94551563499E+01 0.69206043934E+01 0.51920880764E+01 0.43048985576E+01
 0.37897923524E+01 0.34183226518E+01 0.31992461883E+01 0.31069221265E+01 0.31221767664E+01
 0.32540442335E+01 0.35200852412E+01 0.39092269780E+01 0.46227153264E+01 0.60885384988E+01
 0.83681548790E+01 0.11069893981E+02 0.13435283232E+02 0.14625234716E+02 0.14149694695E+02
 0.22006631354E+02 0.17260550280E+02 0.12153870799E+02 0.80131041993E+01 0.54742578734E+01
 0.43351264779E+01 0.37897923524E+01 0.34334340949E+01 0.32663148831E+01 0.32652339361E+01
 0.34300630849E+01 0.37709085764E+01 0.43140341607E+01 0.56430287269E+01 0.83681548790E+01
 0.12525882344E+02 0.17501200372E+02 0.22099140489E+02 0.24897453932E+02 0.24881176366E+02
 0.36170891798E+02 0.29417435430E+02 0.21275737367E+02 0.13829410465E+02 0.84442691192E+01
 0.54742578734E+01 0.43048985576E+01 0.37838869747E+01 0.34957489153E+01 0.34405720128E+01
 0.36103696191E+01 0.40063026656E+01 0.47607357592E+01 0.68435736753E+01 0.11069893981E+02
 0.17501200372E+02 0.25339636959E+02 0.32953775104E+02 0.38243491619E+02 0.39472856760E+02
 0.53206917659E+02 0.44972181356E+02 0.33881519451E+02 0.22787671272E+02 0.13829410465E+02
 0.80131041993E+01 0.51920880764E+01 0.42341734455E+01 0.37965797599E+01 0.36444389574E+01
 0.37779751386E+01 0.41919713877E+01 0.51106763287E+01 0.78303938428E+01 0.13435283232E+02
 0.22099140489E+02 0.32953775104E+02 0.44046239607E+02 0.52620783530E+02 0.56066756914E+02
 0.70179407423E+02 0.61575710084E+02 0.48292370564E+02 0.33881519451E+02 0.21275737367E+02
 0.12153870799E+02 0.69206043934E+01 0.48019194210E+01 0.41447386194E+01 0.38624507542E+01
 0.39154644010E+01 0.42990395093E+01 0.52299622735E+01 0.82015012191E+01 0.14625234716E+02
 0.24897453932E+02 0.38243491619E+02 0.52620783530E+02 0.64829171083E+02 0.71396677650E+02
 0.82988404741E+02 0.75568976277E+02 0.61575710084E+02 0.44972181356E+02 0.29417435430E+02
 0.17260550280E+02 0.94551563499E+01 0.56852212739E+01 0.44894568269E+01 0.40680747618E+01
 0.40063610962E+01 0.43108244468E+01 0.50963211449E+01 0.77951921804E+01 0.14149694695E+02
 0.24881176366E+02 0.39472856760E+02 0.56066756914E+02 0.71396677650E+02 0.81421203360E+02
 0.82988404741E+02 0.81421203360E+02 0.71396677650E+02 0.56066756914E+02 0.39472856760E+02
 0.24881176366E+02 0.14149694695E+02 0.77951921804E+01 0.50963211449E+01 0.43108244468E+01
 0.40063610962E+01 0.40680747618E+01 0.44894568269E+01 0.56852212739E+01 0.94551563499E+01
 0.17260550280E+02 0.29417435430E+02 0.44972181356E+02 0.61575710084E+02 0.75568976277E+02
 0.81421203360E+02 0.82985316255E+02 0.75564269874E+02 0.61571675509E+02 0.44970158513E+02
 0.29417182663E+02 0.17261060218E+02 0.94557231680E+01 0.56856798061E+01 0.44897751328E+01
 0.40681329986E+01 0.40061466353E+01 0.43105330035E+01 0.50961039143E+01 0.77950025254E+01
 0.14149628321E+02 0.24881826616E+02 0.39474891237E+02 0.56069879075E+02 0.71399220715E+02
 0.71396677650E+02 0.75564269874E+02 0.71394239743E+02 0.60273460098E+02 0.45547306992E+02
 0.30819624040E+02 0.18696999717E+02 0.10454319896E+02 0.61185574738E+01 0.45740236824E+01
 0.40614184143E+01 0.38882675715E+01 0.40614047615E+01 0.45738913498E+01 0.61181235151E+01
 0.10453579454E+02 0.18696478776E+02 0.30820266068E+02 0.45549644406E+02 0.60276759872E+02
 0.56066756914E+02 0.61571675509E+02 0.60273460098E+02 0.52621008132E+02 0.41038084337E+02
 0.28634115188E+02 0.17941347149E+02 0.10366708751E+02 0.61665230431E+01 0.45418478854E+01
 0.39843437955E+01 0.37338953248E+01 0.37882681007E+01 0.41473232294E+01 0.49097967348E+01
 0.72784356674E+01 0.12638780315E+02 0.21454575794E+02 0.33050001067E+02 0.45548293238E+02
 0.39472856760E+02 0.44970158513E+02 0.45547306992E+02 0.41038084337E+02 0.32955068132E+02
 0.23662519576E+02 0.15316393670E+02 0.92385702502E+01 0.57787660394E+01 0.43788416405E+01
 0.38458636471E+01 0.35636287558E+01 0.35328834731E+01 0.37537070700E+01 0.42265874422E+01
 0.52454066329E+01 0.80406235506E+01 0.13474045622E+02 0.21454231152E+02 0.30819051875E+02
 0.24881176366E+02 0.29417182663E+02 0.30819624040E+02 0.28634115188E+02 0.23662519576E+02
 0.17501907050E+02 0.11769799434E+02 0.75349037102E+01 0.51192914011E+01 0.41216481832E+01
 0.36637749899E+01 0.33942314821E+01 0.33206682532E+01 0.34349880216E+01 0.37538446640E+01
 0.42769362043E+01 0.53875304175E+01 0.80407074764E+01 0.12638673048E+02 0.18695989194E+02
 0.14149694695E+02 0.17261060218E+02 0.18696999717E+02 0.17941347149E+02 0.15316393670E+02
 0.11769799434E+02 0.83680787574E+01 0.58534821427E+01 0.44455778606E+01 0.38332296910E+01
 0.34616098076E+01 0.32370648955E+01 0.31583861062E+01 0.32096381960E+01 0.34009563055E+01
 0.37583126596E+01 0.42770629910E+01 0.52455526516E+01 0.72784552979E+01 0.10453495692E+02
 0.77951921804E+01 0.94557231680E+01 0.10454319896E+02 0.10366708751E+02 0.92385702502E+01
 0.75349037102E+01 0.58534821427E+01 0.46224269405E+01 0.39361415721E+01 0.35474566615E+01
 0.32647198000E+01 0.30999015711E+01 0.30405833726E+01 0.30672185236E+01 0.31797292397E+01
 0.34010397808E+01 0.37539368179E+01 0.42265729942E+01 0.49096671048E+01 0.61180402340E+01
 0.50963211449E+01 0.56856798061E+01 0.61185574738E+01 0.61665230431E+01 0.57787660394E+01
 0.51192914011E+01 0.44455778606E+01 0.39361415721E+01 0.35791149205E+01 0.32934949245E+01
 0.30958458119E+01 0.29897611427E+01 0.29598334745E+01 0.29876877191E+01 0.30672636557E+01
 0.32096884616E+01 0.34349378663E+01 0.37535142960E+01 0.41470949956E+01 0.45738225608E+01
 0.43108244468E+01 0.44897751328E+01 0.45740236824E+01 0.45418478854E+01 0.43788416405E+01
 0.41216481832E+01 0.38332296910E+01 0.35474566615E+01 0.32934949245E+01 0.30972609633E+01
 0.29713709084E+01 0.29144174782E+01 0.29150761038E+01 0.29598243040E+01 0.30405877735E+01
 0.31583572830E+01 0.33205583020E+01 0.35327344422E+01 0.37882067948E+01 0.40615322900E+01
 0.40063610962E+01 0.40681329986E+01 0.40614184143E+01 0.39843437955E+01 0.38458636471E+01
 0.36637749899E+01 0.34616098076E+01 0.32647198000E+01 0.30958458119E+01 0.29713709084E+01
 0.28996985116E+01 0.28820179805E+01 0.29143512418E+01 0.29896856698E+01 0.30998471712E+01
 0.32370271194E+01 0.33942194469E+01 0.35636921234E+01 0.37340757585E+01 0.38885255218E+01
 0.40680747618E+01 0.40061466353E+01 0.38882675715E+01 0.37338953248E+01 0.35636287558E+01
 0.33942314821E+01 0.32370648955E+01 0.30999015711E+01 0.29897611427E+01 0.29144174782E+01
 0.28820179805E+01 0.28996084653E+01 0.29712342208E+01 0.30957384055E+01 0.32646922729E+01
 0.34616714538E+01 0.36639171698E+01 0.38460666042E+01 0.39845509389E+01 0.40615322900E+01
 0.44894568269E+01 0.43105330035E+01 0.40614047615E+01 0.37882681007E+01 0.35328834731E+01
 0.33206682532E+01 0.31583861062E+01 0.30405833726E+01 0.29598334745E+01 0.29150761038E+01
 0.29143512418E+01 0.29712342208E+01 0.30971309669E+01 0.32934678296E+01 0.35475681334E+01
 0.38334363479E+01 0.41218641079E+01 0.43789760638E+01 0.45418271202E+01 0.45738225608E+01
 0.56852212739E+01 0.50961039143E+01 0.45738913498E+01 0.41473232294E+01 0.37537070700E+01
 0.34349880216E+01 0.32096381960E+01 0.30672185236E+01 0.29876877191E+01 0.29598243040E+01
 0.29896856698E+01 0.30957384055E+01 0.32934678296E+01 0.35792535392E+01 0.39364198179E+01
 0.44458656852E+01 0.51194304430E+01 0.57786497990E+01 0.61661479703E+01 0.61180402340E+01
 0.94551563499E+01 0.77950025254E+01 0.61181235151E+01 0.49097967348E+01 0.42265874422E+01
 0.37538446640E+01 0.34009563055E+01 0.31797292397E+01 0.30672636557E+01 0.30405877735E+01
 0.30998471712E+01 0.32646922729E+01 0.35475681334E+01 0.39364198179E+01 0.46227658420E+01
 0.58536834907E+01 0.75347788644E+01 0.92380489213E+01 0.10365903811E+02 0.10453495692E+02
 0.17260550280E+02 0.14149628321E+02 0.10453579454E+02 0.72784356674E+01 0.52454066329E+01
 0.42769362043E+01 0.37583126596E+01 0.34010397808E+01 0.32096884616E+01 0.31583572830E+01
 0.32370271194E+01 0.34616714538E+01 0.38334363479E+01 0.44458656852E+01 0.58536834907E+01
 0.83679694157E+01 0.11769204254E+02 0.15315333424E+02 0.17940105250E+02 0.18695989194E+02
 0.29417435430E+02 0.24881826616E+02 0.18696478776E+02 0.12638780315E+02 0.80406235506E+01
 0.53875304175E+01 0.42770629910E+01 0.37539368179E+01 0.34349378663E+01 0.33205583020E+01
 0.33942194469E+01 0.36639171698E+01 0.41218641079E+01 0.51194304430E+01 0.75347788644E+01
 0.11769204254E+02 0.17500746552E+02 0.23661014461E+02 0.28632810070E+02 0.30819051875E+02
 0.44972181356E+02 0.39474891237E+02 0.30820266068E+02 0.21454575794E+02 0.13474045622E+02
 0.80407074764E+01 0.52455526516E+01 0.42265729942E+01 0.37535142960E+01 0.35327344422E+01
 0.35636921234E+01 0.38460666042E+01 0.43789760638E+01 0.57786497990E+01 0.92380489213E+01
 0.15315333424E+02 0.23661014461E+02 0.32953674805E+02 0.41037641664E+02 0.45548293238E+02
 0.61575710084E+02 0.56069879075E+02 0.45549644406E+02 0.33050001067E+02 0.21454231152E+02
 0.12638673048E+02 0.72784552979E+01 0.49096671048E+01 0.41470949956E+01 0.37882067948E+01
 0.37340757585E+01 0.39845509389E+01 0.45418271202E+01 0.61661479703E+01 0.10365903811E+02
 0.17940105250E+02 0.28632810070E+02 0.41037641664E+02 0.52622397254E+02 0.60276759872E+02
 0.75568976277E+02 0.71399220715E+02 0.60276759872E+02 0.45548293238E+02 0.30819051875E+02
 0.18695989194E+02 0.10453495692E+02 0.61180402340E+01 0.45738225608E+01 0.40615322900E+01
 0.38885255218E+01 0.40615322900E+01 0.45738225608E+01 0.61180402340E+01 0.10453495692E+02
 0.18695989194E+02 0.30819051875E+02 0.45548293238E+02 0.60276759872E+02 0.71399220715E+02
 0.70179407423E+02 0.71396677650E+02 0.64829171083E+02 0.52620783530E+02 0.38243491619E+02
 0.24897453932E+02 0.14625234716E+02 0.82015012191E+01 0.52299622735E+01 0.42990395093E+01
 0.39154644010E+01 0.38624507542E+01 0.41447386194E+01 0.48019194210E+01 0.69206043934E+01
 0.12153870799E+02 0.21275737367E+02 0.33881519451E+02 0.48292370564E+02 0.61575710084E+02
 0.71396677650E+02 0.75564269874E+02 0.71394239743E+02 0.60273460098E+02 0.45547306992E+02
 0.30819624040E+02 0.18696999717E+02 0.10454319896E+02 0.61185574738E+01 0.45740236824E+01
 0.40614184143E+01 0.38882675715E+01 0.40614047615E+01 0.45738913498E+01 0.61181235151E+01
 0.10453579454E+02 0.18696478776E+02 0.30820266068E+02 0.45549644406E+02 0.60276759872E+02
 0.64829171083E+02 0.71394239743E+02 0.70175336830E+02 0.61571946175E+02 0.48290495506E+02
 0.33881685082E+02 0.21276915141E+02 0.12154939368E+02 0.69211175191E+01 0.48020287534E+01
 0.41447155563E+01 0.38624241155E+01 0.39154437856E+01 0.42989594649E+01 0.52297131513E+01
 0.82011192328E+01 0.14625127079E+02 0.24898206746E+02 0.38245166394E+02 0.52622397254E+02
 0.52620783530E+02 0.60273460098E+02 0.61571946175E+02 0.56067377340E+02 0.45549314170E+02
 0.33051339116E+02 0.21455947710E+02 0.12639792575E+02 0.72788295404E+01 0.49096538924E+01
 0.41470176977E+01 0.37881681734E+01 0.37340712780E+01 0.39845472615E+01 0.45417600865E+01
 0.61660237180E+01 0.10365933172E+02 0.17940539169E+02 0.28633456812E+02 0.41037641664E+02
 0.38243491619E+02 0.45547306992E+02 0.48290495506E+02 0.45549314170E+02 0.38246511018E+02
 0.28635554454E+02 0.19192603115E+02 0.11721834106E+02 0.70098993000E+01 0.48202550741E+01
 0.40642666903E+01 0.36742614305E+01 0.35453045568E+01 0.36743385288E+01 0.40644346654E+01
 0.48204694018E+01 0.70099325018E+01 0.11721234306E+02 0.19190922104E+02 0.28632810070E+02
 0.24897453932E+02 0.30819624040E+02 0.33881685082E+02 0.33051339116E+02 0.28635554454E+02
 0.22100889572E+02 0.15316364329E+02 0.97826392946E+01 0.62300785435E+01 0.45471278889E+01
 0.39079182471E+01 0.35329426064E+01 0.33704700496E+01 0.34110744233E+01 0.36609822612E+01
 0.41233514725E+01 0.50234450955E+01 0.73459684524E+01 0.11721109765E+02 0.17940105250E+02
 0.14625234716E+02 0.18696999717E+02 0.21276915141E+02 0.21455947710E+02 0.19192603115E+02
 0.15316364329E+02 0.11069592148E+02 0.75341833674E+01 0.52661456806E+01 0.41909702126E+01
 0.37022023112E+01 0.33782837766E+01 0.32206871184E+01 0.32132727430E+01 0.33538138602E+01
 0.36648487747E+01 0.41453563714E+01 0.50234133122E+01 0.70098895183E+01 0.10365903811E+02
 0.82015012191E+01 0.10454319896E+02 0.12154939368E+02 0.12639792575E+02 0.11721834106E+02
 0.97826392946E+01 0.75341833674E+01 0.56421622824E+01 0.44452835424E+01 0.38524275923E+01
 0.34784519888E+01 0.32252879120E+01 0.30985944221E+01 0.30777743859E+01 0.31525891884E+01
 0.33397104054E+01 0.36648142137E+01 0.41232887865E+01 0.48204507600E+01 0.61661479703E+01
 0.52299622735E+01 0.61185574738E+01 0.69211175191E+01 0.72788295404E+01 0.70098993000E+01
 0.62300785435E+01 0.52661456806E+01 0.44452835424E+01 0.39090746326E+01 0.35476259688E+01
 0.32680421265E+01 0.30888513137E+01 0.30035491407E+01 0.29914326855E+01 0.30390675786E+01
 0.31526140870E+01 0.33537931902E+01 0.36609128299E+01 0.40643869093E+01 0.45418271202E+01
 0.42990395093E+01 0.45740236824E+01 0.48020287534E+01 0.49096538924E+01 0.48202550741E+01
 0.45471278889E+01 0.41909702126E+01 0.38524275923E+01 0.35476259688E+01 0.32870894555E+01
 0.30959388773E+01 0.29820366542E+01 0.29368328112E+01 0.29441310967E+01 0.29915059697E+01
 0.30778618924E+01 0.32133055805E+01 0.34110432567E+01 0.36742939923E+01 0.39845509389E+01
 0.39154644010E+01 0.40614184143E+01 0.41447155563E+01 0.41470176977E+01 0.40642666903E+01
 0.39079182471E+01 0.37022023112E+01 0.34784519888E+01 0.32680421265E+01 0.30959388773E+01
 0.29767810987E+01 0.29143771531E+01 0.29040944443E+01 0.29368804323E+01 0.30036405357E+01
 0.30986825940E+01 0.32207314936E+01 0.33704710955E+01 0.35452936010E+01 0.37340757585E+01
 0.38624507542E+01 0.38882675715E+01 0.38624241155E+01 0.37881681734E+01 0.36742614305E+01
 0.35329426064E+01 0.33782837766E+01 0.32252879120E+01 0.30888513137E+01 0.29820366542E+01
 0.29143771531E+01 0.28912647205E+01 0.29143756058E+01 0.29820336792E+01 0.30888471759E+01
 0.32252847534E+01 0.33782871957E+01 0.35329596478E+01 0.36742939923E+01 0.37882067948E+01
 0.41447386194E+01 0.40614047615E+01 0.39154437856E+01 0.37340712780E+01 0.35453045568E+01
 0.33704700496E+01 0.32206871184E+01 0.30985944221E+01 0.30035491407E+01 0.29368328112E+01
 0.29040944443E+01 0.29143756058E+01 0.29767225591E+01 0.30958202640E+01 0.32679229556E+01
 0.34784048819E+01 0.37022541379E+01 0.39080351574E+01 0.40643869093E+01 0.41470949956E+01
 0.48019194210E+01 0.45738913498E+01 0.42989594649E+01 0.39845472615E+01 0.36743385288E+01
 0.34110744233E+01 0.32132727430E+01 0.30777743859E+01 0.29914326855E+01 0.29441310967E+01
 0.29368804323E+01 0.29820336792E+01 0.30958202640E+01 0.32869155188E+01 0.35475508683E+01
 0.38525638630E+01 0.41912823510E+01 0.45474584375E+01 0.48204507600E+01 0.49096671048E+01
 0.69206043934E+01 0.61181235151E+01 0.52297131513E+01 0.45417600865E+01 0.40644346654E+01
 0.36609822612E+01 0.33538138602E+01 0.31525891884E+01 0.30390675786E+01 0.29915059697E+01
 0.30036405357E+01 0.30888471759E+01 0.32679229556E+01 0.35475508683E+01 0.39092655370E+01
 0.44457979906E+01 0.52667741571E+01 0.62304887531E+01 0.70098895183E+01 0.72784552979E+01
 0.12153870799E+02 0.10453579454E+02 0.82011192328E+01 0.61660237180E+01 0.48204694018E+01
 0.41233514725E+01 0.36648487747E+01 0.33397104054E+01 0.31526140870E+01 0.30778618924E+01
 0.30986825940E+01 0.32252847534E+01 0.34784048819E+01 0.38525638630E+01 0.44457979906E+01
 0.56429399760E+01 0.75347861883E+01 0.97826240553E+01 0.11721109765E+02 0.12638673048E+02
 0.21275737367E+02 0.18696478776E+02 0.14625127079E+02 0.10365933172E+02 0.70099325018E+01
 0.50234450955E+01 0.41453563714E+01 0.36648142137E+01 0.33537931902E+01 0.32133055805E+01
 0.32207314936E+01 0.33782871957E+01 0.37022541379E+01 0.41912823510E+01 0.52667741571E+01
 0.75347861883E+01 0.11069580295E+02 0.15315392745E+02 0.19190922104E+02 0.21454231152E+02
 0.33881519451E+02 0.30820266068E+02 0.24898206746E+02 0.17940539169E+02 0.11721234306E+02
 0.73459684524E+01 0.50234133122E+01 0.41232887865E+01 0.36609128299E+01 0.34110432567E+01
 0.33704710955E+01 0.35329596478E+01 0.39080351574E+01 0.45474584375E+01 0.62304887531E+01
 0.97826240553E+01 0.15315392745E+02 0.22098982625E+02 0.28633456812E+02 0.33050001067E+02
 0.48292370564E+02 0.45549644406E+02 0.38245166394E+02 0.28633456812E+02 0.19190922104E+02
 0.11721109765E+02 0.70098895183E+01 0.48204507600E+01 0.40643869093E+01 0.36742939923E+01
 0.35452936010E+01 0.36742939923E+01 0.40643869093E+01 0.48204507600E+01 0.70098895183E+01
 0.11721109765E+02 0.19190922104E+02 0.28633456812E+02 0.38245166394E+02 0.45549644406E+02
 0.61575710084E+02 0.60276759872E+02 0.52622397254E+02 0.41037641664E+02 0.28632810070E+02
 0.17940105250E+02 0.10365903811E+02 0.61661479703E+01 0.45418271202E+01 0.39845509389E+01
 0.37340757585E+01 0.37882067948E+01 0.41470949956E+01 0.49096671048E+01 0.72784552979E+01
 0.12638673048E+02 0.21454231152E+02 0.33050001067E+02 0.45549644406E+02 0.56069879075E+02
 0.53206917659E+02 0.56066756914E+02 0.52620783530E+02 0.44046239607E+02 0.32953775104E+02
 0.22099140489E+02 0.13435283232E+02 0.78303938428E+01 0.51106763287E+01 0.41919713877E+01
 0.37779751386E+01 0.36444389574E+01 0.37965797599E+01 0.42341734455E+01 0.51920880764E+01
 0.80131041993E+01 0.13829410465E+02 0.22787671272E+02 0.33881519451E+02 0.44972181356E+02
 0.56066756914E+02 0.61571675509E+02 0.60273460098E+02 0.52621008132E+02 0.41038084337E+02
 0.28634115188E+02 0.17941347149E+02 0.10366708751E+02 0.61665230431E+01 0.45418478854E+01
 0.39843437955E+01 0.37338953248E+01 0.37882681007E+01 0.41473232294E+01 0.49097967348E+01
 0.72784356674E+01 0.12638780315E+02 0.21454575794E+02 0.33050001067E+02 0.45548293238E+02
 0.52620783530E+02 0.60273460098E+02 0.61571946175E+02 0.56067377340E+02 0.45549314170E+02
 0.33051339116E+02 0.21455947710E+02 0.12639792575E+02 0.72788295404E+01 0.49096538924E+01
 0.41470176977E+01 0.37881681734E+01 0.37340712780E+01 0.39845472615E+01 0.45417600865E+01
 0.61660237180E+01 0.10365933172E+02 0.17940539169E+02 0.28633456812E+02 0.41037641664E+02
 0.44046239607E+02 0.52621008132E+02 0.56067377340E+02 0.53208084373E+02 0.44973890925E+02
 0.33883479713E+02 0.22789340798E+02 0.13830296692E+02 0.80131233379E+01 0.51916370650E+01
 0.42338040227E+01 0.37965634659E+01 0.36446259977E+01 0.37780425302E+01 0.41917614240E+01
 0.51102925147E+01 0.78300302423E+01 0.13435034303E+02 0.22098982625E+02 0.32953674805E+02
 0.32953775104E+02 0.41038084337E+02 0.45549314170E+02 0.44973890925E+02 0.39477102350E+02
 0.30822421305E+02 0.21455976872E+02 0.13474320915E+02 0.80401156794E+01 0.52447809174E+01
 0.42261811963E+01 0.37535502034E+01 0.35328638296E+01 0.35636382962E+01 0.38458672833E+01
 0.43788453171E+01 0.57786908678E+01 0.92381668338E+01 0.15315392745E+02 0.23661014461E+02
 0.22099140489E+02 0.28634115188E+02 0.33051339116E+02 0.33883479713E+02 0.30822421305E+02
 0.24899833765E+02 0.17941024856E+02 0.11720553574E+02 0.73447535434E+01 0.50224656313E+01
 0.41229689602E+01 0.36609903065E+01 0.34110979536E+01 0.33703605480E+01 0.35328677676E+01
 0.39081494995E+01 0.45477177466E+01 0.62306737864E+01 0.97826240553E+01 0.15315333424E+02
 0.13435283232E+02 0.17941347149E+02 0.21455947710E+02 0.22789340798E+02 0.21455976872E+02
 0.17941024856E+02 0.13434326238E+02 0.92366566658E+01 0.62291958415E+01 0.46184235401E+01
 0.39424752160E+01 0.35291641594E+01 0.32891645798E+01 0.32139025471E+01 0.32891640949E+01
 0.35292214068E+01 0.39427820614E+01 0.46192218298E+01 0.62304887531E+01 0.92380489213E+01
 0.78303938428E+01 0.10366708751E+02 0.12639792575E+02 0.13830296692E+02 0.13474320915E+02
 0.11720553574E+02 0.92366566658E+01 0.68418067991E+01 0.51183897615E+01 0.41910577384E+01
 0.37156978681E+01 0.33757673479E+01 0.31744217529E+01 0.30966226043E+01 0.31229269858E+01
 0.32593653922E+01 0.35307737852E+01 0.39425770382E+01 0.45474584375E+01 0.57786497990E+01
 0.51106763287E+01 0.61665230431E+01 0.72788295404E+01 0.80131233379E+01 0.80401156794E+01
 0.73447535434E+01 0.62291958415E+01 0.51183897615E+01 0.43136595283E+01 0.38335774148E+01
 0.34787210742E+01 0.32223136506E+01 0.30731176994E+01 0.30130908337E+01 0.30221099400E+01
 0.30979832886E+01 0.32592602307E+01 0.35290236301E+01 0.39080351574E+01 0.43789760638E+01
 0.41919713877E+01 0.45418478854E+01 0.49096538924E+01 0.51916370650E+01 0.52447809174E+01
 0.50224656313E+01 0.46184235401E+01 0.41910577384E+01 0.38335774148E+01 0.35205729551E+01
 0.32650270334E+01 0.30888925324E+01 0.29916703317E+01 0.29576180477E+01 0.29698275845E+01
 0.30221444922E+01 0.31229227338E+01 0.32891618344E+01 0.35329596478E+01 0.38460666042E+01
 0.37779751386E+01 0.39843437955E+01 0.41470176977E+01 0.42338040227E+01 0.42261811963E+01
 0.41229689602E+01 0.39424752160E+01 0.37156978681E+01 0.34787210742E+01 0.32650270334E+01
 0.30984824195E+01 0.29897247562E+01 0.29368471215E+01 0.29299589897E+01 0.29577243456E+01
 0.30132300186E+01 0.30967460561E+01 0.32140185891E+01 0.33704710955E+01 0.35636921234E+01
 0.36444389574E+01 0.37338953248E+01 0.37881681734E+01 0.37965634659E+01 0.37535502034E+01
 0.36609903065E+01 0.35291641594E+01 0.33757673479E+01 0.32223136506E+01 0.30888925324E+01
 0.29897247562E+01 0.29315886889E+01 0.29150825020E+01 0.29369381178E+01 0.29917925399E+01
 0.30732057677E+01 0.31744596294E+01 0.32891618344E+01 0.34110432567E+01 0.35327344422E+01
 0.37965797599E+01 0.37882681007E+01 0.37340712780E+01 0.36446259977E+01 0.35328638296E+01
 0.34110979536E+01 0.32891645798E+01 0.31744217529E+01 0.30731176994E+01 0.29916703317E+01
 0.29368471215E+01 0.29150825020E+01 0.29316566835E+01 0.29897589136E+01 0.30888083564E+01
 0.32221264867E+01 0.33755678269E+01 0.35290236301E+01 0.36609128299E+01 0.37535142960E+01
 0.42341734455E+01 0.41473232294E+01 0.39845472615E+01 0.37780425302E+01 0.35636382962E+01
 0.33703605480E+01 0.32139025471E+01 0.30966226043E+01 0.30130908337E+01 0.29576180477E+01
 0.29299589897E+01 0.29369381178E+01 0.29897589136E+01 0.30982986181E+01 0.32646265365E+01
 0.34783011221E+01 0.37154940355E+01 0.39425770382E+01 0.41232887865E+01 0.42265729942E+01
 0.51920880764E+01 0.49097967348E+01 0.45417600865E+01 0.41917614240E+01 0.38458672833E+01
 0.35328677676E+01 0.32891640949E+01 0.31229269858E+01 0.30221099400E+01 0.29698275845E+01
 0.29577243456E+01 0.29917925399E+01 0.30888083564E+01 0.32646265365E+01 0.35200531407E+01
 0.38333377213E+01 0.41913734423E+01 0.46192218298E+01 0.50234133122E+01 0.52455526516E+01
 0.80131041993E+01 0.72784356674E+01 0.61660237180E+01 0.51102925147E+01 0.43788453171E+01
 0.39081494995E+01 0.35292214068E+01 0.32593653922E+01 0.30979832886E+01 0.30221444922E+01
 0.30132300186E+01 0.30732057677E+01 0.32221264867E+01 0.34783011221E+01 0.38333377213E+01
 0.43140712596E+01 0.51195399170E+01 0.62306737864E+01 0.73459684524E+01 0.80407074764E+01
 0.13829410465E+02 0.12638780315E+02 0.10365933172E+02 0.78300302423E+01 0.57786908678E+01
 0.45477177466E+01 0.39427820614E+01 0.35307737852E+01 0.32592602307E+01 0.31229227338E+01
 0.30967460561E+01 0.31744596294E+01 0.33755678269E+01 0.37154940355E+01 0.41913734423E+01
 0.51195399170E+01 0.68435055797E+01 0.92381668338E+01 0.11721234306E+02 0.13474045622E+02
 0.22787671272E+02 0.21454575794E+02 0.17940539169E+02 0.13435034303E+02 0.92381668338E+01
 0.62306737864E+01 0.46192218298E+01 0.39425770382E+01 0.35290236301E+01 0.32891618344E+01
 0.32140185891E+01 0.32891618344E+01 0.35290236301E+01 0.39425770382E+01 0.46192218298E+01
 0.62306737864E+01 0.92381668338E+01 0.13435034303E+02 0.17940539169E+02 0.21454575794E+02
 0.33881519451E+02 0.33050001067E+02 0.28633456812E+02 0.22098982625E+02 0.15315392745E+02
 0.97826240553E+01 0.62304887531E+01 0.45474584375E+01 0.39080351574E+01 0.35329596478E+01
 0.33704710955E+01 0.34110432567E+01 0.36609128299E+01 0.41232887865E+01 0.50234133122E+01
 0.73459684524E+01 0.11721234306E+02 0.17940539169E+02 0.24898206746E+02 0.30820266068E+02
 0.44972181356E+02 0.45548293238E+02 0.41037641664E+02 0.32953674805E+02 0.23661014461E+02
 0.15315333424E+02 0.92380489213E+01 0.57786497990E+01 0.43789760638E+01 0.38460666042E+01
 0.35636921234E+01 0.35327344422E+01 0.37535142960E+01 0.42265729942E+01 0.52455526516E+01
 0.80407074764E+01 0.13474045622E+02 0.21454575794E+02 0.30820266068E+02 0.39474891237E+02
 0.36170891798E+02 0.39472856760E+02 0.38243491619E+02 0.32953775104E+02 0.25339636959E+02
 0.17501200372E+02 0.11069893981E+02 0.68435736753E+01 0.47607357592E+01 0.40063026656E+01
 0.36103696191E+01 0.34405720128E+01 0.34957489153E+01 0.37838869747E+01 0.43048985576E+01
 0.54742578734E+01 0.84442691192E+01 0.13829410465E+02 0.21275737367E+02 0.29417435430E+02
 0.39472856760E+02 0.44970158513E+02 0.45547306992E+02 0.41038084337E+02 0.32955068132E+02
 0.23662519576E+02 0.15316393670E+02 0.92385702502E+01 0.57787660394E+01 0.43788416405E+01