    1    1    1    2
  0.1039844E+02  0.2381570E-09  0.2381570E-09  0.2381570E-09  0.5000000E-15
  1.000000000000000E-004
  CAR 
 bcc Fe                                  
      8     44     12
 
  0.5000000E-01  0.5000000E-01  0.5000000E-01  0.8000000E-02
    1       -1.540064     -1.332356   1.000000   1.000000
    2        4.168074      5.902152   1.000000   1.000000
    3        4.168074      5.902152   1.000000   1.000000
    4        4.759590      6.553597   1.000000   1.033170
    5        5.685830      8.245356   1.000000  -0.000000
    6        5.685830      8.245356   1.000000  -0.000000
    7       30.241438     30.385966   0.000000   0.000000
    8       30.241438     30.385966   0.000000   0.000000
    9       33.256140     33.076303   0.000000   0.000000
   10       35.725429     36.564324   0.000000   0.000000
   11       38.986578     39.311305   0.000000   0.000000
   12       38.986579     39.311305   0.000000   0.000000
 
  0.1500000E+00  0.5000000E-01  0.5000000E-01  0.2400000E-01
    1       -0.353913     -0.114666   1.000000   1.000000
    2        3.818969      5.497009   1.000000   1.000000
    3        3.981243      5.669486   1.000000   1.000000
    4        5.523623      7.365671   1.000000  -0.000124
    5        5.574287      8.043482   1.000000  -0.000000
    6        5.775220      8.350581   1.000000  -0.000000
    7       26.052368     26.533386   0.000000   0.000000
    8       28.340767     28.631652   0.000000   0.000000
    9       32.072034     32.839383   0.000000   0.000000
   10       33.691492     33.635049   0.000000   0.000000
   11       39.019525     39.327205   0.000000   0.000000
   12       39.049200     39.683673   0.000000   0.000000
 
  0.2500000E+00  0.5000000E-01  0.5000000E-01  0.2400000E-01
    1        1.038381      1.502584   1.000000   1.000000
    2        3.434924      5.049607   1.000000   1.000000
    3        4.065364      5.501791   1.000000   1.000000
    4        5.647379      8.047887   1.000000  -0.000000
    5        5.871012      8.455404   1.000000  -0.000000
    6        6.587041      8.475017   1.018356  -0.000000
    7       21.377025     22.137442   0.000000   0.000000
    8       26.527352     26.842473   0.000000   0.000000
    9       29.436510     30.126945   0.000000   0.000000
   10       33.453267     33.628399   0.000000   0.000000
   11       37.994251     38.579267   0.000000   0.000000
   12       41.057879     41.326513   0.000000   0.000000
 
  0.3500000E+00  0.5000000E-01  0.5000000E-01  0.2400000E-01
    1        1.532783      2.551281   1.000000   1.000000
    2        3.151300      4.719492   1.000000   1.000000
    3        5.239617      6.150572   1.000000   1.000045
    4        5.815883      8.176829   1.000000  -0.000000
    5        5.951133      8.585823   1.000000  -0.000000
    6        7.825231      9.563438  -0.000000  -0.000000
    7       17.166918     18.205856   0.000000   0.000000
    8       25.250774     25.537861   0.000000   0.000000
    9       27.668747     28.288566   0.000000   0.000000
   10       33.160064     33.478299   0.000000   0.000000
   11       37.677540     38.270109   0.000000   0.000000
   12       43.300638     43.466344   0.000000   0.000000
 
  0.4500000E+00  0.5000000E-01  0.5000000E-01  0.1200000E-01
    1        1.526181      2.736420   1.000000   1.000000
    2        3.047590      4.599118   1.000000   1.000000
    3        5.840242      6.900369   1.000000   0.070264
    4        5.985353      8.232924   1.000000  -0.000000
    5        6.088593      8.633382   1.000007  -0.000000
    6        8.760880     10.180783  -0.000000  -0.000000
    7       15.018545     16.308948   0.000000   0.000000
    8       24.791944     25.061971   0.000000   0.000000
    9       27.015113     27.600139   0.000000   0.000000
   10       33.056477     33.419716   0.000000   0.000000
   11       37.654486     38.268223   0.000000   0.000000
   12       43.081366     43.172661   0.000000   0.000000
 
 -0.5000000E-01  0.5000000E-01  0.5000000E-01  0.6000000E-02
    1       -1.971859     -1.768071   1.000000   1.000000
    2        4.317932      6.072778   1.000000   1.000004
    3        4.317994      6.072876   1.000000   1.000004
    4        4.389778      6.157054   1.000000   1.000055
    5        5.644531      8.201505   1.000000  -0.000000
    6        5.793006      8.386010   1.000000  -0.000000
    7       31.463295     31.411028   0.000000   0.000000
    8       32.540287     32.433221   0.000000   0.000000
    9       32.540302     32.433232   0.000000   0.000000
   10       36.847388     37.237713   0.000000   0.000000
   11       39.397191     40.203917   0.000000   0.000000
   12       39.397253     40.205096   0.000000   0.000000
 
  0.1500000E+00  0.1500000E+00  0.5000000E-01  0.2400000E-01
    1        0.969301      1.302693   1.000000   1.000000
    2        3.539249      5.174718   1.000000   1.000000
    3        3.589044      5.179618   1.000000   1.000000
    4        5.597087      8.042804   1.000000  -0.000000
    5        5.885997      8.419397   1.000000  -0.000000
    6        6.653566      8.534120   0.925237  -0.000000
    7       23.645107     24.244423   0.000000   0.000000
    8       24.691134     25.228926   0.000000   0.000000
    9       28.573378     29.244566   0.000000   0.000000
   10       35.091435     35.035695   0.000000   0.000000
   11       39.673571     40.046821   0.000000   0.000000
   12       41.388689     41.833960   0.000000   0.000000
 
  0.2500000E+00  0.1500000E+00  0.5000000E-01  0.4800000E-01
    1        1.975990      2.746647   1.000000   1.000000
    2        3.221629      4.775110   1.000000   1.000000
    3        3.856087      5.148348   1.000000   1.000000
    4        5.716269      8.131743   1.000000  -0.000000
    5        6.007204      8.588380   1.000000  -0.000000
    6        8.188918      9.901144  -0.000000  -0.000000
    7       19.527472     20.354417   0.000000   0.000000
    8       22.755222     23.337685   0.000000   0.000000
    9       26.589107     27.176823   0.000000   0.000000
   10       35.478779     35.573563   0.000000   0.000000
   11       40.458766     40.778025   0.000000   0.000000
   12       42.108105     42.534894   0.000000   0.000000
 
  0.3500000E+00  0.1500000E+00  0.5000000E-01  0.4800000E-01
    1        2.025260      3.231951   1.000000   1.000000
    2        3.070988      4.582761   1.000000   1.000000
    3        4.673963      5.790053   1.000000   1.000000
    4        5.849148      8.264029   1.000000  -0.000000
    5        6.118595      8.658377   1.000017  -0.000000
    6       10.053629     11.392386  -0.000000  -0.000000
    7       15.841206     16.954075   0.000000   0.000000
    8       21.874707     22.449568   0.000000   0.000000
    9       25.591618     26.137884   0.000000   0.000000
   10       35.426660     35.621691   0.000000   0.000000
   11       41.300049     41.627735   0.000000   0.000000
   12       42.114286     42.424941   0.000000   0.000000
 
 -0.1500000E+00  0.1500000E+00  0.5000000E-01  0.2400000E-01
    1       -1.125902     -0.910515   1.000000   1.000000
    2        4.099229      5.817189   1.000000   1.000000
    3        4.264884      5.995837   1.000000   1.000000
    4        4.844861      6.650693   1.000000   0.931407
    5        5.405043      7.880578   1.000000  -0.000000
    6        5.864956      8.465734   1.000000  -0.000000
    7       28.301050     28.604473   0.000000   0.000000
    8       31.013898     31.126358   0.000000   0.000000
    9       31.911431     32.071929   0.000000   0.000000
   10       36.017034     36.379205   0.000000   0.000000
   11       36.619106     37.316009   0.000000   0.000000
   12       37.567457     38.183554   0.000000   0.000000
 
  0.2500000E+00  0.2500000E+00  0.5000000E-01  0.2400000E-01
    1        2.531587      3.715515   1.000000   1.000000
    2        3.128769      4.588758   1.000000   1.000000
    3        3.826154      5.047433   1.000000   1.000000
    4        5.839830      8.262573   1.000000  -0.000000
    5        6.105883      8.632539   1.000012  -0.000000
    6       10.501706     11.905968  -0.000000  -0.000000
    7       17.732710     18.623647   0.000000   0.000000
    8       18.996561     19.749807   0.000000   0.000000
    9       25.370561     25.935132   0.000000   0.000000
   10       36.929236     37.014629   0.000000   0.000000
   11       40.080157     40.289895   0.000000   0.000000
   12       46.483735     46.775618   0.000000   0.000000
 
  0.3500000E+00  0.2500000E+00  0.5000000E-01  0.2400000E-01
    1        2.570782      3.902167   1.000000   1.000000
    2        3.183623      4.599754   1.000000   1.000000
    3        3.887116      5.152958   1.000000   1.000000
    4        5.947616      8.386358   1.000000  -0.000000
    5        6.116815      8.595626   1.000016  -0.000000
    6       12.680247     13.781551   0.000000   0.000000
    7       15.173713     16.251760   0.000000   0.000000
    8       18.201023     18.985550   0.000000   0.000000
    9       24.998510     25.566314   0.000000   0.000000
   10       37.515518     37.638244   0.000000   0.000000
   11       39.949013     40.046600   0.000000   0.000000
   12       46.239161     46.739833   0.000000   0.000000
 
 -0.2500000E+00  0.2500000E+00  0.5000000E-01  0.2400000E-01
    1        0.281909      0.590285   1.000000   1.000000
    2        3.732512      5.391743   1.000000   1.000000
    3        4.130548      5.761553   1.000000   1.000000
    4        5.416195      7.575197   1.000000  -0.000000
    5        5.694062      7.767827   1.000000  -0.000000
    6        5.956967      8.554301   1.000000  -0.000000
    7       23.701690     24.345871   0.000000   0.000000
    8       28.760484     28.943733   0.000000   0.000000
    9       30.710807     31.191592   0.000000   0.000000
   10       34.249995     34.779394   0.000000   0.000000
   11       36.080579     36.630294   0.000000   0.000000
   12       38.071059     38.382867   0.000000   0.000000
 
 -0.1500000E+00  0.2500000E+00  0.5000000E-01  0.2400000E-01
    1        0.001987      0.263802   1.000000   1.000000
    2        3.995993      5.681608   1.000000   1.000000
    3        4.015623      5.725607   1.000000   1.000000
    4        5.187604      7.325488   1.000000  -0.000357
    5        5.484577      7.536142   1.000000  -0.000001
    6        6.042719      8.640196   1.000001  -0.000000
    7       25.849524     26.338536   0.000000   0.000000
    8       27.358159     27.834406   0.000000   0.000000
    9       31.996263     32.185901   0.000000   0.000000
   10       33.389799     33.982738   0.000000   0.000000
   11       36.039907     36.420517   0.000000   0.000000
   12       39.506717     39.955965   0.000000   0.000000
 
 -0.3500000E+00  0.3500000E+00  0.5000000E-01  0.2400000E-01
    1        1.306646      2.061593   1.000000   1.000000
    2        3.379568      4.986795   1.000000   1.000000
    3        4.645853      5.883147   1.000000   1.000000
    4        5.700485      7.952977   1.000000  -0.000000
    5        6.221180      8.617591   1.000313  -0.000000
    6        6.637946      8.689928   0.956296  -0.000000
    7       19.112158     20.021565   0.000000   0.000000
    8       26.948466     27.124944   0.000000   0.000000
    9       29.015956     29.615217   0.000000   0.000000
   10       33.079525     33.555644   0.000000   0.000000
   11       36.030257     36.611989   0.000000   0.000000
   12       39.980520     40.258629   0.000000   0.000000
 
 -0.2500000E+00  0.3500000E+00  0.5000000E-01  0.4800000E-01
    1        1.316795      1.819677   1.000000   1.000000
    2        3.583473      5.245630   1.000000   1.000000
    3        3.955511      5.504426   1.000000   1.000000
    4        5.347806      7.580400   1.000000  -0.000000
    5        6.119705      8.325724   1.000018  -0.000000
    6        6.720962      8.899753   0.723118  -0.000000
    7       21.651195     22.403480   0.000000   0.000000
    8       24.926364     25.455442   0.000000   0.000000
    9       30.354128     30.765488   0.000000   0.000000
   10       32.887944     33.282610   0.000000   0.000000
   11       36.572283     36.962522   0.000000   0.000000
   12       40.179110     40.618893   0.000000   0.000000
 
 -0.4500000E+00  0.4500000E+00  0.5000000E-01  0.2400000E-01
    1        1.442615      2.614689   1.000000   1.000000
    2        3.170305      4.747778   1.000000   1.000000
    3        5.385195      6.764699   1.000000   0.547418
    4        5.777635      8.100014   1.000000  -0.000000
    5        7.286447      9.045306  -0.000912  -0.000000
    6        7.473266      9.345249  -0.000005  -0.000000
    7       15.615698     16.835014   0.000000   0.000000
    8       25.952997     26.107490   0.000000   0.000000
    9       27.806386     28.373265   0.000000   0.000000
   10       32.684674     33.191315   0.000000   0.000000
   11       36.233278     36.863324   0.000000   0.000000
   12       41.113058     41.252708   0.000000   0.000000
 
 -0.3500000E+00  0.4500000E+00  0.5000000E-01  0.4800000E-01
    1        1.789520      2.855158   1.000000   1.000000
    2        3.371082      4.957937   1.000000   1.000000
    3        4.343175      5.707914   1.000000   1.000000
    4        5.625699      7.861807   1.000000  -0.000000
    5        6.548283      8.789133   1.034163  -0.000000
    6        8.291063      9.971255  -0.000000  -0.000000
    7       17.372245     18.381479   0.000000   0.000000
    8       23.610595     24.142077   0.000000   0.000000
    9       28.635521     29.020572   0.000000   0.000000
   10       33.155585     33.606726   0.000000   0.000000
   11       37.656467     37.960265   0.000000   0.000000
   12       40.000914     40.457614   0.000000   0.000000
 
 -0.2500000E+00  0.4500000E+00  0.5000000E-01  0.2400000E-01
    1        2.221148      3.114183   1.000000   1.000000
    2        3.174399      4.809069   1.000000   1.000000
    3        3.954002      5.406809   1.000000   1.000000
    4        5.496353      7.696471   1.000000  -0.000000
    5        6.299712      8.636999   1.001938  -0.000000
    6        8.585303     10.284046  -0.000000  -0.000000
    7       19.673813     20.526288   0.000000   0.000000
    8       20.674696     21.368305   0.000000   0.000000
    9       30.007737     30.489585   0.000000   0.000000
   10       32.452855     32.702271   0.000000   0.000000
   11       36.487480     36.854172   0.000000   0.000000
   12       44.575113     44.962908   0.000000   0.000000
 
 -0.4500000E+00 -0.4500000E+00  0.5000000E-01  0.2400000E-01
    1        1.768834      3.037504   1.000000   1.000000
    2        3.298832      4.868990   1.000000   1.000000
    3        4.613621      6.052440   1.000000   1.000002
    4        5.663051      7.949443   1.000000  -0.000000
    5        6.887434      9.012246   0.099947  -0.000000
    6        9.610717     10.897232  -0.000000  -0.000000
    7       15.066823     16.321768   0.000000   0.000000
    8       23.131742     23.654739   0.000000   0.000000
    9       28.014645     28.375153   0.000000   0.000000
   10       33.233765     33.723139   0.000000   0.000000
   11       38.688579     38.825592   0.000000   0.000000
   12       39.364032     39.912037   0.000000   0.000000
 
 -0.3500000E+00 -0.4500000E+00  0.5000000E-01  0.4800000E-01
    1        2.412645      3.719745   1.000000   1.000000
    2        3.234468      4.774653   1.000000   1.000000
    3        3.836426      5.283048   1.000000   1.000000
    4        5.757688      7.976505   1.000000  -0.000000
    5        6.469248      8.692794   1.026142  -0.000000
    6       11.053419     12.351236  -0.000000   0.000000
    7       16.081382     17.132516   0.000000   0.000000
    8       19.401085     20.133219   0.000000   0.000000
    9       29.251169     29.709831   0.000000   0.000000
   10       33.235651     33.546086   0.000000   0.000000
   11       36.456394     36.669163   0.000000   0.000000
   12       43.822062     44.494707   0.000000   0.000000
 
 -0.3500000E+00 -0.3500000E+00  0.5000000E-01  0.8000000E-02
    1        2.938723      4.363619   1.000000   1.000000
    2        3.242116      4.729256   1.000000   1.000000
    3        3.242142      4.729308   1.000000   1.000000
    4        6.149860      8.358939   1.000044  -0.000000
    5        6.149963      8.359080   1.000044  -0.000000
    6       14.188534     15.263576   0.000000   0.000000
    7       14.188566     15.263686   0.000000   0.000000
    8       17.190066     18.060547   0.000000   0.000000
    9       29.443996     29.979104   0.000000   0.000000
   10       34.636971     34.840696   0.000000   0.000000
   11       34.637030     34.840761   0.000000   0.000000
   12       43.638669     44.544599   0.000000   0.000000
 
  0.1500000E+00  0.1500000E+00  0.1500000E+00  0.8000000E-02
    1        2.272643      2.762416   1.000000   1.000000
    2        3.213685      4.748426   1.000000   1.000000
    3        3.213685      4.748426   1.000000   1.000000
    4        5.854243      8.404827   1.000000  -0.000000
    5        5.854243      8.404827   1.000000  -0.000000
    6        8.218906      9.942449  -0.000000  -0.000000
    7       21.918319     22.561750   0.000000   0.000000
    8       21.918319     22.561750   0.000000   0.000000
    9       24.173828     24.880680   0.000000   0.000000
   10       38.006840     37.832619   0.000000   0.000000
   11       42.617773     42.906620   0.000000   0.000000
   12       42.617773     42.906620   0.000000   0.000000
 
  0.2500000E+00  0.1500000E+00  0.1500000E+00  0.2400000E-01
    1        2.645145      3.751012   1.000000   1.000000
    2        3.037671      4.500413   1.000000   1.000000
    3        3.746059      4.879399   1.000000   1.000000
    4        5.920339      8.452027   1.000000  -0.000000
    5        5.976270      8.602887   1.000000  -0.000000
    6       10.299640     11.729957  -0.000000  -0.000000
    7       17.991037     18.852802   0.000000   0.000000
    8       20.831634     21.482618   0.000000   0.000000
    9       22.281995     22.938904   0.000000   0.000000
   10       39.263905     39.225305   0.000000   0.000000
   11       43.624213     43.904224   0.000000   0.000000
   12       44.841466     44.962340   0.000000   0.000000
 
  0.3500000E+00  0.1500000E+00  0.1500000E+00  0.1200000E-01
    1        2.531465      3.789749   1.000000   1.000000
    2        2.984852      4.421422   1.000000   1.000000
    3        4.238697      5.359362   1.000000   1.000000
    4        5.960222      8.487246   1.000000  -0.000000
    5        6.008399      8.662752   1.000000  -0.000000
    6       12.130684     13.226546  -0.000000   0.000000
    7       15.332537     16.438643   0.000000   0.000000
    8       20.458242     21.107680   0.000000   0.000000
    9       21.756093     22.397634   0.000000   0.000000
   10       39.372829     39.406814   0.000000   0.000000
   11       44.464467     44.912195   0.000000   0.000000
   12       44.844615     44.952617   0.000000   0.000000
 
 -0.1500000E+00  0.1500000E+00  0.1500000E+00  0.6000000E-02
    1       -0.342817     -0.102531   1.000000   1.000000
    2        4.376450      6.092400   1.000000   1.000007
    3        4.376531      6.092529   1.000000   1.000008
    4        4.824953      6.682612   1.000000   0.851185
    5        4.870801      7.185248   1.000000  -0.006857
    6        6.124353      8.733384   1.000021  -0.000000
    7       27.695118     27.987214   0.000000   0.000000
    8       29.854185     30.305239   0.000000   0.000000
    9       29.854224     30.305357   0.000000   0.000000
   10       31.672497     32.111756   0.000000   0.000000
   11       38.786315     39.194962   0.000000   0.000000
   12       38.786321     39.194967   0.000000   0.000000
 
  0.2500000E+00  0.2500000E+00  0.1500000E+00  0.2400000E-01
    1        2.857270      4.190278   1.000000   1.000000
    2        3.199214      4.532775   1.000000   1.000000
    3        3.628398      4.804290   1.000000   1.000000
    4        5.994605      8.586245   1.000000  -0.000000
    5        6.021811      8.652412   1.000001  -0.000000
    6       13.043760     14.157471   0.000000   0.000000
    7       16.496273     17.395224   0.000000   0.000000
    8       17.915658     18.719993   0.000000   0.000000
    9       20.969223     21.620325   0.000000   0.000000
   10       42.027209     41.999339   0.000000   0.000000
   11       43.998302     44.069043   0.000000   0.000000
   12       47.780048     47.862497   0.000000   0.000000
 
 -0.2500000E+00  0.2500000E+00  0.1500000E+00  0.2400000E-01
    1        0.920286      1.290646   1.000000   1.000000
    2        3.986014      5.842961   1.000000   1.000000
    3        4.201584      5.885299   1.000000   1.000000
    4        4.886674      6.928083   1.000000   0.020676
    5        5.592798      7.463381   1.000000  -0.000007
    6        6.448676      8.955876   1.021399  -0.000000
    7       24.266843     24.902897   0.000000   0.000000
    8       27.606490     27.997964   0.000000   0.000000
    9       27.701787     28.287586   0.000000   0.000000
   10       31.622589     32.063323   0.000000   0.000000
   11       38.214347     38.649092   0.000000   0.000000
   12       39.570303     39.963397   0.000000   0.000000
 
 -0.3500000E+00  0.3500000E+00  0.1500000E+00  0.2400000E-01
    1        1.818730      2.656119   1.000000   1.000000
    2        3.687883      5.366246   1.000000   1.000000
    3        3.917617      5.558807   1.000000   1.000000
    4        5.334552      7.368917   1.000000  -0.000113
    5        6.552296      8.520504   1.033442  -0.000000
    6        7.434461      9.470780  -0.000017  -0.000000
    7       19.646303     20.513240   0.000000   0.000000
    8       25.860287     26.463572   0.000000   0.000000
    9       26.273088     26.669801   0.000000   0.000000
   10       33.216272     33.601927   0.000000   0.000000
   11       37.102702     37.559988   0.000000   0.000000
   12       39.544076     40.003213   0.000000   0.000000
 
 -0.2500000E+00  0.3500000E+00  0.1500000E+00  0.2400000E-01
    1        1.909447      2.594594   1.000000   1.000000
    2        3.369542      5.233210   1.000000   1.000000
    3        4.345268      5.992126   1.000000   1.000000
    4        5.056282      6.988724   1.000000  -0.030557
    5        6.182080      8.182340   1.000111  -0.000000
    6        7.435685      9.509940  -0.000016  -0.000000
    7       22.185588     22.951123   0.000000   0.000000
    8       23.031376     23.666414   0.000000   0.000000
    9       28.565956     29.007727   0.000000   0.000000
   10       30.293955     30.737829   0.000000   0.000000
   11       37.739029     38.193099   0.000000   0.000000
   12       43.125863     43.513332   0.000000   0.000000
 
 -0.4500000E+00  0.4500000E+00  0.1500000E+00  0.2400000E-01
    1        1.882573      3.179558   1.000000   1.000000
    2        3.738198      5.354092   1.000000   1.000000
    3        3.914447      5.466021   1.000000   1.000000
    4        5.423327      7.558232   1.000000  -0.000000
    5        7.225275      9.277230  -0.003328  -0.000000
    6        9.434194     10.775286  -0.000000  -0.000000
    7       15.856493     16.993981   0.000000   0.000000
    8       24.729805     25.299340   0.000000   0.000000
    9       25.553806     25.953602   0.000000   0.000000
   10       35.260268     35.526760   0.000000   0.000000
   11       36.514323     36.986355   0.000000   0.000000
   12       38.439143     38.991590   0.000000   0.000000
 
 -0.3500000E+00  0.4500000E+00  0.1500000E+00  0.4800000E-01
    1        2.302732      3.526504   1.000000   1.000000
    2        3.116253      4.779748   1.000000   1.000000
    3        4.120083      5.763168   1.000000   1.000000
    4        5.450237      7.438729   1.000000  -0.000014
    5        6.734404      8.788698   0.671562  -0.000000
    6        9.597167     11.084433  -0.000000  -0.000000
    7       18.038386     18.958163   0.000000   0.000000
    8       21.348381     22.025193   0.000000   0.000000
    9       28.002267     28.438562   0.000000   0.000000
   10       31.719378     32.099627   0.000000   0.000000
   11       36.636566     37.101149   0.000000   0.000000
   12       41.821005     42.505043   0.000000   0.000000
 
 -0.4500000E+00 -0.4500000E+00  0.1500000E+00  0.2400000E-01
    1        2.221773      3.695545   1.000000   1.000000
    2        3.301709      4.879967   1.000000   1.000000
    3        3.914161      5.536032   1.000000   1.000000
    4        5.557349      7.579684   1.000000  -0.000000
    5        7.032319      9.087192  -0.034992  -0.000000
    6       11.610412     12.733291  -0.000000   0.000000
    7       15.279273     16.414369   0.000000   0.000000
    8       20.833655     21.496028   0.000000   0.000000
    9       27.618126     28.051015   0.000000   0.000000
   10       33.422965     33.674614   0.000000   0.000000
   11       35.380376     35.936614   0.000000   0.000000
   12       40.548063     41.297934   0.000000   0.000000
 
 -0.3500000E+00 -0.4500000E+00  0.1500000E+00  0.2400000E-01
    1        2.695065      4.251995   1.000000   1.000000
    2        2.765220      4.363275   1.000000   1.000000
    3        3.823138      5.400699   1.000000   1.000000
    4        6.023587      8.017396   1.000001  -0.000000
    5        6.625941      8.670006   0.976103  -0.000000
    6       12.620925     13.771561   0.000000   0.000000
    7       16.346153     17.323590   0.000000   0.000000
    8       17.882168     18.661926   0.000000   0.000000
    9       30.051683     30.427144   0.000000   0.000000
   10       31.167138     31.532968   0.000000   0.000000
   11       34.503290     35.038336   0.000000   0.000000
   12       40.631210     41.446064   0.000000   0.000000
 
  0.2500000E+00  0.2500000E+00  0.2500000E+00  0.2000000E-02
    1        3.250765      4.534192   1.000000   1.000000
    2        3.250765      4.534192   1.000000   1.000000
    3        3.250845      4.534307   1.000000   1.000000
    4        6.020630      8.679541   1.000001  -0.000000
    5        6.020630      8.679541   1.000001  -0.000000
    6       16.070645     16.968728   0.000000   0.000000
    7       16.070645     16.968728   0.000000   0.000000
    8       16.070745     16.968944   0.000000   0.000000
    9       18.773213     19.481651   0.000000   0.000000
   10       47.497032     47.338809   0.000000   0.000000
   11       47.497051     47.338822   0.000000   0.000000
   12       47.497076     47.338856   0.000000   0.000000
 
 -0.2500000E+00  0.2500000E+00  0.2500000E+00  0.6000000E-02
    1        1.772249      2.392491   1.000000   1.000000
    2        3.520819      5.598465   1.000000   1.000000
    3        4.811115      6.514558   1.000000   1.034531
    4        4.811208      6.514703   1.000000   1.034547
    5        5.658398      7.548724   1.000000  -0.000000
    6        7.227429      9.427307  -0.003192  -0.000000
    7       25.096182     25.717336   0.000000   0.000000
    8       25.096183     25.717392   0.000000   0.000000
    9       25.227809     25.855464   0.000000   0.000000
   10       27.965929     28.426406   0.000000   0.000000
   11       42.600896     42.978006   0.000000   0.000000
   12       42.600954     42.978079   0.000000   0.000000
 
 -0.3500000E+00  0.3500000E+00  0.2500000E+00  0.2400000E-01
    1        2.239005      3.338599   1.000000   1.000000
    2        2.882805      4.766633   1.000000   1.000000
    3        4.856245      6.565327   1.000000   1.029788
    4        5.245537      7.051220   1.000000  -0.032597
    5        6.433111      8.389518   1.017938  -0.000000
    6        8.872229     10.485646  -0.000000  -0.000000
    7       20.628175     21.391385   0.000000   0.000000
    8       23.008070     23.604841   0.000000   0.000000
    9       25.326829     25.962302   0.000000   0.000000
   10       28.505698     28.990492   0.000000   0.000000
   11       40.569232     41.278378   0.000000   0.000000
   12       41.545531     41.977749   0.000000   0.000000
 
 -0.4500000E+00  0.4500000E+00  0.2500000E+00  0.2400000E-01
    1        2.164837      3.717233   1.000000   1.000000
    2        2.724908      4.376422   1.000000   1.000000
    3        4.759170      6.459830   1.000000   1.023969
    4        5.437090      7.296896   1.000000  -0.000716
    5        7.127360      9.168185  -0.016130  -0.000000
    6       11.526529     12.643978  -0.000000   0.000000
    7       16.485607     17.437647   0.000000   0.000000
    8       21.768204     22.313027   0.000000   0.000000
    9       25.023003     25.680203   0.000000   0.000000
   10       30.437671     30.829176   0.000000   0.000000
   11       37.072240     37.911949   0.000000   0.000000
   12       40.833681     41.266179   0.000000   0.000000
 
 -0.3500000E+00  0.4500000E+00  0.2500000E+00  0.2400000E-01
    1        2.286514      3.748454   1.000000   1.000000
    2        2.365875      4.161927   1.000000   1.000000
    3        4.941468      6.646567   1.000000   0.939908
    4        5.860278      7.705087   1.000000  -0.000000
    5        6.798781      8.801364   0.403986  -0.000000
    6       11.350839     12.506900  -0.000000   0.000000
    7       18.868334     19.659075   0.000000   0.000000
    8       19.477802     20.120850   0.000000   0.000000
    9       26.226001     26.839745   0.000000   0.000000
   10       28.079602     28.590718   0.000000   0.000000
   11       36.536682     37.351007   0.000000   0.000000
   12       41.788255     42.256333   0.000000   0.000000
 
 -0.4500000E+00 -0.4500000E+00  0.2500000E+00  0.2400000E-01
    1        2.137955      3.831678   1.000000   1.000000
    2        2.312728      3.971654   1.000000   1.000000