PROCAR new format
# of k-points:   44         # of bands:   12         # of ions:    1

 k-point     1 :    0.05000000 0.05000000 0.05000000     weight = 0.00800000

band     1 # energy   -1.54006401 # occ.  1.00000000
 
ion      s      p      d    tot
    1  0.640  0.041  0.003  0.684
 
band     2 # energy    4.16807442 # occ.  1.00000000
 
ion      s      p      d    tot
    1  0.000  0.002  0.972  0.974
 
band     3 # energy    4.16807442 # occ.  1.00000000
 
ion      s      p      d    tot
    1  0.000  0.002  0.972  0.974
 
band     4 # energy    4.75958958 # occ.  1.00000000
 
ion      s      p      d    tot
    1  0.001  0.006  0.970  0.978
 
band     5 # energy    5.68582989 # occ.  1.00000000
 
ion      s      p      d    tot
    1  0.000  0.000  0.969  0.969
 
band     6 # energy    5.68582989 # occ.  1.00000000
 
ion      s      p      d    tot
    1  0.000  0.000  0.969  0.969
 
band     7 # energy   30.24143750 # occ.  0.00000000
 
ion      s      p      d    tot
    1  0.000  0.057  0.231  0.289
 
band     8 # energy   30.24143750 # occ.  0.00000000
 
ion      s      p      d    tot
    1  0.000  0.057  0.231  0.289
 
band     9 # energy   33.25613968 # occ.  0.00000000
 
ion      s      p      d    tot
    1  0.000  0.000  0.000  0.000
 
band    10 # energy   35.72542900 # occ.  0.00000000
 
ion      s      p      d    tot
    1  0.050  0.484  0.302  0.837
 
band    11 # energy   38.98657830 # occ.  0.00000000
 
ion      s      p      d    tot
    1  0.000  0.270  0.088  0.358
 
band    12 # energy   38.98657909 # occ.  0.00000000
 
ion      s      p      d    tot
    1  0.000  0.270  0.088  0.358
 

 k-point     2 :    0.15000000 0.05000000 0.05000000     weight = 0.02400000

band     1 # energy   -0.35391286 # occ.  1.00000000
 
ion      s      p      d    tot
    1  0.553  0.106  0.035  0.694
 
band     2 # energy    3.81896948 # occ.  1.00000000
 
ion      s      p      d    tot
    1  0.000  0.003  0.963  0.966
 
band     3 # energy    3.98124255 # occ.  1.00000000
 
ion      s      p      d    tot
    1  0.004  0.018  0.930  0.951
 
band     4 # energy    5.52362312 # occ.  1.00000000
 
ion      s      p      d    tot
    1  0.006  0.017  0.948  0.971
 
band     5 # energy    5.57428728 # occ.  1.00000000
 
ion      s      p      d    tot
    1  0.000  0.002  0.969  0.971
 
band     6 # energy    5.77522025 # occ.  1.00000000
 
ion      s      p      d    tot
    1  0.000  0.000  0.973  0.973
 
band     7 # energy   26.05236850 # occ.  0.00000000
 
ion      s      p      d    tot
    1  0.024  0.174  0.332  0.531
 
band     8 # energy   28.34076690 # occ.  0.00000000
 
ion      s      p      d    tot
    1  0.000  0.141  0.257  0.397
 
band     9 # energy   32.07203357 # occ.  0.00000000
 
ion      s      p      d    tot
    1  0.098  0.487  0.206  0.791
 
band    10 # energy   33.69149209 # occ.  0.00000000
 
ion      s      p      d    tot
    1  0.000  0.002  0.130  0.132
 
band    11 # energy   39.01952499 # occ.  0.00000000
 
ion      s      p      d    tot
    1  0.000  0.233  0.114  0.347
 
band    12 # energy   39.04919968 # occ.  0.00000000
 
ion      s      p      d    tot
    1  0.026  0.333  0.298  0.657
 

 k-point     3 :    0.25000000 0.05000000 0.05000000     weight = 0.02400000

band     1 # energy    1.03838109 # occ.  1.00000000
 
ion      s      p      d    tot
    1  0.368  0.123  0.259  0.751
 
band     2 # energy    3.43492378 # occ.  1.00000000
 
ion      s      p      d    tot
    1  0.000  0.004  0.956  0.959
 
band     3 # energy    4.06536435 # occ.  1.00000000
 
ion      s      p      d    tot
    1  0.052  0.116  0.712  0.880
 
band     4 # energy    5.64737890 # occ.  1.00000000
 
ion      s      p      d    tot
    1  0.002  0.002  0.973  0.977
 
band     5 # energy    5.87101187 # occ.  1.00000000
 
ion      s      p      d    tot
    1  0.000  0.000  0.978  0.978
 
band     6 # energy    6.58704137 # occ.  1.01835598
 
ion      s      p      d    tot
    1  0.017  0.043  0.901  0.960
 
band     7 # energy   21.37702519 # occ.  0.00000000
 
ion      s      p      d    tot
    1  0.113  0.233  0.341  0.687
 
band     8 # energy   26.52735241 # occ.  0.00000000
 
ion      s      p      d    tot
    1  0.000  0.203  0.207  0.411
 
band     9 # energy   29.43651036 # occ.  0.00000000
 
ion      s      p      d    tot
    1  0.104  0.510  0.141  0.754
 
band    10 # energy   33.45326664 # occ.  0.00000000
 
ion      s      p      d    tot
    1  0.000  0.007  0.358  0.365
 
band    11 # energy   37.99425118 # occ.  0.00000000
 
ion      s      p      d    tot
    1  0.079  0.232  0.307  0.618
 
band    12 # energy   41.05787916 # occ.  0.00000000
 
ion      s      p      d    tot
    1  0.000  0.213  0.093  0.306
 

 k-point     4 :    0.35000000 0.05000000 0.05000000     weight = 0.02400000

band     1 # energy    1.53278320 # occ.  1.00000000
 
ion      s      p      d    tot
    1  0.165  0.036  0.647  0.848
 
band     2 # energy    3.15130004 # occ.  1.00000000
 
ion      s      p      d    tot
    1  0.000  0.005  0.951  0.956
 
band     3 # energy    5.23961717 # occ.  1.00000000
 
ion      s      p      d    tot
    1  0.072  0.276  0.463  0.811
 
band     4 # energy    5.81588309 # occ.  1.00000000
 
ion      s      p      d    tot
    1  0.001  0.020  0.954  0.975
 
band     5 # energy    5.95113343 # occ.  1.00000005
 
ion      s      p      d    tot
    1  0.000  0.000  0.984  0.984
 
band     6 # energy    7.82523139 # occ. -0.00000000
 
ion      s      p      d    tot
    1  0.035  0.144  0.726  0.906
 
band     7 # energy   17.16691769 # occ.  0.00000000
 
ion      s      p      d    tot
    1  0.259  0.154  0.371  0.784
 
band     8 # energy   25.25077400 # occ.  0.00000000
 
ion      s      p      d    tot
    1  0.000  0.237  0.157  0.394
 
band     9 # energy   27.66874743 # occ.  0.00000000
 
ion      s      p      d    tot
    1  0.096  0.561  0.070  0.728
 
band    10 # energy   33.16006357 # occ.  0.00000000
 
ion      s      p      d    tot
    1  0.000  0.008  0.496  0.504
 
band    11 # energy   37.67754008 # occ.  0.00000000
 
ion      s      p      d    tot
    1  0.137  0.139  0.344  0.620
 
band    12 # energy   43.30063786 # occ.  0.00000000
 
ion      s      p      d    tot
    1  0.031  0.041  0.085  0.156
 

 k-point     5 :    0.45000000 0.05000000 0.05000000     weight = 0.01200000

band     1 # energy    1.52618091 # occ.  1.00000000
 
ion      s      p      d    tot
    1  0.117  0.010  0.744  0.871
 
band     2 # energy    3.04758980 # occ.  1.00000000
 
ion      s      p      d    tot
    1  0.000  0.005  0.950  0.955
 
band     3 # energy    5.84024234 # occ.  1.00000000
 
ion      s      p      d    tot
    1  0.012  0.000  0.969  0.982
 
band     4 # energy    5.98535329 # occ.  1.00000017
 
ion      s      p      d    tot
    1  0.000  0.000  0.986  0.986
 
band     5 # energy    6.08859342 # occ.  1.00000661
 
ion      s      p      d    tot
    1  0.000  0.303  0.528  0.831
 
band     6 # energy    8.76087954 # occ. -0.00000000
 
ion      s      p      d    tot
    1  0.000  0.342  0.472  0.814
 
band     7 # energy   15.01854487 # occ.  0.00000000
 
ion      s      p      d    tot
    1  0.395  0.010  0.442  0.847
 
band     8 # energy   24.79194399 # occ.  0.00000000
 
ion      s      p      d    tot
    1  0.000  0.248  0.138  0.385
 
band     9 # energy   27.01511302 # occ.  0.00000000
 
ion      s      p      d    tot
    1  0.094  0.586  0.036  0.715
 
band    10 # energy   33.05647708 # occ.  0.00000000
 
ion      s      p      d    tot
    1  0.000  0.008  0.540  0.548
 
band    11 # energy   37.65448576 # occ.  0.00000000
 
ion      s      p      d    tot
    1  0.166  0.096  0.372  0.634
 
band    12 # energy   43.08136585 # occ.  0.00000000
 
ion      s      p      d    tot
    1  0.000  0.075  0.004  0.079
 

 k-point     6 :   -0.05000000 0.05000000 0.05000000     weight = 0.00600000

band     1 # energy   -1.97185929 # occ.  1.00000000
 
ion      s      p      d    tot
    1  0.668  0.014  0.000  0.682
 
band     2 # energy    4.31793201 # occ.  1.00000000
 
ion      s      p      d    tot
    1  0.000  0.001  0.977  0.978
 
band     3 # energy    4.31799417 # occ.  1.00000000
 
ion      s      p      d    tot
    1  0.000  0.001  0.977  0.978
 
band     4 # energy    4.38977773 # occ.  1.00000000
 
ion      s      p      d    tot
    1  0.000  0.000  0.980  0.980
 
band     5 # energy    5.64453089 # occ.  1.00000000
 
ion      s      p      d    tot
    1  0.000  0.000  0.966  0.966
 
band     6 # energy    5.79300565 # occ.  1.00000000
 
ion      s      p      d    tot
    1  0.000  0.000  0.972  0.972
 
band     7 # energy   31.46329478 # occ.  0.00000000
 
ion      s      p      d    tot
    1  0.000  0.000  0.111  0.111
 
band     8 # energy   32.54028684 # occ.  0.00000000
 
ion      s      p      d    tot
    1  0.000  0.006  0.074  0.081
 
band     9 # energy   32.54030205 # occ.  0.00000000
 
ion      s      p      d    tot
    1  0.000  0.006  0.074  0.081
 
band    10 # energy   36.84738817 # occ.  0.00000000
 
ion      s      p      d    tot
    1  0.009  0.221  0.217  0.447
 
band    11 # energy   39.39719077 # occ.  0.00000000
 
ion      s      p      d    tot
    1  0.000  0.442  0.351  0.793
 
band    12 # energy   39.39725303 # occ.  0.00000000
 
ion      s      p      d    tot
    1  0.000  0.442  0.351  0.793
 

 k-point     7 :    0.15000000 0.15000000 0.05000000     weight = 0.02400000

band     1 # energy    0.96930080 # occ.  1.00000000
 
ion      s      p      d    tot
    1  0.430  0.160  0.129  0.719
 
band     2 # energy    3.53924889 # occ.  1.00000000
 
ion      s      p      d    tot
    1  0.000  0.022  0.917  0.939
 
band     3 # energy    3.58904353 # occ.  1.00000000
 
ion      s      p      d    tot
    1  0.007  0.022  0.918  0.947
 
band     4 # energy    5.59708669 # occ.  1.00000000
 
ion      s      p      d    tot
    1  0.000  0.001  0.972  0.973
 
band     5 # energy    5.88599712 # occ.  1.00000000
 
ion      s      p      d    tot
    1  0.002  0.000  0.977  0.979
 
band     6 # energy    6.65356618 # occ.  0.92523658
 
ion      s      p      d    tot
    1  0.025  0.052  0.877  0.954
 
band     7 # energy   23.64510724 # occ.  0.00000000
 
ion      s      p      d    tot
    1  0.000  0.232  0.361  0.593
 
band     8 # energy   24.69113406 # occ.  0.00000000
 
ion      s      p      d    tot
    1  0.084  0.239  0.264  0.588
 
band     9 # energy   28.57337765 # occ.  0.00000000
 
ion      s      p      d    tot
    1  0.151  0.429  0.140  0.719
 
band    10 # energy   35.09143534 # occ.  0.00000000
 
ion      s      p      d    tot
    1  0.000  0.014  0.115  0.129
 
band    11 # energy   39.67357099 # occ.  0.00000000
 
ion      s      p      d    tot
    1  0.016  0.113  0.328  0.458
 
band    12 # energy   41.38868863 # occ.  0.00000000
 
ion      s      p      d    tot
    1  0.000  0.234  0.277  0.511
 

 k-point     8 :    0.25000000 0.15000000 0.05000000     weight = 0.04800000

band     1 # energy    1.97598986 # occ.  1.00000000
 
ion      s      p      d    tot
    1  0.206  0.104  0.506  0.817
 
band     2 # energy    3.22162858 # occ.  1.00000000
 
ion      s      p      d    tot
    1  0.000  0.025  0.915  0.940
 
band     3 # energy    3.85608694 # occ.  1.00000000
 
ion      s      p      d    tot
    1  0.055  0.146  0.669  0.870
 
band     4 # energy    5.71626854 # occ.  1.00000000
 
ion      s      p      d    tot
    1  0.001  0.002  0.975  0.978
 
band     5 # energy    6.00720433 # occ.  1.00000039
 
ion      s      p      d    tot
    1  0.007  0.002  0.974  0.982
 
band     6 # energy    8.18891805 # occ. -0.00000000
 
ion      s      p      d    tot
    1  0.061  0.127  0.721  0.909
 
band     7 # energy   19.52747155 # occ.  0.00000000
 
ion      s      p      d    tot
    1  0.128  0.251  0.335  0.714
 
band     8 # energy   22.75522239 # occ.  0.00000000
 
ion      s      p      d    tot
    1  0.096  0.268  0.252  0.615
 
band     9 # energy   26.58910705 # occ.  0.00000000
 
ion      s      p      d    tot
    1  0.142  0.407  0.119  0.667
 
band    10 # energy   35.47877856 # occ.  0.00000000
 
ion      s      p      d    tot
    1  0.005  0.022  0.249  0.275
 
band    11 # energy   40.45876578 # occ.  0.00000000
 
ion      s      p      d    tot
    1  0.004  0.101  0.317  0.422
 
band    12 # energy   42.10810496 # occ.  0.00000000
 
ion      s      p      d    tot
    1  0.060  0.174  0.217  0.451
 

 k-point     9 :    0.35000000 0.15000000 0.05000000     weight = 0.04800000

band     1 # energy    2.02525975 # occ.  1.00000000
 
ion      s      p      d    tot
    1  0.095  0.041  0.740  0.875
 
band     2 # energy    3.07098771 # occ.  1.00000000
 
ion      s      p      d    tot
    1  0.000  0.023  0.920  0.943
 
band     3 # energy    4.67396344 # occ.  1.00000000
 
ion      s      p      d    tot
    1  0.014  0.218  0.625  0.856
 
band     4 # energy    5.84914819 # occ.  1.00000000
 
ion      s      p      d    tot
    1  0.006  0.003  0.973  0.981
 
band     5 # energy    6.11859482 # occ.  1.00001720
 
ion      s      p      d    tot
    1  0.003  0.019  0.957  0.979
 
band     6 # energy   10.05362923 # occ. -0.00000000
 
ion      s      p      d    tot
    1  0.038  0.304  0.480  0.822
 
band     7 # energy   15.84120585 # occ.  0.00000000
 
ion      s      p      d    tot
    1  0.298  0.121  0.382  0.801
 
band     8 # energy   21.87470725 # occ.  0.00000000
 
ion      s      p      d    tot
    1  0.101  0.290  0.227  0.618
 
band     9 # energy   25.59161811 # occ.  0.00000000
 
ion      s      p      d    tot
    1  0.133  0.415  0.099  0.648
 
band    10 # energy   35.42666003 # occ.  0.00000000
 
ion      s      p      d    tot
    1  0.011  0.016  0.342  0.369
 
band    11 # energy   41.30004924 # occ.  0.00000000
 
ion      s      p      d    tot
    1  0.024  0.132  0.284  0.440
 
band    12 # energy   42.11428614 # occ.  0.00000000
 
ion      s      p      d    tot
    1  0.048  0.084  0.181  0.312
 

 k-point    10 :   -0.15000000 0.15000000 0.05000000     weight = 0.02400000

band     1 # energy   -1.12590171 # occ.  1.00000000
 
ion      s      p      d    tot
    1  0.610  0.066  0.010  0.686
 
band     2 # energy    4.09922863 # occ.  1.00000000
 
ion      s      p      d    tot
    1  0.000  0.001  0.972  0.973
 
band     3 # energy    4.26488444 # occ.  1.00000000
 
ion      s      p      d    tot
    1  0.002  0.011  0.953  0.965
 
band     4 # energy    4.84486121 # occ.  1.00000000
 
ion      s      p      d    tot
    1  0.000  0.005  0.973  0.977
 
band     5 # energy    5.40504274 # occ.  1.00000000
 
ion      s      p      d    tot
    1  0.000  0.000  0.960  0.960
 
band     6 # energy    5.86495635 # occ.  1.00000000
 
ion      s      p      d    tot
    1  0.002  0.000  0.972  0.975
 
band     7 # energy   28.30104960 # occ.  0.00000000
 
ion      s      p      d    tot
    1  0.009  0.093  0.300  0.402
 
band     8 # energy   31.01389838 # occ.  0.00000000
 
ion      s      p      d    tot
    1  0.012  0.093  0.144  0.250
 
band     9 # energy   31.91143085 # occ.  0.00000000
 
ion      s      p      d    tot
    1  0.000  0.069  0.286  0.355
 
band    10 # energy   36.01703414 # occ.  0.00000000
 
ion      s      p      d    tot
    1  0.010  0.274  0.132  0.416
 
band    11 # energy   36.61910611 # occ.  0.00000000
 
ion      s      p      d    tot
    1  0.000  0.441  0.273  0.715
 
band    12 # energy   37.56745738 # occ.  0.00000000
 
ion      s      p      d    tot
    1  0.059  0.385  0.123  0.567
 

 k-point    11 :    0.25000000 0.25000000 0.05000000     weight = 0.02400000

band     1 # energy    2.53158694 # occ.  1.00000000
 
ion      s      p      d    tot
    1  0.079  0.046  0.769  0.895
 
band     2 # energy    3.12876868 # occ.  1.00000000
 
ion      s      p      d    tot
    1  0.000  0.078  0.826  0.904
 
band     3 # energy    3.82615366 # occ.  1.00000000
 
ion      s      p      d    tot
    1  0.029  0.163  0.681  0.873
 
band     4 # energy    5.83983006 # occ.  1.00000000
 
ion      s      p      d    tot
    1  0.000  0.004  0.976  0.980
 
band     5 # energy    6.10588328 # occ.  1.00001154
 
ion      s      p      d    tot
    1  0.008  0.008  0.968  0.983
 
band     6 # energy   10.50170623 # occ. -0.00000000
 
ion      s      p      d    tot
    1  0.084  0.243  0.513  0.840
 
band     7 # energy   17.73271018 # occ.  0.00000000
 
ion      s      p      d    tot
    1  0.000  0.353  0.371  0.724
 
band     8 # energy   18.99656096 # occ.  0.00000000
 
ion      s      p      d    tot
    1  0.378  0.148  0.198  0.725
 
band     9 # energy   25.37056104 # occ.  0.00000000
 
ion      s      p      d    tot
    1  0.133  0.371  0.145  0.649
 
band    10 # energy   36.92923580 # occ.  0.00000000
 
ion      s      p      d    tot
    1  0.000  0.046  0.203  0.249
 
band    11 # energy   40.08015702 # occ.  0.00000000
 
ion      s      p      d    tot
    1  0.018  0.048  0.253  0.319
 
band    12 # energy   46.48373469 # occ.  0.00000000
 
ion      s      p      d    tot
    1  0.000  0.175  0.171  0.347
 

 k-point    12 :    0.35000000 0.25000000 0.05000000     weight = 0.02400000

band     1 # energy    2.57078203 # occ.  1.00000000
 
ion      s      p      d    tot
    1  0.050  0.032  0.829  0.911
 
band     2 # energy    3.18362281 # occ.  1.00000000
 
ion      s      p      d    tot
    1  0.000  0.087  0.820  0.907
 
band     3 # energy    3.88711600 # occ.  1.00000000
 
ion      s      p      d    tot
    1  0.000  0.170  0.704  0.874
 
band     4 # energy    5.94761563 # occ.  1.00000004
 
ion      s      p      d    tot
    1  0.002  0.005  0.975  0.982
 
band     5 # energy    6.11681538 # occ.  1.00001627
 
ion      s      p      d    tot
    1  0.000  0.013  0.970  0.983
 
band     6 # energy   12.68024684 # occ.  0.00000000
 
ion      s      p      d    tot
    1  0.000  0.391  0.385  0.776
 
band     7 # energy   15.17371256 # occ.  0.00000000
 
ion      s      p      d    tot
    1  0.178  0.226  0.380  0.784
 
band     8 # energy   18.20102344 # occ.  0.00000000
 
ion      s      p      d    tot
    1  0.353  0.155  0.221  0.730
 
band     9 # energy   24.99850976 # occ.  0.00000000
 
ion      s      p      d    tot
    1  0.132  0.366  0.155  0.652
 
band    10 # energy   37.51551792 # occ.  0.00000000
 
ion      s      p      d    tot
    1  0.005  0.044  0.227  0.275
 
band    11 # energy   39.94901286 # occ.  0.00000000
 
ion      s      p      d    tot
    1  0.000  0.055  0.165  0.220
 
band    12 # energy   46.23916086 # occ.  0.00000000
 
ion      s      p      d    tot
    1  0.001  0.124  0.380  0.505
 

 k-point    13 :   -0.25000000 0.25000000 0.05000000     weight = 0.02400000

band     1 # energy    0.28190891 # occ.  1.00000000
 
ion      s      p      d    tot
    1  0.480  0.126  0.105  0.711
 
band     2 # energy    3.73251182 # occ.  1.00000000
 
ion      s      p      d    tot
    1  0.000  0.001  0.964  0.966
 
band     3 # energy    4.13054819 # occ.  1.00000000
 
ion      s      p      d    tot
    1  0.024  0.060  0.831  0.915
 
band     4 # energy    5.41619479 # occ.  1.00000000
 
ion      s      p      d    tot
    1  0.000  0.005  0.963  0.968
 
band     5 # energy    5.69406187 # occ.  1.00000000
 
ion      s      p      d    tot
    1  0.000  0.009  0.968  0.977
 
band     6 # energy    5.95696738 # occ.  1.00000006
 
ion      s      p      d    tot
    1  0.008  0.003  0.965  0.976
 
band     7 # energy   23.70169014 # occ.  0.00000000
 
ion      s      p      d    tot
    1  0.070  0.214  0.345  0.628
 
band     8 # energy   28.76048357 # occ.  0.00000000
 
ion      s      p      d    tot
    1  0.018  0.159  0.106  0.283
 
band     9 # energy   30.71080669 # occ.  0.00000000
 
ion      s      p      d    tot
    1  0.000  0.266  0.372  0.638
 
band    10 # energy   34.24999500 # occ.  0.00000000
 
ion      s      p      d    tot
    1  0.000  0.323  0.302  0.625
 
band    11 # energy   36.08057898 # occ.  0.00000000
 
ion      s      p      d    tot
    1  0.054  0.292  0.238  0.584
 
band    12 # energy   38.07105905 # occ.  0.00000000
 
ion      s      p      d    tot
    1  0.094  0.154  0.072  0.320
 

 k-point    14 :   -0.15000000 0.25000000 0.05000000     weight = 0.02400000

band     1 # energy    0.00198709 # occ.  1.00000000
 
ion      s      p      d    tot
    1  0.518  0.126  0.053  0.697
 
band     2 # energy    3.99599333 # occ.  1.00000000
 
ion      s      p      d    tot
    1  0.000  0.014  0.934  0.948
 
band     3 # energy    4.01562294 # occ.  1.00000000
 
ion      s      p      d    tot
    1  0.004  0.012  0.945  0.961
 
band     4 # energy    5.18760420 # occ.  1.00000000
 
ion      s      p      d    tot
    1  0.000  0.001  0.958  0.959
 
band     5 # energy    5.48457695 # occ.  1.00000000
 
ion      s      p      d    tot
    1  0.003  0.015  0.955  0.973
 
band     6 # energy    6.04271906 # occ.  1.00000140
 
ion      s      p      d    tot
    1  0.014  0.004  0.958  0.976
 
band     7 # energy   25.84952367 # occ.  0.00000000
 
ion      s      p      d    tot
    1  0.000  0.151  0.365  0.516
 
band     8 # energy   27.35815872 # occ.  0.00000000
 
ion      s      p      d    tot
    1  0.078  0.243  0.244  0.564
 
band     9 # energy   31.99626344 # occ.  0.00000000
 
ion      s      p      d    tot
    1  0.000  0.087  0.272  0.359
 
band    10 # energy   33.38979885 # occ.  0.00000000
 
ion      s      p      d    tot
    1  0.003  0.480  0.147  0.630
 
band    11 # energy   36.03990663 # occ.  0.00000000
 
ion      s      p      d    tot
    1  0.084  0.133  0.224  0.441
 
band    12 # energy   39.50671749 # occ.  0.00000000
 
ion      s      p      d    tot
    1  0.000  0.364  0.074  0.438
 

 k-point    15 :   -0.35000000 0.35000000 0.05000000     weight = 0.02400000

band     1 # energy    1.30664576 # occ.  1.00000000
 
ion      s      p      d    tot
    1  0.251  0.071  0.483  0.805
 
band     2 # energy    3.37956800 # occ.  1.00000000
 
ion      s      p      d    tot
    1  0.000  0.002  0.959  0.960
 
band     3 # energy    4.64585330 # occ.  1.00000000
 
ion      s      p      d    tot
    1  0.077  0.195  0.560  0.832
 
band     4 # energy    5.70048454 # occ.  1.00000000
 
ion      s      p      d    tot
    1  0.000  0.027  0.943  0.970
 
band     5 # energy    6.22118033 # occ.  1.00031282
 
ion      s      p      d    tot
    1  0.040  0.069  0.831  0.940
 
band     6 # energy    6.63794625 # occ.  0.95629584
 
ion      s      p      d    tot
    1  0.000  0.007  0.975  0.983
 
band     7 # energy   19.11215780 # occ.  0.00000000
 
ion      s      p      d    tot
    1  0.185  0.207  0.353  0.745
 
band     8 # energy   26.94846600 # occ.  0.00000000
 
ion      s      p      d    tot
    1  0.016  0.203  0.061  0.280
 
band     9 # energy   29.01595627 # occ.  0.00000000
 
ion      s      p      d    tot
    1  0.000  0.497  0.235  0.732
 
band    10 # energy   33.07952521 # occ.  0.00000000
 
ion      s      p      d    tot
    1  0.000  0.162  0.472  0.634
 
band    11 # energy   36.03025746 # occ.  0.00000000
 
ion      s      p      d    tot
    1  0.145  0.147  0.305  0.597
 
band    12 # energy   39.98051960 # occ.  0.00000000
 
ion      s      p      d    tot
    1  0.072  0.088  0.160  0.320
 

 k-point    16 :   -0.25000000 0.35000000 0.05000000     weight = 0.04800000

band     1 # energy    1.31679476 # occ.  1.00000000
 
ion      s      p      d    tot
    1  0.336  0.141  0.277  0.754
 
band     2 # energy    3.58347309 # occ.  1.00000000
 
ion      s      p      d    tot
    1  0.002  0.020  0.915  0.937
 
band     3 # energy    3.95551094 # occ.  1.00000000
 
ion      s      p      d    tot
    1  0.026  0.072  0.814  0.912
 
band     4 # energy    5.34780633 # occ.  1.00000000
 
ion      s      p      d    tot
    1  0.000  0.009  0.957  0.966
 
band     5 # energy    6.11970456 # occ.  1.00001780
 
ion      s      p      d    tot
    1  0.012  0.003  0.966  0.981
 
band     6 # energy    6.72096155 # occ.  0.72311759
 
ion      s      p      d    tot
    1  0.045  0.062  0.837  0.944
 
band     7 # energy   21.65119478 # occ.  0.00000000
 
ion      s      p      d    tot
    1  0.091  0.246  0.346  0.683
 
band     8 # energy   24.92636386 # occ.  0.00000000
 
ion      s      p      d    tot
    1  0.085  0.256  0.245  0.586
 
band     9 # energy   30.35412836 # occ.  0.00000000
 
ion      s      p      d    tot
    1  0.002  0.383  0.136  0.521
 
band    10 # energy   32.88794355 # occ.  0.00000000
 
ion      s      p      d    tot
    1  0.026  0.182  0.298  0.507
 
band    11 # energy   36.57228308 # occ.  0.00000000
 
ion      s      p      d    tot
    1  0.056  0.106  0.320  0.482
 
band    12 # energy   40.17911017 # occ.  0.00000000
 
ion      s      p      d    tot
    1  0.069  0.205  0.178  0.452
 

 k-point    17 :   -0.45000000 0.45000000 0.05000000     weight = 0.02400000

band     1 # energy    1.44261499 # occ.  1.00000000
 
ion      s      p      d    tot
    1  0.132  0.010  0.722  0.864
 
band     2 # energy    3.17030549 # occ.  1.00000000
 
ion      s      p      d    tot
    1  0.000  0.002  0.956  0.958
 
band     3 # energy    5.38519459 # occ.  1.00000000
 
ion      s      p      d    tot
    1  0.013  0.125  0.763  0.902
 
band     4 # energy    5.77763505 # occ.  1.00000000
 
ion      s      p      d    tot
    1  0.009  0.009  0.959  0.977
 
band     5 # energy    7.28644726 # occ. -0.00091246
 
ion      s      p      d    tot
    1  0.000  0.001  0.989  0.990
 
band     6 # energy    7.47326618 # occ. -0.00000476
 
ion      s      p      d    tot
    1  0.032  0.445  0.283  0.761
 
band     7 # energy   15.61569771 # occ.  0.00000000
 
ion      s      p      d    tot
    1  0.351  0.061  0.419  0.831
 
band     8 # energy   25.95299746 # occ.  0.00000000
 
ion      s      p      d    tot
    1  0.015  0.224  0.033  0.272
 
band     9 # energy   27.80638590 # occ.  0.00000000
 
ion      s      p      d    tot
    1  0.000  0.600  0.123  0.723
 
band    10 # energy   32.68467432 # occ.  0.00000000
 
ion      s      p      d    tot
    1  0.000  0.103  0.575  0.678
 
band    11 # energy   36.23327847 # occ.  0.00000000
 
ion      s      p      d    tot
    1  0.208  0.047  0.378  0.633
 
band    12 # energy   41.11305840 # occ.  0.00000000
 
ion      s      p      d    tot
    1  0.015  0.064  0.121  0.200
 

 k-point    18 :   -0.35000000 0.45000000 0.05000000     weight = 0.04800000

band     1 # energy    1.78952049 # occ.  1.00000000
 
ion      s      p      d    tot
    1  0.143  0.049  0.658  0.849
 
band     2 # energy    3.37108238 # occ.  1.00000000
 
ion      s      p      d    tot
    1  0.001  0.014  0.932  0.948
 
band     3 # energy    4.34317485 # occ.  1.00000000
 
ion      s      p      d    tot
    1  0.029  0.161  0.671  0.861
 
band     4 # energy    5.62569943 # occ.  1.00000000
 
ion      s      p      d    tot
    1  0.004  0.012  0.956  0.971
 
band     5 # energy    6.54828282 # occ.  1.03416337
 
ion      s      p      d    tot
    1  0.018  0.038  0.910  0.967
 
band     6 # energy    8.29106269 # occ. -0.00000000
 
ion      s      p      d    tot
    1  0.069  0.211  0.592  0.871
 
band     7 # energy   17.37224501 # occ.  0.00000000
 
ion      s      p      d    tot
    1  0.233  0.186  0.359  0.777
 
band     8 # energy   23.61059512 # occ.  0.00000000
 
ion      s      p      d    tot
    1  0.083  0.296  0.215  0.594
 
band     9 # energy   28.63552136 # occ.  0.00000000
 
ion      s      p      d    tot
    1  0.003  0.448  0.057  0.508
 
band    10 # energy   33.15558452 # occ.  0.00000000
 
ion      s      p      d    tot
    1  0.053  0.072  0.455  0.580
 
band    11 # energy   37.65646673 # occ.  0.00000000
 
ion      s      p      d    tot
    1  0.005  0.136  0.274  0.415
 
band    12 # energy   40.00091416 # occ.  0.00000000
 
ion      s      p      d    tot
    1  0.109  0.097  0.281  0.487
 

 k-point    19 :   -0.25000000 0.45000000 0.05000000     weight = 0.02400000

band     1 # energy    2.22114821 # occ.  1.00000000
 
ion      s      p      d    tot
    1  0.170  0.103  0.556  0.829
 
band     2 # energy    3.17439863 # occ.  1.00000000
 
ion      s      p      d    tot
    1  0.000  0.048  0.857  0.904
 
band     3 # energy    3.95400203 # occ.  1.00000000
 
ion      s      p      d    tot
    1  0.015  0.095  0.800  0.910
 
band     4 # energy    5.49635303 # occ.  1.00000000
 
ion      s      p      d    tot
    1  0.000  0.009  0.960  0.970
 
band     5 # energy    6.29971158 # occ.  1.00193760
 
ion      s      p      d    tot
    1  0.023  0.010  0.945  0.978
 
band     6 # energy    8.58530292 # occ. -0.00000000
 
ion      s      p      d    tot
    1  0.093  0.173  0.619  0.885
 
band     7 # energy   19.67381312 # occ.  0.00000000
 
ion      s      p      d    tot
    1  0.000  0.330  0.382  0.712
 
band     8 # energy   20.67469561 # occ.  0.00000000
 
ion      s      p      d    tot
    1  0.292  0.215  0.197  0.704
 
band     9 # energy   30.00773738 # occ.  0.00000000
 
ion      s      p      d    tot
    1  0.024  0.464  0.078  0.566
 
band    10 # energy   32.45285492 # occ.  0.00000000
 
ion      s      p      d    tot
    1  0.000  0.093  0.301  0.394
 
band    11 # energy   36.48748039 # occ.  0.00000000
 
ion      s      p      d    tot
    1  0.080  0.020  0.375  0.475
 
band    12 # energy   44.57511261 # occ.  0.00000000
 
ion      s      p      d    tot
    1  0.000  0.253  0.145  0.398
 

 k-point    20 :   -0.45000000-0.45000000 0.05000000     weight = 0.02400000

band     1 # energy    1.76883406 # occ.  1.00000000
 
ion      s      p      d    tot
    1  0.097  0.020  0.755  0.872
 
band     2 # energy    3.29883167 # occ.  1.00000000
 
ion      s      p      d    tot
    1  0.001  0.011  0.940  0.952
 