<?xml version="1.0" encoding="ISO-8859-1"?>
<modeling>
 <generator>
  <i name="program" type="string">vasp </i>
  <i name="version" type="string">5.4.4.18Apr17-6-g9f103f2a35  </i>
  <i name="subversion" type="string">(build May 18 2018 14:42:58) complex            parallel </i>
  <i name="platform" type="string">LinuxIFC </i>
  <i name="date" type="string">2020 06 30 </i>
  <i name="time" type="string">16:50:50 </i>
 </generator>
 <incar>
  <i type="string" name="SYSTEM"> bcc Fe</i>
  <i type="string" name="PREC">normal</i>
  <i type="int" name="ISPIN">     2</i>
  <i name="EDIFF">      0.00010000</i>
  <i name="ENCUT">    268.00000000</i>
  <v name="RWIGS">      1.30200000</v>
  <v name="MAGMOM">      3.00000000</v>
  <v type="int" name="KPOINT_BSE">    -1     0     0     0</v>
 </incar>
 <structure name="primitive_cell" >
  <crystal>
   <varray name="basis" >
    <v>      -1.37500000       1.37500000       1.37500000 </v>
    <v>       1.37500000      -1.37500000       1.37500000 </v>
    <v>       1.37500000       1.37500000      -1.37500000 </v>
   </varray>
   <i name="volume">     10.39843750 </i>
   <varray name="rec_basis" >
    <v>       0.00000000       0.36363636       0.36363636 </v>
    <v>       0.36363636       0.00000000       0.36363636 </v>
    <v>       0.36363636       0.36363636       0.00000000 </v>
   </varray>
  </crystal>
  <varray name="positions" >
   <v>       0.00000000       0.00000000       0.00000000 </v>
  </varray>
 </structure>
 <varray name="primitive_index" >
  <v type="int" >        1 </v>
 </varray>
 <kpoints>
  <generation param="Monkhorst-Pack">
   <v type="int" name="divisions">      10       10       10 </v>
   <v name="usershift">      0.00000000       0.00000000       0.00000000 </v>
   <v name="genvec1">      0.10000000       0.00000000       0.00000000 </v>
   <v name="genvec2">      0.00000000       0.10000000       0.00000000 </v>
   <v name="genvec3">      0.00000000       0.00000000       0.10000000 </v>
   <v name="shift">      0.50000000       0.50000000       0.50000000 </v>
  </generation>
  <varray name="kpointlist" >
   <v>       0.05000000       0.05000000       0.05000000 </v>
   <v>       0.15000000       0.05000000       0.05000000 </v>
   <v>       0.25000000       0.05000000       0.05000000 </v>
   <v>       0.35000000       0.05000000       0.05000000 </v>
   <v>       0.45000000       0.05000000       0.05000000 </v>
   <v>      -0.05000000       0.05000000       0.05000000 </v>
   <v>       0.15000000       0.15000000       0.05000000 </v>
   <v>       0.25000000       0.15000000       0.05000000 </v>
   <v>       0.35000000       0.15000000       0.05000000 </v>
   <v>      -0.15000000       0.15000000       0.05000000 </v>
   <v>       0.25000000       0.25000000       0.05000000 </v>
   <v>       0.35000000       0.25000000       0.05000000 </v>
   <v>      -0.25000000       0.25000000       0.05000000 </v>
   <v>      -0.15000000       0.25000000       0.05000000 </v>
   <v>      -0.35000000       0.35000000       0.05000000 </v>
   <v>      -0.25000000       0.35000000       0.05000000 </v>
   <v>      -0.45000000       0.45000000       0.05000000 </v>
   <v>      -0.35000000       0.45000000       0.05000000 </v>
   <v>      -0.25000000       0.45000000       0.05000000 </v>
   <v>      -0.45000000      -0.45000000       0.05000000 </v>
   <v>      -0.35000000      -0.45000000       0.05000000 </v>
   <v>      -0.35000000      -0.35000000       0.05000000 </v>
   <v>       0.15000000       0.15000000       0.15000000 </v>
   <v>       0.25000000       0.15000000       0.15000000 </v>
   <v>       0.35000000       0.15000000       0.15000000 </v>
   <v>      -0.15000000       0.15000000       0.15000000 </v>
   <v>       0.25000000       0.25000000       0.15000000 </v>
   <v>      -0.25000000       0.25000000       0.15000000 </v>
   <v>      -0.35000000       0.35000000       0.15000000 </v>
   <v>      -0.25000000       0.35000000       0.15000000 </v>
   <v>      -0.45000000       0.45000000       0.15000000 </v>
   <v>      -0.35000000       0.45000000       0.15000000 </v>
   <v>      -0.45000000      -0.45000000       0.15000000 </v>
   <v>      -0.35000000      -0.45000000       0.15000000 </v>
   <v>       0.25000000       0.25000000       0.25000000 </v>
   <v>      -0.25000000       0.25000000       0.25000000 </v>
   <v>      -0.35000000       0.35000000       0.25000000 </v>
   <v>      -0.45000000       0.45000000       0.25000000 </v>
   <v>      -0.35000000       0.45000000       0.25000000 </v>
   <v>      -0.45000000      -0.45000000       0.25000000 </v>
   <v>      -0.35000000       0.35000000       0.35000000 </v>
   <v>      -0.45000000       0.45000000       0.35000000 </v>
   <v>      -0.45000000      -0.45000000       0.35000000 </v>
   <v>      -0.45000000       0.45000000       0.45000000 </v>
  </varray>
  <varray name="weights" >
   <v>       0.00800000 </v>
   <v>       0.02400000 </v>
   <v>       0.02400000 </v>
   <v>       0.02400000 </v>
   <v>       0.01200000 </v>
   <v>       0.00600000 </v>
   <v>       0.02400000 </v>
   <v>       0.04800000 </v>
   <v>       0.04800000 </v>
   <v>       0.02400000 </v>
   <v>       0.02400000 </v>
   <v>       0.02400000 </v>
   <v>       0.02400000 </v>
   <v>       0.02400000 </v>
   <v>       0.02400000 </v>
   <v>       0.04800000 </v>
   <v>       0.02400000 </v>
   <v>       0.04800000 </v>
   <v>       0.02400000 </v>
   <v>       0.02400000 </v>
   <v>       0.04800000 </v>
   <v>       0.00800000 </v>
   <v>       0.00800000 </v>
   <v>       0.02400000 </v>
   <v>       0.01200000 </v>
   <v>       0.00600000 </v>
   <v>       0.02400000 </v>
   <v>       0.02400000 </v>
   <v>       0.02400000 </v>
   <v>       0.02400000 </v>
   <v>       0.02400000 </v>
   <v>       0.04800000 </v>
   <v>       0.02400000 </v>
   <v>       0.02400000 </v>
   <v>       0.00200000 </v>
   <v>       0.00600000 </v>
   <v>       0.02400000 </v>
   <v>       0.02400000 </v>
   <v>       0.02400000 </v>
   <v>       0.02400000 </v>
   <v>       0.00600000 </v>
   <v>       0.02400000 </v>
   <v>       0.00800000 </v>
   <v>       0.00600000 </v>
  </varray>
 </kpoints>
 <parameters>
  <separator name="general" >
   <i type="string" name="SYSTEM">bcc Fe</i>
   <i type="logical" name="LCOMPAT"> F  </i>
  </separator>
  <separator name="electronic" >
   <i type="string" name="PREC">normal</i>
   <i name="ENMAX">    268.00000000</i>
   <i name="ENAUG">    511.36800000</i>
   <i name="EDIFF">      0.00010000</i>
   <i type="int" name="IALGO">    38</i>
   <i type="int" name="IWAVPR">    10</i>
   <i type="int" name="NBANDS">    12</i>
   <i name="NELECT">      8.00000000</i>
   <i type="int" name="TURBO">     0</i>
   <i type="int" name="IRESTART">     0</i>
   <i type="int" name="NREBOOT">     0</i>
   <i type="int" name="NMIN">     0</i>
   <i name="EREF">      0.00000000</i>
   <separator name="electronic smearing" >
    <i type="int" name="ISMEAR">     1</i>
    <i name="SIGMA">      0.20000000</i>
    <i name="KSPACING">      0.50000000</i>
    <i type="logical" name="KGAMMA"> T  </i>
   </separator>
   <separator name="electronic projectors" >
    <i type="logical" name="LREAL"> F  </i>
    <v name="ROPT">      0.00000000</v>
    <i type="int" name="LMAXPAW">  -100</i>
    <i type="int" name="LMAXMIX">     2</i>
    <i type="logical" name="NLSPLINE"> F  </i>
   </separator>
   <separator name="electronic startup" >
    <i type="int" name="ISTART">     0</i>
    <i type="int" name="ICHARG">     2</i>
    <i type="int" name="INIWAV">     1</i>
   </separator>
   <separator name="electronic spin" >
    <i type="int" name="ISPIN">     2</i>
    <i type="logical" name="LNONCOLLINEAR"> F  </i>
    <v name="MAGMOM">      3.00000000</v>
    <i name="NUPDOWN">     -1.00000000</i>
    <i type="logical" name="LSORBIT"> F  </i>
    <v name="SAXIS">      0.00000000      0.00000000      1.00000000</v>
    <i type="logical" name="LSPIRAL"> F  </i>
    <v name="QSPIRAL">      0.00000000      0.00000000      0.00000000</v>
    <i type="logical" name="LZEROZ"> F  </i>
   </separator>
   <separator name="electronic exchange-correlation" >
    <i type="logical" name="LASPH"> F  </i>
    <i type="logical" name="LMETAGGA"> F  </i>
   </separator>
   <separator name="electronic convergence" >
    <i type="int" name="NELM">    60</i>
    <i type="int" name="NELMDL">    -5</i>
    <i type="int" name="NELMIN">     2</i>
    <i name="ENINI">    268.00000000</i>
    <separator name="electronic convergence detail" >
     <i type="logical" name="LDIAG"> T  </i>
     <i type="logical" name="LSUBROT"> F  </i>
     <i name="WEIMIN">      0.00000000</i>
     <i name="EBREAK">      0.00000208</i>
     <i name="DEPER">      0.30000000</i>
     <i type="int" name="NRMM">     4</i>
     <i name="TIME">      0.40000000</i>
    </separator>
   </separator>
   <separator name="electronic mixer" >
    <i name="AMIX">      0.40000000</i>
    <i name="BMIX">      1.00000000</i>
    <i name="AMIN">      0.10000000</i>
    <i name="AMIX_MAG">      1.60000000</i>
    <i name="BMIX_MAG">      1.00000000</i>
    <separator name="electronic mixer details" >
     <i type="int" name="IMIX">     4</i>
     <i type="logical" name="MIXFIRST"> F  </i>
     <i type="int" name="MAXMIX">   -45</i>
     <i name="WC">    100.00000000</i>
     <i type="int" name="INIMIX">     1</i>
     <i type="int" name="MIXPRE">     1</i>
     <i type="int" name="MREMOVE">     5</i>
    </separator>
   </separator>
   <separator name="electronic dipolcorrection" >
    <i type="logical" name="LDIPOL"> F  </i>
    <i type="logical" name="LMONO"> F  </i>
    <i type="int" name="IDIPOL">     0</i>
    <i name="EPSILON">      1.00000000</i>
    <v name="DIPOL">   -100.00000000   -100.00000000   -100.00000000</v>
    <i name="EFIELD">      0.00000000</i>
   </separator>
  </separator>
  <separator name="grids" >
   <i type="int" name="NGX">    10</i>
   <i type="int" name="NGY">    10</i>
   <i type="int" name="NGZ">    10</i>
   <i type="int" name="NGXF">    20</i>
   <i type="int" name="NGYF">    20</i>
   <i type="int" name="NGZF">    20</i>
   <i type="logical" name="ADDGRID"> F  </i>
  </separator>
  <separator name="ionic" >
   <i type="int" name="NSW">     0</i>
   <i type="int" name="IBRION">    -1</i>
   <i type="int" name="MDALGO">     0</i>
   <i type="int" name="ISIF">     2</i>
   <i name="PSTRESS">      0.00000000</i>
   <i name="EDIFFG">      0.00100000</i>
   <i type="int" name="NFREE">     0</i>
   <i name="POTIM">      0.50000000</i>
   <i name="SMASS">     -3.00000000</i>
   <i name="SCALEE">      1.00000000</i>
  </separator>
  <separator name="ionic md" >
   <i name="TEBEG">      0.00010000</i>
   <i name="TEEND">      0.00010000</i>
   <i type="int" name="NBLOCK">     1</i>
   <i type="int" name="KBLOCK">     1</i>
   <i type="int" name="NPACO">   256</i>
   <i name="APACO">     16.00000000</i>
  </separator>
  <separator name="symmetry" >
   <i type="int" name="ISYM">     2</i>
   <i name="SYMPREC">      0.00001000</i>
  </separator>
  <separator name="dos" >
   <i type="int" name="LORBIT">     0</i>
   <v name="RWIGS">      1.30200000</v>
   <i type="int" name="NEDOS">   301</i>
   <i name="EMIN">     10.00000000</i>
   <i name="EMAX">    -10.00000000</i>
   <i name="EFERMI">      0.00000000</i>
  </separator>
  <separator name="writing" >
   <i type="int" name="NWRITE">     2</i>
   <i type="logical" name="LWAVE"> T  </i>
   <i type="logical" name="LDOWNSAMPLE"> F  </i>
   <i type="logical" name="LCHARG"> T  </i>
   <i type="logical" name="LPARD"> F  </i>
   <i type="logical" name="LVTOT"> F  </i>
   <i type="logical" name="LVHAR"> F  </i>
   <i type="logical" name="LELF"> F  </i>
   <i type="logical" name="LOPTICS"> F  </i>
   <v name="STM">      0.00000000      0.00000000      0.00000000      0.00000000      0.00000000      0.00000000      0.00000000</v>
  </separator>
  <separator name="performance" >
   <i type="int" name="NPAR">     4</i>
   <i type="int" name="NSIM">     4</i>
   <i type="int" name="NBLK">    -1</i>
   <i type="logical" name="LPLANE"> T  </i>
   <i type="logical" name="LSCALAPACK"> T  </i>
   <i type="logical" name="LSCAAWARE"> F  </i>
   <i type="logical" name="LSCALU"> F  </i>
   <i type="logical" name="LASYNC"> F  </i>
   <i type="logical" name="LORBITALREAL"> F  </i>
  </separator>
  <separator name="miscellaneous" >
   <i type="int" name="IDIOT">     3</i>
   <i type="int" name="ISPECIAL">     0</i>
   <i type="logical" name="LMUSIC"> F  </i>
   <v name="POMASS">     55.84700000</v>
   <v name="DARWINR">      0.00000000</v>
   <v name="DARWINV">      1.00000000</v>
   <i type="logical" name="LCORR"> T  </i>
  </separator>
  <i type="logical" name="GGA_COMPAT"> T  </i>
  <i type="logical" name="LBERRY"> F  </i>
  <i type="int" name="ICORELEVEL">     0</i>
  <i type="logical" name="LDAU"> F  </i>
  <i type="int" name="I_CONSTRAINED_M">     0</i>
  <separator name="electronic exchange-correlation" >
   <i type="string" name="GGA">--</i>
   <i type="int" name="VOSKOWN">     0</i>
   <i type="logical" name="LHFCALC"> F  </i>
   <i type="string" name="PRECFOCK"></i>
   <i type="logical" name="LSYMGRAD"> F  </i>
   <i type="logical" name="LHFONE"> F  </i>
   <i type="logical" name="LRHFCALC"> F  </i>
   <i type="logical" name="LTHOMAS"> F  </i>
   <i type="logical" name="LMODELHF"> F  </i>
   <i name="ENCUT4O">     -1.00000000</i>
   <i type="int" name="EXXOEP">     0</i>
   <i type="int" name="FOURORBIT">     0</i>
   <i name="AEXX">      0.00000000</i>
   <i name="HFALPHA">      0.00000000</i>
   <i name="MCALPHA">      0.00000000</i>
   <i name="ALDAX">      1.00000000</i>
   <i name="AGGAX">      1.00000000</i>
   <i name="ALDAC">      1.00000000</i>
   <i name="AGGAC">      1.00000000</i>
   <i type="int" name="NKREDX">     1</i>
   <i type="int" name="NKREDY">     1</i>
   <i type="int" name="NKREDZ">     1</i>
   <i type="logical" name="SHIFTRED"> F  </i>
   <i type="logical" name="ODDONLY"> F  </i>
   <i type="logical" name="EVENONLY"> F  </i>
   <i type="int" name="LMAXFOCK">     0</i>
   <i type="int" name="NMAXFOCKAE">     0</i>
   <i type="logical" name="LFOCKAEDFT"> F  </i>
   <i name="HFSCREEN">      0.00000000</i>
   <i name="HFSCREENC">      0.00000000</i>
   <i type="int" name="NBANDSGWLOW">     0</i>
  </separator>
  <separator name="vdW DFT" >
   <i type="logical" name="LUSE_VDW"> F  </i>
   <i name="Zab_VDW">     -0.84910000</i>
   <i name="PARAM1">      0.12340000</i>
   <i name="PARAM2">      1.00000000</i>
   <i name="PARAM3">      0.00000000</i>
  </separator>
  <separator name="model GW" >
   <i type="int" name="MODEL_GW">     0</i>
   <i name="MODEL_EPS0">      6.23906250</i>
   <i name="MODEL_ALPHA">      1.00000000</i>
  </separator>
  <separator name="linear response parameters" >
   <i type="logical" name="LEPSILON"> F  </i>
   <i type="logical" name="LRPA"> F  </i>
   <i type="logical" name="LNABLA"> F  </i>
   <i type="logical" name="LVEL"> F  </i>
   <i type="int" name="KINTER">     0</i>
   <i name="CSHIFT">      0.10000000</i>
   <i name="OMEGAMAX">     -1.00000000</i>
   <i name="DEG_THRESHOLD">      0.00200000</i>
   <i name="RTIME">     -0.10000000</i>
   <i name="WPLASMAI">      0.00000000</i>
   <v name="DFIELD">      0.00000000      0.00000000      0.00000000</v>
   <v name="WPLASMA">      0.00000000      0.00000000      0.00000000      0.00000000      0.00000000      0.00000000      0.00000000      0.00000000      0.00000000</v>
  </separator>
  <separator name="orbital magnetization" >
   <i type="logical" name="NUCIND"> F  </i>
   <v name="MAGPOS">      0.00000000      0.00000000      0.00000000</v>
   <i type="logical" name="LNICSALL"> T  </i>
   <i type="logical" name="ORBITALMAG"> F  </i>
   <i type="logical" name="LMAGBLOCH"> F  </i>
   <i type="logical" name="LCHIMAG"> F  </i>
   <i type="logical" name="LGAUGE"> T  </i>
   <i type="int" name="MAGATOM">     0</i>
   <v name="MAGDIPOL">      0.00000000      0.00000000      0.00000000</v>
   <v name="AVECCONST">      0.00000000      0.00000000      0.00000000</v>
  </separator>
  <separator name="response functions" >
   <i type="logical" name="LADDER"> F  </i>
   <i type="logical" name="LRPAFORCE"> F  </i>
   <i type="logical" name="LFXC"> F  </i>
   <i type="logical" name="LHARTREE"> T  </i>
   <i type="int" name="IBSE">     0</i>
   <v type="int" name="KPOINT">    -1     0     0     0</v>
   <i type="logical" name="LTCTE"> F  </i>
   <i type="logical" name="LTETE"> F  </i>
   <i type="logical" name="LTRIPLET"> F  </i>
   <i type="logical" name="LFXCEPS"> F  </i>
   <i type="logical" name="LFXHEG"> F  </i>
   <i type="int" name="NATURALO">     2</i>
   <i type="logical" name="L2ORDER"> F  </i>
   <i type="logical" name="LMP2LT"> F  </i>
   <i type="logical" name="LUSEW"> F  </i>
   <i name="ENCUTGW">     -2.00000000</i>
   <i name="ENCUTGWSOFT">     -2.00000000</i>
   <i name="ENCUTLF">     -1.00000000</i>
   <i type="int" name="LMAXMP2">    -1</i>
   <i name="SCISSOR">      0.00000000</i>
   <i type="int" name="NOMEGA">     0</i>
   <i type="int" name="NOMEGAR">     0</i>
   <i type="int" name="NBANDSGW">    -1</i>
   <i type="int" name="NBANDSO">    -1</i>
   <i type="int" name="NBANDSV">    -1</i>
   <i type="int" name="NELM">     1</i>
   <i type="int" name="NELMHF">     1</i>
   <i type="int" name="DIM">     3</i>
   <i type="int" name="ANTIRES">     0</i>
   <i name="OMEGAMAX">    -30.00000000</i>
   <i name="OMEGAMIN">    -30.00000000</i>
   <i name="OMEGATL">   -200.00000000</i>
   <i type="int" name="OMEGAGRID">   140</i>
   <i name="CSHIFT">     -0.10000000</i>
   <i type="logical" name="SELFENERGY"> F  </i>
   <i type="logical" name="LSPECTRAL"> F  </i>
   <i type="logical" name="LSPECTRALGW"> F  </i>
   <i type="logical" name="LSINGLES"> F  </i>
   <i type="logical" name="LFERMIGW"> F  </i>
   <i type="logical" name="ODDONLYGW"> F  </i>
   <i type="logical" name="EVENONLYGW"> F  </i>
   <i type="int" name="NKREDLFX">     1</i>
   <i type="int" name="NKREDLFY">     1</i>
   <i type="int" name="NKREDLFZ">     1</i>
   <i type="int" name="MAXMEM">  2800</i>
   <i type="int" name="TELESCOPE">     0</i>
   <i type="int" name="TAUPAR">     1</i>
   <i type="int" name="OMEGAPAR">    -1</i>
   <i name="LAMBDA">      1.00000000</i>
  </separator>
  <separator name="External order field" >
   <i name="OFIELD_KAPPA">      0.00000000</i>
   <v name="OFIELD_K">      0.00000000      0.00000000      0.00000000</v>
   <i name="OFIELD_Q6_NEAR">      0.00000000</i>
   <i name="OFIELD_Q6_FAR">      0.00000000</i>
   <i name="OFIELD_A">      0.00000000</i>
  </separator>
 </parameters>
 <atominfo>
  <atoms>       1 </atoms>
  <types>       1 </types>
  <array name="atoms" >
   <dimension dim="1">ion</dimension>
   <field type="string">element</field>
   <field type="int">atomtype</field>
   <set>
    <rc><c>Fe</c><c>   1</c></rc>
   </set>
  </array>
  <array name="atomtypes" >
   <dimension dim="1">type</dimension>
   <field type="int">atomspertype</field>
   <field type="string">element</field>
   <field>mass</field>
   <field>valence</field>
   <field type="string">pseudopotential</field>
   <set>
    <rc><c>   1</c><c>Fe</c><c>     55.84700000</c><c>      8.00000000</c><c>  PAW_PBE Fe 06Sep2000                  </c></rc>
   </set>
  </array>
 </atominfo>
 <structure name="initialpos" >
  <crystal>
   <varray name="basis" >
    <v>      -1.37500000       1.37500000       1.37500000 </v>
    <v>       1.37500000      -1.37500000       1.37500000 </v>
    <v>       1.37500000       1.37500000      -1.37500000 </v>
   </varray>
   <i name="volume">     10.39843750 </i>
   <varray name="rec_basis" >
    <v>       0.00000000       0.36363636       0.36363636 </v>
    <v>       0.36363636       0.00000000       0.36363636 </v>
    <v>       0.36363636       0.36363636       0.00000000 </v>
   </varray>
  </crystal>
  <varray name="positions" >
   <v>       0.00000000       0.00000000       0.00000000 </v>
  </varray>
 </structure>
 <calculation>
  <scstep>
   <time name="dav">    0.24    0.26</time>
   <time name="total">    0.25    0.27</time>
   <energy>
    <i name="alphaZ">     66.46553965 </i>
    <i name="ewald">   -609.79417736 </i>
    <i name="hartreedc">   -104.83247363 </i>
    <i name="XCdc">      5.35161444 </i>
    <i name="pawpsdc">    553.75926685 </i>
    <i name="pawaedc">   -561.48528711 </i>
    <i name="eentropy">     -0.00239297 </i>
    <i name="bandstr">     67.17528241 </i>
    <i name="atom">    594.28084496 </i>
    <i name="e_fr_energy">     10.91821725 </i>
    <i name="e_wo_entrp">     10.92061022 </i>
    <i name="e_0_energy">     10.91901490 </i>
   </energy>
  </scstep>
  <scstep>
   <time name="dav">    0.20    0.20</time>
   <time name="total">    0.20    0.20</time>
   <energy>
    <i name="e_fr_energy">     -8.68732990 </i>
    <i name="e_wo_entrp">     -8.68749282 </i>
    <i name="e_0_energy">     -8.68738420 </i>
   </energy>
  </scstep>
  <scstep>
   <time name="dav">    0.20    0.20</time>
   <time name="total">    0.20    0.20</time>
   <energy>
    <i name="e_fr_energy">     -8.99773219 </i>
    <i name="e_wo_entrp">     -8.99922173 </i>
    <i name="e_0_energy">     -8.99822870 </i>
   </energy>
  </scstep>
  <scstep>
   <time name="dav">    0.20    0.20</time>
   <time name="total">    0.20    0.21</time>
   <energy>
    <i name="e_fr_energy">     -8.99846893 </i>
    <i name="e_wo_entrp">     -8.99996025 </i>
    <i name="e_0_energy">     -8.99896603 </i>
   </energy>
  </scstep>
  <scstep>
   <time name="dav">    0.17    0.17</time>
   <time name="total">    0.17    0.18</time>
   <energy>
    <i name="e_fr_energy">     -8.99847196 </i>
    <i name="e_wo_entrp">     -8.99996329 </i>
    <i name="e_0_energy">     -8.99896907 </i>
   </energy>
  </scstep>
  <scstep>
   <time name="dav">    0.20    0.21</time>
   <time name="total">    0.22    0.23</time>
   <energy>
    <i name="e_fr_energy">     -8.21968191 </i>
    <i name="e_wo_entrp">     -8.21764569 </i>
    <i name="e_0_energy">     -8.21900317 </i>
   </energy>
  </scstep>
  <scstep>
   <time name="dav">    0.20    0.21</time>
   <time name="total">    0.22    0.22</time>
   <energy>
    <i name="e_fr_energy">     -8.19057590 </i>
    <i name="e_wo_entrp">     -8.19088871 </i>
    <i name="e_0_energy">     -8.19068017 </i>
   </energy>
  </scstep>
  <scstep>
   <time name="dav">    0.20    0.20</time>
   <time name="total">    0.21    0.22</time>
   <energy>
    <i name="e_fr_energy">     -8.18214413 </i>
    <i name="e_wo_entrp">     -8.18250515 </i>
    <i name="e_0_energy">     -8.18226447 </i>
   </energy>
  </scstep>
  <scstep>
   <time name="dav">    0.22    0.23</time>
   <time name="total">    0.24    0.24</time>
   <energy>
    <i name="e_fr_energy">     -8.17548170 </i>
    <i name="e_wo_entrp">     -8.17599878 </i>
    <i name="e_0_energy">     -8.17565406 </i>
   </energy>
  </scstep>
  <scstep>
   <time name="dav">    0.17    0.18</time>
   <time name="total">    0.18    0.19</time>
   <energy>
    <i name="alphaZ">     66.46553965 </i>
    <i name="ewald">   -609.79417736 </i>
    <i name="hartreedc">    -88.41477313 </i>
    <i name="XCdc">      4.40521839 </i>
    <i name="pawpsdc">    764.69635905 </i>
    <i name="pawaedc">   -774.06105137 </i>
    <i name="eentropy">      0.00058498 </i>
    <i name="bandstr">     34.24596891 </i>
    <i name="atom">    594.28084496 </i>
    <i name="e_fr_energy">     -8.17548592 </i>
    <i name="e_wo_entrp">     -8.17607089 </i>
    <i name="e_0_energy">     -8.17568091 </i>
   </energy>
  </scstep>
  <structure>
   <crystal>
    <varray name="basis" >
     <v>      -1.37500000       1.37500000       1.37500000 </v>
     <v>       1.37500000      -1.37500000       1.37500000 </v>
     <v>       1.37500000       1.37500000      -1.37500000 </v>
    </varray>
    <i name="volume">     10.39843750 </i>
    <varray name="rec_basis" >
     <v>       0.00000000       0.36363636       0.36363636 </v>
     <v>       0.36363636       0.00000000       0.36363636 </v>
     <v>       0.36363636       0.36363636       0.00000000 </v>
    </varray>
   </crystal>
   <varray name="positions" >
    <v>       0.00000000       0.00000000       0.00000000 </v>
   </varray>
  </structure>
  <varray name="forces" >
   <v>       0.00000000       0.00000000       0.00000000 </v>
  </varray>
  <varray name="stress" >
   <v>     135.05053265       0.00000000       0.00000000 </v>
   <v>       0.00000000     135.05053265       0.00000000 </v>
   <v>       0.00000000       0.00000000     135.05053265 </v>
  </varray>
  <energy>
   <i name="e_fr_energy">     -8.17548592 </i>
   <i name="e_wo_entrp">     -8.17568091 </i>
   <i name="e_0_energy">      0.00058498 </i>
  </energy>
  <time name="totalsc">    2.21    2.29</time>
  <eigenvalues>
   <array>
    <dimension dim="1">band</dimension>
    <dimension dim="2">kpoint</dimension>
    <dimension dim="3">spin</dimension>
    <field>eigene</field>
    <field>occ</field>
    <set>
     <set comment="spin 1">
      <set comment="kpoint 1">
       <r>   -1.5401    1.0000 </r>
       <r>    4.1681    1.0000 </r>
       <r>    4.1681    1.0000 </r>
       <r>    4.7596    1.0000 </r>
       <r>    5.6858    1.0000 </r>
       <r>    5.6858    1.0000 </r>
       <r>   30.2414    0.0000 </r>
       <r>   30.2414    0.0000 </r>
       <r>   33.2561    0.0000 </r>
       <r>   35.7254    0.0000 </r>
       <r>   38.9866    0.0000 </r>
       <r>   38.9866    0.0000 </r>
      </set>
      <set comment="kpoint 2">
       <r>   -0.3539    1.0000 </r>
       <r>    3.8190    1.0000 </r>
       <r>    3.9812    1.0000 </r>
       <r>    5.5236    1.0000 </r>
       <r>    5.5743    1.0000 </r>
       <r>    5.7752    1.0000 </r>
       <r>   26.0524    0.0000 </r>
       <r>   28.3408    0.0000 </r>
       <r>   32.0720    0.0000 </r>
       <r>   33.6915    0.0000 </r>
       <r>   39.0195    0.0000 </r>
       <r>   39.0492    0.0000 </r>
      </set>
      <set comment="kpoint 3">
       <r>    1.0384    1.0000 </r>
       <r>    3.4349    1.0000 </r>
       <r>    4.0654    1.0000 </r>
       <r>    5.6474    1.0000 </r>
       <r>    5.8710    1.0000 </r>
       <r>    6.5870    1.0184 </r>
       <r>   21.3770    0.0000 </r>
       <r>   26.5274    0.0000 </r>
       <r>   29.4365    0.0000 </r>
       <r>   33.4533    0.0000 </r>
       <r>   37.9943    0.0000 </r>
       <r>   41.0579    0.0000 </r>
      </set>
      <set comment="kpoint 4">
       <r>    1.5328    1.0000 </r>
       <r>    3.1513    1.0000 </r>
       <r>    5.2396    1.0000 </r>
       <r>    5.8159    1.0000 </r>
       <r>    5.9511    1.0000 </r>
       <r>    7.8252   -0.0000 </r>
       <r>   17.1669    0.0000 </r>
       <r>   25.2508    0.0000 </r>
       <r>   27.6687    0.0000 </r>
       <r>   33.1601    0.0000 </r>
       <r>   37.6775    0.0000 </r>
       <r>   43.3006    0.0000 </r>
      </set>
      <set comment="kpoint 5">
       <r>    1.5262    1.0000 </r>
       <r>    3.0476    1.0000 </r>
       <r>    5.8402    1.0000 </r>
       <r>    5.9854    1.0000 </r>
       <r>    6.0886    1.0000 </r>
       <r>    8.7609   -0.0000 </r>
       <r>   15.0185    0.0000 </r>
       <r>   24.7919    0.0000 </r>
       <r>   27.0151    0.0000 </r>
       <r>   33.0565    0.0000 </r>
       <r>   37.6545    0.0000 </r>
       <r>   43.0814    0.0000 </r>
      </set>
      <set comment="kpoint 6">
       <r>   -1.9719    1.0000 </r>
       <r>    4.3179    1.0000 </r>
       <r>    4.3180    1.0000 </r>
       <r>    4.3898    1.0000 </r>
       <r>    5.6445    1.0000 </r>
       <r>    5.7930    1.0000 </r>
       <r>   31.4633    0.0000 </r>
       <r>   32.5403    0.0000 </r>
       <r>   32.5403    0.0000 </r>
       <r>   36.8474    0.0000 </r>
       <r>   39.3972    0.0000 </r>
       <r>   39.3973    0.0000 </r>
      </set>
      <set comment="kpoint 7">
       <r>    0.9693    1.0000 </r>
       <r>    3.5392    1.0000 </r>
       <r>    3.5890    1.0000 </r>
       <r>    5.5971    1.0000 </r>
       <r>    5.8860    1.0000 </r>
       <r>    6.6536    0.9252 </r>
       <r>   23.6451    0.0000 </r>
       <r>   24.6911    0.0000 </r>
       <r>   28.5734    0.0000 </r>
       <r>   35.0914    0.0000 </r>
       <r>   39.6736    0.0000 </r>
       <r>   41.3887    0.0000 </r>
      </set>
      <set comment="kpoint 8">
       <r>    1.9760    1.0000 </r>
       <r>    3.2216    1.0000 </r>
       <r>    3.8561    1.0000 </r>
       <r>    5.7163    1.0000 </r>
       <r>    6.0072    1.0000 </r>
       <r>    8.1889   -0.0000 </r>
       <r>   19.5275    0.0000 </r>
       <r>   22.7552    0.0000 </r>
       <r>   26.5891    0.0000 </r>
       <r>   35.4788    0.0000 </r>
       <r>   40.4588    0.0000 </r>
       <r>   42.1081    0.0000 </r>
      </set>
      <set comment="kpoint 9">
       <r>    2.0253    1.0000 </r>
       <r>    3.0710    1.0000 </r>
       <r>    4.6740    1.0000 </r>
       <r>    5.8491    1.0000 </r>
       <r>    6.1186    1.0000 </r>
       <r>   10.0536   -0.0000 </r>
       <r>   15.8412    0.0000 </r>
       <r>   21.8747    0.0000 </r>
       <r>   25.5916    0.0000 </r>
       <r>   35.4267    0.0000 </r>
       <r>   41.3000    0.0000 </r>
       <r>   42.1143    0.0000 </r>
      </set>
      <set comment="kpoint 10">
       <r>   -1.1259    1.0000 </r>
       <r>    4.0992    1.0000 </r>
       <r>    4.2649    1.0000 </r>
       <r>    4.8449    1.0000 </r>
       <r>    5.4050    1.0000 </r>
       <r>    5.8650    1.0000 </r>
       <r>   28.3010    0.0000 </r>
       <r>   31.0139    0.0000 </r>
       <r>   31.9114    0.0000 </r>
       <r>   36.0170    0.0000 </r>
       <r>   36.6191    0.0000 </r>
       <r>   37.5675    0.0000 </r>
      </set>
      <set comment="kpoint 11">
       <r>    2.5316    1.0000 </r>
       <r>    3.1288    1.0000 </r>
       <r>    3.8262    1.0000 </r>
       <r>    5.8398    1.0000 </r>
       <r>    6.1059    1.0000 </r>
       <r>   10.5017   -0.0000 </r>
       <r>   17.7327    0.0000 </r>
       <r>   18.9966    0.0000 </r>
       <r>   25.3706    0.0000 </r>
       <r>   36.9292    0.0000 </r>
       <r>   40.0802    0.0000 </r>
       <r>   46.4837    0.0000 </r>
      </set>
      <set comment="kpoint 12">
       <r>    2.5708    1.0000 </r>
       <r>    3.1836    1.0000 </r>
       <r>    3.8871    1.0000 </r>
       <r>    5.9476    1.0000 </r>
       <r>    6.1168    1.0000 </r>
       <r>   12.6802    0.0000 </r>
       <r>   15.1737    0.0000 </r>
       <r>   18.2010    0.0000 </r>
       <r>   24.9985    0.0000 </r>
       <r>   37.5155    0.0000 </r>
       <r>   39.9490    0.0000 </r>
       <r>   46.2392    0.0000 </r>
      </set>
      <set comment="kpoint 13">
       <r>    0.2819    1.0000 </r>
       <r>    3.7325    1.0000 </r>
       <r>    4.1305    1.0000 </r>
       <r>    5.4162    1.0000 </r>
       <r>    5.6941    1.0000 </r>
       <r>    5.9570    1.0000 </r>
       <r>   23.7017    0.0000 </r>
       <r>   28.7605    0.0000 </r>
       <r>   30.7108    0.0000 </r>
       <r>   34.2500    0.0000 </r>
       <r>   36.0806    0.0000 </r>
       <r>   38.0711    0.0000 </r>
      </set>
      <set comment="kpoint 14">
       <r>    0.0020    1.0000 </r>
       <r>    3.9960    1.0000 </r>
       <r>    4.0156    1.0000 </r>
       <r>    5.1876    1.0000 </r>
       <r>    5.4846    1.0000 </r>
       <r>    6.0427    1.0000 </r>
       <r>   25.8495    0.0000 </r>
       <r>   27.3582    0.0000 </r>
       <r>   31.9963    0.0000 </r>
       <r>   33.3898    0.0000 </r>
       <r>   36.0399    0.0000 </r>
       <r>   39.5067    0.0000 </r>
      </set>
      <set comment="kpoint 15">
       <r>    1.3066    1.0000 </r>
       <r>    3.3796    1.0000 </r>
       <r>    4.6459    1.0000 </r>
       <r>    5.7005    1.0000 </r>
       <r>    6.2212    1.0003 </r>
       <r>    6.6379    0.9563 </r>
       <r>   19.1122    0.0000 </r>
       <r>   26.9485    0.0000 </r>
       <r>   29.0160    0.0000 </r>
       <r>   33.0795    0.0000 </r>
       <r>   36.0303    0.0000 </r>
       <r>   39.9805    0.0000 </r>
      </set>
      <set comment="kpoint 16">
       <r>    1.3168    1.0000 </r>
       <r>    3.5835    1.0000 </r>
       <r>    3.9555    1.0000 </r>
       <r>    5.3478    1.0000 </r>
       <r>    6.1197    1.0000 </r>
       <r>    6.7210    0.7231 </r>
       <r>   21.6512    0.0000 </r>
       <r>   24.9264    0.0000 </r>
       <r>   30.3541    0.0000 </r>
       <r>   32.8879    0.0000 </r>
       <r>   36.5723    0.0000 </r>
       <r>   40.1791    0.0000 </r>
      </set>
      <set comment="kpoint 17">
       <r>    1.4426    1.0000 </r>
       <r>    3.1703    1.0000 </r>
       <r>    5.3852    1.0000 </r>
       <r>    5.7776    1.0000 </r>
       <r>    7.2864   -0.0009 </r>
       <r>    7.4733   -0.0000 </r>
       <r>   15.6157    0.0000 </r>
       <r>   25.9530    0.0000 </r>
       <r>   27.8064    0.0000 </r>
       <r>   32.6847    0.0000 </r>
       <r>   36.2333    0.0000 </r>
       <r>   41.1131    0.0000 </r>
      </set>
      <set comment="kpoint 18">
       <r>    1.7895    1.0000 </r>
       <r>    3.3711    1.0000 </r>
       <r>    4.3432    1.0000 </r>
       <r>    5.6257    1.0000 </r>
       <r>    6.5483    1.0342 </r>
       <r>    8.2911   -0.0000 </r>
       <r>   17.3722    0.0000 </r>
       <r>   23.6106    0.0000 </r>
       <r>   28.6355    0.0000 </r>
       <r>   33.1556    0.0000 </r>
       <r>   37.6565    0.0000 </r>
       <r>   40.0009    0.0000 </r>
      </set>
      <set comment="kpoint 19">
       <r>    2.2211    1.0000 </r>
       <r>    3.1744    1.0000 </r>
       <r>    3.9540    1.0000 </r>
       <r>    5.4964    1.0000 </r>
       <r>    6.2997    1.0019 </r>
       <r>    8.5853   -0.0000 </r>
       <r>   19.6738    0.0000 </r>
       <r>   20.6747    0.0000 </r>
       <r>   30.0077    0.0000 </r>
       <r>   32.4529    0.0000 </r>
       <r>   36.4875    0.0000 </r>
       <r>   44.5751    0.0000 </r>
      </set>
      <set comment="kpoint 20">
       <r>    1.7688    1.0000 </r>
       <r>    3.2988    1.0000 </r>
       <r>    4.6136    1.0000 </r>
       <r>    5.6631    1.0000 </r>
       <r>    6.8874    0.0999 </r>
       <r>    9.6107   -0.0000 </r>
       <r>   15.0668    0.0000 </r>
       <r>   23.1317    0.0000 </r>
       <r>   28.0146    0.0000 </r>
       <r>   33.2338    0.0000 </r>
       <r>   38.6886    0.0000 </r>
       <r>   39.3640    0.0000 </r>
      </set>
      <set comment="kpoint 21">
       <r>    2.4126    1.0000 </r>
       <r>    3.2345    1.0000 </r>
       <r>    3.8364    1.0000 </r>
       <r>    5.7577    1.0000 </r>
       <r>    6.4692    1.0261 </r>
       <r>   11.0534   -0.0000 </r>
       <r>   16.0814    0.0000 </r>
       <r>   19.4011    0.0000 </r>
       <r>   29.2512    0.0000 </r>
       <r>   33.2357    0.0000 </r>
       <r>   36.4564    0.0000 </r>
       <r>   43.8221    0.0000 </r>
      </set>
      <set comment="kpoint 22">
       <r>    2.9387    1.0000 </r>
       <r>    3.2421    1.0000 </r>
       <r>    3.2421    1.0000 </r>
       <r>    6.1499    1.0000 </r>
       <r>    6.1500    1.0000 </r>
       <r>   14.1885    0.0000 </r>
       <r>   14.1886    0.0000 </r>
       <r>   17.1901    0.0000 </r>
       <r>   29.4440    0.0000 </r>
       <r>   34.6370    0.0000 </r>
       <r>   34.6370    0.0000 </r>
       <r>   43.6387    0.0000 </r>
      </set>
      <set comment="kpoint 23">
       <r>    2.2726    1.0000 </r>
       <r>    3.2137    1.0000 </r>
       <r>    3.2137    1.0000 </r>
       <r>    5.8542    1.0000 </r>
       <r>    5.8542    1.0000 </r>
       <r>    8.2189   -0.0000 </r>
       <r>   21.9183    0.0000 </r>
       <r>   21.9183    0.0000 </r>
       <r>   24.1738    0.0000 </r>
       <r>   38.0068    0.0000 </r>
       <r>   42.6178    0.0000 </r>
       <r>   42.6178    0.0000 </r>
      </set>
      <set comment="kpoint 24">
       <r>    2.6451    1.0000 </r>
       <r>    3.0377    1.0000 </r>
       <r>    3.7461    1.0000 </r>
       <r>    5.9203    1.0000 </r>
       <r>    5.9763    1.0000 </r>
       <r>   10.2996   -0.0000 </r>
       <r>   17.9910    0.0000 </r>
       <r>   20.8316    0.0000 </r>
       <r>   22.2820    0.0000 </r>
       <r>   39.2639    0.0000 </r>
       <r>   43.6242    0.0000 </r>
       <r>   44.8415    0.0000 </r>
      </set>
      <set comment="kpoint 25">
       <r>    2.5315    1.0000 </r>
       <r>    2.9849    1.0000 </r>
       <r>    4.2387    1.0000 </r>
       <r>    5.9602    1.0000 </r>
       <r>    6.0084    1.0000 </r>
       <r>   12.1307   -0.0000 </r>
       <r>   15.3325    0.0000 </r>
       <r>   20.4582    0.0000 </r>
       <r>   21.7561    0.0000 </r>
       <r>   39.3728    0.0000 </r>
       <r>   44.4645    0.0000 </r>
       <r>   44.8446    0.0000 </r>
      </set>
      <set comment="kpoint 26">
       <r>   -0.3428    1.0000 </r>
       <r>    4.3765    1.0000 </r>
       <r>    4.3765    1.0000 </r>
       <r>    4.8250    1.0000 </r>
       <r>    4.8708    1.0000 </r>
       <r>    6.1244    1.0000 </r>
       <r>   27.6951    0.0000 </r>
       <r>   29.8542    0.0000 </r>
       <r>   29.8542    0.0000 </r>
       <r>   31.6725    0.0000 </r>
       <r>   38.7863    0.0000 </r>
       <r>   38.7863    0.0000 </r>
      </set>
      <set comment="kpoint 27">
       <r>    2.8573    1.0000 </r>
       <r>    3.1992    1.0000 </r>
       <r>    3.6284    1.0000 </r>
       <r>    5.9946    1.0000 </r>
       <r>    6.0218    1.0000 </r>
       <r>   13.0438    0.0000 </r>
       <r>   16.4963    0.0000 </r>
       <r>   17.9157    0.0000 </r>
       <r>   20.9692    0.0000 </r>
       <r>   42.0272    0.0000 </r>
       <r>   43.9983    0.0000 </r>
       <r>   47.7800    0.0000 </r>
      </set>
      <set comment="kpoint 28">
       <r>    0.9203    1.0000 </r>
       <r>    3.9860    1.0000 </r>
       <r>    4.2016    1.0000 </r>
       <r>    4.8867    1.0000 </r>
       <r>    5.5928    1.0000 </r>
       <r>    6.4487    1.0214 </r>
       <r>   24.2668    0.0000 </r>
       <r>   27.6065    0.0000 </r>
       <r>   27.7018    0.0000 </r>
       <r>   31.6226    0.0000 </r>
       <r>   38.2143    0.0000 </r>
       <r>   39.5703    0.0000 </r>
      </set>
      <set comment="kpoint 29">
       <r>    1.8187    1.0000 </r>
       <r>    3.6879    1.0000 </r>
       <r>    3.9176    1.0000 </r>
       <r>    5.3346    1.0000 </r>
       <r>    6.5523    1.0334 </r>
       <r>    7.4345   -0.0000 </r>
       <r>   19.6463    0.0000 </r>
       <r>   25.8603    0.0000 </r>
       <r>   26.2731    0.0000 </r>
       <r>   33.2163    0.0000 </r>
       <r>   37.1027    0.0000 </r>
       <r>   39.5441    0.0000 </r>
      </set>
      <set comment="kpoint 30">
       <r>    1.9094    1.0000 </r>
       <r>    3.3695    1.0000 </r>
       <r>    4.3453    1.0000 </r>
       <r>    5.0563    1.0000 </r>
       <r>    6.1821    1.0001 </r>
       <r>    7.4357   -0.0000 </r>
       <r>   22.1856    0.0000 </r>
       <r>   23.0314    0.0000 </r>
       <r>   28.5660    0.0000 </r>
       <r>   30.2940    0.0000 </r>
       <r>   37.7390    0.0000 </r>
       <r>   43.1259    0.0000 </r>
      </set>
      <set comment="kpoint 31">
       <r>    1.8826    1.0000 </r>
       <r>    3.7382    1.0000 </r>
       <r>    3.9144    1.0000 </r>
       <r>    5.4233    1.0000 </r>
       <r>    7.2253   -0.0033 </r>
       <r>    9.4342   -0.0000 </r>
       <r>   15.8565    0.0000 </r>
       <r>   24.7298    0.0000 </r>
       <r>   25.5538    0.0000 </r>
       <r>   35.2603    0.0000 </r>
       <r>   36.5143    0.0000 </r>
       <r>   38.4391    0.0000 </r>
      </set>
      <set comment="kpoint 32">
       <r>    2.3027    1.0000 </r>
       <r>    3.1163    1.0000 </r>
       <r>    4.1201    1.0000 </r>
       <r>    5.4502    1.0000 </r>
       <r>    6.7344    0.6716 </r>
       <r>    9.5972   -0.0000 </r>
       <r>   18.0384    0.0000 </r>
       <r>   21.3484    0.0000 </r>
       <r>   28.0023    0.0000 </r>
       <r>   31.7194    0.0000 </r>
       <r>   36.6366    0.0000 </r>
       <r>   41.8210    0.0000 </r>
      </set>
      <set comment="kpoint 33">
       <r>    2.2218    1.0000 </r>
       <r>    3.3017    1.0000 </r>
       <r>    3.9142    1.0000 </r>
       <r>    5.5573    1.0000 </r>
       <r>    7.0323   -0.0350 </r>
       <r>   11.6104   -0.0000 </r>
       <r>   15.2793    0.0000 </r>
       <r>   20.8337    0.0000 </r>
       <r>   27.6181    0.0000 </r>
       <r>   33.4230    0.0000 </r>
       <r>   35.3804    0.0000 </r>
       <r>   40.5481    0.0000 </r>
      </set>
      <set comment="kpoint 34">
       <r>    2.6951    1.0000 </r>
       <r>    2.7652    1.0000 </r>
       <r>    3.8231    1.0000 </r>
       <r>    6.0236    1.0000 </r>
       <r>    6.6259    0.9761 </r>
       <r>   12.6209    0.0000 </r>
       <r>   16.3462    0.0000 </r>
       <r>   17.8822    0.0000 </r>
       <r>   30.0517    0.0000 </r>
       <r>   31.1671    0.0000 </r>
       <r>   34.5033    0.0000 </r>
       <r>   40.6312    0.0000 </r>
      </set>
      <set comment="kpoint 35">
       <r>    3.2508    1.0000 </r>
       <r>    3.2508    1.0000 </r>
       <r>    3.2508    1.0000 </r>
       <r>    6.0206    1.0000 </r>
       <r>    6.0206    1.0000 </r>
       <r>   16.0706    0.0000 </r>
       <r>   16.0706    0.0000 </r>
       <r>   16.0707    0.0000 </r>
       <r>   18.7732    0.0000 </r>
       <r>   47.4970    0.0000 </r>
       <r>   47.4971    0.0000 </r>
       <r>   47.4971    0.0000 </r>
      </set>
      <set comment="kpoint 36">
       <r>    1.7722    1.0000 </r>
       <r>    3.5208    1.0000 </r>
       <r>    4.8111    1.0000 </r>
       <r>    4.8112    1.0000 </r>
       <r>    5.6584    1.0000 </r>
       <r>    7.2274   -0.0032 </r>
       <r>   25.0962    0.0000 </r>
       <r>   25.0962    0.0000 </r>
       <r>   25.2278    0.0000 </r>
       <r>   27.9659    0.0000 </r>
       <r>   42.6009    0.0000 </r>
       <r>   42.6010    0.0000 </r>
      </set>
      <set comment="kpoint 37">
       <r>    2.2390    1.0000 </r>
       <r>    2.8828    1.0000 </r>
       <r>    4.8562    1.0000 </r>
       <r>    5.2455    1.0000 </r>
       <r>    6.4331    1.0179 </r>
       <r>    8.8722   -0.0000 </r>
       <r>   20.6282    0.0000 </r>
       <r>   23.0081    0.0000 </r>
       <r>   25.3268    0.0000 </r>
       <r>   28.5057    0.0000 </r>
       <r>   40.5692    0.0000 </r>
       <r>   41.5455    0.0000 </r>
      </set>
      <set comment="kpoint 38">
       <r>    2.1648    1.0000 </r>
       <r>    2.7249    1.0000 </r>
       <r>    4.7592    1.0000 </r>
       <r>    5.4371    1.0000 </r>
       <r>    7.1274   -0.0161 </r>
       <r>   11.5265   -0.0000 </r>
       <r>   16.4856    0.0000 </r>
       <r>   21.7682    0.0000 </r>
       <r>   25.0230    0.0000 </r>
       <r>   30.4377    0.0000 </r>
       <r>   37.0722    0.0000 </r>
       <r>   40.8337    0.0000 </r>
      </set>
      <set comment="kpoint 39">
       <r>    2.2865    1.0000 </r>
       <r>    2.3659    1.0000 </r>
       <r>    4.9415    1.0000 </r>
       <r>    5.8603    1.0000 </r>
       <r>    6.7988    0.4040 </r>
       <r>   11.3508   -0.0000 </r>
       <r>   18.8683    0.0000 </r>
       <r>   19.4778    0.0000 </r>
       <r>   26.2260    0.0000 </r>
       <r>   28.0796    0.0000 </r>
       <r>   36.5367    0.0000 </r>
       <r>   41.7883    0.0000 </r>
      </set>
      <set comment="kpoint 40">
       <r>    2.1380    1.0000 </r>
       <r>    2.3127    1.0000 </r>
       <r>    4.8782    1.0000 </r>
       <r>    6.1769    1.0001 </r>
       <r>    6.9792   -0.0268 </r>
       <r>   14.0072    0.0000 </r>
       <r>   15.8283    0.0000 </r>
       <r>   18.6746    0.0000 </r>
       <r>   26.5117    0.0000 </r>
       <r>   28.8776    0.0000 </r>
       <r>   34.4196    0.0000 </r>
       <r>   41.5917    0.0000 </r>
      </set>
      <set comment="kpoint 41">
       <r>    2.0911    1.0000 </r>
       <r>    2.2586    1.0000 </r>
       <r>    5.7877    1.0000 </r>
       <r>    5.7878    1.0000 </r>
       <r>    6.4813    1.0288 </r>
       <r>   10.8560   -0.0000 </r>
       <r>   20.7031    0.0000 </r>
       <r>   20.7032    0.0000 </r>
       <r>   23.9805    0.0000 </r>
       <r>   26.2680    0.0000 </r>
       <r>   36.3239    0.0000 </r>
       <r>   45.0057    0.0000 </r>
      </set>
      <set comment="kpoint 42">
       <r>    1.8528    1.0000 </r>
       <r>    1.9154    1.0000 </r>
       <r>    5.9832    1.0000 </r>
       <r>    6.2040    1.0002 </r>
       <r>    7.0315   -0.0351 </r>
       <r>   13.6811    0.0000 </r>
       <r>   17.5063    0.0000 </r>
       <r>   19.3180    0.0000 </r>
       <r>   24.3096    0.0000 </r>
       <r>   26.5693    0.0000 </r>
       <r>   33.0031    0.0000 </r>
       <r>   45.0800    0.0000 </r>
      </set>
      <set comment="kpoint 43">
       <r>    1.7075    1.0000 </r>
       <r>    1.7075    1.0000 </r>
       <r>    6.1001    1.0000 </r>
       <r>    6.9072    0.0563 </r>
       <r>    6.9074    0.0559 </r>
       <r>   16.4200    0.0000 </r>
       <r>   16.4201    0.0000 </r>
       <r>   17.3654    0.0000 </r>
       <r>   25.2523    0.0000 </r>
       <r>   25.2523    0.0000 </r>
       <r>   31.4084    0.0000 </r>
       <r>   45.6559    0.0000 </r>
      </set>
      <set comment="kpoint 44">
       <r>    1.5044    1.0000 </r>
       <r>    1.5110    1.0000 </r>
       <r>    6.8779    0.1244 </r>
       <r>    6.8781    0.1240 </r>
       <r>    7.0024   -0.0340 </r>
       <r>   15.9900    0.0000 </r>
       <r>   17.8021    0.0000 </r>
       <r>   17.8022    0.0000 </r>
       <r>   23.4789    0.0000 </r>
       <r>   24.4238    0.0000 </r>
       <r>   30.3023    0.0000 </r>
       <r>   47.5498    0.0000 </r>
      </set>
     </set>
     <set comment="spin 2">
      <set comment="kpoint 1">
       <r>   -1.3324    1.0000 </r>
       <r>    5.9022    1.0000 </r>
       <r>    5.9022    1.0000 </r>
       <r>    6.5536    1.0332 </r>
       <r>    8.2454   -0.0000 </r>
       <r>    8.2454   -0.0000 </r>
       <r>   30.3860    0.0000 </r>
       <r>   30.3860    0.0000 </r>
       <r>   33.0763    0.0000 </r>
       <r>   36.5643    0.0000 </r>
       <r>   39.3113    0.0000 </r>
       <r>   39.3113    0.0000 </r>
      </set>
      <set comment="kpoint 2">
       <r>   -0.1147    1.0000 </r>
       <r>    5.4970    1.0000 </r>
       <r>    5.6695    1.0000 </r>
       <r>    7.3657   -0.0001 </r>
       <r>    8.0435   -0.0000 </r>
       <r>    8.3506   -0.0000 </r>
       <r>   26.5334    0.0000 </r>
       <r>   28.6317    0.0000 </r>
       <r>   32.8394    0.0000 </r>
       <r>   33.6350    0.0000 </r>
       <r>   39.3272    0.0000 </r>
       <r>   39.6837    0.0000 </r>
      </set>
      <set comment="kpoint 3">
       <r>    1.5026    1.0000 </r>
       <r>    5.0496    1.0000 </r>
       <r>    5.5018    1.0000 </r>
       <r>    8.0479   -0.0000 </r>
       <r>    8.4554   -0.0000 </r>
       <r>    8.4750   -0.0000 </r>
       <r>   22.1374    0.0000 </r>
       <r>   26.8425    0.0000 </r>
       <r>   30.1269    0.0000 </r>
       <r>   33.6284    0.0000 </r>
       <r>   38.5793    0.0000 </r>
       <r>   41.3265    0.0000 </r>
      </set>
      <set comment="kpoint 4">
       <r>    2.5513    1.0000 </r>
       <r>    4.7195    1.0000 </r>
       <r>    6.1506    1.0000 </r>
       <r>    8.1768   -0.0000 </r>
       <r>    8.5858   -0.0000 </r>
       <r>    9.5634   -0.0000 </r>
       <r>   18.2059    0.0000 </r>
       <r>   25.5379    0.0000 </r>
       <r>   28.2886    0.0000 </r>
       <r>   33.4783    0.0000 </r>
       <r>   38.2701    0.0000 </r>
       <r>   43.4663    0.0000 </r>
      </set>
      <set comment="kpoint 5">
       <r>    2.7364    1.0000 </r>
       <r>    4.5991    1.0000 </r>
       <r>    6.9004    0.0703 </r>
       <r>    8.2329   -0.0000 </r>
       <r>    8.6334   -0.0000 </r>
       <r>   10.1808   -0.0000 </r>
       <r>   16.3089    0.0000 </r>
       <r>   25.0620    0.0000 </r>
       <r>   27.6001    0.0000 </r>
       <r>   33.4197    0.0000 </r>
       <r>   38.2682    0.0000 </r>
       <r>   43.1727    0.0000 </r>
      </set>
      <set comment="kpoint 6">
       <r>   -1.7681    1.0000 </r>
       <r>    6.0728    1.0000 </r>
       <r>    6.0729    1.0000 </r>
       <r>    6.1571    1.0001 </r>
       <r>    8.2015   -0.0000 </r>
       <r>    8.3860   -0.0000 </r>
       <r>   31.4110    0.0000 </r>
       <r>   32.4332    0.0000 </r>
       <r>   32.4332    0.0000 </r>
       <r>   37.2377    0.0000 </r>
       <r>   40.2039    0.0000 </r>
       <r>   40.2051    0.0000 </r>
      </set>
      <set comment="kpoint 7">
       <r>    1.3027    1.0000 </r>
       <r>    5.1747    1.0000 </r>
       <r>    5.1796    1.0000 </r>
       <r>    8.0428   -0.0000 </r>
       <r>    8.4194   -0.0000 </r>
       <r>    8.5341   -0.0000 </r>
       <r>   24.2444    0.0000 </r>
       <r>   25.2289    0.0000 </r>
       <r>   29.2446    0.0000 </r>
       <r>   35.0357    0.0000 </r>
       <r>   40.0468    0.0000 </r>
       <r>   41.8340    0.0000 </r>
      </set>
      <set comment="kpoint 8">
       <r>    2.7466    1.0000 </r>
       <r>    4.7751    1.0000 </r>
       <r>    5.1483    1.0000 </r>
       <r>    8.1317   -0.0000 </r>
       <r>    8.5884   -0.0000 </r>
       <r>    9.9011   -0.0000 </r>
       <r>   20.3544    0.0000 </r>
       <r>   23.3377    0.0000 </r>
       <r>   27.1768    0.0000 </r>
       <r>   35.5736    0.0000 </r>
       <r>   40.7780    0.0000 </r>
       <r>   42.5349    0.0000 </r>
      </set>
      <set comment="kpoint 9">
       <r>    3.2320    1.0000 </r>
       <r>    4.5828    1.0000 </r>
       <r>    5.7901    1.0000 </r>
       <r>    8.2640   -0.0000 </r>
       <r>    8.6584   -0.0000 </r>
       <r>   11.3924   -0.0000 </r>
       <r>   16.9541    0.0000 </r>
       <r>   22.4496    0.0000 </r>
       <r>   26.1379    0.0000 </r>
       <r>   35.6217    0.0000 </r>
       <r>   41.6277    0.0000 </r>
       <r>   42.4249    0.0000 </r>
      </set>
      <set comment="kpoint 10">
       <r>   -0.9105    1.0000 </r>
       <r>    5.8172    1.0000 </r>
       <r>    5.9958    1.0000 </r>
       <r>    6.6507    0.9314 </r>
       <r>    7.8806   -0.0000 </r>
       <r>    8.4657   -0.0000 </r>
       <r>   28.6045    0.0000 </r>
       <r>   31.1264    0.0000 </r>
       <r>   32.0719    0.0000 </r>
       <r>   36.3792    0.0000 </r>
       <r>   37.3160    0.0000 </r>
       <r>   38.1836    0.0000 </r>
      </set>
      <set comment="kpoint 11">
       <r>    3.7155    1.0000 </r>
       <r>    4.5888    1.0000 </r>
       <r>    5.0474    1.0000 </r>
       <r>    8.2626   -0.0000 </r>
       <r>    8.6325   -0.0000 </r>
       <r>   11.9060   -0.0000 </r>
       <r>   18.6236    0.0000 </r>
       <r>   19.7498    0.0000 </r>
       <r>   25.9351    0.0000 </r>
       <r>   37.0146    0.0000 </r>
       <r>   40.2899    0.0000 </r>
       <r>   46.7756    0.0000 </r>
      </set>
      <set comment="kpoint 12">
       <r>    3.9022    1.0000 </r>
       <r>    4.5998    1.0000 </r>
       <r>    5.1530    1.0000 </r>
       <r>    8.3864   -0.0000 </r>
       <r>    8.5956   -0.0000 </r>
       <r>   13.7816    0.0000 </r>
       <r>   16.2518    0.0000 </r>
       <r>   18.9856    0.0000 </r>
       <r>   25.5663    0.0000 </r>
       <r>   37.6382    0.0000 </r>
       <r>   40.0466    0.0000 </r>
       <r>   46.7398    0.0000 </r>
      </set>
      <set comment="kpoint 13">
       <r>    0.5903    1.0000 </r>
       <r>    5.3917    1.0000 </r>
       <r>    5.7616    1.0000 </r>
       <r>    7.5752   -0.0000 </r>
       <r>    7.7678   -0.0000 </r>
       <r>    8.5543   -0.0000 </r>
       <r>   24.3459    0.0000 </r>
       <r>   28.9437    0.0000 </r>
       <r>   31.1916    0.0000 </r>
       <r>   34.7794    0.0000 </r>
       <r>   36.6303    0.0000 </r>
       <r>   38.3829    0.0000 </r>
      </set>
      <set comment="kpoint 14">
       <r>    0.2638    1.0000 </r>
       <r>    5.6816    1.0000 </r>
       <r>    5.7256    1.0000 </r>
       <r>    7.3255   -0.0004 </r>
       <r>    7.5361   -0.0000 </r>
       <r>    8.6402   -0.0000 </r>
       <r>   26.3385    0.0000 </r>
       <r>   27.8344    0.0000 </r>
       <r>   32.1859    0.0000 </r>
       <r>   33.9827    0.0000 </r>
       <r>   36.4205    0.0000 </r>
       <r>   39.9560    0.0000 </r>
      </set>
      <set comment="kpoint 15">
       <r>    2.0616    1.0000 </r>
       <r>    4.9868    1.0000 </r>
       <r>    5.8831    1.0000 </r>
       <r>    7.9530   -0.0000 </r>
       <r>    8.6176   -0.0000 </r>
       <r>    8.6899   -0.0000 </r>
       <r>   20.0216    0.0000 </r>
       <r>   27.1249    0.0000 </r>
       <r>   29.6152    0.0000 </r>
       <r>   33.5556    0.0000 </r>
       <r>   36.6120    0.0000 </r>
       <r>   40.2586    0.0000 </r>
      </set>
      <set comment="kpoint 16">
       <r>    1.8197    1.0000 </r>
       <r>    5.2456    1.0000 </r>
       <r>    5.5044    1.0000 </r>
       <r>    7.5804   -0.0000 </r>
       <r>    8.3257   -0.0000 </r>
       <r>    8.8998   -0.0000 </r>
       <r>   22.4035    0.0000 </r>
       <r>   25.4554    0.0000 </r>
       <r>   30.7655    0.0000 </r>
       <r>   33.2826    0.0000 </r>
       <r>   36.9625    0.0000 </r>
       <r>   40.6189    0.0000 </r>
      </set>
      <set comment="kpoint 17">
       <r>    2.6147    1.0000 </r>
       <r>    4.7478    1.0000 </r>
       <r>    6.7647    0.5474 </r>
       <r>    8.1000   -0.0000 </r>
       <r>    9.0453   -0.0000 </r>
       <r>    9.3452   -0.0000 </r>
       <r>   16.8350    0.0000 </r>
       <r>   26.1075    0.0000 </r>
       <r>   28.3733    0.0000 </r>
       <r>   33.1913    0.0000 </r>
       <r>   36.8633    0.0000 </r>
       <r>   41.2527    0.0000 </r>
      </set>
      <set comment="kpoint 18">
       <r>    2.8552    1.0000 </r>
       <r>    4.9579    1.0000 </r>
       <r>    5.7079    1.0000 </r>
       <r>    7.8618   -0.0000 </r>
       <r>    8.7891   -0.0000 </r>
       <r>    9.9713   -0.0000 </r>
       <r>   18.3815    0.0000 </r>
       <r>   24.1421    0.0000 </r>
       <r>   29.0206    0.0000 </r>
       <r>   33.6067    0.0000 </r>
       <r>   37.9603    0.0000 </r>
       <r>   40.4576    0.0000 </r>
      </set>
      <set comment="kpoint 19">
       <r>    3.1142    1.0000 </r>
       <r>    4.8091    1.0000 </r>
       <r>    5.4068    1.0000 </r>
       <r>    7.6965   -0.0000 </r>
       <r>    8.6370   -0.0000 </r>
       <r>   10.2840   -0.0000 </r>
       <r>   20.5263    0.0000 </r>
       <r>   21.3683    0.0000 </r>
       <r>   30.4896    0.0000 </r>
       <r>   32.7023    0.0000 </r>
       <r>   36.8542    0.0000 </r>
       <r>   44.9629    0.0000 </r>
      </set>
      <set comment="kpoint 20">
       <r>    3.0375    1.0000 </r>
       <r>    4.8690    1.0000 </r>
       <r>    6.0524    1.0000 </r>
       <r>    7.9494   -0.0000 </r>
       <r>    9.0122   -0.0000 </r>
       <r>   10.8972   -0.0000 </r>
       <r>   16.3218    0.0000 </r>
       <r>   23.6547    0.0000 </r>
       <r>   28.3752    0.0000 </r>
       <r>   33.7231    0.0000 </r>
       <r>   38.8256    0.0000 </r>
       <r>   39.9120    0.0000 </r>
      </set>
      <set comment="kpoint 21">
       <r>    3.7197    1.0000 </r>
       <r>    4.7747    1.0000 </r>
       <r>    5.2830    1.0000 </r>
       <r>    7.9765   -0.0000 </r>
       <r>    8.6928   -0.0000 </r>
       <r>   12.3512    0.0000 </r>
       <r>   17.1325    0.0000 </r>
       <r>   20.1332    0.0000 </r>
       <r>   29.7098    0.0000 </r>
       <r>   33.5461    0.0000 </r>
       <r>   36.6692    0.0000 </r>
       <r>   44.4947    0.0000 </r>
      </set>
      <set comment="kpoint 22">
       <r>    4.3636    1.0000 </r>
       <r>    4.7293    1.0000 </r>
       <r>    4.7293    1.0000 </r>
       <r>    8.3589   -0.0000 </r>
       <r>    8.3591   -0.0000 </r>
       <r>   15.2636    0.0000 </r>
       <r>   15.2637    0.0000 </r>
       <r>   18.0605    0.0000 </r>
       <r>   29.9791    0.0000 </r>
       <r>   34.8407    0.0000 </r>
       <r>   34.8408    0.0000 </r>
       <r>   44.5446    0.0000 </r>
      </set>
      <set comment="kpoint 23">
       <r>    2.7624    1.0000 </r>
       <r>    4.7484    1.0000 </r>
       <r>    4.7484    1.0000 </r>
       <r>    8.4048   -0.0000 </r>
       <r>    8.4048   -0.0000 </r>
       <r>    9.9424   -0.0000 </r>
       <r>   22.5618    0.0000 </r>
       <r>   22.5618    0.0000 </r>
       <r>   24.8807    0.0000 </r>
       <r>   37.8326    0.0000 </r>
       <r>   42.9066    0.0000 </r>
       <r>   42.9066    0.0000 </r>
      </set>
      <set comment="kpoint 24">
       <r>    3.7510    1.0000 </r>
       <r>    4.5004    1.0000 </r>
       <r>    4.8794    1.0000 </r>
       <r>    8.4520   -0.0000 </r>
       <r>    8.6029   -0.0000 </r>
       <r>   11.7300   -0.0000 </r>
       <r>   18.8528    0.0000 </r>
       <r>   21.4826    0.0000 </r>
       <r>   22.9389    0.0000 </r>
       <r>   39.2253    0.0000 </r>
       <r>   43.9042    0.0000 </r>
       <r>   44.9623    0.0000 </r>
      </set>
      <set comment="kpoint 25">
       <r>    3.7897    1.0000 </r>
       <r>    4.4214    1.0000 </r>
       <r>    5.3594    1.0000 </r>
       <r>    8.4872   -0.0000 </r>
       <r>    8.6628   -0.0000 </r>
       <r>   13.2265    0.0000 </r>
       <r>   16.4386    0.0000 </r>
       <r>   21.1077    0.0000 </r>
       <r>   22.3976    0.0000 </r>
       <r>   39.4068    0.0000 </r>
       <r>   44.9122    0.0000 </r>
       <r>   44.9526    0.0000 </r>
      </set>
      <set comment="kpoint 26">
       <r>   -0.1025    1.0000 </r>
       <r>    6.0924    1.0000 </r>
       <r>    6.0925    1.0000 </r>
       <r>    6.6826    0.8512 </r>
       <r>    7.1852   -0.0069 </r>
       <r>    8.7334   -0.0000 </r>
       <r>   27.9872    0.0000 </r>
       <r>   30.3052    0.0000 </r>
       <r>   30.3054    0.0000 </r>
       <r>   32.1118    0.0000 </r>
       <r>   39.1950    0.0000 </r>
       <r>   39.1950    0.0000 </r>
      </set>
      <set comment="kpoint 27">
       <r>    4.1903    1.0000 </r>
       <r>    4.5328    1.0000 </r>
       <r>    4.8043    1.0000 </r>
       <r>    8.5862   -0.0000 </r>
       <r>    8.6524   -0.0000 </r>
       <r>   14.1575    0.0000 </r>
       <r>   17.3952    0.0000 </r>
       <r>   18.7200    0.0000 </r>
       <r>   21.6203    0.0000 </r>
       <r>   41.9993    0.0000 </r>
       <r>   44.0690    0.0000 </r>
       <r>   47.8625    0.0000 </r>
      </set>
      <set comment="kpoint 28">
       <r>    1.2906    1.0000 </r>
       <r>    5.8430    1.0000 </r>
       <r>    5.8853    1.0000 </r>
       <r>    6.9281    0.0207 </r>
       <r>    7.4634   -0.0000 </r>
       <r>    8.9559   -0.0000 </r>
       <r>   24.9029    0.0000 </r>
       <r>   27.9980    0.0000 </r>
       <r>   28.2876    0.0000 </r>
       <r>   32.0633    0.0000 </r>
       <r>   38.6491    0.0000 </r>
       <r>   39.9634    0.0000 </r>
      </set>
      <set comment="kpoint 29">
       <r>    2.6561    1.0000 </r>
       <r>    5.3662    1.0000 </r>
       <r>    5.5588    1.0000 </r>
       <r>    7.3689   -0.0001 </r>
       <r>    8.5205   -0.0000 </r>
       <r>    9.4708   -0.0000 </r>
       <r>   20.5132    0.0000 </r>
       <r>   26.4636    0.0000 </r>
       <r>   26.6698    0.0000 </r>
       <r>   33.6019    0.0000 </r>
       <r>   37.5600    0.0000 </r>
       <r>   40.0032    0.0000 </r>
      </set>
      <set comment="kpoint 30">
       <r>    2.5946    1.0000 </r>
       <r>    5.2332    1.0000 </r>
       <r>    5.9921    1.0000 </r>
       <r>    6.9887   -0.0306 </r>
       <r>    8.1823   -0.0000 </r>
       <r>    9.5099   -0.0000 </r>
       <r>   22.9511    0.0000 </r>
       <r>   23.6664    0.0000 </r>
       <r>   29.0077    0.0000 </r>
       <r>   30.7378    0.0000 </r>
       <r>   38.1931    0.0000 </r>
       <r>   43.5133    0.0000 </r>
      </set>
      <set comment="kpoint 31">
       <r>    3.1796    1.0000 </r>
       <r>    5.3541    1.0000 </r>
       <r>    5.4660    1.0000 </r>
       <r>    7.5582   -0.0000 </r>
       <r>    9.2772   -0.0000 </r>
       <r>   10.7753   -0.0000 </r>
       <r>   16.9940    0.0000 </r>
       <r>   25.2993    0.0000 </r>
       <r>   25.9536    0.0000 </r>
       <r>   35.5268    0.0000 </r>
       <r>   36.9864    0.0000 </r>
       <r>   38.9916    0.0000 </r>
      </set>
      <set comment="kpoint 32">
       <r>    3.5265    1.0000 </r>
       <r>    4.7797    1.0000 </r>
       <r>    5.7632    1.0000 </r>
       <r>    7.4387   -0.0000 </r>
       <r>    8.7887   -0.0000 </r>
       <r>   11.0844   -0.0000 </r>
       <r>   18.9582    0.0000 </r>
       <r>   22.0252    0.0000 </r>
       <r>   28.4386    0.0000 </r>
       <r>   32.0996    0.0000 </r>
       <r>   37.1011    0.0000 </r>
       <r>   42.5050    0.0000 </r>
      </set>
      <set comment="kpoint 33">
       <r>    3.6955    1.0000 </r>
       <r>    4.8800    1.0000 </r>
       <r>    5.5360    1.0000 </r>
       <r>    7.5797   -0.0000 </r>
       <r>    9.0872   -0.0000 </r>
       <r>   12.7333    0.0000 </r>
       <r>   16.4144    0.0000 </r>
       <r>   21.4960    0.0000 </r>
       <r>   28.0510    0.0000 </r>
       <r>   33.6746    0.0000 </r>
       <r>   35.9366    0.0000 </r>
       <r>   41.2979    0.0000 </r>
      </set>
      <set comment="kpoint 34">
       <r>    4.2520    1.0000 </r>
       <r>    4.3633    1.0000 </r>
       <r>    5.4007    1.0000 </r>
       <r>    8.0174   -0.0000 </r>
       <r>    8.6700   -0.0000 </r>
       <r>   13.7716    0.0000 </r>
       <r>   17.3236    0.0000 </r>
       <r>   18.6619    0.0000 </r>
       <r>   30.4271    0.0000 </r>
       <r>   31.5330    0.0000 </r>
       <r>   35.0383    0.0000 </r>
       <r>   41.4461    0.0000 </r>
      </set>
      <set comment="kpoint 35">
       <r>    4.5342    1.0000 </r>
       <r>    4.5342    1.0000 </r>
       <r>    4.5343    1.0000 </r>
       <r>    8.6795   -0.0000 </r>
       <r>    8.6795   -0.0000 </r>
       <r>   16.9687    0.0000 </r>
       <r>   16.9687    0.0000 </r>
       <r>   16.9689    0.0000 </r>
       <r>   19.4817    0.0000 </r>
       <r>   47.3388    0.0000 </r>
       <r>   47.3388    0.0000 </r>
       <r>   47.3389    0.0000 </r>
      </set>
      <set comment="kpoint 36">
       <r>    2.3925    1.0000 </r>
       <r>    5.5985    1.0000 </r>
       <r>    6.5146    1.0345 </r>
       <r>    6.5147    1.0345 </r>
       <r>    7.5487   -0.0000 </r>
       <r>    9.4273   -0.0000 </r>
       <r>   25.7173    0.0000 </r>
       <r>   25.7174    0.0000 </r>
       <r>   25.8555    0.0000 </r>
       <r>   28.4264    0.0000 </r>
       <r>   42.9780    0.0000 </r>
       <r>   42.9781    0.0000 </r>
      </set>
      <set comment="kpoint 37">
       <r>    3.3386    1.0000 </r>
       <r>    4.7666    1.0000 </r>
       <r>    6.5653    1.0298 </r>
       <r>    7.0512   -0.0326 </r>
       <r>    8.3895   -0.0000 </r>
       <r>   10.4856   -0.0000 </r>
       <r>   21.3914    0.0000 </r>
       <r>   23.6048    0.0000 </r>
       <r>   25.9623    0.0000 </r>
       <r>   28.9905    0.0000 </r>
       <r>   41.2784    0.0000 </r>
       <r>   41.9777    0.0000 </r>
      </set>
      <set comment="kpoint 38">
       <r>    3.7172    1.0000 </r>
       <r>    4.3764    1.0000 </r>
       <r>    6.4598    1.0240 </r>
       <r>    7.2969   -0.0007 </r>
       <r>    9.1682   -0.0000 </r>
       <r>   12.6440    0.0000 </r>
       <r>   17.4376    0.0000 </r>
       <r>   22.3130    0.0000 </r>
       <r>   25.6802    0.0000 </r>
       <r>   30.8292    0.0000 </r>
       <r>   37.9119    0.0000 </r>
       <r>   41.2662    0.0000 </r>
      </set>
      <set comment="kpoint 39">
       <r>    3.7485    1.0000 </r>
       <r>    4.1619    1.0000 </r>
       <r>    6.6466    0.9399 </r>
       <r>    7.7051   -0.0000 </r>
       <r>    8.8014   -0.0000 </r>
       <r>   12.5069    0.0000 </r>
       <r>   19.6591    0.0000 </r>
       <r>   20.1209    0.0000 </r>
       <r>   26.8397    0.0000 </r>
       <r>   28.5907    0.0000 </r>
       <r>   37.3510    0.0000 </r>
       <r>   42.2563    0.0000 </r>
      </set>
      <set comment="kpoint 40">
       <r>    3.8317    1.0000 </r>
       <r>    3.9717    1.0000 </r>
       <r>    6.5469    1.0344 </r>
       <r>    8.0730   -0.0000 </r>
       <r>    8.9966   -0.0000 </r>
       <r>   14.9147    0.0000 </r>
       <r>   16.7297    0.0000 </r>
       <r>   19.3283    0.0000 </r>
       <r>   27.1048    0.0000 </r>
       <r>   29.3262    0.0000 </r>
       <r>   35.3394    0.0000 </r>
       <r>   42.0626    0.0000 </r>
      </set>
      <set comment="kpoint 41">
       <r>    3.5357    1.0000 </r>
       <r>    4.1038    1.0000 </r>
       <r>    7.5760   -0.0000 </r>
       <r>    7.5762   -0.0000 </r>
       <r>    8.4567   -0.0000 </r>
       <r>   11.9966   -0.0000 </r>
       <r>   21.2448    0.0000 </r>
       <r>   21.2448    0.0000 </r>
       <r>   24.8636    0.0000 </r>
       <r>   26.8947    0.0000 </r>
       <r>   37.1563    0.0000 </r>
       <r>   45.3721    0.0000 </r>
      </set>
      <set comment="kpoint 42">
       <r>    3.5203    1.0000 </r>
       <r>    3.6388    1.0000 </r>
       <r>    7.8213   -0.0000 </r>
       <r>    8.0507   -0.0000 </r>
       <r>    9.0619   -0.0000 </r>
       <r>   14.4942    0.0000 </r>
       <r>   18.1491    0.0000 </r>
       <r>   19.7778    0.0000 </r>
       <r>   25.1607    0.0000 </r>
       <r>   27.1939    0.0000 </r>
       <r>   33.9595    0.0000 </r>
       <r>   45.4319    0.0000 </r>
      </set>
      <set comment="kpoint 43">
       <r>    3.4153    1.0000 </r>
       <r>    3.4153    1.0000 </r>
       <r>    7.9379   -0.0000 </r>
       <r>    8.9019   -0.0000 </r>
       <r>    8.9022   -0.0000 </r>
       <r>   17.0240    0.0000 </r>
       <r>   17.0241    0.0000 </r>
       <r>   17.8748    0.0000 </r>
       <r>   25.9993    0.0000 </r>
       <r>   25.9993    0.0000 </r>
       <r>   32.4390    0.0000 </r>
       <r>   45.9996    0.0000 </r>
      </set>
      <set comment="kpoint 44">
       <r>    3.2045    1.0000 </r>
       <r>    3.2290    1.0000 </r>
       <r>    8.8643   -0.0000 </r>
       <r>    8.8646   -0.0000 </r>
       <r>    9.0345   -0.0000 </r>
       <r>   16.4737    0.0000 </r>
       <r>   18.1368    0.0000 </r>
       <r>   18.1369    0.0000 </r>
       <r>   24.4957    0.0000 </r>
       <r>   25.2892    0.0000 </r>
       <r>   31.3611    0.0000 </r>
       <r>   47.7928    0.0000 </r>
      </set>
     </set>
    </set>
   </array>
  </eigenvalues>
  <separator name="orbital magnetization" >
   <v name="MAGDIPOLOUT">      0.00000000      0.00000000      0.00000000</v>
  </separator>
  <dos>
   <i name="efermi">      6.77592497 </i>
   <total>
    <array>
     <dimension dim="1">gridpoints</dimension>
     <dimension dim="2">spin</dimension>
     <field>energy</field>
     <field>total</field>
     <field>integrated</field>
     <set>
      <set comment="spin 1">
       <r>    -4.4636     0.0000     0.0000 </r>
       <r>    -4.2809     0.0000     0.0000 </r>
       <r>    -4.0981     0.0000     0.0000 </r>
       <r>    -3.9154     0.0000     0.0000 </r>
       <r>    -3.7327    -0.0000    -0.0000 </r>
       <r>    -3.5499    -0.0000    -0.0000 </r>
       <r>    -3.3672    -0.0000    -0.0000 </r>
       <r>    -3.1845    -0.0000    -0.0000 </r>
       <r>    -3.0018    -0.0000    -0.0000 </r>
       <r>    -2.8190    -0.0000    -0.0000 </r>
       <r>    -2.6363    -0.0000    -0.0000 </r>
       <r>    -2.4536    -0.0001    -0.0000 </r>
       <r>    -2.2709    -0.0009    -0.0002 </r>
       <r>    -2.0881     0.0038     0.0005 </r>
       <r>    -1.9054     0.0216     0.0045 </r>
       <r>    -1.7227     0.0089     0.0061 </r>
       <r>    -1.5400     0.0207     0.0099 </r>
       <r>    -1.3572     0.0186     0.0133 </r>
       <r>    -1.1745     0.0441     0.0213 </r>
       <r>    -0.9918     0.0846     0.0368 </r>
       <r>    -0.8091     0.0093     0.0385 </r>
       <r>    -0.6263    -0.0079     0.0370 </r>
       <r>    -0.4436     0.0299     0.0425 </r>
       <r>    -0.2609     0.1093     0.0625 </r>
       <r>    -0.0782     0.0586     0.0732 </r>
       <r>     0.1046     0.0861     0.0889 </r>
       <r>     0.2873     0.0896     0.1053 </r>
       <r>     0.4700     0.0607     0.1164 </r>
       <r>     0.6528    -0.0093     0.1147 </r>
       <r>     0.8355     0.0327     0.1207 </r>
       <r>     1.0182     0.2223     0.1613 </r>
       <r>     1.2009     0.1820     0.1945 </r>
       <r>     1.3837     0.3122     0.2516 </r>
       <r>     1.5664     0.3295     0.3118 </r>
       <r>     1.7491     0.3712     0.3796 </r>
       <r>     1.9318     0.8121     0.5280 </r>
       <r>     2.1146     0.7287     0.6612 </r>
       <r>     2.2973     0.8486     0.8162 </r>
       <r>     2.4800     0.7495     0.9532 </r>
       <r>     2.6627     0.4593     1.0371 </r>
       <r>     2.8455     0.4181     1.1135 </r>
       <r>     3.0282     0.5275     1.2099 </r>
       <r>     3.2109     1.3609     1.4586 </r>
       <r>     3.3936     1.2797     1.6924 </r>
       <r>     3.5764     0.6587     1.8127 </r>
       <r>     3.7591     0.8590     1.9697 </r>
       <r>     3.9418     1.5113     2.2459 </r>
       <r>     4.1245     1.3160     2.4863 </r>
       <r>     4.3073     0.7740     2.6278 </r>
       <r>     4.4900     0.4087     2.7024 </r>
       <r>     4.6727     0.3461     2.7657 </r>
       <r>     4.8554     0.6818     2.8903 </r>
       <r>     5.0382     0.4959     2.9809 </r>
       <r>     5.2209     0.2934     3.0345 </r>
       <r>     5.4036     0.8867     3.1965 </r>
       <r>     5.5864     1.3934     3.4511 </r>
       <r>     5.7691     1.6740     3.7570 </r>
       <r>     5.9518     2.0344     4.1288 </r>
       <r>     6.1345     1.9573     4.4864 </r>
       <r>     6.3173     0.9543     4.6608 </r>
       <r>     6.5000     0.5789     4.7666 </r>
       <r>     6.6827     0.9527     4.9406 </r>
       <r>     6.8654     0.7370     5.0753 </r>
       <r>     7.0482     0.4951     5.1658 </r>
       <r>     7.2309     0.3659     5.2326 </r>
       <r>     7.4136     0.3257     5.2921 </r>
       <r>     7.5963     0.2403     5.3361 </r>
       <r>     7.7791     0.0575     5.3466 </r>
       <r>     7.9618     0.0627     5.3580 </r>
       <r>     8.1445     0.1243     5.3808 </r>
       <r>     8.3272     0.3539     5.4454 </r>
       <r>     8.5100     0.1512     5.4730 </r>
       <r>     8.6927     0.0943     5.4903 </r>
       <r>     8.8754     0.1294     5.5139 </r>
       <r>     9.0581     0.0686     5.5265 </r>
       <r>     9.2409    -0.0092     5.5248 </r>
       <r>     9.4236     0.0628     5.5363 </r>
       <r>     9.6063     0.2795     5.5873 </r>
       <r>     9.7890     0.1893     5.6219 </r>
       <r>     9.9718     0.0508     5.6312 </r>
       <r>    10.1545     0.1808     5.6643 </r>
       <r>    10.3372     0.1264     5.6873 </r>
       <r>    10.5200     0.1164     5.7086 </r>
       <r>    10.7027     0.0521     5.7181 </r>
       <r>    10.8854     0.0209     5.7219 </r>
       <r>    11.0681     0.1554     5.7503 </r>
       <r>    11.2509     0.1360     5.7752 </r>
       <r>    11.4336     0.1116     5.7956 </r>
       <r>    11.6163     0.1862     5.8296 </r>
       <r>    11.7990     0.0847     5.8451 </r>
       <r>    11.9818    -0.0021     5.8447 </r>
       <r>    12.1645     0.0380     5.8516 </r>
       <r>    12.3472     0.0192     5.8551 </r>
       <r>    12.5299     0.0288     5.8604 </r>
       <r>    12.7127     0.1680     5.8911 </r>
       <r>    12.8954     0.0826     5.9062 </r>
       <r>    13.0781     0.0740     5.9197 </r>
       <r>    13.2608     0.0489     5.9286 </r>
       <r>    13.4436    -0.0071     5.9273 </r>
       <r>    13.6263     0.0386     5.9344 </r>
       <r>    13.8090     0.0839     5.9497 </r>
       <r>    13.9917     0.0708     5.9627 </r>
       <r>    14.1745     0.1116     5.9831 </r>
       <r>    14.3572     0.0512     5.9924 </r>
       <r>    14.5399    -0.0009     5.9922 </r>
       <r>    14.7227    -0.0059     5.9912 </r>
       <r>    14.9054     0.0057     5.9922 </r>
       <r>    15.0881     0.1449     6.0187 </r>
       <r>    15.2708     0.2453     6.0635 </r>
       <r>    15.4536     0.1314     6.0875 </r>
       <r>    15.6363     0.0680     6.0999 </r>
       <r>    15.8190     0.2719     6.1496 </r>
       <r>    16.0017     0.3873     6.2204 </r>
       <r>    16.1845     0.2268     6.2618 </r>
       <r>    16.3672     0.1646     6.2919 </r>
       <r>    16.5499     0.2808     6.3432 </r>
       <r>    16.7326     0.0819     6.3582 </r>
       <r>    16.9154    -0.0175     6.3550 </r>
       <r>    17.0981     0.0310     6.3607 </r>
       <r>    17.2808     0.1737     6.3924 </r>
       <r>    17.4635     0.2765     6.4429 </r>
       <r>    17.6463     0.1518     6.4707 </r>
       <r>    17.8290     0.1934     6.5060 </r>
       <r>    18.0117     0.4083     6.5806 </r>
       <r>    18.1944     0.3072     6.6367 </r>
       <r>    18.3772     0.0655     6.6487 </r>
       <r>    18.5599     0.0061     6.6498 </r>
       <r>    18.7426     0.0979     6.6677 </r>
       <r>    18.9253     0.1596     6.6969 </r>
       <r>    19.1081     0.1784     6.7295 </r>
       <r>    19.2908     0.1592     6.7586 </r>
       <r>    19.4735     0.4020     6.8320 </r>
       <r>    19.6563     0.4414     6.9127 </r>
       <r>    19.8390     0.1504     6.9402 </r>
       <r>    20.0217    -0.0080     6.9387 </r>
       <r>    20.2044    -0.0071     6.9374 </r>
       <r>    20.3872     0.0065     6.9386 </r>
       <r>    20.5699     0.0994     6.9567 </r>
       <r>    20.7526     0.2843     7.0087 </r>
       <r>    20.9353     0.2929     7.0622 </r>
       <r>    21.1181     0.1003     7.0805 </r>
       <r>    21.3008     0.1130     7.1012 </r>
       <r>    21.4835     0.2526     7.1474 </r>
       <r>    21.6662     0.2105     7.1858 </r>
       <r>    21.8490     0.3776     7.2548 </r>
       <r>    22.0317     0.2535     7.3011 </r>
       <r>    22.2144     0.1247     7.3239 </r>
       <r>    22.3971     0.1312     7.3479 </r>
       <r>    22.5799     0.0134     7.3503 </r>
       <r>    22.7626     0.1272     7.3736 </r>
       <r>    22.9453     0.1915     7.4086 </r>
       <r>    23.1280     0.2417     7.4527 </r>
       <r>    23.3108     0.0926     7.4697 </r>
       <r>    23.4935     0.0444     7.4778 </r>
       <r>    23.6762     0.3247     7.5371 </r>
       <r>    23.8589     0.2030     7.5742 </r>
       <r>    24.0417     0.0104     7.5761 </r>
       <r>    24.2244     0.1067     7.5956 </r>
       <r>    24.4071     0.1948     7.6312 </r>
       <r>    24.5899     0.0689     7.6438 </r>
       <r>    24.7726     0.1973     7.6799 </r>
       <r>    24.9553     0.3473     7.7433 </r>
       <r>    25.1380     0.3431     7.8060 </r>
       <r>    25.3208     0.3074     7.8622 </r>
       <r>    25.5035     0.2988     7.9168 </r>
       <r>    25.6862     0.2678     7.9657 </r>
       <r>    25.8689     0.2223     8.0063 </r>
       <r>    26.0517     0.2648     8.0547 </r>
       <r>    26.2344     0.2045     8.0921 </r>
       <r>    26.4171     0.2085     8.1302 </r>
       <r>    26.5998     0.4073     8.2046 </r>
       <r>    26.7826     0.2324     8.2471 </r>
       <r>    26.9653     0.0815     8.2620 </r>
       <r>    27.1480     0.0939     8.2791 </r>
       <r>    27.3307     0.0453     8.2874 </r>
       <r>    27.5135     0.1188     8.3091 </r>
       <r>    27.6962     0.3516     8.3733 </r>
       <r>    27.8789     0.3229     8.4323 </r>
       <r>    28.0616     0.3557     8.4973 </r>
       <r>    28.2444     0.2458     8.5423 </r>
       <r>    28.4271     0.2043     8.5796 </r>
       <r>    28.6098     0.4015     8.6530 </r>
       <r>    28.7926     0.3681     8.7202 </r>
       <r>    28.9753     0.1800     8.7531 </r>
       <r>    29.1580     0.1378     8.7783 </r>
       <r>    29.3407     0.2135     8.8173 </r>
       <r>    29.5235     0.1668     8.8478 </r>
       <r>    29.7062     0.0258     8.8525 </r>
       <r>    29.8889     0.0488     8.8614 </r>
       <r>    30.0716     0.1768     8.8937 </r>
       <r>    30.2544     0.2436     8.9382 </r>
       <r>    30.4371     0.3825     9.0081 </r>
       <r>    30.6198     0.1545     9.0363 </r>
       <r>    30.8025     0.0738     9.0498 </r>
       <r>    30.9853     0.0753     9.0636 </r>
       <r>    31.1680     0.1402     9.0892 </r>
       <r>    31.3507     0.0810     9.1040 </r>
       <r>    31.5334     0.0737     9.1174 </r>
       <r>    31.7162     0.2473     9.1626 </r>
       <r>    31.8989     0.2562     9.2094 </r>
       <r>    32.0816     0.2292     9.2513 </r>
       <r>    32.2643     0.0844     9.2667 </r>
       <r>    32.4471     0.0645     9.2785 </r>
       <r>    32.6298     0.1437     9.3048 </r>
       <r>    32.8125     0.1460     9.3315 </r>
       <r>    32.9952     0.2895     9.3844 </r>
       <r>    33.1780     0.6359     9.5006 </r>
       <r>    33.3607     0.6815     9.6251 </r>
       <r>    33.5434     0.3001     9.6799 </r>
       <r>    33.7262     0.1072     9.6995 </r>
       <r>    33.9089     0.0379     9.7064 </r>
       <r>    34.0916    -0.0034     9.7058 </r>
       <r>    34.2743     0.0785     9.7202 </r>
       <r>    34.4571     0.1834     9.7537 </r>
       <r>    34.6398     0.1770     9.7860 </r>
       <r>    34.8225     0.0442     9.7941 </r>
       <r>    35.0052     0.0150     9.7968 </r>
       <r>    35.1880     0.1060     9.8162 </r>
       <r>    35.3707     0.2918     9.8695 </r>
       <r>    35.5534     0.4383     9.9496 </r>
       <r>    35.7361     0.0959     9.9671 </r>
       <r>    35.9189     0.0566     9.9775 </r>
       <r>    36.1016     0.3447    10.0405 </r>
       <r>    36.2843     0.2327    10.0830 </r>
       <r>    36.4670     0.3770    10.1519 </r>
       <r>    36.6498     0.7714    10.2928 </r>
       <r>    36.8325     0.2913    10.3460 </r>
       <r>    37.0152     0.1493    10.3733 </r>
       <r>    37.1979     0.1940    10.4088 </r>
       <r>    37.3807     0.0246    10.4133 </r>
       <r>    37.5634     0.2193    10.4533 </r>
       <r>    37.7461     0.4913    10.5431 </r>
       <r>    37.9288     0.2084    10.5812 </r>
       <r>    38.1116     0.2016    10.6180 </r>
       <r>    38.2943     0.1624    10.6477 </r>
       <r>    38.4770     0.0989    10.6658 </r>
       <r>    38.6598     0.0990    10.6839 </r>
       <r>    38.8425     0.1210    10.7060 </r>
       <r>    39.0252     0.1967    10.7419 </r>
       <r>    39.2079     0.2084    10.7800 </r>
       <r>    39.3907     0.2524    10.8261 </r>
       <r>    39.5734     0.3812    10.8958 </r>
       <r>    39.7561     0.2222    10.9364 </r>
       <r>    39.9388     0.2033    10.9735 </r>
       <r>    40.1216     0.4805    11.0613 </r>
       <r>    40.3043     0.2574    11.1083 </r>
       <r>    40.4870     0.2393    11.1521 </r>
       <r>    40.6697     0.3621    11.2182 </r>
       <r>    40.8525     0.1456    11.2448 </r>
       <r>    41.0352     0.1229    11.2673 </r>
       <r>    41.2179     0.2179    11.3071 </r>
       <r>    41.4006     0.2785    11.3580 </r>
[...]
      </set>
      <set comment="kpoint 27">
       <set comment="band 1">
        <r>  0.0279  0.0821  0.7820 </r>
       </set>
       <set comment="band 2">
        <r>  0.0000  0.1309  0.7492 </r>
       </set>
       <set comment="band 3">
        <r>  0.0119  0.2007  0.6379 </r>
       </set>
       <set comment="band 4">
        <r>  0.0000  0.0003  0.9831 </r>
       </set>
       <set comment="band 5">
        <r>  0.0002  0.0002  0.9849 </r>
       </set>
       <set comment="band 6">
        <r>  0.0476  0.2668  0.4956 </r>
       </set>
       <set comment="band 7">
        <r>  0.0000  0.3257  0.4167 </r>
       </set>
       <set comment="band 8">
        <r>  0.3331  0.1387  0.2636 </r>
       </set>
       <set comment="band 9">
        <r>  0.3300  0.2513  0.1275 </r>
       </set>
       <set comment="band 10">
        <r>  0.0000  0.0162  0.0914 </r>
       </set>
       <set comment="band 11">
        <r>  0.0012  0.0254  0.1281 </r>
       </set>
       <set comment="band 12">
        <r>  0.0000  0.0554  0.1050 </r>
       </set>
      </set>
      <set comment="kpoint 28">
       <set comment="band 1">
        <r>  0.4272  0.1815  0.0851 </r>
       </set>
       <set comment="band 2">
        <r>  0.0021  0.0342  0.8760 </r>
       </set>
       <set comment="band 3">
        <r>  0.0000  0.0155  0.9393 </r>
       </set>
       <set comment="band 4">
        <r>  0.0002  0.0085  0.9241 </r>
       </set>
       <set comment="band 5">
        <r>  0.0000  0.0080  0.9635 </r>
       </set>
       <set comment="band 6">
        <r>  0.0345  0.0126  0.9262 </r>
       </set>
       <set comment="band 7">
        <r>  0.0391  0.1936  0.3864 </r>
       </set>
       <set comment="band 8">
        <r>  0.0728  0.1135  0.2390 </r>
       </set>
       <set comment="band 9">
        <r>  0.0000  0.3451  0.3602 </r>
       </set>
       <set comment="band 10">
        <r>  0.0504  0.2784  0.1496 </r>
       </set>
       <set comment="band 11">
        <r>  0.0000  0.2492  0.2579 </r>
       </set>
       <set comment="band 12">
        <r>  0.0657  0.2423  0.0767 </r>
       </set>
      </set>
      <set comment="kpoint 29">
       <set comment="band 1">
        <r>  0.2528  0.1636  0.3364 </r>
       </set>
       <set comment="band 2">
        <r>  0.0117  0.1139  0.7215 </r>
       </set>
       <set comment="band 3">
        <r>  0.0000  0.0153  0.9342 </r>
       </set>
       <set comment="band 4">
        <r>  0.0004  0.0259  0.9192 </r>
       </set>
       <set comment="band 5">
        <r>  0.0000  0.0087  0.9691 </r>
       </set>
       <set comment="band 6">
        <r>  0.0730  0.0828  0.7819 </r>
       </set>
       <set comment="band 7">
        <r>  0.1457  0.2296  0.3737 </r>
       </set>
       <set comment="band 8">
        <r>  0.0000  0.4573  0.2822 </r>
       </set>
       <set comment="band 9">
        <r>  0.0809  0.0940  0.2222 </r>
       </set>
       <set comment="band 10">
        <r>  0.0131  0.2405  0.1944 </r>
       </set>
       <set comment="band 11">
        <r>  0.0000  0.1845  0.3916 </r>
       </set>
       <set comment="band 12">
        <r>  0.1251  0.1138  0.2310 </r>
       </set>
      </set>
      <set comment="kpoint 30">
       <set comment="band 1">
        <r>  0.2794  0.2102  0.2368 </r>
       </set>
       <set comment="band 2">
        <r>  0.0000  0.0296  0.8535 </r>
       </set>
       <set comment="band 3">
        <r>  0.0009  0.0429  0.8942 </r>
       </set>
       <set comment="band 4">
        <r>  0.0000  0.0165  0.9288 </r>
       </set>
       <set comment="band 5">
        <r>  0.0010  0.0093  0.9630 </r>
       </set>
       <set comment="band 6">
        <r>  0.0847  0.0666  0.7909 </r>
       </set>
       <set comment="band 7">
        <r>  0.0000  0.2728  0.4235 </r>
       </set>
       <set comment="band 8">
        <r>  0.1625  0.2864  0.2348 </r>
       </set>
       <set comment="band 9">
        <r>  0.0000  0.1450  0.3781 </r>
       </set>
       <set comment="band 10">
        <r>  0.0646  0.3298  0.0803 </r>
       </set>
       <set comment="band 11">
        <r>  0.0537  0.1350  0.3429 </r>
       </set>
       <set comment="band 12">
        <r>  0.0000  0.2827  0.0790 </r>
       </set>
      </set>
      <set comment="kpoint 31">
       <set comment="band 1">
        <r>  0.1201  0.0485  0.6644 </r>
       </set>
       <set comment="band 2">
        <r>  0.0000  0.0154  0.9314 </r>
       </set>
       <set comment="band 3">
        <r>  0.0060  0.2357  0.5566 </r>
       </set>
       <set comment="band 4">
        <r>  0.0155  0.0065  0.9272 </r>
       </set>
       <set comment="band 5">
        <r>  0.0000  0.0016  0.9867 </r>
       </set>
       <set comment="band 6">
        <r>  0.0349  0.3000  0.5218 </r>
       </set>
       <set comment="band 7">
        <r>  0.2921  0.1072  0.4308 </r>
       </set>
       <set comment="band 8">
        <r>  0.0000  0.5253  0.2077 </r>
       </set>
       <set comment="band 9">
        <r>  0.0797  0.1038  0.2095 </r>
       </set>
       <set comment="band 10">
        <r>  0.0004  0.1340  0.2256 </r>
       </set>
       <set comment="band 11">
        <r>  0.0000  0.1584  0.4486 </r>
       </set>
       <set comment="band 12">
        <r>  0.0715  0.2114  0.2787 </r>
       </set>
      </set>
      <set comment="kpoint 32">
       <set comment="band 1">
        <r>  0.1253  0.1360  0.5370 </r>
       </set>
       <set comment="band 2">
        <r>  0.0052  0.0942  0.7469 </r>
       </set>
       <set comment="band 3">
        <r>  0.0010  0.0476  0.8792 </r>
       </set>
       <set comment="band 4">
        <r>  0.0049  0.0189  0.9264 </r>
       </set>
       <set comment="band 5">
        <r>  0.0090  0.0080  0.9607 </r>
       </set>
       <set comment="band 6">
        <r>  0.0936  0.2137  0.5726 </r>
       </set>
       <set comment="band 7">
        <r>  0.1555  0.2551  0.3648 </r>
       </set>
       <set comment="band 8">
        <r>  0.1143  0.3269  0.2630 </r>
       </set>
       <set comment="band 9">
        <r>  0.0231  0.1929  0.2783 </r>
       </set>
       <set comment="band 10">
        <r>  0.0172  0.2316  0.1963 </r>
       </set>
       <set comment="band 11">
        <r>  0.0339  0.1569  0.3626 </r>
       </set>
       <set comment="band 12">
        <r>  0.0358  0.2840  0.3052 </r>
       </set>
      </set>
      <set comment="kpoint 33">
       <set comment="band 1">
        <r>  0.0628  0.0535  0.7279 </r>
       </set>
       <set comment="band 2">
        <r>  0.0000  0.1870  0.6254 </r>
       </set>
       <set comment="band 3">
        <r>  0.0109  0.0229  0.8996 </r>
       </set>
       <set comment="band 4">
        <r>  0.0174  0.0099  0.9229 </r>
       </set>
       <set comment="band 5">
        <r>  0.0000  0.0158  0.9658 </r>
       </set>
       <set comment="band 6">
        <r>  0.0000  0.4012  0.4206 </r>
       </set>
       <set comment="band 7">
        <r>  0.2984  0.1161  0.4166 </r>
       </set>
       <set comment="band 8">
        <r>  0.1106  0.3548  0.2399 </r>
       </set>
       <set comment="band 9">
        <r>  0.0280  0.2064  0.2506 </r>
       </set>
       <set comment="band 10">
        <r>  0.0000  0.0836  0.2865 </r>
       </set>
       <set comment="band 11">
        <r>  0.0058  0.3194  0.2730 </r>
       </set>
       <set comment="band 12">
        <r>  0.0862  0.2663  0.3294 </r>
       </set>
      </set>
      <set comment="kpoint 34">
       <set comment="band 1">
        <r>  0.0348  0.1310  0.6594 </r>
       </set>
       <set comment="band 2">
        <r>  0.0000  0.0858  0.7599 </r>
       </set>
       <set comment="band 3">
        <r>  0.0296  0.0306  0.8561 </r>
       </set>
       <set comment="band 4">
        <r>  0.0000  0.0249  0.9371 </r>
       </set>
       <set comment="band 5">
        <r>  0.0050  0.0193  0.9486 </r>
       </set>
       <set comment="band 6">
        <r>  0.0554  0.3417  0.4310 </r>
       </set>
       <set comment="band 7">
        <r>  0.0000  0.3962  0.3943 </r>
       </set>
       <set comment="band 8">
        <r>  0.3780  0.1490  0.2233 </r>
       </set>
       <set comment="band 9">
        <r>  0.0000  0.1005  0.3621 </r>
       </set>
       <set comment="band 10">
        <r>  0.0114  0.2043  0.2225 </r>
       </set>
       <set comment="band 11">
        <r>  0.0007  0.3708  0.1968 </r>
       </set>
       <set comment="band 12">
        <r>  0.2285  0.1415  0.3346 </r>
       </set>
      </set>
      <set comment="kpoint 35">
       <set comment="band 1">
        <r>  0.0000  0.1424  0.7371 </r>
       </set>
       <set comment="band 2">
        <r>  0.0000  0.1424  0.7371 </r>
       </set>
       <set comment="band 3">
        <r>  0.0000  0.1424  0.7371 </r>
       </set>
       <set comment="band 4">
        <r>  0.0000  0.0000  0.9864 </r>
       </set>
       <set comment="band 5">
        <r>  0.0000  0.0000  0.9864 </r>
       </set>
       <set comment="band 6">
        <r>  0.0000  0.3252  0.4188 </r>
       </set>
       <set comment="band 7">
        <r>  0.0000  0.3252  0.4188 </r>
       </set>
       <set comment="band 8">
        <r>  0.0000  0.3252  0.4188 </r>
       </set>
       <set comment="band 9">
        <r>  0.7666  0.0000  0.0000 </r>
       </set>
       <set comment="band 10">
        <r>  0.0000  0.0000  0.0000 </r>
       </set>
       <set comment="band 11">
        <r>  0.0000  0.0000  0.0000 </r>
       </set>
       <set comment="band 12">
        <r>  0.0000  0.0000  0.0000 </r>
       </set>
      </set>
      <set comment="kpoint 36">
       <set comment="band 1">
        <r>  0.2986  0.2256  0.1880 </r>
       </set>
       <set comment="band 2">
        <r>  0.0000  0.0000  0.8754 </r>
       </set>
       <set comment="band 3">
        <r>  0.0000  0.0367  0.9108 </r>
       </set>
       <set comment="band 4">
        <r>  0.0000  0.0367  0.9108 </r>
       </set>
       <set comment="band 5">
        <r>  0.0000  0.0000  0.9718 </r>
       </set>
       <set comment="band 6">
        <r>  0.0938  0.0453  0.8100 </r>
       </set>
       <set comment="band 7">
        <r>  0.0000  0.4273  0.3178 </r>
       </set>
       <set comment="band 8">
        <r>  0.0000  0.4273  0.3178 </r>
       </set>
       <set comment="band 9">
        <r>  0.0000  0.0000  0.5158 </r>
       </set>
       <set comment="band 10">
        <r>  0.2275  0.1557  0.0389 </r>
       </set>
       <set comment="band 11">
        <r>  0.0000  0.2934  0.0512 </r>
       </set>
       <set comment="band 12">
        <r>  0.0000  0.2934  0.0513 </r>
       </set>
      </set>
      <set comment="kpoint 37">
       <set comment="band 1">
        <r>  0.1421  0.1950  0.4265 </r>
       </set>
       <set comment="band 2">
        <r>  0.0004  0.0200  0.8388 </r>
       </set>
       <set comment="band 3">
        <r>  0.0000  0.0346  0.9117 </r>
       </set>
       <set comment="band 4">
        <r>  0.0036  0.0377  0.9017 </r>
       </set>
       <set comment="band 5">
        <r>  0.0000  0.0064  0.9691 </r>
       </set>
       <set comment="band 6">
        <r>  0.1478  0.1577  0.5831 </r>
       </set>
       <set comment="band 7">
        <r>  0.0765  0.3411  0.3258 </r>
       </set>
       <set comment="band 8">
        <r>  0.0000  0.5000  0.2480 </r>
       </set>
       <set comment="band 9">
        <r>  0.0725  0.0338  0.4313 </r>
       </set>
       <set comment="band 10">
        <r>  0.1225  0.1745  0.1927 </r>
       </set>
       <set comment="band 11">
        <r>  0.0502  0.3598  0.2232 </r>
       </set>
       <set comment="band 12">
        <r>  0.0000  0.1227  0.3759 </r>
       </set>
      </set>
      <set comment="kpoint 38">
       <set comment="band 1">
        <r>  0.0455  0.0726  0.7118 </r>
       </set>
       <set comment="band 2">
        <r>  0.0013  0.1100  0.7162 </r>
       </set>
       <set comment="band 3">
        <r>  0.0000  0.0324  0.9129 </r>
       </set>
       <set comment="band 4">
        <r>  0.0279  0.0208  0.8894 </r>
       </set>
       <set comment="band 5">
        <r>  0.0000  0.0017  0.9847 </r>
       </set>
       <set comment="band 6">
        <r>  0.0741  0.3674  0.3789 </r>
       </set>
       <set comment="band 7">
        <r>  0.2111  0.2417  0.3430 </r>
       </set>
       <set comment="band 8">
        <r>  0.0000  0.5503  0.1838 </r>
       </set>
       <set comment="band 9">
        <r>  0.1071  0.0186  0.4088 </r>
       </set>
       <set comment="band 10">
        <r>  0.0227  0.1175  0.3177 </r>
       </set>
       <set comment="band 11">
        <r>  0.1225  0.4455  0.1364 </r>
       </set>
       <set comment="band 12">
        <r>  0.0000  0.1176  0.3870 </r>
       </set>
      </set>
      <set comment="kpoint 39">
       <set comment="band 1">
        <r>  0.0417  0.1342  0.6317 </r>
       </set>
       <set comment="band 2">
        <r>  0.0000  0.0242  0.8265 </r>
       </set>
       <set comment="band 3">
        <r>  0.0145  0.0333  0.8897 </r>
       </set>
       <set comment="band 4">
        <r>  0.0000  0.0397  0.9130 </r>
       </set>
       <set comment="band 5">
        <r>  0.0061  0.0063  0.9649 </r>
       </set>
       <set comment="band 6">
        <r>  0.1342  0.3034  0.3901 </r>
       </set>
       <set comment="band 7">
        <r>  0.0000  0.4440  0.3194 </r>
       </set>
       <set comment="band 8">
        <r>  0.1680  0.3679  0.1977 </r>
       </set>
       <set comment="band 9">
        <r>  0.0000  0.0936  0.4812 </r>
       </set>
       <set comment="band 10">
        <r>  0.1158  0.1326  0.2542 </r>
       </set>
       <set comment="band 11">
        <r>  0.1596  0.3912  0.1353 </r>
       </set>
       <set comment="band 12">
        <r>  0.0787  0.0593  0.3505 </r>
       </set>
      </set>
      <set comment="kpoint 40">
       <set comment="band 1">
        <r>  0.0074  0.0458  0.7885 </r>
       </set>
       <set comment="band 2">
        <r>  0.0000  0.0881  0.7430 </r>
       </set>
       <set comment="band 3">
        <r>  0.0255  0.0313  0.8760 </r>
       </set>
       <set comment="band 4">
        <r>  0.0062  0.0321  0.9187 </r>
       </set>
       <set comment="band 5">
        <r>  0.0000  0.0132  0.9666 </r>
       </set>
       <set comment="band 6">
        <r>  0.0000  0.4838  0.3023 </r>
       </set>
       <set comment="band 7">
        <r>  0.1949  0.2874  0.3054 </r>
       </set>
       <set comment="band 8">
        <r>  0.1264  0.4080  0.2025 </r>
       </set>
       <set comment="band 9">
        <r>  0.0318  0.0897  0.4356 </r>
       </set>
       <set comment="band 10">
        <r>  0.0000  0.0924  0.4046 </r>
       </set>
       <set comment="band 11">
        <r>  0.2496  0.4436  0.0367 </r>
       </set>
       <set comment="band 12">
        <r>  0.0942  0.0422  0.3516 </r>
       </set>
      </set>
      <set comment="kpoint 41">
       <set comment="band 1">
        <r>  0.0450  0.1328  0.6259 </r>
       </set>
       <set comment="band 2">
        <r>  0.0000  0.0000  0.8525 </r>
       </set>
       <set comment="band 3">
        <r>  0.0000  0.0469  0.9020 </r>
       </set>
       <set comment="band 4">
        <r>  0.0000  0.0469  0.9020 </r>
       </set>
       <set comment="band 5">
        <r>  0.0000  0.0000  0.9774 </r>
       </set>
       <set comment="band 6">
        <r>  0.1807  0.2774  0.3628 </r>
       </set>
       <set comment="band 7">
        <r>  0.0000  0.5521  0.1843 </r>
       </set>
       <set comment="band 8">
        <r>  0.0000  0.5521  0.1843 </r>
       </set>
       <set comment="band 9">
        <r>  0.0000  0.0000  0.6339 </r>
       </set>
       <set comment="band 10">
        <r>  0.2477  0.0170  0.2584 </r>
       </set>
       <set comment="band 11">
        <r>  0.2338  0.3040  0.1566 </r>
       </set>
       <set comment="band 12">
        <r>  0.0000  0.0000  0.3568 </r>
       </set>
      </set>
      <set comment="kpoint 42">
       <set comment="band 1">
        <r>  0.0072  0.0585  0.7673 </r>
       </set>
       <set comment="band 2">
        <r>  0.0000  0.0178  0.8272 </r>
       </set>
       <set comment="band 3">
        <r>  0.0000  0.0347  0.9208 </r>
       </set>
       <set comment="band 4">
        <r>  0.0104  0.0377  0.9041 </r>
       </set>
       <set comment="band 5">
        <r>  0.0000  0.0016  0.9831 </r>
       </set>
       <set comment="band 6">
        <r>  0.1014  0.4358  0.2313 </r>
       </set>
       <set comment="band 7">
        <r>  0.0836  0.4647  0.1931 </r>
       </set>
       <set comment="band 8">
        <r>  0.0000  0.5977  0.1179 </r>
       </set>
       <set comment="band 9">
        <r>  0.0407  0.0090  0.5856 </r>
       </set>
       <set comment="band 10">
        <r>  0.0672  0.0633  0.4342 </r>
       </set>
       <set comment="band 11">
        <r>  0.4134  0.2662  0.0629 </r>
       </set>
       <set comment="band 12">
        <r>  0.0000  0.0443  0.2704 </r>
       </set>
      </set>
      <set comment="kpoint 43">
       <set comment="band 1">
        <r>  0.0000  0.0230  0.8194 </r>
       </set>
       <set comment="band 2">
        <r>  0.0000  0.0230  0.8194 </r>
       </set>
       <set comment="band 3">
        <r>  0.0083  0.0334  0.9114 </r>
       </set>
       <set comment="band 4">
        <r>  0.0000  0.0136  0.9641 </r>
       </set>
       <set comment="band 5">
        <r>  0.0000  0.0136  0.9641 </r>
       </set>
       <set comment="band 6">
        <r>  0.0000  0.5703  0.1625 </r>
       </set>
       <set comment="band 7">
        <r>  0.0000  0.5703  0.1625 </r>
       </set>
       <set comment="band 8">
        <r>  0.1670  0.4392  0.1089 </r>
       </set>
       <set comment="band 9">
        <r>  0.0000  0.0614  0.5581 </r>
       </set>
       <set comment="band 10">
        <r>  0.0000  0.0614  0.5581 </r>
       </set>
       <set comment="band 11">
        <r>  0.5630  0.1947  0.0034 </r>
       </set>
       <set comment="band 12">
        <r>  0.0124  0.0390  0.2191 </r>
       </set>
      </set>
      <set comment="kpoint 44">
       <set comment="band 1">
        <r>  0.0005  0.0155  0.8268 </r>
       </set>
       <set comment="band 2">
        <r>  0.0000  0.0000  0.8464 </r>
       </set>
       <set comment="band 3">
        <r>  0.0000  0.0140  0.9628 </r>
       </set>
       <set comment="band 4">
        <r>  0.0000  0.0140  0.9628 </r>
       </set>
       <set comment="band 5">
        <r>  0.0000  0.0000  0.9850 </r>
       </set>
       <set comment="band 6">
        <r>  0.0537  0.5682  0.0854 </r>
       </set>
       <set comment="band 7">
        <r>  0.0000  0.6506  0.0353 </r>
       </set>
       <set comment="band 8">
        <r>  0.0000  0.6506  0.0353 </r>
       </set>
       <set comment="band 9">
        <r>  0.0000  0.0000  0.6922 </r>
       </set>
       <set comment="band 10">
        <r>  0.0250  0.0239  0.6041 </r>
       </set>
       <set comment="band 11">
        <r>  0.6792  0.0739  0.0091 </r>
       </set>
       <set comment="band 12">
        <r>  0.0000  0.0000  0.0751 </r>
       </set>
      </set>
     </set>
    </set>
   </array>
  </projected>
 </calculation>
 <structure name="finalpos" >
  <crystal>
   <varray name="basis" >
    <v>      -1.37500000       1.37500000       1.37500000 </v>
    <v>       1.37500000      -1.37500000       1.37500000 </v>
    <v>       1.37500000       1.37500000      -1.37500000 </v>
   </varray>
   <i name="volume">     10.39843750 </i>
   <varray name="rec_basis" >
    <v>       0.00000000       0.36363636       0.36363636 </v>
    <v>       0.36363636       0.00000000       0.36363636 </v>
    <v>       0.36363636       0.36363636       0.00000000 </v>
   </varray>
  </crystal>
  <varray name="positions" >
   <v>       0.00000000       0.00000000       0.00000000 </v>
  </varray>
 </structure>
</modeling>
