BCC Fe                                  
   2.84000000000000     
     1.000000    0.000000    0.000000
     0.000000    1.000000    0.000000
     0.000000    0.000000    5.521127
   Fe
     5
Direct
  0.000000  0.000000  0.181122
  0.500000  0.500000  0.090561
  0.000000  0.000000  0.000000
  0.500000  0.500000  0.909439
  0.000000  0.000000  0.818878
 
   24   24  128
  1072.7      1014.3      856.73      644.44      429.70      253.26      134.38      71.120      46.760      38.442    
  33.675      31.152      30.327      31.152      33.675      38.442      46.760      71.120      134.38      253.26    
  429.70      644.44      856.73      1014.3      1014.3      959.35      810.75      610.22      407.02      240.04    
  127.89      68.740      46.235      38.246      33.611      31.176      30.385      31.176      33.611      38.246    
  46.235      68.740      127.89      240.04      407.02      610.22      810.75      959.35      856.73      810.75    
  686.11      517.09      345.18      204.13      110.55      62.591      44.892      37.678      33.426      31.240    
  30.540      31.240      33.426      37.678      44.892      62.591      110.55      204.13      345.18      517.09    
  686.11      810.75      644.44      610.22      517.09      390.17      260.90      155.81      88.040      55.153    
  43.117      36.799      33.145      31.318      30.747      31.318      33.145      36.799      43.117      55.153    
  88.040      155.81      260.90      390.17      517.09      610.22      429.70      407.02      345.18      260.90    
  175.81      108.45      67.371      48.921      40.924      35.730      32.809      31.385      30.950      31.385    
  32.809      35.730      40.924      48.921      67.371      108.45      175.81      260.90      345.18      407.02    
  253.26      240.04      204.13      155.81      108.45      73.067      53.388      44.452      38.525      34.628    
  32.461      31.414      31.101      31.414      32.461      34.628      38.525      44.452      53.388      73.067    
  108.45      155.81      204.13      240.04      134.38      127.89      110.55      88.040      67.371      53.388    
  45.829      40.407      36.284      33.629      32.129      31.389      31.167      31.389      32.129      33.629    
  36.284      40.407      45.829      53.388      67.371      88.040      110.55      127.89      71.120      68.740    
  62.591      55.153      48.921      44.452      40.407      36.972      34.452      32.803      31.817      31.297    
  31.134      31.297      31.817      32.803      34.452      36.972      40.407      44.452      48.921      55.153    
  62.591      68.740      46.760      46.235      44.892      43.117      40.924      38.525      36.284      34.452    
  33.094      32.145      31.510      31.135      31.010      31.135      31.510      32.145      33.094      34.452    
  36.284      38.525      40.924      43.117      44.892      46.235      38.442      38.246      37.678      36.799    
  35.730      34.628      33.629      32.803      32.145      31.617      31.200      30.921      30.821      30.921    
  31.200      31.617      32.145      32.803      33.629      34.628      35.730      36.799      37.678      38.246    
  33.675      33.611      33.426      33.145      32.809      32.461      32.129      31.817      31.510      31.200    
  30.911      30.697      30.617      30.697      30.911      31.200      31.510      31.817      32.129      32.461    
  32.809      33.145      33.426      33.611      31.152      31.176      31.240      31.318      31.385      31.414    
  31.389      31.297      31.135      30.921      30.697      30.525      30.461      30.525      30.697      30.921    
  31.135      31.297      31.389      31.414      31.385      31.318      31.240      31.176      30.327      30.385    
  30.540      30.747      30.950      31.101      31.167      31.134      31.010      30.821      30.617      30.461    
  30.402      30.461      30.617      30.821      31.010      31.134      31.167      31.101      30.950      30.747    
  30.540      30.385      31.152      31.176      31.240      31.318      31.385      31.414      31.389      31.297    
  31.135      30.921      30.697      30.525      30.461      30.525      30.697      30.921      31.135      31.297    
  31.389      31.414      31.385      31.318      31.240      31.176      33.675      33.611      33.426      33.145    
  32.809      32.461      32.129      31.817      31.510      31.200      30.911      30.697      30.617      30.697    
  30.911      31.200      31.510      31.817      32.129      32.461      32.809      33.145      33.426      33.611    
  38.442      38.246      37.678      36.799      35.730      34.628      33.629      32.803      32.145      31.617    
  31.200      30.921      30.821      30.921      31.200      31.617      32.145      32.803      33.629      34.628    
  35.730      36.799      37.678      38.246      46.760      46.235      44.892      43.117      40.924      38.525    
  36.284      34.452      33.094      32.145      31.510      31.135      31.010      31.135      31.510      32.145    
  33.094      34.452      36.284      38.525      40.924      43.117      44.892      46.235      71.120      68.740    
  62.591      55.153      48.921      44.452      40.407      36.972      34.452      32.803      31.817      31.297    
  31.134      31.297      31.817      32.803      34.452      36.972      40.407      44.452      48.921      55.153    
  62.591      68.740      134.38      127.89      110.55      88.040      67.371      53.388      45.829      40.407    
  36.284      33.629      32.129      31.389      31.167      31.389      32.129      33.629      36.284      40.407    
  45.829      53.388      67.371      88.040      110.55      127.89      253.26      240.04      204.13      155.81    
  108.45      73.067      53.388      44.452      38.525      34.628      32.461      31.414      31.101      31.414    
  32.461      34.628      38.525      44.452      53.388      73.067      108.45      155.81      204.13      240.04    
  429.70      407.02      345.18      260.90      175.81      108.45      67.371      48.921      40.924      35.730    
  32.809      31.385      30.950      31.385      32.809      35.730      40.924      48.921      67.371      108.45    
  175.81      260.90      345.18      407.02      644.44      610.22      517.09      390.17      260.90      155.81    
  88.040      55.153      43.117      36.799      33.145      31.318      30.747      31.318      33.145      36.799    
  43.117      55.153      88.040      155.81      260.90      390.17      517.09      610.22      856.73      810.75    
  686.11      517.09      345.18      204.13      110.55      62.591      44.892      37.678      33.426      31.240    
  30.540      31.240      33.426      37.678      44.892      62.591      110.55      204.13      345.18      517.09    
  686.11      810.75      1014.3      959.35      810.75      610.22      407.02      240.04      127.89      68.740    
  46.235      38.246      33.611      31.176      30.385      31.176      33.611      38.246      46.235      68.740    
  127.89      240.04      407.02      610.22      810.75      959.35      1010.5      956.08      808.76      609.51    
  407.06      240.25      128.02      68.791      46.279      38.269      33.621      31.183      30.392      31.183    
  33.621      38.269      46.279      68.791      128.02      240.25      407.06      609.51      808.76      956.08    
  956.08      904.74      765.67      577.27      385.59      227.72      121.91      66.600      45.811      38.089    
  33.569      31.216      30.457      31.216      33.569      38.089      45.811      66.600      121.91      227.72    
  385.59      577.27      765.67      904.74      808.76      765.67      648.64      489.44      327.06      193.74    
  105.64      60.962      44.602      37.562      33.418      31.304      30.631      31.304      33.418      37.562    
  44.602      60.962      105.64      193.74      327.06      489.44      648.64      765.67      609.51      577.27    
  489.44      369.54      247.32      148.15      84.633      54.189      42.934      36.744      33.185      31.414    
  30.864      31.414      33.185      36.744      42.934      54.189      84.633      148.15      247.32      369.54    
  489.44      577.27      407.06      385.59      327.06      247.32      166.97      103.70      65.518      48.528    
  40.817      35.745      32.901      31.517      31.097      31.517      32.901      35.745      40.817      48.528    
  65.518      103.70      166.97      247.32      327.06      385.59      240.25      227.72      193.74      148.15    
  103.70      70.806      52.715      44.303      38.511      34.717      32.609      31.592      31.288      31.592    
  32.609      34.717      38.511      44.303      52.715      70.806      103.70      148.15      193.74      227.72    
  128.02      121.91      105.64      84.633      65.518      52.715      45.664      40.370      36.368      33.797    
  32.344      31.628      31.413      31.628      32.344      33.797      36.368      40.370      45.664      52.715    
  65.518      84.633      105.64      121.91      68.791      66.600      60.962      54.189      48.528      44.303    
  40.370      37.052      34.631      33.054      32.114      31.619      31.465      31.619      32.114      33.054    
  34.631      37.052      40.370      44.303      48.528      54.189      60.962      66.600      46.279      45.811    
  44.602      42.934      40.817      38.511      36.368      34.631      33.359      32.482      31.902      31.561    
  31.447      31.561      31.902      32.482      33.359      34.631      36.368      38.511      40.817      42.934    
  44.602      45.811      38.269      38.089      37.562      36.744      35.745      34.717      33.797      33.054    
  32.482      32.037      31.691      31.459      31.375      31.459      31.691      32.037      32.482      33.054    
  33.797      34.717      35.745      36.744      37.562      38.089      33.621      33.569      33.418      33.185    
  32.901      32.609      32.344      32.114      31.902      31.691      31.490      31.336      31.278      31.336    
  31.490      31.691      31.902      32.114      32.344      32.609      32.901      33.185      33.418      33.569    
  31.183      31.216      31.304      31.414      31.517      31.592      31.628      31.619      31.561      31.459    
  31.336      31.235      31.195      31.235      31.336      31.459      31.561      31.619      31.628      31.592    
  31.517      31.414      31.304      31.216      30.392      30.457      30.631      30.864      31.097      31.288    
  31.413      31.465      31.447      31.375      31.278      31.195      31.162      31.195      31.278      31.375    
  31.447      31.465      31.413      31.288      31.097      30.864      30.631      30.457      31.183      31.216    
  31.304      31.414      31.517      31.592      31.628      31.619      31.561      31.459      31.336      31.235    
  31.195      31.235      31.336      31.459      31.561      31.619      31.628      31.592      31.517      31.414    
  31.304      31.216      33.621      33.569      33.418      33.185      32.901      32.609      32.344      32.114    
  31.902      31.691      31.490      31.336      31.278      31.336      31.490      31.691      31.902      32.114    
  32.344      32.609      32.901      33.185      33.418      33.569      38.269      38.089      37.562      36.744    
  35.745      34.717      33.797      33.054      32.482      32.037      31.691      31.459      31.375      31.459    
  31.691      32.037      32.482      33.054      33.797      34.717      35.745      36.744      37.562      38.089    
  46.279      45.811      44.602      42.934      40.817      38.511      36.368      34.631      33.359      32.482    
  31.902      31.561      31.447      31.561      31.902      32.482      33.359      34.631      36.368      38.511    
  40.817      42.934      44.602      45.811      68.791      66.600      60.962      54.189      48.528      44.303    
  40.370      37.052      34.631      33.054      32.114      31.619      31.465      31.619      32.114      33.054    
  34.631      37.052      40.370      44.303      48.528      54.189      60.962      66.600      128.02      121.91    
  105.64      84.633      65.518      52.715      45.664      40.370      36.368      33.797      32.344      31.628    
  31.413      31.628      32.344      33.797      36.368      40.370      45.664      52.715      65.518      84.633    
  105.64      121.91      240.25      227.72      193.74      148.15      103.70      70.806      52.715      44.303    
  38.511      34.717      32.609      31.592      31.288      31.592      32.609      34.717      38.511      44.303    
  52.715      70.806      103.70      148.15      193.74      227.72      407.06      385.59      327.06      247.32    
  166.97      103.70      65.518      48.528      40.817      35.745      32.901      31.517      31.097      31.517    
  32.901      35.745      40.817      48.528      65.518      103.70      166.97      247.32      327.06      385.59    
  609.51      577.27      489.44      369.54      247.32      148.15      84.633      54.189      42.934      36.744    
  33.185      31.414      30.864      31.414      33.185      36.744      42.934      54.189      84.633      148.15    
  247.32      369.54      489.44      577.27      808.76      765.67      648.64      489.44      327.06      193.74    
  105.64      60.962      44.602      37.562      33.418      31.304      30.631      31.304      33.418      37.562    
  44.602      60.962      105.64      193.74      327.06      489.44      648.64      765.67      956.08      904.74    
  765.67      577.27      385.59      227.72      121.91      66.600      45.811      38.089      33.569      31.216    
  30.457      31.216      33.569      38.089      45.811      66.600      121.91      227.72      385.59      577.27    
  765.67      904.74      843.35      799.12      678.64      513.87      344.56      204.32      110.71      62.704    
  45.035      37.746      33.458      31.262      30.562      31.262      33.458      37.746      45.035      62.704    
  110.71      204.32      344.56      513.87      678.64      799.12      799.12      757.26      643.16      486.97    
  326.44      193.75      105.70      61.032      44.701      37.608      33.440      31.319      30.646      31.319    
  33.440      37.608      44.701      61.032      105.70      193.75      326.44      486.97      643.16      757.26    
  678.64      643.16      546.27      413.43      277.07      165.23      92.446      56.778      43.785      37.201    
  33.384      31.472      30.874      31.472      33.384      37.201      43.785      56.778      92.446      165.23    
  277.07      413.43      546.27      643.16      513.87      486.97      413.43      312.67      209.96      127.33    
  75.639      51.758      42.340      36.564      33.289      31.682      31.189      31.682      33.289      36.564    
  42.340      51.758      75.639      127.33      209.96      312.67      413.43      486.97      344.56      326.44    
  277.07      209.96      142.88      91.040      60.763      47.512      40.476      35.789      33.178      31.917    
  31.539      31.917      33.178      35.789      40.476      47.512      60.763      91.040      142.88      209.96    
  277.07      326.44      204.32      193.75      165.23      127.33      91.040      64.967      51.037      43.829    
  38.480      35.016      33.094      32.170      31.896      32.170      33.094      35.016      38.480      43.829    
  51.037      64.967      91.040      127.33      165.23      193.75      110.71      105.70      92.446      75.639    
  60.763      51.037      45.142      40.282      36.675      34.377      33.084      32.449      32.259      32.449    
  33.084      34.377      36.675      40.282      45.142      51.037      60.763      75.639      92.446      105.70    
  62.704      61.032      56.778      51.758      47.512      43.829      40.282      37.358      35.269      33.937    
  33.157      32.753      32.628      32.753      33.157      33.937      35.269      37.358      40.282      43.829    
  47.512      51.758      56.778      61.032      45.035      44.701      43.785      42.340      40.476      38.480    
  36.675      35.269      34.299      33.673      33.281      33.056      32.980      33.056      33.281      33.673    
  34.299      35.269      36.675      38.480      40.476      42.340      43.785      44.701      37.746      37.608    
  37.201      36.564      35.789      35.016      34.377      33.937      33.673      33.513      33.397      33.312    
  33.280      33.312      33.397      33.513      33.673      33.937      34.377      35.016      35.789      36.564    
  37.201      37.608      33.458      33.440      33.384      33.289      33.178      33.094      33.084      33.157    
  33.281      33.397      33.467      33.491      33.494      33.491      33.467      33.397      33.281      33.157    
  33.084      33.094      33.178      33.289      33.384      33.440      31.262      31.319      31.472      31.682    
  31.917      32.170      32.449      32.753      33.056      33.312      33.491      33.587      33.616      33.587    
  33.491      33.312      33.056      32.753      32.449      32.170      31.917      31.682      31.472      31.319    
  30.562      30.646      30.874      31.189      31.539      31.896      32.259      32.628      32.980      33.280    
  33.494      33.616      33.655      33.616      33.494      33.280      32.980      32.628      32.259      31.896    
  31.539      31.189      30.874      30.646      31.262      31.319      31.472      31.682      31.917      32.170    
  32.449      32.753      33.056      33.312      33.491      33.587      33.616      33.587      33.491      33.312    
  33.056      32.753      32.449      32.170      31.917      31.682      31.472      31.319      33.458      33.440    
  33.384      33.289      33.178      33.094      33.084      33.157      33.281      33.397      33.467      33.491    
  33.494      33.491      33.467      33.397      33.281      33.157      33.084      33.094      33.178      33.289    
  33.384      33.440      37.746      37.608      37.201      36.564      35.789      35.016      34.377      33.937    
  33.673      33.513      33.397      33.312      33.280      33.312      33.397      33.513      33.673      33.937    
  34.377      35.016      35.789      36.564      37.201      37.608      45.035      44.701      43.785      42.340    
  40.476      38.480      36.675      35.269      34.299      33.673      33.281      33.056      32.980      33.056    
  33.281      33.673      34.299      35.269      36.675      38.480      40.476      42.340      43.785      44.701    
  62.704      61.032      56.778      51.758      47.512      43.829      40.282      37.358      35.269      33.937    
  33.157      32.753      32.628      32.753      33.157      33.937      35.269      37.358      40.282      43.829    
  47.512      51.758      56.778      61.032      110.71      105.70      92.446      75.639      60.763      51.037    
  45.142      40.282      36.675      34.377      33.084      32.449      32.259      32.449      33.084      34.377    
  36.675      40.282      45.142      51.037      60.763      75.639      92.446      105.70      204.32      193.75    
  165.23      127.33      91.040      64.967      51.037      43.829      38.480      35.016      33.094      32.170    
  31.896      32.170      33.094      35.016      38.480      43.829      51.037      64.967      91.040      127.33    
  165.23      193.75      344.56      326.44      277.07      209.96      142.88      91.040      60.763      47.512    
  40.476      35.789      33.178      31.917      31.539      31.917      33.178      35.789      40.476      47.512    
  60.763      91.040      142.88      209.96      277.07      326.44      513.87      486.97      413.43      312.67    
  209.96      127.33      75.639      51.758      42.340      36.564      33.289      31.682      31.189      31.682    
  33.289      36.564      42.340      51.758      75.639      127.33      209.96      312.67      413.43      486.97    
  678.64      643.16      546.27      413.43      277.07      165.23      92.446      56.778      43.785      37.201    
  33.384      31.472      30.874      31.472      33.384      37.201      43.785      56.778      92.446      165.23    
  277.07      413.43      546.27      643.16      799.12      757.26      643.16      486.97      326.44      193.75    
  105.70      61.032      44.701      37.608      33.440      31.319      30.646      31.319      33.440      37.608    
  44.701      61.032      105.70      193.75      326.44      486.97      643.16      757.26      620.52      589.09    
  502.66      382.73      258.07      154.93      87.800      55.270      43.319      36.889      33.191      31.353    
  30.782      31.353      33.191      36.889      43.319      55.270      87.800      154.93      258.07      382.73    
  502.66      589.09      589.09      559.18      476.95      362.92      244.63      147.23      84.362      54.280    
  43.090      36.813      33.220      31.442      30.892      31.442      33.220      36.813      43.090      54.280    
  84.362      147.23      244.63      362.92      476.95      559.18      502.66      476.95      406.32      308.66    
  208.12      126.60      75.413      51.800      42.401      36.590      33.303      31.693      31.201      31.693    
  33.303      36.590      42.401      51.800      75.413      126.60      208.12      308.66      406.32      476.95    
  382.73      362.92      308.66      234.24      158.92      99.726      64.430      48.881      41.288      36.252    
  33.440      32.082      31.673      32.082      33.440      36.252      41.288      48.881      64.430      99.726    
  158.92      234.24      308.66      362.92      258.07      244.63      208.12      158.92      110.73      74.908    
  55.139      46.049      39.902      35.885      33.665      32.604      32.290      32.604      33.665      35.885    
  39.902      46.049      55.139      74.908      110.73      158.92      208.12      244.63      154.93      147.23    
  126.60      99.726      74.908      57.991      49.022      43.036      38.506      35.626      34.042      33.288    
  33.067      33.288      34.042      35.626      38.506      43.036      49.022      57.991      74.908      99.726    
  126.60      147.23      87.800      84.362      75.413      64.430      55.139      49.022      44.268      40.250    
  37.376      35.600      34.629      34.165      34.029      34.165      34.629      35.600      37.376      40.250    
  44.268      49.022      55.139      64.430      75.413      84.362      55.270      54.280      51.800      48.881    
  46.049      43.036      40.250      38.089      36.664      35.843      35.412      35.208      35.147      35.208    
  35.412      35.843      36.664      38.089      40.250      43.036      46.049      48.881      51.800      54.280    
  43.319      43.090      42.401      41.288      39.902      38.506      37.376      36.664      36.345      36.269    
  36.282      36.300      36.305      36.300      36.282      36.269      36.345      36.664      37.376      38.506    
  39.902      41.288      42.401      43.090      36.889      36.813      36.590      36.252      35.885      35.626    
  35.600      35.843      36.269      36.723      37.073      37.270      37.331      37.270      37.073      36.723    
  36.269      35.843      35.600      35.626      35.885      36.252      36.590      36.813      33.191      33.220    
  33.303      33.440      33.665      34.042      34.629      35.412      36.282      37.073      37.654      37.983    
  38.086      37.983      37.654      37.073      36.282      35.412      34.629      34.042      33.665      33.440    
  33.303      33.220      31.353      31.442      31.693      32.082      32.604      33.288      34.165      35.208    
  36.300      37.270      37.983      38.392      38.521      38.392      37.983      37.270      36.300      35.208    
  34.165      33.288      32.604      32.082      31.693      31.442      30.782      30.892      31.201      31.673    
  32.290      33.067      34.029      35.147      36.305      37.331      38.086      38.521      38.660      38.521    
  38.086      37.331      36.305      35.147      34.029      33.067      32.290      31.673      31.201      30.892    
  31.353      31.442      31.693      32.082      32.604      33.288      34.165      35.208      36.300      37.270    
  37.983      38.392      38.521      38.392      37.983      37.270      36.300      35.208      34.165      33.288    
  32.604      32.082      31.693      31.442      33.191      33.220      33.303      33.440      33.665      34.042    
  34.629      35.412      36.282      37.073      37.654      37.983      38.086      37.983      37.654      37.073    
  36.282      35.412      34.629      34.042      33.665      33.440      33.303      33.220      36.889      36.813    
  36.590      36.252      35.885      35.626      35.600      35.843      36.269      36.723      37.073      37.270    
  37.331      37.270      37.073      36.723      36.269      35.843      35.600      35.626      35.885      36.252    
  36.590      36.813      43.319      43.090      42.401      41.288      39.902      38.506      37.376      36.664    
  36.345      36.269      36.282      36.300      36.305      36.300      36.282      36.269      36.345      36.664    
  37.376      38.506      39.902      41.288      42.401      43.090      55.270      54.280      51.800      48.881    
  46.049      43.036      40.250      38.089      36.664      35.843      35.412      35.208      35.147      35.208    
  35.412      35.843      36.664      38.089      40.250      43.036      46.049      48.881      51.800      54.280    
  87.800      84.362      75.413      64.430      55.139      49.022      44.268      40.250      37.376      35.600    
  34.629      34.165      34.029      34.165      34.629      35.600      37.376      40.250      44.268      49.022    
  55.139      64.430      75.413      84.362      154.93      147.23      126.60      99.726      74.908      57.991    
  49.022      43.036      38.506      35.626      34.042      33.288      33.067      33.288      34.042      35.626    
  38.506      43.036      49.022      57.991      74.908      99.726      126.60      147.23      258.07      244.63    
  208.12      158.92      110.73      74.908      55.139      46.049      39.902      35.885      33.665      32.604    
  32.290      32.604      33.665      35.885      39.902      46.049      55.139      74.908      110.73      158.92    
  208.12      244.63      382.73      362.92      308.66      234.24      158.92      99.726      64.430      48.881    
  41.288      36.252      33.440      32.082      31.673      32.082      33.440      36.252      41.288      48.881    
  64.430      99.726      158.92      234.24      308.66      362.92      502.66      476.95      406.32      308.66    
  208.12      126.60      75.413      51.800      42.401      36.590      33.303      31.693      31.201      31.693    
  33.303      36.590      42.401      51.800      75.413      126.60      208.12      308.66      406.32      476.95    
  589.09      559.18      476.95      362.92      244.63      147.23      84.362      54.280      43.090      36.813    
  33.220      31.442      30.892      31.442      33.220      36.813      43.090      54.280      84.362      147.23    
  244.63      362.92      476.95      559.18      399.80      380.19      325.80      249.58      170.31      106.15    
  66.717      49.063      41.051      35.789      32.842      31.413      30.980      31.413      32.842      35.789    
  41.051      49.063      66.717      106.15      170.31      249.58      325.80      380.19      380.19      361.43    
  309.49      236.91      161.82      101.53      64.909      48.646      40.909      35.788      32.924      31.538    
  31.120      31.538      32.924      35.788      40.909      48.646      64.909      101.53      161.82      236.91    
  309.49      361.43      325.80      309.49      264.53      202.30      138.96      89.369      60.323      47.563    
  40.497      35.797      33.181      31.922      31.545      31.922      33.181      35.797      40.497      47.563    
  60.323      89.369      138.96      202.30      264.53      309.49      249.58      236.91      202.30      155.27    
  108.82      74.115      54.952      46.020      39.880      35.872      33.656      32.598      32.284      32.598    
  33.656      35.872      39.880      46.020      54.952      74.115      108.82      155.27      202.30      236.91    
  170.31      161.82      138.96      108.82      80.512      60.855      50.489      44.080      39.222      36.133    
  34.442      33.644      33.411      33.644      34.442      36.133      39.222      44.080      50.489      60.855    
  80.512      108.82      138.96      161.82      106.15      101.53      89.369      74.115      60.855      52.295    
  46.740      42.105      38.775      36.741      35.662      35.169      35.029      35.169      35.662      36.741    