    5    5   50    2
  0.2529372E+02  0.2840000E-09  0.2840000E-09  0.1568000E-08  0.5000000E-15
  1.000000000000000E-004
  CAR 
 BCC Fe                                  
     40     15     32
