BCC Fe                                  
   2.83700000000000     
     1.000000    0.000000    0.000000
     0.000000    1.000000    0.000000
     0.000000    0.000000    5.524850
   Fe
     5
Direct
 -0.000000  0.000000  0.180011
  0.500000  0.500000  0.092815
 -0.000000  0.000000  0.000000
  0.500000  0.500000  0.907185
  0.000000  0.000000  0.819989
 
   24   24  128
 -.31215795160E+02 -.30718698977E+02 -.29145376294E+02 -.26723596827E+02 -.23443946045E+02
 -.19579196419E+02 -.15648742825E+02 -.11678654255E+02 -.64405858940E+01 -.19722753323E+01
 0.13629433296E+00 0.14199918206E+01 0.17956486308E+01 0.14199918206E+01 0.13629433296E+00
 -.19722753323E+01 -.64405858940E+01 -.11678654255E+02 -.15648742825E+02 -.19579196419E+02
 -.23443946045E+02 -.26723596827E+02 -.29145376294E+02 -.30718698977E+02 -.30718698977E+02
 -.30220953241E+02 -.28647622331E+02 -.26213782243E+02 -.22926138152E+02 -.19199073377E+02
 -.15337948360E+02 -.11337159213E+02 -.61218110851E+01 -.17916630942E+01 0.21151803107E+00
 0.14950472151E+01 0.18275348643E+01 0.14950472151E+01 0.21151803107E+00 -.17916630942E+01
 -.61218110851E+01 -.11337159213E+02 -.15337948360E+02 -.19199073377E+02 -.22926138152E+02
 -.26213782243E+02 -.28647622331E+02 -.30220953241E+02 -.29145376294E+02 -.28647622331E+02
 -.27134869078E+02 -.24773958189E+02 -.21632011392E+02 -.18007479634E+02 -.14410613222E+02
 -.10349530762E+02 -.51443996361E+01 -.13577512007E+01 0.44200635171E+00 0.16551667205E+01
 0.19427994543E+01 0.16551667205E+01 0.44200635171E+00 -.13577512007E+01 -.51443996361E+01
 -.10349530762E+02 -.14410613222E+02 -.18007479634E+02 -.21632011392E+02 -.24773958189E+02
 -.27134869078E+02 -.28647622331E+02 -.26723596827E+02 -.26213782243E+02 -.24773958189E+02
 -.22457619119E+02 -.19480449420E+02 -.16286645277E+02 -.12918792060E+02 -.85973555847E+01
 -.37458031094E+01 -.76008003918E+00 0.80344524200E+00 0.18922841190E+01 0.21083156109E+01
 0.18922841190E+01 0.80344524200E+00 -.76008003918E+00 -.37458031094E+01 -.85973555847E+01
 -.12918792060E+02 -.16286645277E+02 -.19480449420E+02 -.22457619119E+02 -.24773958189E+02
 -.26213782243E+02 -.23443946045E+02 -.22926138152E+02 -.21632011392E+02 -.19480449420E+02
 -.16984627254E+02 -.14082441830E+02 -.10702383797E+02 -.62043494239E+01 -.22040417891E+01
 -.17174827208E+00 0.12786100684E+01 0.20700412373E+01 0.23426826530E+01 0.20700412373E+01
 0.12786100684E+01 -.17174827208E+00 -.22040417891E+01 -.62043494239E+01 -.10702383797E+02
 -.14082441830E+02 -.16984627254E+02 -.19480449420E+02 -.21632011392E+02 -.22926138152E+02
 -.19579196419E+02 -.19199073377E+02 -.18007479634E+02 -.16286645277E+02 -.14082441830E+02
 -.11354391960E+02 -.76377466436E+01 -.35251585368E+01 -.10219243527E+01 0.51957097309E+00
 0.17061662003E+01 0.22769538655E+01 0.25285603143E+01 0.22769538655E+01 0.17061662003E+01
 0.51957097309E+00 -.10219243527E+01 -.35251585368E+01 -.76377466436E+01 -.11354391960E+02
 -.14082441830E+02 -.16286645277E+02 -.18007479634E+02 -.19199073377E+02 -.15648742825E+02
 -.15337948360E+02 -.14410613222E+02 -.12918792060E+02 -.10702383797E+02 -.76377466436E+01
 -.40581792526E+01 -.15607630274E+01 -.43341603214E-01 0.12217834026E+01 0.19745294200E+01
 0.24524321089E+01 0.25666505774E+01 0.24524321089E+01 0.19745294200E+01 0.12217834026E+01
 -.43341603214E-01 -.15607630274E+01 -.40581792526E+01 -.76377466436E+01 -.10702383797E+02
 -.12918792060E+02 -.14410613222E+02 -.15337948360E+02 -.11678654255E+02 -.11337159213E+02
 -.10349530762E+02 -.85973555847E+01 -.62043494239E+01 -.35251585368E+01 -.15607630274E+01
 -.25016915377E+00 0.90023456879E+00 0.16755859884E+01 0.22279115204E+01 0.25270442634E+01
 0.26372240306E+01 0.25270442634E+01 0.22279115204E+01 0.16755859884E+01 0.90023456879E+00
 -.25016915377E+00 -.15607630274E+01 -.35251585368E+01 -.62043494239E+01 -.85973555847E+01
 -.10349530762E+02 -.11337159213E+02 -.64405858940E+01 -.61218110851E+01 -.51443996361E+01
 -.37458031094E+01 -.22040417891E+01 -.10219243527E+01 -.43341603214E-01 0.90023456879E+00
 0.15563739897E+01 0.20729243896E+01 0.23953592018E+01 0.25599915302E+01 0.26079094507E+01
 0.25599915302E+01 0.23953592018E+01 0.20729243896E+01 0.15563739897E+01 0.90023456879E+00
 -.43341603214E-01 -.10219243527E+01 -.22040417891E+01 -.37458031094E+01 -.51443996361E+01
 -.61218110851E+01 -.19722753323E+01 -.17916630942E+01 -.13577512007E+01 -.76008003918E+00
 -.17174827208E+00 0.51957097309E+00 0.12217834026E+01 0.16755859884E+01 0.20729243896E+01
 0.23241215285E+01 0.24194126936E+01 0.24652698812E+01 0.24686437817E+01 0.24652698812E+01
 0.24194126936E+01 0.23241215285E+01 0.20729243896E+01 0.16755859884E+01 0.12217834026E+01
 0.51957097309E+00 -.17174827208E+00 -.76008003918E+00 -.13577512007E+01 -.17916630942E+01
 0.13629433296E+00 0.21151803107E+00 0.44200635171E+00 0.80344524200E+00 0.12786100684E+01
 0.17061662003E+01 0.19745294200E+01 0.22279115204E+01 0.23953592018E+01 0.24194126936E+01
 0.23966147965E+01 0.23656705966E+01 0.23577145581E+01 0.23656705966E+01 0.23966147965E+01
 0.24194126936E+01 0.23953592018E+01 0.22279115204E+01 0.19745294200E+01 0.17061662003E+01
 0.12786100684E+01 0.80344524200E+00 0.44200635171E+00 0.21151803107E+00 0.14199918206E+01
 0.14950472151E+01 0.16551667205E+01 0.18922841190E+01 0.20700412373E+01 0.22769538655E+01
 0.24524321089E+01 0.25270442634E+01 0.25599915302E+01 0.24652698812E+01 0.23656705966E+01
 0.22926615217E+01 0.22719255243E+01 0.22926615217E+01 0.23656705966E+01 0.24652698812E+01
 0.25599915302E+01 0.25270442634E+01 0.24524321089E+01 0.22769538655E+01 0.20700412373E+01
 0.18922841190E+01 0.16551667205E+01 0.14950472151E+01 0.17956486308E+01 0.18275348643E+01
 0.19427994543E+01 0.21083156109E+01 0.23426826530E+01 0.25285603143E+01 0.25666505774E+01
 0.26372240306E+01 0.26079094507E+01 0.24686437817E+01 0.23577145581E+01 0.22719255243E+01
 0.22532462343E+01 0.22719255243E+01 0.23577145581E+01 0.24686437817E+01 0.26079094507E+01
 0.26372240306E+01 0.25666505774E+01 0.25285603143E+01 0.23426826530E+01 0.21083156109E+01
 0.19427994543E+01 0.18275348643E+01 0.14199918206E+01 0.14950472151E+01 0.16551667205E+01
 0.18922841190E+01 0.20700412373E+01 0.22769538655E+01 0.24524321089E+01 0.25270442634E+01
 0.25599915302E+01 0.24652698812E+01 0.23656705966E+01 0.22926615217E+01 0.22719255243E+01
 0.22926615217E+01 0.23656705966E+01 0.24652698812E+01 0.25599915302E+01 0.25270442634E+01
 0.24524321089E+01 0.22769538655E+01 0.20700412373E+01 0.18922841190E+01 0.16551667205E+01
 0.14950472151E+01 0.13629433296E+00 0.21151803107E+00 0.44200635171E+00 0.80344524200E+00
 0.12786100684E+01 0.17061662003E+01 0.19745294200E+01 0.22279115204E+01 0.23953592018E+01
 0.24194126936E+01 0.23966147965E+01 0.23656705966E+01 0.23577145581E+01 0.23656705966E+01
 0.23966147965E+01 0.24194126936E+01 0.23953592018E+01 0.22279115204E+01 0.19745294200E+01
 0.17061662003E+01 0.12786100684E+01 0.80344524200E+00 0.44200635171E+00 0.21151803107E+00
 -.19722753323E+01 -.17916630942E+01 -.13577512007E+01 -.76008003918E+00 -.17174827208E+00
 0.51957097309E+00 0.12217834026E+01 0.16755859884E+01 0.20729243896E+01 0.23241215285E+01
 0.24194126936E+01 0.24652698812E+01 0.24686437817E+01 0.24652698812E+01 0.24194126936E+01
 0.23241215285E+01 0.20729243896E+01 0.16755859884E+01 0.12217834026E+01 0.51957097309E+00
 -.17174827208E+00 -.76008003918E+00 -.13577512007E+01 -.17916630942E+01 -.64405858940E+01
 -.61218110851E+01 -.51443996361E+01 -.37458031094E+01 -.22040417891E+01 -.10219243527E+01
 -.43341603214E-01 0.90023456879E+00 0.15563739897E+01 0.20729243896E+01 0.23953592018E+01
 0.25599915302E+01 0.26079094507E+01 0.25599915302E+01 0.23953592018E+01 0.20729243896E+01
 0.15563739897E+01 0.90023456879E+00 -.43341603214E-01 -.10219243527E+01 -.22040417891E+01
 -.37458031094E+01 -.51443996361E+01 -.61218110851E+01 -.11678654255E+02 -.11337159213E+02
 -.10349530762E+02 -.85973555847E+01 -.62043494239E+01 -.35251585368E+01 -.15607630274E+01
 -.25016915377E+00 0.90023456879E+00 0.16755859884E+01 0.22279115204E+01 0.25270442634E+01
 0.26372240306E+01 0.25270442634E+01 0.22279115204E+01 0.16755859884E+01 0.90023456879E+00
 -.25016915377E+00 -.15607630274E+01 -.35251585368E+01 -.62043494239E+01 -.85973555847E+01
 -.10349530762E+02 -.11337159213E+02 -.15648742825E+02 -.15337948360E+02 -.14410613222E+02
 -.12918792060E+02 -.10702383797E+02 -.76377466436E+01 -.40581792526E+01 -.15607630274E+01
 -.43341603214E-01 0.12217834026E+01 0.19745294200E+01 0.24524321089E+01 0.25666505774E+01
 0.24524321089E+01 0.19745294200E+01 0.12217834026E+01 -.43341603214E-01 -.15607630274E+01
 -.40581792526E+01 -.76377466436E+01 -.10702383797E+02 -.12918792060E+02 -.14410613222E+02
 -.15337948360E+02 -.19579196419E+02 -.19199073377E+02 -.18007479634E+02 -.16286645277E+02
 -.14082441830E+02 -.11354391960E+02 -.76377466436E+01 -.35251585368E+01 -.10219243527E+01
 0.51957097309E+00 0.17061662003E+01 0.22769538655E+01 0.25285603143E+01 0.22769538655E+01
 0.17061662003E+01 0.51957097309E+00 -.10219243527E+01 -.35251585368E+01 -.76377466436E+01
 -.11354391960E+02 -.14082441830E+02 -.16286645277E+02 -.18007479634E+02 -.19199073377E+02
 -.23443946045E+02 -.22926138152E+02 -.21632011392E+02 -.19480449420E+02 -.16984627254E+02
 -.14082441830E+02 -.10702383797E+02 -.62043494239E+01 -.22040417891E+01 -.17174827208E+00
 0.12786100684E+01 0.20700412373E+01 0.23426826530E+01 0.20700412373E+01 0.12786100684E+01
 -.17174827208E+00 -.22040417891E+01 -.62043494239E+01 -.10702383797E+02 -.14082441830E+02
 -.16984627254E+02 -.19480449420E+02 -.21632011392E+02 -.22926138152E+02 -.26723596827E+02
 -.26213782243E+02 -.24773958189E+02 -.22457619119E+02 -.19480449420E+02 -.16286645277E+02
 -.12918792060E+02 -.85973555847E+01 -.37458031094E+01 -.76008003918E+00 0.80344524200E+00
 0.18922841190E+01 0.21083156109E+01 0.18922841190E+01 0.80344524200E+00 -.76008003918E+00
 -.37458031094E+01 -.85973555847E+01 -.12918792060E+02 -.16286645277E+02 -.19480449420E+02
 -.22457619119E+02 -.24773958189E+02 -.26213782243E+02 -.29145376294E+02 -.28647622331E+02
 -.27134869078E+02 -.24773958189E+02 -.21632011392E+02 -.18007479634E+02 -.14410613222E+02
 -.10349530762E+02 -.51443996361E+01 -.13577512007E+01 0.44200635171E+00 0.16551667205E+01
 0.19427994543E+01 0.16551667205E+01 0.44200635171E+00 -.13577512007E+01 -.51443996361E+01
 -.10349530762E+02 -.14410613222E+02 -.18007479634E+02 -.21632011392E+02 -.24773958189E+02
 -.27134869078E+02 -.28647622331E+02 -.30718698977E+02 -.30220953241E+02 -.28647622331E+02
 -.26213782243E+02 -.22926138152E+02 -.19199073377E+02 -.15337948360E+02 -.11337159213E+02
 -.61218110851E+01 -.17916630942E+01 0.21151803107E+00 0.14950472151E+01 0.18275348643E+01
 0.14950472151E+01 0.21151803107E+00 -.17916630942E+01 -.61218110851E+01 -.11337159213E+02
 -.15337948360E+02 -.19199073377E+02 -.22926138152E+02 -.26213782243E+02 -.28647622331E+02
 -.30220953241E+02 -.30684076498E+02 -.30186441620E+02 -.28603772806E+02 -.26163400047E+02
 -.22858878472E+02 -.19141258170E+02 -.15305893278E+02 -.11302837681E+02 -.60945129007E+01
 -.17782061306E+01 0.21693534122E+00 0.14985125876E+01 0.18290586058E+01 0.14985125876E+01
 0.21693534122E+00 -.17782061306E+01 -.60945129007E+01 -.11302837681E+02 -.15305893278E+02
 -.19141258170E+02 -.22858878472E+02 -.26163400047E+02 -.28603772806E+02 -.30186441620E+02
 -.30186441620E+02 -.29676030579E+02 -.28087830493E+02 -.25625688145E+02 -.22370721847E+02
 -.18780667711E+02 -.14990038629E+02 -.10969622725E+02 -.57731884241E+01 -.16183036992E+01
 0.27716018774E+00 0.15593547328E+01 0.18537637784E+01 0.15593547328E+01 0.27716018774E+00
 -.16183036992E+01 -.57731884241E+01 -.10969622725E+02 -.14990038629E+02 -.18780667711E+02
 -.22370721847E+02 -.25625688145E+02 -.28087830493E+02 -.29676030579E+02 -.28603772806E+02
 -.28087830493E+02 -.26586129168E+02 -.24200747993E+02 -.21105948152E+02 -.17630297938E+02
 -.14071765544E+02 -.99777107484E+01 -.48349751221E+01 -.12186447053E+01 0.50962846179E+00
 0.17051832466E+01 0.19620545912E+01 0.17051832466E+01 0.50962846179E+00 -.12186447053E+01
 -.48349751221E+01 -.99777107484E+01 -.14071765544E+02 -.17630297938E+02 -.21105948152E+02
 -.24200747993E+02 -.26586129168E+02 -.28087830493E+02 -.26163400047E+02 -.25625688145E+02
 -.24200747993E+02 -.21880699767E+02 -.19076153395E+02 -.15945821541E+02 -.12568762377E+02
 -.82493242667E+01 -.34802822870E+01 -.68884521266E+00 0.84892353706E+00 0.18883467525E+01
 0.21133807178E+01 0.18883467525E+01 0.84892353706E+00 -.68884521266E+00 -.34802822870E+01
 -.82493242667E+01 -.12568762377E+02 -.15945821541E+02 -.19076153395E+02 -.21880699767E+02
 -.24200747993E+02 -.25625688145E+02 -.22858878472E+02 -.22370721847E+02 -.21105948152E+02
 -.19076153395E+02 -.16640862740E+02 -.13732469028E+02 -.10374174545E+02 -.58726120093E+01
 -.20616345604E+01 -.13561407887E+00 0.13027074144E+01 0.20405837816E+01 0.23247304824E+01
 0.20405837816E+01 0.13027074144E+01 -.13561407887E+00 -.20616345604E+01 -.58726120093E+01
 -.10374174545E+02 -.13732469028E+02 -.16640862740E+02 -.19076153395E+02 -.21105948152E+02
 -.22370721847E+02 -.19141258170E+02 -.18780667711E+02 -.17630297938E+02 -.15945821541E+02
 -.13732469028E+02 -.11038277988E+02 -.72935665972E+01 -.33143964552E+01 -.97447651163E+00
 0.53066364992E+00 0.16390475859E+01 0.22001999977E+01 0.24281830520E+01 0.22001999977E+01
 0.16390475859E+01 0.53066364992E+00 -.97447651163E+00 -.33143964552E+01 -.72935665972E+01
 -.11038277988E+02 -.13732469028E+02 -.15945821541E+02 -.17630297938E+02 -.18780667711E+02
 -.15305893278E+02 -.14990038629E+02 -.14071765544E+02 -.12568762377E+02 -.10374174545E+02
 -.72935665972E+01 -.38234101200E+01 -.14984540064E+01 -.51478155325E-01 0.11505330910E+01
 0.18938120622E+01 0.23544583809E+01 0.24682656049E+01 0.23544583809E+01 0.18938120622E+01
 0.11505330910E+01 -.51478155325E-01 -.14984540064E+01 -.38234101200E+01 -.72935665972E+01
 -.10374174545E+02 -.12568762377E+02 -.14071765544E+02 -.14990038629E+02 -.11302837681E+02
 -.10969622725E+02 -.99777107484E+01 -.82493242667E+01 -.58726120093E+01 -.33143964552E+01
 -.14984540064E+01 -.26391618145E+00 0.83652912655E+00 0.15984811734E+01 0.20898161008E+01
 0.23401444502E+01 0.24304327445E+01 0.23401444502E+01 0.20898161008E+01 0.15984811734E+01
 0.83652912655E+00 -.26391618145E+00 -.14984540064E+01 -.33143964552E+01 -.58726120093E+01
 -.82493242667E+01 -.99777107484E+01 -.10969622725E+02 -.60945129007E+01 -.57731884241E+01
 -.48349751221E+01 -.34802822870E+01 -.20616345604E+01 -.97447651163E+00 -.51478155325E-01
 0.83652912655E+00 0.14757683387E+01 0.18793344966E+01 0.21191355798E+01 0.22661169354E+01
 0.23089474114E+01 0.22661169354E+01 0.21191355798E+01 0.18793344966E+01 0.14757683387E+01
 0.83652912655E+00 -.51478155325E-01 -.97447651163E+00 -.20616345604E+01 -.34802822870E+01
 -.48349751221E+01 -.57731884241E+01 -.17782061306E+01 -.16183036992E+01 -.12186447053E+01
 -.68884521266E+00 -.13561407887E+00 0.53066364992E+00 0.11505330910E+01 0.15984811734E+01
 0.18793344966E+01 0.20288462780E+01 0.21550138755E+01 0.22044594923E+01 0.22275641365E+01
 0.22044594923E+01 0.21550138755E+01 0.20288462780E+01 0.18793344966E+01 0.15984811734E+01
 0.11505330910E+01 0.53066364992E+00 -.13561407887E+00 -.68884521266E+00 -.12186447053E+01
 -.16183036992E+01 0.21693534122E+00 0.27716018774E+00 0.50962846179E+00 0.84892353706E+00
 0.13027074144E+01 0.16390475859E+01 0.18938120622E+01 0.20898161008E+01 0.21191355798E+01
 0.21550138755E+01 0.21423777324E+01 0.21154985918E+01 0.20986619153E+01 0.21154985918E+01
 0.21423777324E+01 0.21550138755E+01 0.21191355798E+01 0.20898161008E+01 0.18938120622E+01
 0.16390475859E+01 0.13027074144E+01 0.84892353706E+00 0.50962846179E+00 0.27716018774E+00
 0.14985125876E+01 0.15593547328E+01 0.17051832466E+01 0.18883467525E+01 0.20405837816E+01
 0.22001999977E+01 0.23544583809E+01 0.23401444502E+01 0.22661169354E+01 0.22044594923E+01
 0.21154985918E+01 0.20385586526E+01 0.19999336960E+01 0.20385586526E+01 0.21154985918E+01
 0.22044594923E+01 0.22661169354E+01 0.23401444502E+01 0.23544583809E+01 0.22001999977E+01
 0.20405837816E+01 0.18883467525E+01 0.17051832466E+01 0.15593547328E+01 0.18290586058E+01
 0.18537637784E+01 0.19620545912E+01 0.21133807178E+01 0.23247304824E+01 0.24281830520E+01
 0.24682656049E+01 0.24304327445E+01 0.23089474114E+01 0.22275641365E+01 0.20986619153E+01
 0.19999336960E+01 0.19521376340E+01 0.19999336960E+01 0.20986619153E+01 0.22275641365E+01
 0.23089474114E+01 0.24304327445E+01 0.24682656049E+01 0.24281830520E+01 0.23247304824E+01
 0.21133807178E+01 0.19620545912E+01 0.18537637784E+01 0.14985125876E+01 0.15593547328E+01
 0.17051832466E+01 0.18883467525E+01 0.20405837816E+01 0.22001999977E+01 0.23544583809E+01
 0.23401444502E+01 0.22661169354E+01 0.22044594923E+01 0.21154985918E+01 0.20385586526E+01
 0.19999336960E+01 0.20385586526E+01 0.21154985918E+01 0.22044594923E+01 0.22661169354E+01
 0.23401444502E+01 0.23544583809E+01 0.22001999977E+01 0.20405837816E+01 0.18883467525E+01
 0.17051832466E+01 0.15593547328E+01 0.21693534122E+00 0.27716018774E+00 0.50962846179E+00
 0.84892353706E+00 0.13027074144E+01 0.16390475859E+01 0.18938120622E+01 0.20898161008E+01
 0.21191355798E+01 0.21550138755E+01 0.21423777324E+01 0.21154985918E+01 0.20986619153E+01
 0.21154985918E+01 0.21423777324E+01 0.21550138755E+01 0.21191355798E+01 0.20898161008E+01
 0.18938120622E+01 0.16390475859E+01 0.13027074144E+01 0.84892353706E+00 0.50962846179E+00
 0.27716018774E+00 -.17782061306E+01 -.16183036992E+01 -.12186447053E+01 -.68884521266E+00
 -.13561407887E+00 0.53066364992E+00 0.11505330910E+01 0.15984811734E+01 0.18793344966E+01
 0.20288462780E+01 0.21550138755E+01 0.22044594923E+01 0.22275641365E+01 0.22044594923E+01
 0.21550138755E+01 0.20288462780E+01 0.18793344966E+01 0.15984811734E+01 0.11505330910E+01
 0.53066364992E+00 -.13561407887E+00 -.68884521266E+00 -.12186447053E+01 -.16183036992E+01
 -.60945129007E+01 -.57731884241E+01 -.48349751221E+01 -.34802822870E+01 -.20616345604E+01
 -.97447651163E+00 -.51478155325E-01 0.83652912655E+00 0.14757683387E+01 0.18793344966E+01
 0.21191355798E+01 0.22661169354E+01 0.23089474114E+01 0.22661169354E+01 0.21191355798E+01
 0.18793344966E+01 0.14757683387E+01 0.83652912655E+00 -.51478155325E-01 -.97447651163E+00
 -.20616345604E+01 -.34802822870E+01 -.48349751221E+01 -.57731884241E+01 -.11302837681E+02
 -.10969622725E+02 -.99777107484E+01 -.82493242667E+01 -.58726120093E+01 -.33143964552E+01
 -.14984540064E+01 -.26391618145E+00 0.83652912655E+00 0.15984811734E+01 0.20898161008E+01
 0.23401444502E+01 0.24304327445E+01 0.23401444502E+01 0.20898161008E+01 0.15984811734E+01
 0.83652912655E+00 -.26391618145E+00 -.14984540064E+01 -.33143964552E+01 -.58726120093E+01
 -.82493242667E+01 -.99777107484E+01 -.10969622725E+02 -.15305893278E+02 -.14990038629E+02
 -.14071765544E+02 -.12568762377E+02 -.10374174545E+02 -.72935665972E+01 -.38234101200E+01
 -.14984540064E+01 -.51478155325E-01 0.11505330910E+01 0.18938120622E+01 0.23544583809E+01
 0.24682656049E+01 0.23544583809E+01 0.18938120622E+01 0.11505330910E+01 -.51478155325E-01
 -.14984540064E+01 -.38234101200E+01 -.72935665972E+01 -.10374174545E+02 -.12568762377E+02
 -.14071765544E+02 -.14990038629E+02 -.19141258170E+02 -.18780667711E+02 -.17630297938E+02
 -.15945821541E+02 -.13732469028E+02 -.11038277988E+02 -.72935665972E+01 -.33143964552E+01
 -.97447651163E+00 0.53066364992E+00 0.16390475859E+01 0.22001999977E+01 0.24281830520E+01
 0.22001999977E+01 0.16390475859E+01 0.53066364992E+00 -.97447651163E+00 -.33143964552E+01
 -.72935665972E+01 -.11038277988E+02 -.13732469028E+02 -.15945821541E+02 -.17630297938E+02
 -.18780667711E+02 -.22858878472E+02 -.22370721847E+02 -.21105948152E+02 -.19076153395E+02
 -.16640862740E+02 -.13732469028E+02 -.10374174545E+02 -.58726120093E+01 -.20616345604E+01
 -.13561407887E+00 0.13027074144E+01 0.20405837816E+01 0.23247304824E+01 0.20405837816E+01
 0.13027074144E+01 -.13561407887E+00 -.20616345604E+01 -.58726120093E+01 -.10374174545E+02
 -.13732469028E+02 -.16640862740E+02 -.19076153395E+02 -.21105948152E+02 -.22370721847E+02
 -.26163400047E+02 -.25625688145E+02 -.24200747993E+02 -.21880699767E+02 -.19076153395E+02
 -.15945821541E+02 -.12568762377E+02 -.82493242667E+01 -.34802822870E+01 -.68884521266E+00
 0.84892353706E+00 0.18883467525E+01 0.21133807178E+01 0.18883467525E+01 0.84892353706E+00
 -.68884521266E+00 -.34802822870E+01 -.82493242667E+01 -.12568762377E+02 -.15945821541E+02
 -.19076153395E+02 -.21880699767E+02 -.24200747993E+02 -.25625688145E+02 -.28603772806E+02
 -.28087830493E+02 -.26586129168E+02 -.24200747993E+02 -.21105948152E+02 -.17630297938E+02
 -.14071765544E+02 -.99777107484E+01 -.48349751221E+01 -.12186447053E+01 0.50962846179E+00
 0.17051832466E+01 0.19620545912E+01 0.17051832466E+01 0.50962846179E+00 -.12186447053E+01
 -.48349751221E+01 -.99777107484E+01 -.14071765544E+02 -.17630297938E+02 -.21105948152E+02
 -.24200747993E+02 -.26586129168E+02 -.28087830493E+02 -.30186441620E+02 -.29676030579E+02
 -.28087830493E+02 -.25625688145E+02 -.22370721847E+02 -.18780667711E+02 -.14990038629E+02
 -.10969622725E+02 -.57731884241E+01 -.16183036992E+01 0.27716018774E+00 0.15593547328E+01
 0.18537637784E+01 0.15593547328E+01 0.27716018774E+00 -.16183036992E+01 -.57731884241E+01
 -.10969622725E+02 -.14990038629E+02 -.18780667711E+02 -.22370721847E+02 -.25625688145E+02
 -.28087830493E+02 -.29676030579E+02 -.28993677902E+02 -.28480870733E+02 -.26939399902E+02
 -.24553882880E+02 -.21416883817E+02 -.17832069402E+02 -.14276681147E+02 -.10223861891E+02
 -.50438927805E+01 -.13148168982E+01 0.46085041533E+00 0.16658730457E+01 0.19464348471E+01
 0.16658730457E+01 0.46085041533E+00 -.13148168982E+01 -.50438927805E+01 -.10223861891E+02
 -.14276681147E+02 -.17832069402E+02 -.21416883817E+02 -.24553882880E+02 -.26939399902E+02
 -.28480870733E+02 -.28480870733E+02 -.27951104082E+02 -.26433952175E+02 -.24036122805E+02
 -.20966080041E+02 -.17505360542E+02 -.13968978217E+02 -.98884965830E+01 -.47598468845E+01
 -.11908033467E+01 0.52501514072E+00 0.17105218370E+01 0.19658240433E+01 0.17105218370E+01
 0.52501514072E+00 -.11908033467E+01 -.47598468845E+01 -.98884965830E+01 -.13968978217E+02
 -.17505360542E+02 -.20966080041E+02 -.24036122805E+02 -.26433952175E+02 -.27951104082E+02
 -.26939399902E+02 -.26433952175E+02 -.24983165217E+02 -.22696783369E+02 -.19748735995E+02
 -.16428035537E+02 -.13111104107E+02 -.88694085419E+01 -.39380686227E+01 -.89083448692E+00
 0.70522224152E+00 0.17892456198E+01 0.20315663206E+01 0.17892456198E+01 0.70522224152E+00
 -.89083448692E+00 -.39380686227E+01 -.88694085419E+01 -.13111104107E+02 -.16428035537E+02
 -.19748735995E+02 -.22696783369E+02 -.24983165217E+02 -.26433952175E+02 -.24553882880E+02
 -.24036122805E+02 -.22696783369E+02 -.20495424438E+02 -.17820323758E+02 -.14898928274E+02
 -.11600792415E+02 -.71556916413E+01 -.28209096393E+01 -.47599299259E+00 0.98564389895E+00
 0.18925217481E+01 0.21209366419E+01 0.18925217481E+01 0.98564389895E+00 -.47599299259E+00
 -.28209096393E+01 -.71556916413E+01 -.11600792415E+02 -.14898928274E+02 -.17820323758E+02
 -.20495424438E+02 -.22696783369E+02 -.24036122805E+02 -.21416883817E+02 -.20966080041E+02
 -.19748735995E+02 -.17820323758E+02 -.15537981669E+02 -.12801430985E+02 -.93422632313E+01
 -.49435546941E+01 -.16994656792E+01 -.29706900869E-01 0.12967571222E+01 0.19272391085E+01
 0.22125481789E+01 0.19272391085E+01 0.12967571222E+01 -.29706900869E-01 -.16994656792E+01
 -.49435546941E+01 -.93422632313E+01 -.12801430985E+02 -.15537981669E+02 -.17820323758E+02
 -.19748735995E+02 -.20966080041E+02 -.17832069402E+02 -.17505360542E+02 -.16428035537E+02
 -.14898928274E+02 -.12801430985E+02 -.10055931283E+02 -.62757487358E+01 -.27817947959E+01
 -.87266907149E+00 0.52549483535E+00 0.14880721479E+01 0.20015223592E+01 0.21816983657E+01
 0.20015223592E+01 0.14880721479E+01 0.52549483535E+00 -.87266907149E+00 -.27817947959E+01
 -.62757487358E+01 -.10055931283E+02 -.12801430985E+02 -.14898928274E+02 -.16428035537E+02
 -.17505360542E+02 -.14276681147E+02 -.13968978217E+02 -.13111104107E+02 -.11600792415E+02
 -.93422632313E+01 -.62757487358E+01 -.32245429223E+01 -.13697655430E+01 -.67088877114E-01
 0.97016106667E+00 0.15688717045E+01 0.19469615330E+01 0.20326113912E+01 0.19469615330E+01
 0.15688717045E+01 0.97016106667E+00 -.67088877114E-01 -.13697655430E+01 -.32245429223E+01
 -.62757487358E+01 -.93422632313E+01 -.11600792415E+02 -.13111104107E+02 -.13968978217E+02
 -.10223861891E+02 -.98884965830E+01 -.88694085419E+01 -.71556916413E+01 -.49435546941E+01
 -.27817947959E+01 -.13697655430E+01 -.28553852251E+00 0.62889884020E+00 0.11892806727E+01
 0.15986473488E+01 0.17969086220E+01 0.18835625753E+01 0.17969086220E+01 0.15986473488E+01
 0.11892806727E+01 0.62889884020E+00 -.28553852251E+00 -.13697655430E+01 -.27817947959E+01
 -.49435546941E+01 -.71556916413E+01 -.88694085419E+01 -.98884965830E+01 -.50438927805E+01
 -.47598468845E+01 -.39380686227E+01 -.28209096393E+01 -.16994656792E+01 -.87266907149E+00
 -.67088877114E-01 0.62889884020E+00 0.10434111110E+01 0.13756714423E+01 0.15376676730E+01
 0.16106648414E+01 0.16146006277E+01 0.16106648414E+01 0.15376676730E+01 0.13756714423E+01
 0.10434111110E+01 0.62889884020E+00 -.67088877114E-01 -.87266907149E+00 -.16994656792E+01
 -.28209096393E+01 -.39380686227E+01 -.47598468845E+01 -.13148168982E+01 -.11908033467E+01
 -.89083448692E+00 -.47599299259E+00 -.29706900869E-01 0.52549483535E+00 0.97016106667E+00
 0.11892806727E+01 0.13756714423E+01 0.14198078986E+01 0.13521988960E+01 0.12751427015E+01
 0.12456964016E+01 0.12751427015E+01 0.13521988960E+01 0.14198078986E+01 0.13756714423E+01
 0.11892806727E+01 0.97016106667E+00 0.52549483535E+00 -.29706900869E-01 -.47599299259E+00
 -.89083448692E+00 -.11908033467E+01 0.46085041533E+00 0.52501514072E+00 0.70522224152E+00
 0.98564389895E+00 0.12967571222E+01 0.14880721479E+01 0.15688717045E+01 0.15986473488E+01
 0.15376676730E+01 0.13521988960E+01 0.11339636111E+01 0.98850456891E+00 0.93034888259E+00
 0.98850456891E+00 0.11339636111E+01 0.13521988960E+01 0.15376676730E+01 0.15986473488E+01
 0.15688717045E+01 0.14880721479E+01 0.12967571222E+01 0.98564389895E+00 0.70522224152E+00
 0.52501514072E+00 0.16658730457E+01 0.17105218370E+01 0.17892456198E+01 0.18925217481E+01
 0.19272391085E+01 0.20015223592E+01 0.19469615330E+01 0.17969086220E+01 0.16106648414E+01
 0.12751427015E+01 0.98850456891E+00 0.78193659242E+00 0.72600333137E+00 0.78193659242E+00
 0.98850456891E+00 0.12751427015E+01 0.16106648414E+01 0.17969086220E+01 0.19469615330E+01
 0.20015223592E+01 0.19272391085E+01 0.18925217481E+01 0.17892456198E+01 0.17105218370E+01
 0.19464348471E+01 0.19658240433E+01 0.20315663206E+01 0.21209366419E+01 0.22125481789E+01
 0.21816983657E+01 0.20326113912E+01 0.18835625753E+01 0.16146006277E+01 0.12456964016E+01
 0.93034888259E+00 0.72600333137E+00 0.65765706932E+00 0.72600333137E+00 0.93034888259E+00
 0.12456964016E+01 0.16146006277E+01 0.18835625753E+01 0.20326113912E+01 0.21816983657E+01
 0.22125481789E+01 0.21209366419E+01 0.20315663206E+01 0.19658240433E+01 0.16658730457E+01
 0.17105218370E+01 0.17892456198E+01 0.18925217481E+01 0.19272391085E+01 0.20015223592E+01
 0.19469615330E+01 0.17969086220E+01 0.16106648414E+01 0.12751427015E+01 0.98850456891E+00
 0.78193659242E+00 0.72600333137E+00 0.78193659242E+00 0.98850456891E+00 0.12751427015E+01
 0.16106648414E+01 0.17969086220E+01 0.19469615330E+01 0.20015223592E+01 0.19272391085E+01
 0.18925217481E+01 0.17892456198E+01 0.17105218370E+01 0.46085041533E+00 0.52501514072E+00
 0.70522224152E+00 0.98564389895E+00 0.12967571222E+01 0.14880721479E+01 0.15688717045E+01
 0.15986473488E+01 0.15376676730E+01 0.13521988960E+01 0.11339636111E+01 0.98850456891E+00
 0.93034888259E+00 0.98850456891E+00 0.11339636111E+01 0.13521988960E+01 0.15376676730E+01
 0.15986473488E+01 0.15688717045E+01 0.14880721479E+01 0.12967571222E+01 0.98564389895E+00
 0.70522224152E+00 0.52501514072E+00 -.13148168982E+01 -.11908033467E+01 -.89083448692E+00
 -.47599299259E+00 -.29706900869E-01 0.52549483535E+00 0.97016106667E+00 0.11892806727E+01
 0.13756714423E+01 0.14198078986E+01 0.13521988960E+01 0.12751427015E+01 0.12456964016E+01
 0.12751427015E+01 0.13521988960E+01 0.14198078986E+01 0.13756714423E+01 0.11892806727E+01
 0.97016106667E+00 0.52549483535E+00 -.29706900869E-01 -.47599299259E+00 -.89083448692E+00
 -.11908033467E+01 -.50438927805E+01 -.47598468845E+01 -.39380686227E+01 -.28209096393E+01
 -.16994656792E+01 -.87266907149E+00 -.67088877114E-01 0.62889884020E+00 0.10434111110E+01
 0.13756714423E+01 0.15376676730E+01 0.16106648414E+01 0.16146006277E+01 0.16106648414E+01
 0.15376676730E+01 0.13756714423E+01 0.10434111110E+01 0.62889884020E+00 -.67088877114E-01
 -.87266907149E+00 -.16994656792E+01 -.28209096393E+01 -.39380686227E+01 -.47598468845E+01
 -.10223861891E+02 -.98884965830E+01 -.88694085419E+01 -.71556916413E+01 -.49435546941E+01
 -.27817947959E+01 -.13697655430E+01 -.28553852251E+00 0.62889884020E+00 0.11892806727E+01
 0.15986473488E+01 0.17969086220E+01 0.18835625753E+01 0.17969086220E+01 0.15986473488E+01
 0.11892806727E+01 0.62889884020E+00 -.28553852251E+00 -.13697655430E+01 -.27817947959E+01
 -.49435546941E+01 -.71556916413E+01 -.88694085419E+01 -.98884965830E+01 -.14276681147E+02
 -.13968978217E+02 -.13111104107E+02 -.11600792415E+02 -.93422632313E+01 -.62757487358E+01
 -.32245429223E+01 -.13697655430E+01 -.67088877114E-01 0.97016106667E+00 0.15688717045E+01
 0.19469615330E+01 0.20326113912E+01 0.19469615330E+01 0.15688717045E+01 0.97016106667E+00
 -.67088877114E-01 -.13697655430E+01 -.32245429223E+01 -.62757487358E+01 -.93422632313E+01
 -.11600792415E+02 -.13111104107E+02 -.13968978217E+02 -.17832069402E+02 -.17505360542E+02
 -.16428035537E+02 -.14898928274E+02 -.12801430985E+02 -.10055931283E+02 -.62757487358E+01
 -.27817947959E+01 -.87266907149E+00 0.52549483535E+00 0.14880721479E+01 0.20015223592E+01
 0.21816983657E+01 0.20015223592E+01 0.14880721479E+01 0.52549483535E+00 -.87266907149E+00