       N       E                     dE             d eps       ncg     rms          rms(c)
DAV:   1     0.218992858729E+03    0.21899E+03   -0.11907E+04  1920   0.777E+02
DAV:   2    -0.311399531531E+02   -0.25013E+03   -0.22994E+03  1944   0.251E+02
DAV:   3    -0.434154121644E+02   -0.12275E+02   -0.11566E+02  2216   0.725E+01
DAV:   4    -0.436215348157E+02   -0.20612E+00   -0.20557E+00  2008   0.106E+01
DAV:   5    -0.436239349655E+02   -0.24001E-02   -0.24001E-02  2352   0.891E-01    0.252E+01
DAV:   6    -0.674029613900E+02   -0.23779E+02   -0.10612E+02  2896   0.147E+02    0.682E+01
DAV:   7    -0.388888555656E+02    0.28514E+02   -0.38881E+01  2552   0.911E+01    0.174E+01
DAV:   8    -0.407233387546E+02   -0.18345E+01   -0.16473E+01  2576   0.666E+01    0.253E+01
DAV:   9    -0.392094768301E+02    0.15139E+01   -0.13346E+01  2416   0.557E+01    0.164E+01
DAV:  10    -0.380492890023E+02    0.11602E+01   -0.23703E+00  2400   0.288E+01    0.608E+00
DAV:  11    -0.381877914329E+02   -0.13850E+00   -0.60656E-01  2384   0.692E+00    0.349E+00
DAV:  12    -0.384394835273E+02   -0.25169E+00   -0.29770E-01  2296   0.504E+00    0.222E+00
DAV:  13    -0.385888031996E+02   -0.14932E+00   -0.55790E-02  2224   0.308E+00    0.182E+00
DAV:  14    -0.386919044034E+02   -0.10310E+00   -0.89438E-02  2384   0.309E+00    0.738E-01
DAV:  15    -0.386952131425E+02   -0.33087E-02   -0.46512E-03  2104   0.756E-01    0.376E-01
DAV:  16    -0.386958106631E+02   -0.59752E-03   -0.16914E-03  2280   0.512E-01    0.252E-01
DAV:  17    -0.386954969641E+02    0.31370E-03   -0.13878E-03  2144   0.463E-01    0.133E-01
DAV:  18    -0.386961225254E+02   -0.62556E-03   -0.38674E-04  1936   0.264E-01    0.144E-01
DAV:  19    -0.386965012564E+02   -0.37873E-03   -0.27875E-04  1736   0.266E-01    0.120E-01
DAV:  20    -0.386965788013E+02   -0.77545E-04   -0.10051E-04  1416   0.145E-01
   1 F= -.38696579E+02 E0= -.38696977E+02  d E =-.386966E+02  mag=    13.3587
       N       E                     dE             d eps       ncg     rms          rms(c)
DAV:   1    -0.386881621526E+02    0.83391E-02   -0.50303E+00  1920   0.108E+01    0.173E+00
DAV:   2    -0.388197700689E+02   -0.13161E+00   -0.40858E-01  2824   0.115E+01    0.462E+00
DAV:   3    -0.387191645434E+02    0.10061E+00   -0.37435E-01  2688   0.123E+01    0.164E+00
DAV:   4    -0.387231463787E+02   -0.39818E-02   -0.62098E-02  2752   0.423E+00    0.148E+00
DAV:   5    -0.387142378951E+02    0.89085E-02   -0.15611E-02  2592   0.254E+00    0.201E-01
DAV:   6    -0.387145497774E+02   -0.31188E-03   -0.19769E-03  1984   0.338E-01    0.117E-01
DAV:   7    -0.387142040351E+02    0.34574E-03   -0.24985E-04  1656   0.242E-01    0.944E-02
DAV:   8    -0.387143155937E+02   -0.11156E-03   -0.13393E-04  1392   0.194E-01    0.464E-02
DAV:   9    -0.387146192449E+02   -0.30365E-03   -0.94290E-05  1448   0.110E-01    0.282E-02
DAV:  10    -0.387147414811E+02   -0.12224E-03   -0.18866E-05  1320   0.534E-02    0.137E-02
DAV:  11    -0.387148330752E+02   -0.91594E-04   -0.99519E-06  1296   0.254E-02
   2 F= -.38714833E+02 E0= -.38715609E+02  d E =-.182543E-01  mag=    13.3686
       N       E                     dE             d eps       ncg     rms          rms(c)
DAV:   1    -0.387090736769E+02    0.56678E-02   -0.16473E+00  1920   0.615E+00    0.100E+00
DAV:   2    -0.387556833452E+02   -0.46610E-01   -0.14871E-01  2824   0.692E+00    0.280E+00
DAV:   3    -0.387187638640E+02    0.36919E-01   -0.13404E-01  2672   0.728E+00    0.903E-01
DAV:   4    -0.387202702136E+02   -0.15063E-02   -0.20173E-02  2688   0.245E+00    0.858E-01
DAV:   5    -0.387171506170E+02    0.31196E-02   -0.52551E-03  2640   0.150E+00    0.109E-01
DAV:   6    -0.387171265308E+02    0.24086E-04   -0.63593E-04  2088   0.209E-01
   3 F= -.38717127E+02 E0= -.38718190E+02  d E =-.205477E-01  mag=    13.3689
       N       E                     dE             d eps       ncg     rms          rms(c)
DAV:   1    -0.387171644472E+02   -0.13830E-04   -0.41425E-04  2032   0.217E-01    0.525E-02
DAV:   2    -0.387176296835E+02   -0.46524E-03   -0.87312E-04  2176   0.579E-01    0.282E-01
DAV:   3    -0.387173146056E+02    0.31508E-03   -0.57403E-04  1776   0.489E-01    0.268E-02
DAV:   4    -0.387173561653E+02   -0.41560E-04   -0.55628E-05  1200   0.112E-01
   4 F= -.38717356E+02 E0= -.38718441E+02  d E =-.207774E-01  mag=    13.3703
       N       E                     dE             d eps       ncg     rms          rms(c)
DAV:   1    -0.387174106966E+02   -0.96091E-04   -0.38541E-05  1224   0.788E-02    0.146E-02
DAV:   2    -0.387174928665E+02   -0.82170E-04   -0.50870E-05  1328   0.142E-01
   5 F= -.38717493E+02 E0= -.38718571E+02  d E =-.209141E-01  mag=    13.3708
       N       E                     dE             d eps       ncg     rms          rms(c)
DAV:   1    -0.387174833835E+02   -0.72687E-04   -0.38940E-05  1080   0.123E-01    0.110E-02
DAV:   2    -0.387175310935E+02   -0.47710E-04   -0.25751E-05  1280   0.905E-02
   6 F= -.38717531E+02 E0= -.38718624E+02  d E =-.209523E-01  mag=    13.3712
       N       E                     dE             d eps       ncg     rms          rms(c)
DAV:   1    -0.387175309063E+02   -0.47523E-04   -0.15586E-05  1072   0.788E-02    0.709E-03
DAV:   2    -0.387175632004E+02   -0.32294E-04   -0.67244E-06  1296   0.446E-02
   7 F= -.38717563E+02 E0= -.38718650E+02  d E =-.209844E-01  mag=    13.3715
       N       E                     dE             d eps       ncg     rms          rms(c)
DAV:   1    -0.387175657712E+02   -0.34865E-04   -0.56709E-06  1080   0.451E-02    0.573E-03
DAV:   2    -0.387175854295E+02   -0.19658E-04   -0.69028E-06  1280   0.482E-02
   8 F= -.38717585E+02 E0= -.38718675E+02  d E =-.210066E-01  mag=    13.3718
       N       E                     dE             d eps       ncg     rms          rms(c)
DAV:   1    -0.387175861184E+02   -0.20347E-04   -0.56118E-06  1072   0.450E-02    0.351E-03
DAV:   2    -0.387175981387E+02   -0.12020E-04   -0.28555E-06  1280   0.302E-02
   9 F= -.38717598E+02 E0= -.38718688E+02  d E =-.210193E-01  mag=    13.3720
       N       E                     dE             d eps       ncg     rms          rms(c)
DAV:   1    -0.387175993145E+02   -0.13196E-04   -0.23913E-06  1072   0.272E-02    0.228E-03
DAV:   2    -0.387176076054E+02   -0.82910E-05   -0.13806E-06  1240   0.138E-02
  10 F= -.38717608E+02 E0= -.38718699E+02  d E =-.210288E-01  mag=    13.3722
       N       E                     dE             d eps       ncg     rms          rms(c)
DAV:   1    -0.387176089197E+02   -0.96052E-05   -0.89586E-07  1104   0.140E-02    0.198E-03
DAV:   2    -0.387176133838E+02   -0.44641E-05   -0.13435E-06  1232   0.200E-02
  11 F= -.38717613E+02 E0= -.38718705E+02  d E =-.210346E-01  mag=    13.3723
       N       E                     dE             d eps       ncg     rms          rms(c)
DAV:   1    -0.387176135138E+02   -0.45942E-05   -0.79381E-07  1040   0.161E-02    0.125E-03
DAV:   2    -0.387176156721E+02   -0.21582E-05   -0.40542E-07  1208   0.459E-03
  12 F= -.38717616E+02 E0= -.38718708E+02  d E =-.210369E-01  mag=    13.3724
       N       E                     dE             d eps       ncg     rms          rms(c)
DAV:   1    -0.387176158908E+02   -0.23770E-05   -0.21890E-07  1008   0.755E-03    0.121E-03
DAV:   2    -0.387176170333E+02   -0.11425E-05   -0.15136E-07  1168   0.626E-03
  13 F= -.38717617E+02 E0= -.38718709E+02  d E =-.210382E-01  mag=    13.3725
       N       E                     dE             d eps       ncg     rms          rms(c)
DAV:   1    -0.387176171057E+02   -0.12149E-05   -0.14238E-07   992   0.704E-03    0.119E-03
DAV:   2    -0.387176178067E+02   -0.70101E-06   -0.40677E-07  1160   0.121E-02
  14 F= -.38717618E+02 E0= -.38718710E+02  d E =-.210390E-01  mag=    13.3726
       N       E                     dE             d eps       ncg     rms          rms(c)
DAV:   1    -0.387176176619E+02   -0.55615E-06   -0.29286E-07   960   0.105E-02    0.596E-04
DAV:   2    -0.387176178607E+02   -0.19881E-06   -0.59756E-08  1152   0.113E-03
  15 F= -.38717618E+02 E0= -.38718711E+02  d E =-.210391E-01  mag=    13.3727
       N       E                     dE             d eps       ncg     rms          rms(c)
DAV:   1    -0.387176179139E+02   -0.25203E-06   -0.16023E-08   960   0.202E-03    0.878E-04
DAV:   2    -0.387176179869E+02   -0.73025E-07   -0.18609E-07  1104   0.850E-03
  16 F= -.38717618E+02 E0= -.38718711E+02  d E =-.210392E-01  mag=    13.3727
       N       E                     dE             d eps       ncg     rms          rms(c)
DAV:   1    -0.387176179326E+02   -0.18668E-07   -0.13829E-07   960   0.770E-03    0.493E-04
DAV:   2    -0.387176178964E+02    0.36174E-07   -0.52725E-08  1040   0.399E-03
  17 F= -.38717618E+02 E0= -.38718711E+02  d E =-.210391E-01  mag=    13.3727
       N       E                     dE             d eps       ncg     rms          rms(c)
DAV:   1    -0.387176178796E+02    0.53019E-07   -0.37875E-08   960   0.373E-03    0.387E-04
DAV:   2    -0.387176178100E+02    0.69586E-07   -0.29152E-08   960   0.308E-03
  18 F= -.38717618E+02 E0= -.38718711E+02  d E =-.210390E-01  mag=    13.3728
       N       E                     dE             d eps       ncg     rms          rms(c)
DAV:   1    -0.387176177950E+02    0.84548E-07   -0.20951E-08   960   0.285E-03    0.254E-04
DAV:   2    -0.387176177047E+02    0.90323E-07   -0.11816E-08   984   0.162E-03
  19 F= -.38717618E+02 E0= -.38718711E+02  d E =-.210389E-01  mag=    13.3728
       N       E                     dE             d eps       ncg     rms          rms(c)
DAV:   1    -0.386313262134E+02    0.86292E-01   -0.12377E+01  1920   0.170E+01    0.275E+00
DAV:   2    -0.390378584602E+02   -0.40653E+00   -0.11295E+00  2760   0.193E+01    0.958E+00
DAV:   3    -0.387268537131E+02    0.31100E+00   -0.11936E+00  2680   0.175E+01    0.322E+00
DAV:   4    -0.387386293989E+02   -0.11776E-01   -0.30414E-01  2704   0.963E+00    0.331E+00
DAV:   5    -0.386876899963E+02    0.50939E-01   -0.89912E-02  2488   0.631E+00    0.525E-01
DAV:   6    -0.386901040601E+02   -0.24141E-02   -0.84175E-03  2136   0.749E-01    0.387E-01
DAV:   7    -0.386931365293E+02   -0.30325E-02   -0.24345E-03  2344   0.835E-01    0.184E-01
DAV:   8    -0.386959077374E+02   -0.27712E-02   -0.90745E-04  2056   0.391E-01    0.146E-01
DAV:   9    -0.386967395129E+02   -0.83178E-03   -0.35513E-04  1592   0.255E-01    0.988E-02
DAV:  10    -0.386968415681E+02   -0.10206E-03   -0.11548E-04  1328   0.178E-01    0.251E-02
DAV:  11    -0.386968791219E+02   -0.37554E-04   -0.30390E-05  1272   0.443E-02
  20 F= -.38696879E+02 E0= -.38697310E+02  d E =-.300321E-03  mag=    13.3575
