 vasp.5.4.4.18Apr17-6-g9f103f2a35 (build May 18 2018 14:42:58) complex          
  
 executed on             LinuxIFC date 2020.07.01  22:12:35
 running on    4 total cores
 distrk:  each k-point on    4 cores,    1 groups
 distr:  one band on NCORES_PER_BAND=   4 cores,    1 groups


--------------------------------------------------------------------------------------------------------


 INCAR:
 POTCAR:    PAW_PBE Fe 06Sep2000                  
 POTCAR:    PAW_PBE Fe 06Sep2000                  
   VRHFIN =Fe:  d7 s1                                                           
   LEXCH  = PE                                                                  
   EATOM  =   594.3153 eV,   43.6809 Ry                                         
                                                                                
   TITEL  = PAW_PBE Fe 06Sep2000                                                
   LULTRA =        F    use ultrasoft PP ?                                      
   IUNSCR =        1    unscreen: 0-lin 1-nonlin 2-no                           
   RPACOR =    2.000    partial core radius                                     
   POMASS =   55.847; ZVAL   =    8.000    mass and valenz                      
   RCORE  =    2.300    outmost cutoff radius                                   
   RWIGS  =    2.460; RWIGS  =    1.302    wigner-seitz radius (au A)           
   ENMAX  =  267.882; ENMIN  =  200.911 eV                                      
   RCLOC  =    1.701    cutoff for local pot                                    
   LCOR   =        T    correct aug charges                                     
   LPAW   =        T    paw PP                                                  
   EAUG   =  511.368                                                            
   DEXC   =    0.000                                                            
   RMAX   =    2.356    core radius for proj-oper                               
   RAUG   =    1.300    factor for augmentation sphere                          
   RDEP   =    2.442    radius for radial grids                                 
   RDEPT  =    1.890    core radius for aug-charge                              
                                                                                
   Atomic configuration                                                         
    9 entries                                                                   
     n  l   j            E        occ.                                          
     1  0  0.50     -6993.8440   2.0000                                         
     2  0  0.50      -814.6047   2.0000                                         
     2  1  1.50      -693.3689   6.0000                                         
     3  0  0.50       -89.4732   2.0000                                         
     3  1  1.50       -55.6373   6.0000                                         
     3  2  2.50        -3.8151   7.0000                                         
     4  0  0.50        -4.2551   1.0000                                         
     4  1  1.50        -3.4015   0.0000                                         
     4  3  2.50        -1.3606   0.0000                                         
   Description                                                                  
     l       E           TYP  RCUT    TYP  RCUT                                 
     2     -3.8151135     23  2.300                                             
     2     -5.1756961     23  2.300                                             
     0     -4.2550963     23  2.300                                             
     0      7.2035603     23  2.300                                             
     1     -2.7211652     23  2.300                                             
     1     18.4316424     23  2.300                                             
  local pseudopotential read in
  partial core-charges read in
  partial kinetic energy density read in
  atomic valenz-charges read in
  non local Contribution for L=           2  read in
    real space projection operators read in
  non local Contribution for L=           2  read in
    real space projection operators read in
  non local Contribution for L=           0  read in
    real space projection operators read in
  non local Contribution for L=           0  read in
    real space projection operators read in
  non local Contribution for L=           1  read in
    real space projection operators read in
  non local Contribution for L=           1  read in
    real space projection operators read in
    PAW grid and wavefunctions read in
 
   number of l-projection  operators is LMAX  =           6
   number of lm-projection operators is LMMAX =          18
 
  PAW_PBE Fe 06Sep2000                  :
 energy of atom  1       EATOM= -594.3153
 kinetic energy error for atom=    0.0345 (will be added to EATOM!!)
 
 
 POSCAR: Fe(001)-5layers                         
  positions in direct lattice
  No initial velocities read in
 exchange correlation table for  LEXCH =        8
   RHO(1)=    0.500       N(1)  =     2000
   RHO(2)=  100.500       N(2)  =     4000
 


--------------------------------------------------------------------------------------------------------


 ion  position               nearest neighbor table
   1  0.000  0.000  0.181-   2 2.46   2 2.46   2 2.46   2 2.46   3 2.84
   2  0.500  0.500  0.091-   1 2.46   3 2.46   1 2.46   3 2.46   1 2.46   3 2.46   1 2.46   3 2.46
                             4 2.84
   3  0.000  0.000  0.000-   2 2.46   4 2.46   2 2.46   4 2.46   2 2.46   4 2.46   2 2.46   4 2.46
                             1 2.84   5 2.84
   4  0.500  0.500  0.909-   3 2.46   5 2.46   3 2.46   5 2.46   3 2.46   5 2.46   3 2.46   5 2.46
                             2 2.84
   5  0.000  0.000  0.819-   4 2.46   4 2.46   4 2.46   4 2.46   3 2.84
 
  LATTYP: Found a simple tetragonal cell.
 ALAT       =     2.8400000000
 C/A-ratio  =     5.5211267606
  
  Lattice vectors:
  
 A1 = (   2.8400000000,   0.0000000000,   0.0000000000)
 A2 = (   0.0000000000,   2.8400000000,   0.0000000000)
 A3 = (   0.0000000000,   0.0000000000,  15.6800000000)


Analysis of symmetry for initial positions (statically):
=====================================================================
 Subroutine PRICEL returns:
 Original cell was already a primitive cell.
 

 Routine SETGRP: Setting up the symmetry group for a 
 simple tetragonal supercell.


 Subroutine GETGRP returns: Found 16 space group operations
 (whereof 16 operations were pure point group operations)
 out of a pool of 16 trial point group operations.


The static configuration has the point symmetry D_4h.


Analysis of symmetry for dynamics (positions and initial velocities):
=====================================================================
 Subroutine PRICEL returns:
 Original cell was already a primitive cell.
 

 Routine SETGRP: Setting up the symmetry group for a 
 simple tetragonal supercell.


 Subroutine GETGRP returns: Found 16 space group operations
 (whereof 16 operations were pure point group operations)
 out of a pool of 16 trial point group operations.


The dynamic configuration has the point symmetry D_4h.


Analysis of structural, dynamic, and magnetic symmetry:
=====================================================================
 Subroutine PRICEL returns:
 Original cell was already a primitive cell.
 

 Routine SETGRP: Setting up the symmetry group for a 
 simple tetragonal supercell.


 Subroutine GETGRP returns: Found 16 space group operations
 (whereof 16 operations were pure point group operations)
 out of a pool of 16 trial point group operations.


The magnetic configuration has the point symmetry D_4h.


 Subroutine INISYM returns: Found 16 space group operations
 (whereof 16 operations are pure point group operations),
 and found     1 'primitive' translations

 
 
 KPOINTS: 10x10x10                                

Automatic generation of k-mesh.
Space group operators:
 irot       det(A)        alpha          n_x          n_y          n_z        tau_x        tau_y        tau_z
    1     1.000000     0.000001     1.000000     0.000000     0.000000     0.000000     0.000000     0.000000
    2    -1.000000     0.000001     1.000000     0.000000     0.000000     0.000000     0.000000     0.000000
    3     1.000000    90.000000     0.000000     0.000000    -1.000000     0.000000     0.000000     0.000000
    4    -1.000000    90.000000     0.000000     0.000000    -1.000000     0.000000     0.000000     0.000000
    5     1.000000   180.000000     0.000000     0.000000     1.000000     0.000000     0.000000     0.000000
    6    -1.000000   180.000000     0.000000     0.000000     1.000000     0.000000     0.000000     0.000000
    7     1.000000    90.000000     0.000000     0.000000     1.000000     0.000000     0.000000     0.000000
    8    -1.000000    90.000000     0.000000     0.000000     1.000000     0.000000     0.000000     0.000000
    9     1.000000   180.000000     0.000000     1.000000     0.000000     0.000000     0.000000     0.000000
   10    -1.000000   180.000000     0.000000     1.000000     0.000000     0.000000     0.000000     0.000000
   11     1.000000   180.000000     0.707107     0.707107     0.000000     0.000000     0.000000     0.000000
   12    -1.000000   180.000000     0.707107     0.707107     0.000000     0.000000     0.000000     0.000000
   13     1.000000   180.000000     1.000000     0.000000     0.000000     0.000000     0.000000     0.000000
   14    -1.000000   180.000000     1.000000     0.000000     0.000000     0.000000     0.000000     0.000000
   15     1.000000   180.000000     0.707107    -0.707107     0.000000     0.000000     0.000000     0.000000
   16    -1.000000   180.000000     0.707107    -0.707107     0.000000     0.000000     0.000000     0.000000
 
 Subroutine IBZKPT returns following result:
 ===========================================
 
 Found     15 irreducible k-points:
 
 Following reciprocal coordinates:
            Coordinates               Weight
  0.050000  0.050000  0.000000      4.000000
  0.150000  0.050000  0.000000      8.000000
  0.250000  0.050000  0.000000      8.000000
  0.350000  0.050000  0.000000      8.000000
  0.450000  0.050000  0.000000      8.000000
  0.150000  0.150000  0.000000      4.000000
  0.250000  0.150000  0.000000      8.000000
  0.350000  0.150000  0.000000      8.000000
  0.450000  0.150000  0.000000      8.000000
  0.250000  0.250000  0.000000      4.000000
  0.350000  0.250000  0.000000      8.000000
  0.450000  0.250000  0.000000      8.000000
  0.350000  0.350000  0.000000      4.000000
  0.450000  0.350000  0.000000      8.000000
  0.450000  0.450000  0.000000      4.000000
 
 Following cartesian coordinates:
            Coordinates               Weight
  0.050000  0.050000  0.000000      4.000000
  0.150000  0.050000  0.000000      8.000000
  0.250000  0.050000  0.000000      8.000000
  0.350000  0.050000  0.000000      8.000000
  0.450000  0.050000  0.000000      8.000000
  0.150000  0.150000  0.000000      4.000000
  0.250000  0.150000  0.000000      8.000000
  0.350000  0.150000  0.000000      8.000000
  0.450000  0.150000  0.000000      8.000000
  0.250000  0.250000  0.000000      4.000000
  0.350000  0.250000  0.000000      8.000000
  0.450000  0.250000  0.000000      8.000000
  0.350000  0.350000  0.000000      4.000000
  0.450000  0.350000  0.000000      8.000000
  0.450000  0.450000  0.000000      4.000000
 


--------------------------------------------------------------------------------------------------------




 Dimension of arrays:
   k-points           NKPTS =     15   k-points in BZ     NKDIM =     15   number of bands    NBANDS=     32
   number of dos      NEDOS =    301   number of ions     NIONS =      5
   non local maximal  LDIM  =      6   non local SUM 2l+1 LMDIM =     18
   total plane-waves  NPLWV =   9216
   max r-space proj   IRMAX =      1   max aug-charges    IRDMAX=   2795
   dimension x,y,z NGX =    12 NGY =   12 NGZ =   64
   dimension x,y,z NGXF=    24 NGYF=   24 NGZF=  128
   support grid    NGXF=    24 NGYF=   24 NGZF=  128
   ions per type =               5
   NGX,Y,Z   is equivalent  to a cutoff of   7.02,  7.02,  6.79 a.u.
   NGXF,Y,Z  is equivalent  to a cutoff of  14.05, 14.05, 13.57 a.u.

 SYSTEM =  BCC Fe                                  
 POSCAR =  Fe(001)-5layers                         

 Startparameter for this run:
   NWRITE =      2    write-flag & timer
   PREC   = normal    normal or accurate (medium, high low for compatibility)
   ISTART =      0    job   : 0-new  1-cont  2-samecut
   ICHARG =      2    charge: 1-file 2-atom 10-const
   ISPIN  =      2    spin polarized calculation?
   LNONCOLLINEAR =      F non collinear calculations
   LSORBIT =      F    spin-orbit coupling
   INIWAV =      1    electr: 0-lowe 1-rand  2-diag
   LASPH  =      F    aspherical Exc in radial PAW
   METAGGA=      F    non-selfconsistent MetaGGA calc.

 Electronic Relaxation 1
   ENCUT  =  268.0 eV  19.70 Ry    4.44 a.u.   3.79  3.79 20.93*2*pi/ulx,y,z
   ENINI  =  268.0     initial cutoff
   ENAUG  =  511.4 eV  augmentation charge cutoff
   NELM   =     60;   NELMIN=  2; NELMDL= -5     # of ELM steps 
   EDIFF  = 0.1E-03   stopping-criterion for ELM
   LREAL  =      F    real-space projection
   NLSPLINE    = F    spline interpolate recip. space projectors
   LCOMPAT=      F    compatible to vasp.4.4
   GGA_COMPAT  = T    GGA compatible to vasp.4.4-vasp.4.6
   LMAXPAW     = -100 max onsite density
   LMAXMIX     =    2 max onsite mixed and CHGCAR
   VOSKOWN=      0    Vosko Wilk Nusair interpolation
   ROPT   =    0.00000
 Ionic relaxation
   EDIFFG = -.1E-01   stopping-criterion for IOM
   NSW    =     50    number of steps for IOM
   NBLOCK =      1;   KBLOCK =     50    inner block; outer block 
   IBRION =      2    ionic relax: 0-MD 1-quasi-New 2-CG
   NFREE  =      1    steps in history (QN), initial steepest desc. (CG)
   ISIF   =      2    stress and relaxation
   IWAVPR =     11    prediction:  0-non 1-charg 2-wave 3-comb
   ISYM   =      2    0-nonsym 1-usesym 2-fastsym
   LCORR  =      T    Harris-Foulkes like correction to forces

   POTIM  = 0.5000    time-step for ionic-motion
   TEIN   =    0.0    initial temperature
   TEBEG  =    0.0;   TEEND  =   0.0 temperature during run
   SMASS  =  -3.00    Nose mass-parameter (am)
   estimated Nose-frequenzy (Omega)   =  0.10E-29 period in steps =****** mass=  -0.184E-27a.u.
   SCALEE = 1.0000    scale energy and forces
   NPACO  =    256;   APACO  = 16.0  distance and # of slots for P.C.
   PSTRESS=    0.0 pullay stress

  Mass of Ions in am
   POMASS =  55.85
  Ionic Valenz
   ZVAL   =   8.00
  Atomic Wigner-Seitz radii
   RWIGS  =   1.30
  virtual crystal weights 
   VCA    =   1.00
   NELECT =      40.0000    total number of electrons
   NUPDOWN=      -1.0000    fix difference up-down

 DOS related values:
   EMIN   =  10.00;   EMAX   =-10.00  energy-range for DOS
   EFERMI =   0.00
   ISMEAR =     1;   SIGMA  =   0.20  broadening in eV -4-tet -1-fermi 0-gaus

 Electronic relaxation 2 (details)
   IALGO  =     38    algorithm
   LDIAG  =      T    sub-space diagonalisation (order eigenvalues)
   LSUBROT=      F    optimize rotation matrix (better conditioning)
   TURBO    =      0    0=normal 1=particle mesh
   IRESTART =      0    0=no restart 2=restart with 2 vectors
   NREBOOT  =      0    no. of reboots
   NMIN     =      0    reboot dimension
   EREF     =   0.00    reference energy to select bands
   IMIX   =      4    mixing-type and parameters
     AMIX     =   0.40;   BMIX     =  1.00
     AMIX_MAG =   1.60;   BMIX_MAG =  1.00
     AMIN     =   0.10
     WC   =   100.;   INIMIX=   1;  MIXPRE=   1;  MAXMIX= -45

 Intra band minimization:
   WEIMIN = 0.0010     energy-eigenvalue tresh-hold
   EBREAK =  0.78E-06  absolut break condition
   DEPER  =   0.30     relativ break condition  

   TIME   =   0.40     timestep for ELM

  volume/ion in A,a.u.               =      25.29       170.69
  Fermi-wavevector in a.u.,A,eV,Ry     =   1.115408  2.107816 16.927497  1.244136
  Thomas-Fermi vector in A             =   2.252013
 
 Write flags
   LWAVE        =      T    write WAVECAR
   LDOWNSAMPLE  =      F    k-point downsampling of WAVECAR
   LCHARG       =      T    write CHGCAR
   LVTOT        =      F    write LOCPOT, total local potential
   LVHAR        =      T    write LOCPOT, Hartree potential only
   LELF         =      F    write electronic localiz. function (ELF)
   LORBIT       =      0    0 simple, 1 ext, 2 COOP (PROOUT), +10 PAW based schemes


 Dipole corrections
   LMONO  =      F    monopole corrections only (constant potential shift)
   LDIPOL =      F    correct potential (dipole corrections)
   IDIPOL =      0    1-x, 2-y, 3-z, 4-all directions 
   EPSILON=  1.0000000 bulk dielectric constant

 Exchange correlation treatment:
   GGA     =    --    GGA type
   LEXCH   =     8    internal setting for exchange type
   VOSKOWN=      0    Vosko Wilk Nusair interpolation
   LHFCALC =     F    Hartree Fock is set to
   LHFONE  =     F    Hartree Fock one center treatment
   AEXX    =    0.0000 exact exchange contribution

 Linear response parameters
   LEPSILON=     F    determine dielectric tensor
   LRPA    =     F    only Hartree local field effects (RPA)
   LNABLA  =     F    use nabla operator in PAW spheres
   LVEL    =     F    velocity operator in full k-point grid
   LINTERFAST=   F  fast interpolation
   KINTER  =     0    interpolate to denser k-point grid
   CSHIFT  =0.1000    complex shift for real part using Kramers Kronig
   OMEGAMAX=  -1.0    maximum frequency
   DEG_THRESHOLD= 0.2000000E-02 threshold for treating states as degnerate
   RTIME   =   -0.100 relaxation time in fs
  (WPLASMAI=    0.000 imaginary part of plasma frequency in eV, 0.658/RTIME)
   DFIELD  = 0.0000000 0.0000000 0.0000000 field for delta impulse in time
 
 Orbital magnetization related:
   ORBITALMAG=     F  switch on orbital magnetization
   LCHIMAG   =     F  perturbation theory with respect to B field
   DQ        =  0.001000  dq finite difference perturbation B field
   LLRAUG    =     F  two centre corrections for induced B field



--------------------------------------------------------------------------------------------------------


 conjugate gradient relaxation of ions
 charge density and potential will be updated during run
 spin polarized calculation
 Variant of blocked Davidson
 Davidson routine will perform the subspace rotation
 perform sub-space diagonalisation
    after iterative eigenvector-optimisation
 modified Broyden-mixing scheme, WC =      100.0
 initial mixing is a Kerker type mixing with AMIX =  0.4000 and BMIX =      1.0000
 Hartree-type preconditioning will be used
 using additional bands           12
 reciprocal scheme for non local part
 use partial core corrections
 calculate Harris-corrections to forces 
   (improved forces if not selfconsistent)
 use gradient corrections 
 use of overlap-Matrix (Vanderbilt PP)
 Methfessel and Paxton  Order N= 1 SIGMA  =   0.20


--------------------------------------------------------------------------------------------------------


  energy-cutoff  :      268.00
  volume of cell :      126.47
      direct lattice vectors                 reciprocal lattice vectors
     2.840000000  0.000000000  0.000000000     0.352112676  0.000000000  0.000000000
     0.000000000  2.840000000  0.000000000     0.000000000  0.352112676  0.000000000
     0.000000000  0.000000000 15.680000000     0.000000000  0.000000000  0.063775510

  length of vectors
     2.840000000  2.840000000 15.680000000     0.352112676  0.352112676  0.063775510


 
 k-points in units of 2pi/SCALE and weight: 10x10x10                                
   0.05000000  0.05000000  0.00000000       0.040
   0.15000000  0.05000000  0.00000000       0.080
   0.25000000  0.05000000  0.00000000       0.080
   0.35000000  0.05000000  0.00000000       0.080
   0.45000000  0.05000000  0.00000000       0.080
   0.15000000  0.15000000  0.00000000       0.040
   0.25000000  0.15000000  0.00000000       0.080
   0.35000000  0.15000000  0.00000000       0.080
   0.45000000  0.15000000  0.00000000       0.080
   0.25000000  0.25000000  0.00000000       0.040
   0.35000000  0.25000000  0.00000000       0.080
   0.45000000  0.25000000  0.00000000       0.080
   0.35000000  0.35000000  0.00000000       0.040
   0.45000000  0.35000000  0.00000000       0.080
   0.45000000  0.45000000  0.00000000       0.040
 
 k-points in reciprocal lattice and weights: 10x10x10                                
   0.05000000  0.05000000  0.00000000       0.040
   0.15000000  0.05000000  0.00000000       0.080
   0.25000000  0.05000000  0.00000000       0.080
   0.35000000  0.05000000  0.00000000       0.080
   0.45000000  0.05000000  0.00000000       0.080
   0.15000000  0.15000000  0.00000000       0.040
   0.25000000  0.15000000  0.00000000       0.080
   0.35000000  0.15000000  0.00000000       0.080
   0.45000000  0.15000000  0.00000000       0.080
   0.25000000  0.25000000  0.00000000       0.040
   0.35000000  0.25000000  0.00000000       0.080
   0.45000000  0.25000000  0.00000000       0.080
   0.35000000  0.35000000  0.00000000       0.040
   0.45000000  0.35000000  0.00000000       0.080
   0.45000000  0.45000000  0.00000000       0.040
 
 position of ions in fractional coordinates (direct lattice) 
   0.00000000  0.00000000  0.18112245
   0.50000000  0.50000000  0.09056122
   0.00000000  0.00000000  0.00000000
   0.50000000  0.50000000  0.90943878
   0.00000000  0.00000000  0.81887755
 
 position of ions in cartesian coordinates  (Angst):
   0.00000000  0.00000000  2.84000000
   1.42000000  1.42000000  1.42000000
   0.00000000  0.00000000  0.00000000
   1.42000000  1.42000000 14.26000000
   0.00000000  0.00000000 12.84000000
 


--------------------------------------------------------------------------------------------------------


 k-point  1 :   0.0500 0.0500 0.0000  plane waves:    1271
 k-point  2 :   0.1500 0.0500 0.0000  plane waves:    1265
 k-point  3 :   0.2500 0.0500 0.0000  plane waves:    1249
 k-point  4 :   0.3500 0.0500 0.0000  plane waves:    1246
 k-point  5 :   0.4500 0.0500 0.0000  plane waves:    1260
 k-point  6 :   0.1500 0.1500 0.0000  plane waves:    1251
 k-point  7 :   0.2500 0.1500 0.0000  plane waves:    1246
 k-point  8 :   0.3500 0.1500 0.0000  plane waves:    1250
 k-point  9 :   0.4500 0.1500 0.0000  plane waves:    1261
 k-point 10 :   0.2500 0.2500 0.0000  plane waves:    1253
 k-point 11 :   0.3500 0.2500 0.0000  plane waves:    1260
 k-point 12 :   0.4500 0.2500 0.0000  plane waves:    1268
 k-point 13 :   0.3500 0.3500 0.0000  plane waves:    1278
 k-point 14 :   0.4500 0.3500 0.0000  plane waves:    1279
 k-point 15 :   0.4500 0.4500 0.0000  plane waves:    1268

 maximum and minimum number of plane-waves per node :       325      305

 maximum number of plane-waves:      1279
 maximum index in each direction: 
   IXMAX=    3   IYMAX=    3   IZMAX=   20
   IXMIN=   -4   IYMIN=   -4   IZMIN=  -20


 parallel 3D FFT for wavefunctions:
    minimum data exchange during FFTs selected (reduces bandwidth)
 parallel 3D FFT for charge:
    minimum data exchange during FFTs selected (reduces bandwidth)


 total amount of memory used by VASP MPI-rank0    40148. kBytes
=======================================================================

   base      :      30000. kBytes
   nonl-proj :        728. kBytes
   fftplans  :       1308. kBytes
   grid      :       2506. kBytes
   one-center:         62. kBytes
   wavefun   :       5544. kBytes
 
     INWAV:  cpu time    0.0000: real time    0.0002
 Broyden mixing: mesh for mixing (old mesh)
   NGX =  7   NGY =  7   NGZ = 41
  (NGX  = 24   NGY  = 24   NGZ  =128)
  gives a total of   2009 points

 initial charge density was supplied:
 charge density of overlapping atoms calculated
 number of electron      40.0000000 magnetization      15.0000000
 keeping initial charge density in first step


--------------------------------------------------------------------------------------------------------


 Maximum index for augmentation-charges          625 (set IRDMAX)


--------------------------------------------------------------------------------------------------------


 First call to EWALD:  gamma=   0.353
 Maximum number of real-space cells 4x 4x 1
 Maximum number of reciprocal cells 2x 2x 8

    FEWALD:  cpu time    0.0010: real time    0.0016


--------------------------------------- Iteration      1(   1)  ---------------------------------------


    POTLOK:  cpu time    0.0191: real time    0.0657
    SETDIJ:  cpu time    0.0063: real time    0.0063
     EDDAV:  cpu time    0.3013: real time    0.3121
       DOS:  cpu time    0.0031: real time    0.0054
    --------------------------------------------
      LOOP:  cpu time    0.3298: real time    0.3895

 eigenvalue-minimisations  :  1920
 total energy-change (2. order) : 0.2189929E+03  (-0.1190727E+04)
 number of electron      40.0000000 magnetization      15.0000000
 augmentation part       40.0000000 magnetization      15.0000000

 Free energy of the ion-electron system (eV)
  ---------------------------------------------------
  alpha Z        PSCENC =       136.62239407
  Ewald energy   TEWEN  =      4342.41756916
  -Hartree energ DENC   =     -7413.09194436
  -exchange      EXHF   =         0.00000000
  -V(xc)+E(xc)   XCENC  =        23.16267033
  PAW double counting   =      2768.79633427    -2807.42643554
  entropy T*S    EENTRO =         0.00218064
  eigenvalues    EBANDS =       197.10586534
  atomic energy  EATOM  =      2971.40422482
  Solvation  Ediel_sol  =         0.00000000
  ---------------------------------------------------
  free energy    TOTEN  =       218.99285873 eV

  energy without entropy =      218.99067809  energy(sigma->0) =      218.99213185


--------------------------------------------------------------------------------------------------------




--------------------------------------- Iteration      1(   2)  ---------------------------------------


     EDDAV:  cpu time    0.3012: real time    0.3030
       DOS:  cpu time    0.0034: real time    0.0034
    --------------------------------------------
      LOOP:  cpu time    0.3046: real time    0.3064

 eigenvalue-minimisations  :  1944
 total energy-change (2. order) :-0.2501328E+03  (-0.2299378E+03)
 number of electron      40.0000000 magnetization      15.0000000
 augmentation part       40.0000000 magnetization      15.0000000

 Free energy of the ion-electron system (eV)
  ---------------------------------------------------
  alpha Z        PSCENC =       136.62239407
  Ewald energy   TEWEN  =      4342.41756916
  -Hartree energ DENC   =     -7413.09194436
  -exchange      EXHF   =         0.00000000
  -V(xc)+E(xc)   XCENC  =        23.16267033
  PAW double counting   =      2768.79633427    -2807.42643554
  entropy T*S    EENTRO =         0.00174319
  eigenvalues    EBANDS =       -53.02650909
  atomic energy  EATOM  =      2971.40422482
  Solvation  Ediel_sol  =         0.00000000
  ---------------------------------------------------
  free energy    TOTEN  =       -31.13995315 eV

  energy without entropy =      -31.14169634  energy(sigma->0) =      -31.14053422


--------------------------------------------------------------------------------------------------------




--------------------------------------- Iteration      1(   3)  ---------------------------------------


     EDDAV:  cpu time    0.3319: real time    0.3338
       DOS:  cpu time    0.0034: real time    0.0034
    --------------------------------------------
      LOOP:  cpu time    0.3352: real time    0.3371

 eigenvalue-minimisations  :  2216
 total energy-change (2. order) :-0.1227546E+02  (-0.1156600E+02)
 number of electron      40.0000000 magnetization      15.0000000
 augmentation part       40.0000000 magnetization      15.0000000

 Free energy of the ion-electron system (eV)
  ---------------------------------------------------
  alpha Z        PSCENC =       136.62239407
  Ewald energy   TEWEN  =      4342.41756916
  -Hartree energ DENC   =     -7413.09194436
  -exchange      EXHF   =         0.00000000
  -V(xc)+E(xc)   XCENC  =        23.16267033
  PAW double counting   =      2768.79633427    -2807.42643554
  entropy T*S    EENTRO =         0.00906253
  eigenvalues    EBANDS =       -65.30928745
  atomic energy  EATOM  =      2971.40422482
  Solvation  Ediel_sol  =         0.00000000
  ---------------------------------------------------
  free energy    TOTEN  =       -43.41541216 eV

  energy without entropy =      -43.42447470  energy(sigma->0) =      -43.41843301


--------------------------------------------------------------------------------------------------------




--------------------------------------- Iteration      1(   4)  ---------------------------------------


     EDDAV:  cpu time    0.3071: real time    0.3087
       DOS:  cpu time    0.0035: real time    0.0035
    --------------------------------------------
      LOOP:  cpu time    0.3106: real time    0.3122

 eigenvalue-minimisations  :  2008
 total energy-change (2. order) :-0.2061227E+00  (-0.2055698E+00)
 number of electron      40.0000000 magnetization      15.0000000
 augmentation part       40.0000000 magnetization      15.0000000

 Free energy of the ion-electron system (eV)
  ---------------------------------------------------
  alpha Z        PSCENC =       136.62239407
  Ewald energy   TEWEN  =      4342.41756916
  -Hartree energ DENC   =     -7413.09194436
  -exchange      EXHF   =         0.00000000
  -V(xc)+E(xc)   XCENC  =        23.16267033
  PAW double counting   =      2768.79633427    -2807.42643554
  entropy T*S    EENTRO =         0.00956301
  eigenvalues    EBANDS =       -65.51591057
  atomic energy  EATOM  =      2971.40422482
  Solvation  Ediel_sol  =         0.00000000
  ---------------------------------------------------
  free energy    TOTEN  =       -43.62153482 eV

  energy without entropy =      -43.63109782  energy(sigma->0) =      -43.62472249


--------------------------------------------------------------------------------------------------------




--------------------------------------- Iteration      1(   5)  ---------------------------------------


     EDDAV:  cpu time    0.3502: real time    0.3525
       DOS:  cpu time    0.0035: real time    0.0035
    CHARGE:  cpu time    0.0270: real time    0.0270
    MIXING:  cpu time    0.0007: real time    0.0007
    --------------------------------------------
      LOOP:  cpu time    0.3814: real time    0.3838

 eigenvalue-minimisations  :  2352
 total energy-change (2. order) :-0.2400150E-02  (-0.2400059E-02)
 number of electron      39.9999962 magnetization      14.6476707
 augmentation part       18.6432212 magnetization      10.4422881

 Broyden mixing:
  rms(total) = 0.25202E+01    rms(broyden)= 0.25173E+01
  rms(prec ) = 0.28475E+01
  weight for this iteration     100.00

 Free energy of the ion-electron system (eV)
  ---------------------------------------------------
  alpha Z        PSCENC =       136.62239407
  Ewald energy   TEWEN  =      4342.41756916
  -Hartree energ DENC   =     -7413.09194436
  -exchange      EXHF   =         0.00000000
  -V(xc)+E(xc)   XCENC  =        23.16267033
  PAW double counting   =      2768.79633427    -2807.42643554
  entropy T*S    EENTRO =         0.00956012
  eigenvalues    EBANDS =       -65.51830783
  atomic energy  EATOM  =      2971.40422482
  Solvation  Ediel_sol  =         0.00000000
  ---------------------------------------------------
  free energy    TOTEN  =       -43.62393497 eV

  energy without entropy =      -43.63349508  energy(sigma->0) =      -43.62712167


--------------------------------------------------------------------------------------------------------




--------------------------------------- Iteration      1(   6)  ---------------------------------------


    POTLOK:  cpu time    0.0176: real time    0.0178
    SETDIJ:  cpu time    0.0062: real time    0.0062
     EDDAV:  cpu time    0.4110: real time    0.4127
       DOS:  cpu time    0.0037: real time    0.0037
    CHARGE:  cpu time    0.0258: real time    0.0258
    MIXING:  cpu time    0.0009: real time    0.0010
    --------------------------------------------
      LOOP:  cpu time    0.4651: real time    0.4672

 eigenvalue-minimisations  :  2896
 total energy-change (2. order) :-0.2377903E+02  (-0.1061159E+02)
 number of electron      39.9999947 magnetization      14.3135634
 augmentation part       20.7333128 magnetization      12.0998818

 Broyden mixing:
  rms(total) = 0.68229E+01    rms(broyden)= 0.68216E+01
  rms(prec ) = 0.82249E+01
  weight for this iteration     100.00

 eigenvalues of (default mixing * dielectric matrix)
  average eigenvalue GAMMA=   0.1959
  0.1959

 Free energy of the ion-electron system (eV)
  ---------------------------------------------------
  alpha Z        PSCENC =       136.62239407
  Ewald energy   TEWEN  =      4342.41756916
  -Hartree energ DENC   =     -7389.33414821
  -exchange      EXHF   =         0.00000000
  -V(xc)+E(xc)   XCENC  =        21.91852677
  PAW double counting   =      2990.95133368    -3021.68690505
  entropy T*S    EENTRO =         0.01602651
  eigenvalues    EBANDS =      -119.71198314
  atomic energy  EATOM  =      2971.40422482
  Solvation  Ediel_sol  =         0.00000000
  ---------------------------------------------------
  free energy    TOTEN  =       -67.40296139 eV

  energy without entropy =      -67.41898790  energy(sigma->0) =      -67.40830356


--------------------------------------------------------------------------------------------------------




--------------------------------------- Iteration      1(   7)  ---------------------------------------


    POTLOK:  cpu time    0.0167: real time    0.0168
    SETDIJ:  cpu time    0.0061: real time    0.0061
     EDDAV:  cpu time    0.3695: real time    0.3712
       DOS:  cpu time    0.0036: real time    0.0036
    CHARGE:  cpu time    0.0258: real time    0.0259
    MIXING:  cpu time    0.0007: real time    0.0007
    --------------------------------------------
      LOOP:  cpu time    0.4225: real time    0.4244

 eigenvalue-minimisations  :  2552
 total energy-change (2. order) : 0.2851411E+02  (-0.3888102E+01)
 number of electron      39.9999962 magnetization      14.0285380
 augmentation part       21.7380359 magnetization      10.3818805

 Broyden mixing:
  rms(total) = 0.17391E+01    rms(broyden)= 0.17356E+01
  rms(prec ) = 0.20816E+01
  weight for this iteration     100.00

 eigenvalues of (default mixing * dielectric matrix)
  average eigenvalue GAMMA=   0.4181
  0.6839  0.1522

 Free energy of the ion-electron system (eV)
  ---------------------------------------------------
  alpha Z        PSCENC =       136.62239407
  Ewald energy   TEWEN  =      4342.41756916
  -Hartree energ DENC   =     -7358.06946919
  -exchange      EXHF   =         0.00000000
  -V(xc)+E(xc)   XCENC  =        20.04984528
  PAW double counting   =      3034.85328975    -3066.85597998
  entropy T*S    EENTRO =         0.00845114
  eigenvalues    EBANDS =      -119.31918062
  atomic energy  EATOM  =      2971.40422482
  Solvation  Ediel_sol  =         0.00000000
  ---------------------------------------------------
  free energy    TOTEN  =       -38.88885557 eV

  energy without entropy =      -38.89730671  energy(sigma->0) =      -38.89167261


--------------------------------------------------------------------------------------------------------




--------------------------------------- Iteration      1(   8)  ---------------------------------------


    POTLOK:  cpu time    0.0169: real time    0.0171
    SETDIJ:  cpu time    0.0062: real time    0.0062
     EDDAV:  cpu time    0.3761: real time    0.3777
       DOS:  cpu time    0.0038: real time    0.0038
    CHARGE:  cpu time    0.0272: real time    0.0272
    MIXING:  cpu time    0.0007: real time    0.0007
    --------------------------------------------
      LOOP:  cpu time    0.4308: real time    0.4327

 eigenvalue-minimisations  :  2576
 total energy-change (2. order) :-0.1834483E+01  (-0.1647349E+01)
 number of electron      39.9999938 magnetization      13.8264820
 augmentation part       20.7927683 magnetization      10.9532477

 Broyden mixing:
  rms(total) = 0.25331E+01    rms(broyden)= 0.25320E+01
  rms(prec ) = 0.30267E+01
  weight for this iteration     100.00

 eigenvalues of (default mixing * dielectric matrix)
  average eigenvalue GAMMA=   0.4769
  1.0030  0.1554  0.2721

 Free energy of the ion-electron system (eV)
  ---------------------------------------------------
  alpha Z        PSCENC =       136.62239407
  Ewald energy   TEWEN  =      4342.41756916
  -Hartree energ DENC   =     -7390.60443958
  -exchange      EXHF   =         0.00000000
  -V(xc)+E(xc)   XCENC  =        21.47275000
  PAW double counting   =      3193.00657742    -3232.42870308
  entropy T*S    EENTRO =         0.00346249
  eigenvalues    EBANDS =       -82.61717406
  atomic energy  EATOM  =      2971.40422482
  Solvation  Ediel_sol  =         0.00000000
  ---------------------------------------------------
  free energy    TOTEN  =       -40.72333875 eV

  energy without entropy =      -40.72680125  energy(sigma->0) =      -40.72449292


--------------------------------------------------------------------------------------------------------




--------------------------------------- Iteration      1(   9)  ---------------------------------------


    POTLOK:  cpu time    0.0170: real time    0.0171
    SETDIJ:  cpu time    0.0061: real time    0.0061
     EDDAV:  cpu time    0.3553: real time    0.3570
       DOS:  cpu time    0.0037: real time    0.0037
    CHARGE:  cpu time    0.0267: real time    0.0268
    MIXING:  cpu time    0.0008: real time    0.0008
    --------------------------------------------
      LOOP:  cpu time    0.4096: real time    0.4115

 eigenvalue-minimisations  :  2416
 total energy-change (2. order) : 0.1513862E+01  (-0.1334555E+01)
 number of electron      39.9999948 magnetization      13.5731187
 augmentation part       20.7800601 magnetization      10.1441451

 Broyden mixing:
  rms(total) = 0.16388E+01    rms(broyden)= 0.16373E+01
  rms(prec ) = 0.19007E+01
  weight for this iteration     100.00

 eigenvalues of (default mixing * dielectric matrix)
  average eigenvalue GAMMA=   0.4754
  1.0586  0.5488  0.1679  0.1263

 Free energy of the ion-electron system (eV)
  ---------------------------------------------------
  alpha Z        PSCENC =       136.62239407
  Ewald energy   TEWEN  =      4342.41756916
  -Hartree energ DENC   =     -7393.08719949
  -exchange      EXHF   =         0.00000000
  -V(xc)+E(xc)   XCENC  =        21.64240289
  PAW double counting   =      3245.81354515    -3287.20609256
  entropy T*S    EENTRO =        -0.01064421
  eigenvalues    EBANDS =       -76.80567667
  atomic energy  EATOM  =      2971.40422482
  Solvation  Ediel_sol  =         0.00000000
  ---------------------------------------------------
  free energy    TOTEN  =       -39.20947683 eV

  energy without entropy =      -39.19883262  energy(sigma->0) =      -39.20592876


--------------------------------------------------------------------------------------------------------




--------------------------------------- Iteration      1(  10)  ---------------------------------------


    POTLOK:  cpu time    0.0173: real time    0.0176
    SETDIJ:  cpu time    0.0063: real time    0.0063
     EDDAV:  cpu time    0.3540: real time    0.3556
       DOS:  cpu time    0.0036: real time    0.0036
    CHARGE:  cpu time    0.0273: real time    0.0274
    MIXING:  cpu time    0.0009: real time    0.0009
    --------------------------------------------
      LOOP:  cpu time    0.4095: real time    0.4113

 eigenvalue-minimisations  :  2400
 total energy-change (2. order) : 0.1160188E+01  (-0.2370263E+00)
 number of electron      39.9999956 magnetization      13.4605632
 augmentation part       20.7429795 magnetization      10.0961492

 Broyden mixing:
  rms(total) = 0.60814E+00    rms(broyden)= 0.60774E+00
  rms(prec ) = 0.71223E+00
  weight for this iteration     100.00

 eigenvalues of (default mixing * dielectric matrix)
  average eigenvalue GAMMA=   0.5212
  1.2635  0.5198  0.5198  0.1684  0.1344

 Free energy of the ion-electron system (eV)
  ---------------------------------------------------
  alpha Z        PSCENC =       136.62239407
  Ewald energy   TEWEN  =      4342.41756916
  -Hartree energ DENC   =     -7392.93917103
  -exchange      EXHF   =         0.00000000
  -V(xc)+E(xc)   XCENC  =        21.57884227
  PAW double counting   =      3312.82751827    -3355.92157801
  entropy T*S    EENTRO =        -0.00066246
  eigenvalues    EBANDS =       -74.03842610
  atomic energy  EATOM  =      2971.40422482
  Solvation  Ediel_sol  =         0.00000000
  ---------------------------------------------------
  free energy    TOTEN  =       -38.04928900 eV

  energy without entropy =      -38.04862654  energy(sigma->0) =      -38.04906818


--------------------------------------------------------------------------------------------------------




--------------------------------------- Iteration      1(  11)  ---------------------------------------


    POTLOK:  cpu time    0.0173: real time    0.0174
    SETDIJ:  cpu time    0.0062: real time    0.0062
     EDDAV:  cpu time    0.3488: real time    0.3505
       DOS:  cpu time    0.0037: real time    0.0037
    CHARGE:  cpu time    0.0264: real time    0.0264
    MIXING:  cpu time    0.0009: real time    0.0009
    --------------------------------------------
      LOOP:  cpu time    0.4033: real time    0.4051

 eigenvalue-minimisations  :  2384
 total energy-change (2. order) :-0.1385024E+00  (-0.6065598E-01)
 number of electron      39.9999958 magnetization      13.3367591
 augmentation part       20.7550912 magnetization      10.1735792

 Broyden mixing:
  rms(total) = 0.34852E+00    rms(broyden)= 0.34830E+00
  rms(prec ) = 0.37584E+00
  weight for this iteration     100.00

 eigenvalues of (default mixing * dielectric matrix)
  average eigenvalue GAMMA=   0.7138
  1.6750  0.8499  0.8499  0.6062  0.1686  0.1332

 Free energy of the ion-electron system (eV)
  ---------------------------------------------------
  alpha Z        PSCENC =       136.62239407
  Ewald energy   TEWEN  =      4342.41756916
  -Hartree energ DENC   =     -7394.66047088
  -exchange      EXHF   =         0.00000000
  -V(xc)+E(xc)   XCENC  =        21.76443819
  PAW double counting   =      3356.40686400    -3400.29615662
  entropy T*S    EENTRO =        -0.00060671
  eigenvalues    EBANDS =       -71.84604746
  atomic energy  EATOM  =      2971.40422482
  Solvation  Ediel_sol  =         0.00000000
  ---------------------------------------------------
  free energy    TOTEN  =       -38.18779143 eV

  energy without entropy =      -38.18718472  energy(sigma->0) =      -38.18758920


--------------------------------------------------------------------------------------------------------




--------------------------------------- Iteration      1(  12)  ---------------------------------------


    POTLOK:  cpu time    0.0167: real time    0.0168
    SETDIJ:  cpu time    0.0062: real time    0.0062
     EDDAV:  cpu time    0.3395: real time    0.3411
       DOS:  cpu time    0.0036: real time    0.0036
    CHARGE:  cpu time    0.0259: real time    0.0259
    MIXING:  cpu time    0.0009: real time    0.0009
    --------------------------------------------
      LOOP:  cpu time    0.3928: real time    0.3945

 eigenvalue-minimisations  :  2296
 total energy-change (2. order) :-0.2516921E+00  (-0.2976973E-01)
 number of electron      39.9999960 magnetization      13.3261871
 augmentation part       20.8459274 magnetization      10.3003879

 Broyden mixing:
  rms(total) = 0.22248E+00    rms(broyden)= 0.22227E+00
  rms(prec ) = 0.23007E+00
  weight for this iteration     100.00

 eigenvalues of (default mixing * dielectric matrix)
  average eigenvalue GAMMA=   0.7448
  1.4754  1.1189  1.1189  0.5992  0.5992  0.1687  0.1332

 Free energy of the ion-electron system (eV)
  ---------------------------------------------------
  alpha Z        PSCENC =       136.62239407
  Ewald energy   TEWEN  =      4342.41756916
  -Hartree energ DENC   =     -7397.18270678
  -exchange      EXHF   =         0.00000000
  -V(xc)+E(xc)   XCENC  =        21.88030615
  PAW double counting   =      3411.29009075    -3455.88628022
  entropy T*S    EENTRO =         0.00009007
  eigenvalues    EBANDS =       -68.98517154
  atomic energy  EATOM  =      2971.40422482
  Solvation  Ediel_sol  =         0.00000000
  ---------------------------------------------------
  free energy    TOTEN  =       -38.43948353 eV

  energy without entropy =      -38.43957359  energy(sigma->0) =      -38.43951355


--------------------------------------------------------------------------------------------------------




--------------------------------------- Iteration      1(  13)  ---------------------------------------


    POTLOK:  cpu time    0.0167: real time    0.0169
    SETDIJ:  cpu time    0.0062: real time    0.0062
     EDDAV:  cpu time    0.3319: real time    0.3334
       DOS:  cpu time    0.0036: real time    0.0036
    CHARGE:  cpu time    0.0257: real time    0.0257
    MIXING:  cpu time    0.0010: real time    0.0010
    --------------------------------------------
      LOOP:  cpu time    0.3850: real time    0.3869

 eigenvalue-minimisations  :  2224
 total energy-change (2. order) :-0.1493197E+00  (-0.5579012E-02)
 number of electron      39.9999960 magnetization      13.2903841
 augmentation part       20.8541188 magnetization      10.2732298

 Broyden mixing:
  rms(total) = 0.18161E+00    rms(broyden)= 0.18149E+00
  rms(prec ) = 0.21445E+00
  weight for this iteration     100.00

 eigenvalues of (default mixing * dielectric matrix)
  average eigenvalue GAMMA=   0.8962
  2.4970  1.1576  1.1576  0.1687  0.1332  0.7439  0.7439  0.5676

 Free energy of the ion-electron system (eV)
  ---------------------------------------------------
  alpha Z        PSCENC =       136.62239407
  Ewald energy   TEWEN  =      4342.41756916
  -Hartree energ DENC   =     -7398.34702437
  -exchange      EXHF   =         0.00000000
  -V(xc)+E(xc)   XCENC  =        21.89148311
  PAW double counting   =      3427.88029119    -3472.75361361
  entropy T*S    EENTRO =         0.00033931
  eigenvalues    EBANDS =       -67.70446688
  atomic energy  EATOM  =      2971.40422482
  Solvation  Ediel_sol  =         0.00000000
  ---------------------------------------------------
  free energy    TOTEN  =       -38.58880320 eV

  energy without entropy =      -38.58914251  energy(sigma->0) =      -38.58891630


--------------------------------------------------------------------------------------------------------




--------------------------------------- Iteration      1(  14)  ---------------------------------------


    POTLOK:  cpu time    0.0168: real time    0.0169
    SETDIJ:  cpu time    0.0061: real time    0.0062
     EDDAV:  cpu time    0.3486: real time    0.3502
       DOS:  cpu time    0.0038: real time    0.0038
    CHARGE:  cpu time    0.0260: real time    0.0261
    MIXING:  cpu time    0.0011: real time    0.0011
    --------------------------------------------
      LOOP:  cpu time    0.4025: real time    0.4043

 eigenvalue-minimisations  :  2384
 total energy-change (2. order) :-0.1031012E+00  (-0.8943818E-02)
 number of electron      39.9999961 magnetization      13.3066744
 augmentation part       20.8721817 magnetization      10.3735861

 Broyden mixing:
  rms(total) = 0.73781E-01    rms(broyden)= 0.73503E-01
  rms(prec ) = 0.77641E-01
  weight for this iteration     100.00

 eigenvalues of (default mixing * dielectric matrix)
  average eigenvalue GAMMA=   0.8591
  2.4193  1.2152  1.2152  0.1687  0.1332  0.7365  0.7365  0.5538  0.5538

 Free energy of the ion-electron system (eV)
  ---------------------------------------------------
  alpha Z        PSCENC =       136.62239407
  Ewald energy   TEWEN  =      4342.41756916
  -Hartree energ DENC   =     -7400.48828659
  -exchange      EXHF   =         0.00000000
  -V(xc)+E(xc)   XCENC  =        21.95735035
  PAW double counting   =      3459.85139115    -3505.23082771
  entropy T*S    EENTRO =         0.00064594
  eigenvalues    EBANDS =       -65.22636560
  atomic energy  EATOM  =      2971.40422482
  Solvation  Ediel_sol  =         0.00000000
  ---------------------------------------------------
  free energy    TOTEN  =       -38.69190440 eV

  energy without entropy =      -38.69255034  energy(sigma->0) =      -38.69211972


--------------------------------------------------------------------------------------------------------




--------------------------------------- Iteration      1(  15)  ---------------------------------------


    POTLOK:  cpu time    0.0170: real time    0.0171
    SETDIJ:  cpu time    0.0062: real time    0.0062
     EDDAV:  cpu time    0.3194: real time    0.3215
       DOS:  cpu time    0.0036: real time    0.0036
    CHARGE:  cpu time    0.0260: real time    0.0261
    MIXING:  cpu time    0.0012: real time    0.0012
    --------------------------------------------
      LOOP:  cpu time    0.3733: real time    0.3756

 eigenvalue-minimisations  :  2104
 total energy-change (2. order) :-0.3308739E-02  (-0.4651217E-03)
 number of electron      39.9999961 magnetization      13.3178692
 augmentation part       20.8679948 magnetization      10.3886944

 Broyden mixing:
  rms(total) = 0.37631E-01    rms(broyden)= 0.37601E-01
  rms(prec ) = 0.42360E-01
  weight for this iteration     100.00

 eigenvalues of (default mixing * dielectric matrix)
  average eigenvalue GAMMA=   0.9257
  2.4229  1.9318  0.1332  0.1687  0.8330  0.8330  0.9140  0.7298  0.7298  0.5606

 Free energy of the ion-electron system (eV)
  ---------------------------------------------------
  alpha Z        PSCENC =       136.62239407
  Ewald energy   TEWEN  =      4342.41756916
  -Hartree energ DENC   =     -7401.17762822
  -exchange      EXHF   =         0.00000000
  -V(xc)+E(xc)   XCENC  =        21.96687121
  PAW double counting   =      3459.80889908    -3505.14450456
  entropy T*S    EENTRO =         0.00098893
  eigenvalues    EBANDS =       -64.59402763
  atomic energy  EATOM  =      2971.40422482
  Solvation  Ediel_sol  =         0.00000000
  ---------------------------------------------------
  free energy    TOTEN  =       -38.69521314 eV

  energy without entropy =      -38.69620207  energy(sigma->0) =      -38.69554279


--------------------------------------------------------------------------------------------------------




--------------------------------------- Iteration      1(  16)  ---------------------------------------


    POTLOK:  cpu time    0.0169: real time    0.0172
    SETDIJ:  cpu time    0.0061: real time    0.0061
     EDDAV:  cpu time    0.3391: real time    0.3407
       DOS:  cpu time    0.0037: real time    0.0037
    CHARGE:  cpu time    0.0263: real time    0.0264
    MIXING:  cpu time    0.0014: real time    0.0014
    --------------------------------------------
      LOOP:  cpu time    0.3935: real time    0.3955

 eigenvalue-minimisations  :  2280
 total energy-change (2. order) :-0.5975206E-03  (-0.1691442E-03)
 number of electron      39.9999961 magnetization      13.3244901
 augmentation part       20.8717420 magnetization      10.3993977

 Broyden mixing:
  rms(total) = 0.25189E-01    rms(broyden)= 0.25178E-01
  rms(prec ) = 0.31413E-01
  weight for this iteration     100.00

 eigenvalues of (default mixing * dielectric matrix)
  average eigenvalue GAMMA=   0.9597
  2.6220  1.6200  1.6200  0.1332  0.1687  0.8844  0.8844  0.6882  0.6882  0.6237
  0.6237

 Free energy of the ion-electron system (eV)
  ---------------------------------------------------
  alpha Z        PSCENC =       136.62239407
  Ewald energy   TEWEN  =      4342.41756916
  -Hartree energ DENC   =     -7402.01722246
  -exchange      EXHF   =         0.00000000
  -V(xc)+E(xc)   XCENC  =        21.98932689
  PAW double counting   =      3462.10090947    -3507.38106482
  entropy T*S    EENTRO =         0.00116392
  eigenvalues    EBANDS =       -63.83311171
  atomic energy  EATOM  =      2971.40422482
  Solvation  Ediel_sol  =         0.00000000
  ---------------------------------------------------
  free energy    TOTEN  =       -38.69581066 eV

  energy without entropy =      -38.69697459  energy(sigma->0) =      -38.69619864


--------------------------------------------------------------------------------------------------------




--------------------------------------- Iteration      1(  17)  ---------------------------------------


    POTLOK:  cpu time    0.0168: real time    0.0169
    SETDIJ:  cpu time    0.0062: real time    0.0062
     EDDAV:  cpu time    0.3222: real time    0.3237
       DOS:  cpu time    0.0037: real time    0.0037
    CHARGE:  cpu time    0.0278: real time    0.0279
    MIXING:  cpu time    0.0016: real time    0.0016
    --------------------------------------------
      LOOP:  cpu time    0.3783: real time    0.3800

 eigenvalue-minimisations  :  2144
 total energy-change (2. order) : 0.3136990E-03  (-0.1387801E-03)
 number of electron      39.9999961 magnetization      13.3365774
 augmentation part       20.8771314 magnetization      10.4188643

 Broyden mixing:
  rms(total) = 0.13334E-01    rms(broyden)= 0.13307E-01
  rms(prec ) = 0.15773E-01
  weight for this iteration     100.00

 eigenvalues of (default mixing * dielectric matrix)
  average eigenvalue GAMMA=   0.9473
  2.5840  1.9017  1.1759  1.1759  0.8960  0.8960  0.1687  0.1332  0.6404  0.6404
  0.6231  0.5326

 Free energy of the ion-electron system (eV)
  ---------------------------------------------------
  alpha Z        PSCENC =       136.62239407
  Ewald energy   TEWEN  =      4342.41756916
  -Hartree energ DENC   =     -7402.76264746
  -exchange      EXHF   =         0.00000000
  -V(xc)+E(xc)   XCENC  =        22.00493757
  PAW double counting   =      3464.10552072    -3509.35330326
  entropy T*S    EENTRO =         0.00118990
  eigenvalues    EBANDS =       -63.13538249
  atomic energy  EATOM  =      2971.40422482
  Solvation  Ediel_sol  =         0.00000000
  ---------------------------------------------------
  free energy    TOTEN  =       -38.69549696 eV

  energy without entropy =      -38.69668687  energy(sigma->0) =      -38.69589360


--------------------------------------------------------------------------------------------------------




--------------------------------------- Iteration      1(  18)  ---------------------------------------


    POTLOK:  cpu time    0.0172: real time    0.0174
    SETDIJ:  cpu time    0.0062: real time    0.0062
     EDDAV:  cpu time    0.3014: real time    0.3030
       DOS:  cpu time    0.0037: real time    0.0037
    CHARGE:  cpu time    0.0266: real time    0.0267
    MIXING:  cpu time    0.0016: real time    0.0016
    --------------------------------------------
      LOOP:  cpu time    0.3568: real time    0.3585

 eigenvalue-minimisations  :  1936
 total energy-change (2. order) :-0.6255613E-03  (-0.3867414E-04)
 number of electron      39.9999961 magnetization      13.3515668
 augmentation part       20.8799536 magnetization      10.4319949

 Broyden mixing:
  rms(total) = 0.14371E-01    rms(broyden)= 0.14364E-01
  rms(prec ) = 0.17763E-01
  weight for this iteration     100.00

 eigenvalues of (default mixing * dielectric matrix)
  average eigenvalue GAMMA=   1.0805
  2.9832  2.9832  1.4697  1.4697  0.8682  0.8682  0.1687  0.1332  0.6906  0.6906
  0.5982  0.5617  0.5617

 Free energy of the ion-electron system (eV)
  ---------------------------------------------------
  alpha Z        PSCENC =       136.62239407
  Ewald energy   TEWEN  =      4342.41756916
  -Hartree energ DENC   =     -7403.41690409
  -exchange      EXHF   =         0.00000000
  -V(xc)+E(xc)   XCENC  =        22.01960291
  PAW double counting   =      3463.32706318    -3508.51304981
  entropy T*S    EENTRO =         0.00115509
  eigenvalues    EBANDS =       -62.55817785
  atomic energy  EATOM  =      2971.40422482
  Solvation  Ediel_sol  =         0.00000000
  ---------------------------------------------------
  free energy    TOTEN  =       -38.69612253 eV

  energy without entropy =      -38.69727761  energy(sigma->0) =      -38.69650755


--------------------------------------------------------------------------------------------------------




--------------------------------------- Iteration      1(  19)  ---------------------------------------


    POTLOK:  cpu time    0.0174: real time    0.0175
    SETDIJ:  cpu time    0.0062: real time    0.0062
     EDDAV:  cpu time    0.2805: real time    0.2820
       DOS:  cpu time    0.0036: real time    0.0036
    CHARGE:  cpu time    0.0267: real time    0.0268
    MIXING:  cpu time    0.0015: real time    0.0015
    --------------------------------------------
      LOOP:  cpu time    0.3360: real time    0.3376

 eigenvalue-minimisations  :  1736
 total energy-change (2. order) :-0.3787310E-03  (-0.2787490E-04)
 number of electron      39.9999961 magnetization      13.3524309
 augmentation part       20.8794376 magnetization      10.4311259

 Broyden mixing:
  rms(total) = 0.11981E-01    rms(broyden)= 0.11974E-01
  rms(prec ) = 0.14142E-01
  weight for this iteration     100.00

 eigenvalues of (default mixing * dielectric matrix)
  average eigenvalue GAMMA=   1.0314
  2.8781  2.8781  1.4605  1.4605  0.1332  0.1687  0.8591  0.8591  0.6997  0.6997
  0.6466  0.5912  0.5529  0.5529

 Free energy of the ion-electron system (eV)
  ---------------------------------------------------
  alpha Z        PSCENC =       136.62239407
  Ewald energy   TEWEN  =      4342.41756916
  -Hartree energ DENC   =     -7404.29471348
  -exchange      EXHF   =         0.00000000
  -V(xc)+E(xc)   XCENC  =        22.03870782
  PAW double counting   =      3462.90886867    -3508.05945003
  entropy T*S    EENTRO =         0.00115201
  eigenvalues    EBANDS =       -61.73525430
  atomic energy  EATOM  =      2971.40422482
  Solvation  Ediel_sol  =         0.00000000
  ---------------------------------------------------
  free energy    TOTEN  =       -38.69650126 eV

  energy without entropy =      -38.69765327  energy(sigma->0) =      -38.69688526


--------------------------------------------------------------------------------------------------------




--------------------------------------- Iteration      1(  20)  ---------------------------------------


    POTLOK:  cpu time    0.0167: real time    0.0171
    SETDIJ:  cpu time    0.0061: real time    0.0061
     EDDAV:  cpu time    0.2477: real time    0.2491
       DOS:  cpu time    0.0035: real time    0.0035
    --------------------------------------------
      LOOP:  cpu time    0.2741: real time    0.2757

 eigenvalue-minimisations  :  1416
 total energy-change (2. order) :-0.7754491E-04  (-0.1005111E-04)
 number of electron      39.9999961 magnetization      13.3524309
 augmentation part       20.8794376 magnetization      10.4311259

 Free energy of the ion-electron system (eV)
  ---------------------------------------------------
  alpha Z        PSCENC =       136.62239407
  Ewald energy   TEWEN  =      4342.41756916
  -Hartree energ DENC   =     -7404.36842548
  -exchange      EXHF   =         0.00000000
  -V(xc)+E(xc)   XCENC  =        22.03901942
  PAW double counting   =      3463.08610721    -3508.25266356
  entropy T*S    EENTRO =         0.00119327
  eigenvalues    EBANDS =       -61.64599771
  atomic energy  EATOM  =      2971.40422482
  Solvation  Ediel_sol  =         0.00000000
  ---------------------------------------------------
  free energy    TOTEN  =       -38.69657880 eV

  energy without entropy =      -38.69777207  energy(sigma->0) =      -38.69697656


--------------------------------------------------------------------------------------------------------




 average (electrostatic) potential at core
  the test charge radii are     1.0103
  (the norm of the test charge is              1.0000)
       1 -48.7684       2 -48.2997       3 -48.3798       4 -48.2997       5 -48.7684
 
 
 
 E-fermi :   0.7499     XC(G=0):  -7.3378     alpha+bet : -6.1282


 spin component 1

 k-point     1 :       0.0500    0.0500    0.0000
  band No.  band energies     occupation 
      1      -7.0669      1.00000
      2      -5.5943      1.00000
      3      -3.9605      1.00000
      4      -3.8860      1.00000
      5      -3.8390      1.00000
      6      -3.4919      1.00000
      7      -3.3574      1.00000
      8      -2.5294      1.00000
      9      -1.8768      1.00000
     10      -1.8052      1.00000
     11      -1.7915      1.00000
     12      -1.7870      1.00000
     13      -1.6610      1.00000
     14      -1.6569      1.00000
     15      -1.5699      1.00000
     16      -1.2406      1.00000
     17      -1.2364      1.00000
     18      -1.2152      1.00000
     19      -1.0550      1.00000
     20      -0.9959      1.00000
     21      -0.6589      1.00000
     22      -0.5779      1.00000
     23      -0.4618      1.00000
     24      -0.1601      1.00000
     25      -0.1355      1.00000
     26       0.3163      1.00448
     27       0.3197      1.00476
     28       0.4701      1.03182
     29       1.0158     -0.03400
     30       2.8344     -0.00000
     31       4.6130     -0.00000
     32       5.1186     -0.00000

 k-point     2 :       0.1500    0.0500    0.0000
  band No.  band energies     occupation 
      1      -6.6758      1.00000
      2      -5.2611      1.00000
      3      -3.7878      1.00000
      4      -3.7492      1.00000
      5      -3.6524      1.00000
      6      -3.4383      1.00000
      7      -3.1637      1.00000
      8      -2.4837      1.00000
      9      -2.0377      1.00000
     10      -2.0233      1.00000
     11      -1.9098      1.00000
     12      -1.8977      1.00000
     13      -1.8259      1.00000
     14      -1.7368      1.00000
     15      -1.5961      1.00000
     16      -1.2717      1.00000
     17      -1.0899      1.00000
     18      -1.0408      1.00000
     19      -1.0209      1.00000
     20      -0.8370      1.00000
     21      -0.6399      1.00000
     22      -0.5788      1.00000
     23      -0.2800      1.00000
     24      -0.2763      1.00000
     25      -0.1565      1.00000
     26       0.0780      1.00001
     27       0.4178      1.02031
     28       0.4867      1.03433
     29       1.2896     -0.00046
     30       3.2178     -0.00000
     31       5.0053     -0.00000
     32       5.4871     -0.00000

 k-point     3 :       0.2500    0.0500    0.0000
  band No.  band energies     occupation 
      1      -5.9458      1.00000
      2      -4.7161      1.00000
      3      -3.6775      1.00000
      4      -3.5446      1.00000
      5      -3.4673      1.00000
      6      -3.3334      1.00000
      7      -2.7258      1.00000
      8      -2.2827      1.00000
      9      -2.2669      1.00000
     10      -2.0925      1.00000
     11      -2.0426      1.00000
     12      -2.0221      1.00000
     13      -1.8482      1.00000
     14      -1.8123      1.00000
     15      -1.7311      1.00000
     16      -1.2991      1.00000
     17      -1.0748      1.00000
     18      -0.9362      1.00000
     19      -0.8619      1.00000
     20      -0.6747      1.00000
     21      -0.6153      1.00000
     22      -0.5616      1.00000
     23      -0.3922      1.00000
     24      -0.2550      1.00000
     25      -0.0713      1.00000
     26      -0.0213      1.00000
     27       0.5255      1.03358
     28       0.5879      0.99253
     29       1.8247     -0.00000
     30       3.8550     -0.00000
     31       5.6238     -0.00000
     32       6.0085     -0.00000

 k-point     4 :       0.3500    0.0500    0.0000
  band No.  band energies     occupation 
      1      -5.0183      1.00000
      2      -4.2685      1.00000
      3      -3.7223      1.00000
      4      -3.4513      1.00000
      5      -3.3975      1.00000
      6      -2.9614      1.00000
      7      -2.4985      1.00000
      8      -2.4084      1.00000
      9      -2.3032      1.00000
     10      -2.2105      1.00000
     11      -2.0061      1.00000
     12      -1.9673      1.00000
     13      -1.8432      1.00000
     14      -1.4883      1.00000
     15      -1.4073      1.00000
     16      -1.3887      1.00000
     17      -1.1181      1.00000
     18      -1.0492      1.00000
     19      -0.6571      1.00000
     20      -0.6332      1.00000
     21      -0.5767      1.00000
     22      -0.5495      1.00000
     23      -0.3965      1.00000
     24      -0.0792      1.00000
     25       0.0609      1.00001
     26       0.2077      1.00043
     27       0.6159      0.94893
     28       0.8113      0.25321
     29       2.4657     -0.00000
     30       3.5143     -0.00000
     31       4.5141     -0.00000
     32       4.6865     -0.00000

 k-point     5 :       0.4500    0.0500    0.0000
  band No.  band energies     occupation 
      1      -4.2041      1.00000
      2      -4.1351      1.00000
      3      -3.8282      1.00000
      4      -3.4137      1.00000
      5      -3.3616      1.00000
      6      -2.6179      1.00000
      7      -2.5794      1.00000
      8      -2.5157      1.00000
      9      -2.2864      1.00000
     10      -2.1037      1.00000
     11      -2.0748      1.00000
     12      -2.0682      1.00000
     13      -1.8038      1.00000
     14      -1.4518      1.00000
     15      -1.2933      1.00000
     16      -1.1596      1.00000
     17      -1.0757      1.00000
     18      -0.9003      1.00000
     19      -0.7266      1.00000
     20      -0.5487      1.00000
     21      -0.5364      1.00000
     22      -0.2926      1.00000
     23      -0.0183      1.00000
     24       0.2764      1.00205
     25       0.3952      1.01547
     26       0.4524      1.02822
     27       0.7560      0.47404
     28       1.3799     -0.00004
     29       1.6633     -0.00000
     30       1.9985     -0.00000
     31       3.7991     -0.00000
     32       3.8948     -0.00000

 k-point     6 :       0.1500    0.1500    0.0000
  band No.  band energies     occupation 
      1      -6.2969      1.00000
      2      -4.9248      1.00000
      3      -3.5749      1.00000
      4      -3.5697      1.00000
      5      -3.4894      1.00000
      6      -3.1801      1.00000
      7      -3.1718      1.00000
      8      -2.5712      1.00000
      9      -2.2672      1.00000
     10      -2.1628      1.00000
     11      -2.0430      1.00000
     12      -1.8811      1.00000
     13      -1.8614      1.00000
     14      -1.7900      1.00000
     15      -1.7587      1.00000
     16      -1.4223      1.00000
     17      -1.1029      1.00000
     18      -1.0063      1.00000
     19      -0.8705      1.00000
     20      -0.8313      1.00000
     21      -0.5385      1.00000
     22      -0.4454      1.00000
     23      -0.3578      1.00000
     24      -0.3457      1.00000
     25       0.0282      1.00000
     26       0.2164      1.00053
     27       0.3632      1.00986
     28       0.3755      1.01182
     29       1.7111     -0.00000
     30       3.6326     -0.00000
     31       5.4098     -0.00000
     32       5.8678     -0.00000

 k-point     7 :       0.2500    0.1500    0.0000
  band No.  band energies     occupation 
      1      -5.5983      1.00000
      2      -4.3796      1.00000
      3      -3.3946      1.00000
      4      -3.3194      1.00000
      5      -3.2605      1.00000
      6      -3.2167      1.00000
      7      -2.7347      1.00000
      8      -2.4879      1.00000
      9      -2.4606      1.00000
     10      -2.3225      1.00000
     11      -2.1182      1.00000
     12      -2.0188      1.00000
     13      -1.9400      1.00000
     14      -1.8589      1.00000
     15      -1.8379      1.00000
     16      -1.4380      1.00000
     17      -1.2938      1.00000
     18      -0.9580      1.00000
     19      -0.8078      1.00000
     20      -0.6366      1.00000
     21      -0.5777      1.00000
     22      -0.4415      1.00000
     23      -0.3126      1.00000
     24      -0.1928      1.00000
     25      -0.0098      1.00000
     26       0.1145      1.00003
     27       0.4190      1.02057
     28       0.8393      0.16040
     29       2.3939     -0.00000
     30       4.3304     -0.00000
     31       6.0772     -0.00000
     32       6.4619      0.00000

 k-point     8 :       0.3500    0.1500    0.0000
  band No.  band energies     occupation 
      1      -4.7331      1.00000
      2      -3.9646      1.00000
      3      -3.4532      1.00000
      4      -3.1952      1.00000
      5      -3.1902      1.00000
      6      -3.0135      1.00000
      7      -2.6549      1.00000
      8      -2.4940      1.00000
      9      -2.4193      1.00000
     10      -2.3500      1.00000
     11      -2.1818      1.00000
     12      -1.9477      1.00000
     13      -1.9267      1.00000
     14      -1.6241      1.00000
     15      -1.5675      1.00000
     16      -1.4162      1.00000
     17      -1.4065      1.00000
     18      -0.8053      1.00000
     19      -0.7583      1.00000
     20      -0.7109      1.00000
     21      -0.5018      1.00000
     22      -0.4992      1.00000
     23      -0.2830      1.00000
     24      -0.0713      1.00000
     25      -0.0319      1.00000
     26       0.3272      1.00545
     27       0.5462      1.02691
     28       1.5589     -0.00000
     29       3.1939     -0.00000
     30       3.9422     -0.00000
     31       5.0420     -0.00000
     32       5.1204     -0.00000

 k-point     9 :       0.4500    0.1500    0.0000
  band No.  band energies     occupation 
      1      -3.9877      1.00000
      2      -3.8703      1.00000
      3      -3.5980      1.00000
      4      -3.2915      1.00000
      5      -3.1035      1.00000
      6      -2.7449      1.00000
      7      -2.7436      1.00000
      8      -2.5726      1.00000
      9      -2.4564      1.00000
     10      -2.4205      1.00000
     11      -2.0834      1.00000
     12      -1.9873      1.00000
     13      -1.8533      1.00000
     14      -1.5112      1.00000
     15      -1.4223      1.00000
     16      -1.1087      1.00000
     17      -1.0803      1.00000
     18      -0.9214      1.00000
     19      -0.5481      1.00000
     20      -0.5311      1.00000
     21      -0.4583      1.00000
     22      -0.4395      1.00000
     23      -0.2837      1.00000
     24      -0.1457      1.00000
     25       0.1386      1.00007
     26       0.5624      1.01733
     27       1.3537     -0.00008
     28       1.9311     -0.00000
     29       2.5125     -0.00000
     30       2.7780     -0.00000
     31       4.3065     -0.00000
     32       4.3878     -0.00000

 k-point    10 :       0.2500    0.2500    0.0000
  band No.  band energies     occupation 
      1      -4.9862      1.00000
      2      -3.8348      1.00000
      3      -3.2151      1.00000
      4      -2.9840      1.00000
      5      -2.9804      1.00000
      6      -2.9080      1.00000
      7      -2.7674      1.00000
      8      -2.6320      1.00000
      9      -2.5957      1.00000
     10      -2.5263      1.00000
     11      -2.3473      1.00000
     12      -2.1551      1.00000
     13      -2.1136      1.00000
     14      -1.8362      1.00000
     15      -1.8254      1.00000
     16      -1.4786      1.00000
     17      -1.4769      1.00000
     18      -0.9065      1.00000
     19      -0.8298      1.00000
     20      -0.5099      1.00000
     21      -0.4636      1.00000
     22      -0.4079      1.00000
     23      -0.2849      1.00000
     24      -0.2324      1.00000
     25      -0.1082      1.00000
     26       0.4063      1.01778
     27       0.4553      1.02884
     28       1.5665     -0.00000
     29       3.2382     -0.00000
     30       5.1296     -0.00000
     31       6.3051      0.00000
     32       6.9068      0.00000

 k-point    11 :       0.3500    0.2500    0.0000
  band No.  band energies     occupation 
      1      -4.3069      1.00000
      2      -3.4631      1.00000
      3      -3.2457      1.00000
      4      -3.0504      1.00000
      5      -2.8971      1.00000
      6      -2.8576      1.00000
      7      -2.7984      1.00000
      8      -2.5391      1.00000
      9      -2.5242      1.00000
     10      -2.4808      1.00000
     11      -2.3782      1.00000
     12      -2.2547      1.00000
     13      -2.0221      1.00000
     14      -1.7180      1.00000
     15      -1.6509      1.00000
     16      -1.4218      1.00000
     17      -1.3207      1.00000
     18      -0.8025      1.00000
     19      -0.7194      1.00000
     20      -0.5805      1.00000
     21      -0.3971      1.00000
     22      -0.3871      1.00000
     23      -0.2005      1.00000
     24      -0.1974      1.00000
     25      -0.1365      1.00000
     26       0.3523      1.00831
     27       1.1263     -0.01148
     28       2.5007     -0.00000
     29       4.2312     -0.00000
     30       4.4155     -0.00000
     31       5.8194     -0.00000
     32       6.0040     -0.00000

 k-point    12 :       0.4500    0.2500    0.0000
  band No.  band energies     occupation 
      1      -3.8010      1.00000
      2      -3.4645      1.00000
      3      -3.4294      1.00000
      4      -3.1302      1.00000
      5      -2.9429      1.00000
      6      -2.8989      1.00000
      7      -2.7751      1.00000
      8      -2.6880      1.00000
      9      -2.5438      1.00000
     10      -2.2900      1.00000
     11      -2.2198      1.00000
     12      -2.2093      1.00000
     13      -1.8198      1.00000
     14      -1.6401      1.00000
     15      -1.6100      1.00000
     16      -1.0510      1.00000
     17      -0.9346      1.00000
     18      -0.8096      1.00000
     19      -0.7624      1.00000
     20      -0.4761      1.00000
     21      -0.4288      1.00000
     22      -0.3443      1.00000
     23      -0.2116      1.00000
     24      -0.1666      1.00000
     25       0.1504      1.00009
     26       0.7536      0.48436
     27       2.1430     -0.00000
     28       2.3696     -0.00000
     29       3.6825     -0.00000
     30       3.6953     -0.00000
     31       5.2946     -0.00000
     32       5.3132     -0.00000

 k-point    13 :       0.3500    0.3500    0.0000
  band No.  band energies     occupation 
      1      -3.9935      1.00000
      2      -3.4607      1.00000
      3      -3.0622      1.00000
      4      -2.9763      1.00000
      5      -2.9244      1.00000
      6      -2.8024      1.00000
      7      -2.7441      1.00000
      8      -2.7362      1.00000
      9      -2.5831      1.00000
     10      -2.4188      1.00000
     11      -2.3752      1.00000
     12      -2.2040      1.00000
     13      -2.1830      1.00000
     14      -1.4383      1.00000
     15      -1.4327      1.00000
     16      -1.2375      1.00000
     17      -1.2250      1.00000
     18      -0.7378      1.00000
     19      -0.4644      1.00000
     20      -0.3759      1.00000
     21      -0.3177      1.00000
     22      -0.3166      1.00000
     23      -0.2087      1.00000
     24      -0.2082      1.00000
     25      -0.0587      1.00000
     26       0.3492      1.00791
     27       1.9337     -0.00000
     28       3.5991     -0.00000
     29       4.1251     -0.00000
     30       5.4220     -0.00000
     31       5.9986     -0.00000
     32       7.1972      0.00000

 k-point    14 :       0.4500    0.3500    0.0000
  band No.  band energies     occupation 
      1      -3.8417      1.00000
      2      -3.6503      1.00000
      3      -3.0720      1.00000
      4      -3.0366      1.00000
      5      -2.9447      1.00000
      6      -2.8847      1.00000
      7      -2.8720      1.00000
      8      -2.7199      1.00000
      9      -2.5394      1.00000
     10      -2.4705      1.00000
     11      -2.4479      1.00000
     12      -2.0497      1.00000
     13      -1.8302      1.00000
     14      -1.2864      1.00000
     15      -1.2748      1.00000
     16      -1.0149      1.00000
     17      -0.9524      1.00000
     18      -0.5562      1.00000
     19      -0.4917      1.00000
     20      -0.3823      1.00000
     21      -0.3138      1.00000
     22      -0.2335      1.00000
     23      -0.2139      1.00000
     24      -0.1381      1.00000
     25       0.1786      1.00020
     26       1.0812     -0.02048
     27       2.6800     -0.00000
     28       3.0464     -0.00000
     29       4.5591     -0.00000
     30       4.9327     -0.00000
     31       6.5592      0.00000
     32       6.6227      0.00000

 k-point    15 :       0.4500    0.4500    0.0000
  band No.  band energies     occupation 
      1      -3.9108      1.00000
      2      -3.7947      1.00000
      3      -3.1384      1.00000
      4      -3.0792      1.00000
      5      -2.9137      1.00000
      6      -2.8688      1.00000
      7      -2.7948      1.00000
      8      -2.7671      1.00000
      9      -2.6173      1.00000
     10      -2.6161      1.00000
     11      -2.6152      1.00000
     12      -1.7521      1.00000
     13      -1.7289      1.00000
     14      -1.0807      1.00000
     15      -1.0131      1.00000
     16      -0.7954      1.00000
     17      -0.7481      1.00000
     18      -0.3131      1.00000
     19      -0.2895      1.00000
     20      -0.2402      1.00000
     21      -0.2165      1.00000
     22      -0.2099      1.00000
     23      -0.1771      1.00000
     24      -0.1626      1.00000
     25       0.0727      1.00001
     26       1.7163     -0.00000
     27       2.4704     -0.00000
     28       4.0840     -0.00000
     29       4.8897     -0.00000
     30       6.3251      0.00000
     31       7.7015      0.00000
     32       7.7600      0.00000

 spin component 2

 k-point     1 :       0.0500    0.0500    0.0000
  band No.  band energies     occupation 
      1      -6.8422      1.00000
      2      -5.2645      1.00000
      3      -3.2172      1.00000
      4      -1.9418      1.00000
      5      -1.9372      1.00000
      6      -1.8855      1.00000
      7      -1.1175      1.00000
      8      -0.0639      1.00000
      9       0.4656      1.03097
     10       0.5014      1.03541
     11       0.5131      1.03518
     12       0.7036      0.69000
     13       0.7805      0.37187
     14       0.8286      0.19368
     15       1.0032     -0.03520
     16       1.0213     -0.03322
     17       1.1498     -0.00800
     18       1.4164     -0.00001
     19       1.4230     -0.00001
     20       1.6649     -0.00000
     21       1.9331     -0.00000
     22       2.1089     -0.00000
     23       2.1864     -0.00000
     24       2.4529     -0.00000
     25       2.6502     -0.00000
     26       2.8333     -0.00000
     27       2.8372     -0.00000
     28       3.0304     -0.00000
     29       3.0950     -0.00000
     30       3.8213     -0.00000
     31       5.2078     -0.00000
     32       5.8015     -0.00000

 k-point     2 :       0.1500    0.0500    0.0000
  band No.  band energies     occupation 
      1      -6.4454      1.00000
      2      -4.9094      1.00000
      3      -2.9526      1.00000
      4      -1.7735      1.00000
      5      -1.7509      1.00000
      6      -1.7377      1.00000
      7      -1.0605      1.00000
      8      -0.2033      1.00000
[...]
     27       3.2653     -0.00000
     28       4.3362     -0.00000
     29       5.6199     -0.00000
     30       5.8336     -0.00000
     31       6.8634      0.00000
     32       7.1573      0.00000

 k-point    12 :       0.4500    0.2500    0.0000
  band No.  band energies     occupation 
      1      -2.8468      1.00000
      2      -2.0896      1.00000
      3      -2.0023      1.00000
      4      -1.5169      1.00000
      5      -1.3780      1.00000
      6      -0.7754      1.00000
      7      -0.7522      1.00000
      8      -0.6169      1.00000
      9      -0.5803      1.00000
     10      -0.3926      1.00000
     11      -0.3099      1.00000
     12      -0.2005      1.00000
     13       0.0130      1.00000
     14       0.9804     -0.02853
     15       1.1291     -0.01521
     16       1.4483     -0.00001
     17       1.6137     -0.00000
     18       1.9925     -0.00000
     19       2.0769     -0.00000
     20       2.0934     -0.00000
     21       2.3906     -0.00000
     22       2.4537     -0.00000
     23       2.6817     -0.00000
     24       2.6956     -0.00000
     25       2.8427     -0.00000
     26       3.1407     -0.00000
     27       4.0573     -0.00000
     28       4.1857     -0.00000
     29       5.2643     -0.00000
     30       5.3077     -0.00000
     31       6.5993      0.00000
     32       6.6824      0.00000

 k-point    13 :       0.3500    0.3500    0.0000
  band No.  band energies     occupation 
      1      -3.1011      1.00000
      2      -1.9183      1.00000
      3      -1.7858      1.00000
      4      -1.1537      1.00000
      5      -1.1468      1.00000
      6      -0.8417      1.00000
      7      -0.8034      1.00000
      8      -0.6783      1.00000
      9      -0.6149      1.00000
     10      -0.4884      1.00000
     11      -0.4396      1.00000
     12      -0.4253      1.00000
     13      -0.3896      1.00000
     14       1.2897     -0.00079
     15       1.3892     -0.00006
     16       1.3985     -0.00005
     17       1.4424     -0.00001
     18       2.0234     -0.00000
     19       2.0304     -0.00000
     20       2.2855     -0.00000
     21       2.5623     -0.00000
     22       2.6201     -0.00000
     23       2.6385     -0.00000
     24       2.6585     -0.00000
     25       2.6883     -0.00000
     26       2.9930     -0.00000
     27       3.8986     -0.00000
     28       5.2611     -0.00000
     29       5.4336     -0.00000
     30       6.7215      0.00000
     31       7.2498      0.00000
     32       8.0002      0.00000

 k-point    14 :       0.4500    0.3500    0.0000
  band No.  band energies     occupation 
      1      -2.5631      1.00000
      2      -2.1239      1.00000
      3      -1.5299      1.00000
      4      -1.3229      1.00000
      5      -1.1454      1.00000
      6      -0.8853      1.00000
      7      -0.8088      1.00000
      8      -0.7155      1.00000
      9      -0.6842      1.00000
     10      -0.5538      1.00000
     11      -0.5189      1.00000
     12      -0.2548      1.00000
     13      -0.1579      1.00000
     14       1.4640     -0.00001
     15       1.4974     -0.00000
     16       1.7914     -0.00000
     17       1.9493     -0.00000
     18       2.0878     -0.00000
     19       2.1496     -0.00000
     20       2.3495     -0.00000
     21       2.5574     -0.00000
     22       2.6271     -0.00000
     23       2.7076     -0.00000
     24       2.7595     -0.00000
     25       2.8869     -0.00000
     26       3.0421     -0.00000
     27       4.1857     -0.00000
     28       4.7464     -0.00000
     29       5.9703     -0.00000
     30       6.3835      0.00000
     31       7.8553      0.00000
     32       7.8776      0.00000

 k-point    15 :       0.4500    0.4500    0.0000
  band No.  band energies     occupation 
      1      -2.4471      1.00000
      2      -2.2374      1.00000
      3      -1.5318      1.00000
      4      -1.1881      1.00000
      5      -0.9820      1.00000
      6      -0.9355      1.00000
      7      -0.8357      1.00000
      8      -0.8089      1.00000
      9      -0.7165      1.00000
     10      -0.6980      1.00000
     11      -0.6927      1.00000
     12       0.0107      1.00000
     13       0.0550      1.00000
     14       1.9886     -0.00000
     15       2.0079     -0.00000
     16       2.0209     -0.00000
     17       2.1506     -0.00000
     18       2.2024     -0.00000
     19       2.4820     -0.00000
     20       2.6328     -0.00000
     21       2.7031     -0.00000
     22       2.7121     -0.00000
     23       2.7153     -0.00000
     24       2.7725     -0.00000
     25       2.8142     -0.00000
     26       2.8540     -0.00000
     27       3.6608     -0.00000
     28       5.5035     -0.00000
     29       6.1280     -0.00000
     30       7.6439      0.00000
     31       8.8530      0.00000
     32       9.2409      0.00000


--------------------------------------------------------------------------------------------------------


 soft charge-density along one line, spin component           1
         0         1         2         3         4         5         6         7         8         9
 total charge-density along one line
 
 soft charge-density along one line, spin component           2
         0         1         2         3         4         5         6         7         8         9
 total charge-density along one line
 
 pseudopotential strength for first ion, spin component:           1
 -9.234   0.000  -0.000   0.000   0.000   0.000  -0.000   0.000   0.000   0.000  -9.665   0.000  -0.000   0.000   0.000   0.000
 -0.000   0.000  -9.346   0.000  -0.000   0.000  -0.000   0.000   0.000   0.000  -0.000   0.000  -9.774   0.000  -0.000   0.000
  0.000   0.000  -0.000   0.000  -9.411   0.000  -0.000   0.000  -0.000   0.000   0.000   0.000  -0.000   0.000  -9.837   0.000
 -0.000   0.000  -0.000   0.000  -0.000   0.000  -9.346   0.000  -0.000   0.000  -0.000   0.000  -0.000   0.000  -0.000   0.000
  0.000   0.000   0.000   0.000  -0.000   0.000  -0.000   0.000  -9.325   0.000   0.000   0.000   0.000   0.000  -0.000   0.000
 -9.665   0.000  -0.000   0.000   0.000   0.000  -0.000   0.000   0.000   0.000 -10.057   0.000  -0.000   0.000   0.000   0.000
 -0.000   0.000  -9.774   0.000  -0.000   0.000  -0.000   0.000   0.000   0.000  -0.000   0.000 -10.163   0.000  -0.000   0.000
  0.000   0.000  -0.000   0.000  -9.837   0.000  -0.000   0.000  -0.000   0.000   0.000   0.000  -0.000   0.000 -10.225   0.000
 -0.000   0.000  -0.000   0.000  -0.000   0.000  -9.774   0.000  -0.000   0.000  -0.000   0.000  -0.000   0.000  -0.000   0.000
  0.000   0.000   0.000   0.000  -0.000   0.000  -0.000   0.000  -9.753   0.000   0.000   0.000   0.000   0.000  -0.000   0.000
  0.000   0.000   0.000   0.000   0.012   0.000   0.000   0.000  -0.000   0.000   0.000   0.000   0.000   0.000   0.012   0.000
  0.000   0.000   0.000   0.000   0.022   0.000   0.000   0.000  -0.000   0.000   0.000   0.000   0.000   0.000   0.023   0.000
 -0.000   0.000  -0.008   0.000  -0.000   0.000  -0.000   0.000  -0.000   0.000  -0.000   0.000  -0.007   0.000  -0.000   0.000
 -0.000   0.000  -0.000   0.000  -0.003   0.000  -0.000   0.000  -0.000   0.000  -0.000   0.000  -0.000   0.000  -0.002   0.000
 -0.000   0.000  -0.000   0.000  -0.000   0.000  -0.008   0.000   0.000   0.000  -0.000   0.000  -0.000   0.000  -0.000   0.000
 -0.000   0.000  -0.017   0.000  -0.000   0.000  -0.000   0.000   0.000   0.000  -0.000   0.000  -0.016   0.000  -0.000   0.000
 -0.000   0.000  -0.000   0.000  -0.013   0.000  -0.000   0.000  -0.000   0.000  -0.000   0.000  -0.000   0.000  -0.012   0.000
 -0.000   0.000  -0.000   0.000  -0.000   0.000  -0.017   0.000   0.000   0.000  -0.000   0.000  -0.000   0.000  -0.000   0.000
 pseudopotential strength for first ion, spin component:           2
 -7.285   0.000  -0.000   0.000   0.000   0.000  -0.000   0.000   0.000   0.000  -7.778   0.000  -0.000   0.000   0.000   0.000
 -0.000   0.000  -7.284   0.000  -0.000   0.000   0.000   0.000   0.000   0.000  -0.000   0.000  -7.777   0.000  -0.000   0.000
  0.000   0.000  -0.000   0.000  -7.239   0.000  -0.000   0.000  -0.000   0.000   0.000   0.000  -0.000   0.000  -7.733   0.000
 -0.000   0.000   0.000   0.000  -0.000   0.000  -7.284   0.000  -0.000   0.000  -0.000   0.000   0.000   0.000  -0.000   0.000
  0.000   0.000   0.000   0.000  -0.000   0.000  -0.000   0.000  -7.188   0.000   0.000   0.000   0.000   0.000  -0.000   0.000
 -7.778   0.000  -0.000   0.000   0.000   0.000  -0.000   0.000   0.000   0.000  -8.229   0.000  -0.000   0.000   0.000   0.000
 -0.000   0.000  -7.777   0.000  -0.000   0.000   0.000   0.000   0.000   0.000  -0.000   0.000  -8.229   0.000  -0.000   0.000
  0.000   0.000  -0.000   0.000  -7.733   0.000  -0.000   0.000  -0.000   0.000   0.000   0.000  -0.000   0.000  -8.185   0.000
 -0.000   0.000   0.000   0.000  -0.000   0.000  -7.777   0.000  -0.000   0.000  -0.000   0.000   0.000   0.000  -0.000   0.000
  0.000   0.000   0.000   0.000  -0.000   0.000  -0.000   0.000  -7.683   0.000   0.000   0.000   0.000   0.000  -0.000   0.000
  0.000   0.000   0.000   0.000   0.001   0.000   0.000   0.000  -0.000   0.000   0.000   0.000   0.000   0.000   0.000   0.000
  0.000   0.000   0.000   0.000   0.000   0.000   0.000   0.000  -0.000   0.000   0.000   0.000   0.000   0.000  -0.000   0.000
 -0.000   0.000   0.029   0.000  -0.000   0.000  -0.000   0.000  -0.000   0.000  -0.000   0.000   0.028   0.000  -0.000   0.000
 -0.000   0.000  -0.000   0.000   0.037   0.000  -0.000   0.000  -0.000   0.000  -0.000   0.000  -0.000   0.000   0.036   0.000
 -0.000   0.000  -0.000   0.000  -0.000   0.000   0.029   0.000   0.000   0.000  -0.000   0.000  -0.000   0.000  -0.000   0.000
 -0.000   0.000   0.032   0.000  -0.000   0.000  -0.000   0.000   0.000   0.000  -0.000   0.000   0.031   0.000  -0.000   0.000
 -0.000   0.000  -0.000   0.000   0.040   0.000  -0.000   0.000  -0.000   0.000  -0.000   0.000  -0.000   0.000   0.039   0.000
 -0.000   0.000  -0.000   0.000  -0.000   0.000   0.032   0.000   0.000   0.000  -0.000   0.000  -0.000   0.000  -0.000   0.000
 total augmentation occupancy for first ion, spin component:           1
  2.678   0.000   0.000   0.000   0.000  -1.238   0.000   0.000  -0.000  -0.000   0.000   0.000   0.000   0.000   0.000   0.000
  0.000   2.826   0.000  -0.000   0.000  -0.000  -1.358   0.000   0.000  -0.000   0.000   0.000   0.149   0.000   0.000   0.022
  0.000  -0.000   3.090  -0.000   0.000   0.000  -0.000  -1.598  -0.000   0.000   0.138   0.035   0.000   0.172   0.000   0.000
  0.000  -0.000   0.000   2.826  -0.000   0.000   0.000   0.000  -1.358  -0.000   0.000   0.000   0.000   0.000   0.149   0.000
  0.000   0.000  -0.000   0.000   3.053  -0.000  -0.000   0.000   0.000  -1.666   0.000   0.000   0.000   0.000   0.000  -0.000
 -1.238   0.000   0.000   0.000  -0.000   1.207  -0.000   0.000  -0.000  -0.000   0.000  -0.000  -0.000   0.000  -0.000   0.000
 -0.000  -1.358   0.000   0.000  -0.000  -0.000   1.240  -0.000   0.000   0.000   0.000   0.000  -0.264  -0.000  -0.000   0.013
  0.000   0.000  -1.598   0.000   0.000   0.000  -0.000   1.400   0.000  -0.000  -0.194  -0.006  -0.000  -0.252   0.000   0.000
 -0.000  -0.000  -0.000  -1.358   0.000  -0.000   0.000  -0.000   1.240   0.000   0.000  -0.000   0.000  -0.000  -0.264   0.000
  0.000   0.000  -0.000   0.000  -1.666  -0.000   0.000   0.000   0.000   1.566  -0.000  -0.000   0.000   0.000   0.000  -0.000
 -0.000  -0.000   0.138  -0.000   0.000   0.000   0.000  -0.194   0.000  -0.000   1.960  -0.165  -0.000  -0.252  -0.000  -0.000
  0.000  -0.000   0.035   0.000   0.000   0.000   0.000  -0.006   0.000   0.000  -0.165   0.022   0.000   0.030   0.000   0.000
 -0.000   0.149   0.000   0.000  -0.000  -0.000  -0.264  -0.000  -0.000   0.000   0.000   0.000   0.198   0.000   0.000  -0.016
 -0.000   0.000   0.172  -0.000   0.000   0.000   0.000  -0.252  -0.000   0.000  -0.252   0.030   0.000   0.134  -0.000  -0.000
 -0.000  -0.000   0.000   0.149   0.000   0.000   0.000   0.000  -0.264   0.000  -0.000   0.000  -0.000   0.000   0.198   0.000
  0.000   0.022  -0.000   0.000  -0.000   0.000   0.013   0.000   0.000  -0.000   0.000   0.000  -0.016   0.000   0.000   0.002
  0.000   0.000   0.035  -0.000  -0.000   0.000   0.000   0.007  -0.000   0.000   0.038  -0.003   0.000  -0.013  -0.000   0.000
  0.000   0.000  -0.000   0.022  -0.000  -0.000  -0.000   0.000   0.013  -0.000  -0.000   0.000  -0.000  -0.000  -0.016  -0.000
 total augmentation occupancy for first ion, spin component:           2
  2.482   0.000   0.000   0.000  -0.000  -1.086  -0.000  -0.000   0.000  -0.000   0.000   0.000   0.000   0.000   0.000   0.000
  0.000   2.577   0.000   0.000   0.000   0.000  -1.109   0.000   0.000  -0.000  -0.000  -0.000   0.053   0.000   0.000   0.033
  0.000   0.000   2.827   0.000   0.000   0.000   0.000  -1.196   0.000   0.000   0.022   0.046  -0.000   0.067   0.000   0.000
  0.000  -0.000  -0.000   2.577   0.000   0.000  -0.000   0.000  -1.109   0.000  -0.000   0.000  -0.000   0.000   0.053   0.000
  0.000  -0.000  -0.000   0.000   2.775  -0.000   0.000   0.000   0.000  -1.195   0.000   0.000   0.000  -0.000  -0.000  -0.000
 -1.086   0.000   0.000   0.000  -0.000   0.274  -0.000   0.000  -0.000   0.000   0.000   0.000  -0.000   0.000   0.000   0.000
  0.000  -1.109   0.000   0.000   0.000  -0.000   0.314   0.000  -0.000   0.000  -0.000   0.000   0.022  -0.000  -0.000  -0.021
  0.000   0.000  -1.196   0.000   0.000   0.000  -0.000   0.319  -0.000  -0.000   0.017  -0.026   0.000   0.007  -0.000   0.000
 -0.000   0.000  -0.000  -1.109   0.000  -0.000   0.000   0.000   0.314  -0.000   0.000  -0.000   0.000   0.000   0.022  -0.000
  0.000   0.000   0.000   0.000  -1.195   0.000  -0.000   0.000   0.000   0.330   0.000  -0.000   0.000   0.000   0.000  -0.000
  0.000   0.000   0.022  -0.000   0.000   0.000   0.000   0.017  -0.000   0.000  -0.278   0.101  -0.000   0.059   0.000   0.000
 -0.000  -0.000   0.046   0.000   0.000   0.000   0.000  -0.026  -0.000   0.000   0.101  -0.012   0.000  -0.011   0.000   0.000
  0.000   0.053   0.000   0.000   0.000  -0.000   0.022  -0.000   0.000   0.000   0.000  -0.000  -0.014   0.000   0.000   0.005
  0.000  -0.000   0.067  -0.000  -0.000   0.000   0.000   0.007   0.000   0.000   0.059  -0.011   0.000  -0.007   0.000  -0.000
 -0.000   0.000  -0.000   0.053  -0.000  -0.000   0.000   0.000   0.022   0.000  -0.000   0.000   0.000   0.000  -0.014   0.000
  0.000   0.033  -0.000   0.000   0.000  -0.000  -0.021   0.000   0.000  -0.000   0.000   0.000   0.005   0.000   0.000  -0.000
 -0.000   0.000   0.048   0.000  -0.000   0.000   0.000  -0.028   0.000   0.000  -0.004   0.003  -0.000   0.004   0.000   0.000
 -0.000   0.000  -0.000   0.033  -0.000   0.000   0.000   0.000  -0.021   0.000  -0.000   0.000   0.000   0.000   0.005   0.000


------------------------ aborting loop because EDIFF is reached ----------------------------------------


    CHARGE:  cpu time    0.0265: real time    0.0265
    FORLOC:  cpu time    0.0011: real time    0.0011
    FORNL :  cpu time    0.1724: real time    0.1729
    STRESS:  cpu time    0.1448: real time    0.1452
    FORCOR:  cpu time    0.0168: real time    0.0169
    FORHAR:  cpu time    0.0028: real time    0.0028
    MIXING:  cpu time    0.0012: real time    0.0011
    OFIELD:  cpu time    0.0000: real time    0.0000

  FORCE on cell =-STRESS in cart. coord.  units (eV):
  Direction    XX          YY          ZZ          XY          YZ          ZX
  --------------------------------------------------------------------------------------
  Alpha Z   136.62239   136.62239   136.62239
  Ewald    6241.90712  6241.90712 -8141.39795    -0.00000    -0.00000     0.00000
  Hartree  7053.74311  7053.74311 -6702.05804    -0.00000    -0.00000    -0.00000
  E(xc)    -198.51378  -198.51378  -198.78968    -0.00000    -0.00000    -0.00000
  Local  -13657.97215-13657.97215 14484.39486    -0.00000    -0.00000    -0.00000
  n-local  -138.06185  -128.73078  -134.94257     1.71479    -0.00000     0.00000
  augment   194.46035   194.46035   193.58610    -0.00000     0.00000     0.00000
  Kinetic   363.85507   355.92112   361.26967     2.01810    -0.00000     0.00000
  Fock        0.00000     0.00000     0.00000     0.00000     0.00000     0.00000
  -------------------------------------------------------------------------------------
  Total      -3.26117    -3.26117    -1.31522     0.00000     0.00000     0.00000
  in kB     -41.31438   -41.31438   -16.66190     0.00000     0.00000     0.00000
  external pressure =      -33.10 kB  Pullay stress =        0.00 kB


 VOLUME and BASIS-vectors are now :
 -----------------------------------------------------------------------------
  energy-cutoff  :      268.00
  volume of cell :      126.47
      direct lattice vectors                 reciprocal lattice vectors
     2.840000000  0.000000000  0.000000000     0.352112676  0.000000000  0.000000000
     0.000000000  2.840000000  0.000000000     0.000000000  0.352112676  0.000000000
     0.000000000  0.000000000 15.680000000     0.000000000  0.000000000  0.063775510

  length of vectors
     2.840000000  2.840000000 15.680000000     0.352112676  0.352112676  0.063775510


 FORCES acting on ions
    electron-ion (+dipol)            ewald-force                    non-local-force                 convergence-correction
 -----------------------------------------------------------------------------------------------
   0.134E-13 -.413E-12 -.149E+04   -.692E-14 -.852E-14 0.149E+04   0.775E-25 -.310E-24 0.638E+01   -.314E-13 -.116E-13 0.611E-01
   0.143E-12 0.780E-13 -.791E+03   0.141E-13 0.102E-13 0.791E+03   -.103E-24 0.207E-24 0.568E+00   -.445E-14 -.669E-15 0.934E-01
   0.521E-14 0.304E-12 0.241E-11   -.603E-14 -.151E-13 0.122E-10   0.000E+00 0.000E+00 0.000E+00   0.157E-14 -.205E-14 0.295E-13
   0.147E-12 0.499E-12 0.791E+03   0.142E-13 0.965E-14 -.791E+03   0.310E-24 0.207E-24 -.568E+00   0.134E-13 0.389E-14 -.934E-01
   0.163E-13 -.284E-12 0.149E+04   0.494E-14 -.911E-14 -.149E+04   -.517E-25 0.103E-24 -.638E+01   0.220E-13 0.138E-13 -.611E-01
 -----------------------------------------------------------------------------------------------
   0.325E-12 0.183E-12 -.260E-11   0.203E-13 -.128E-13 0.227E-12   0.233E-24 0.207E-24 0.000E+00   0.113E-14 0.336E-14 0.227E-12
 
 
 POSITION                                       TOTAL-FORCE (eV/Angst)
 -----------------------------------------------------------------------------------
     -0.00000      0.00000      2.84000        -0.000000      0.000000     -0.222951
      1.42000      1.42000      1.42000        -0.000000     -0.000000      0.471353
     -0.00000      0.00000      0.00000        -0.000000      0.000000      0.000000
      1.42000      1.42000     14.26000         0.000000      0.000000     -0.471353
     -0.00000      0.00000     12.84000        -0.000000     -0.000000      0.222951
 -----------------------------------------------------------------------------------
    total drift:                                0.000000      0.000000     -0.000000


--------------------------------------------------------------------------------------------------------



  FREE ENERGIE OF THE ION-ELECTRON SYSTEM (eV)
  ---------------------------------------------------
  free  energy   TOTEN  =       -38.69687912 eV

  energy  without entropy=      -38.69817047  energy(sigma->0) =      -38.69730957
 
 d Force =-0.2034269E-01[-0.413E-01, 0.584E-03]  d Energy =-0.2073858E-01 0.396E-03
 d Force =-0.5102808E+01[-0.516E+01,-0.505E+01]  d Ewald  =-0.5096890E+01-0.592E-02


--------------------------------------------------------------------------------------------------------


    POTLOK:  cpu time    0.0228: real time    0.0229


--------------------------------------------------------------------------------------------------------


