PROCAR new format
# of k-points:   15         # of bands:   32         # of ions:    5

 k-point     1 :    0.05000000 0.05000000 0.00000000     weight = 0.04000000

band     1 # energy   -7.05445078 # occ.  1.00000000
 
ion      s      p      d    tot
    1  0.053  0.007  0.000  0.061
    2  0.139  0.004  0.001  0.144
    3  0.186  0.002  0.000  0.188
    4  0.139  0.004  0.001  0.144
    5  0.053  0.007  0.000  0.061
tot    0.571  0.024  0.003  0.598
 
band     2 # energy   -5.62051283 # occ.  1.00000000
 
ion      s      p      d    tot
    1  0.124  0.007  0.004  0.135
    2  0.115  0.009  0.013  0.136
    3  0.000  0.038  0.003  0.040
    4  0.115  0.009  0.013  0.136
    5  0.124  0.007  0.004  0.135
tot    0.477  0.070  0.036  0.584
 
band     3 # energy   -3.94696268 # occ.  1.00000000
 
ion      s      p      d    tot
    1  0.077  0.001  0.041  0.119
    2  0.000  0.052  0.019  0.071
    3  0.081  0.001  0.177  0.258
    4  0.000  0.052  0.019  0.071
    5  0.077  0.001  0.041  0.119
tot    0.234  0.105  0.298  0.637
 
band     4 # energy   -3.88036555 # occ.  1.00000000
 
ion      s      p      d    tot
    1  0.000  0.000  0.119  0.120
    2  0.000  0.001  0.196  0.197
    3  0.000  0.001  0.229  0.230
    4  0.000  0.001  0.196  0.197
    5  0.000  0.000  0.119  0.120
tot    0.000  0.003  0.860  0.863
 
band     5 # energy   -3.82869161 # occ.  1.00000000
 
ion      s      p      d    tot
    1  0.006  0.006  0.139  0.151
    2  0.000  0.000  0.166  0.167
    3  0.001  0.000  0.194  0.195
    4  0.000  0.000  0.166  0.167
    5  0.006  0.006  0.139  0.151
tot    0.013  0.013  0.804  0.830
 
band     6 # energy   -3.48679916 # occ.  1.00000000
 
ion      s      p      d    tot
    1  0.010  0.008  0.213  0.231
    2  0.007  0.008  0.137  0.153
    3  0.000  0.026  0.002  0.028
    4  0.007  0.008  0.137  0.153
    5  0.010  0.008  0.213  0.231
tot    0.036  0.057  0.703  0.796
 
band     7 # energy   -3.42111598 # occ.  1.00000000
 
ion      s      p      d    tot
    1  0.000  0.001  0.262  0.263
    2  0.000  0.001  0.174  0.175
    3  0.000  0.000  0.002  0.002
    4  0.000  0.001  0.174  0.175
    5  0.000  0.001  0.262  0.263
tot    0.000  0.003  0.875  0.878
 
band     8 # energy   -2.50065735 # occ.  1.00000000
 
ion      s      p      d    tot
    1  0.000  0.001  0.251  0.252
    2  0.000  0.000  0.017  0.017
    3  0.000  0.001  0.361  0.362
    4  0.000  0.000  0.017  0.017
    5  0.000  0.001  0.251  0.252
tot    0.000  0.003  0.899  0.901
 
band     9 # energy   -1.84759040 # occ.  1.00000000
 
ion      s      p      d    tot
    1  0.000  0.001  0.298  0.300
    2  0.000  0.002  0.134  0.136
    3  0.000  0.001  0.079  0.080
    4  0.000  0.002  0.134  0.136
    5  0.000  0.001  0.298  0.300
tot    0.001  0.007  0.943  0.951
 
band    10 # energy   -1.77498248 # occ.  1.00000000
 
ion      s      p      d    tot
    1  0.000  0.001  0.228  0.229
    2  0.000  0.000  0.176  0.177
    3  0.000  0.000  0.155  0.155
    4  0.000  0.000  0.176  0.177
    5  0.000  0.001  0.228  0.229
tot    0.000  0.002  0.964  0.966
 
band    11 # energy   -1.77118703 # occ.  1.00000000
 
ion      s      p      d    tot
    1  0.000  0.001  0.359  0.360
    2  0.000  0.002  0.117  0.119
    3  0.000  0.001  0.000  0.001
    4  0.000  0.002  0.117  0.119
    5  0.000  0.001  0.359  0.360
tot    0.000  0.007  0.953  0.960
 
band    12 # energy   -1.76642120 # occ.  1.00000000
 
ion      s      p      d    tot
    1  0.001  0.002  0.368  0.371
    2  0.001  0.002  0.096  0.099
    3  0.000  0.000  0.004  0.004
    4  0.001  0.002  0.096  0.099
    5  0.001  0.002  0.368  0.371
tot    0.004  0.008  0.933  0.944
 
band    13 # energy   -1.68594113 # occ.  1.00000000
 
ion      s      p      d    tot
    1  0.001  0.001  0.113  0.115
    2  0.000  0.002  0.161  0.163
    3  0.000  0.000  0.391  0.391
    4  0.000  0.002  0.161  0.163
    5  0.001  0.001  0.113  0.115
tot    0.003  0.006  0.938  0.947
 
band    14 # energy   -1.62449665 # occ.  1.00000000
 
ion      s      p      d    tot
    1  0.000  0.000  0.220  0.220
    2  0.000  0.006  0.094  0.100
    3  0.000  0.000  0.298  0.298
    4  0.000  0.006  0.094  0.100
    5  0.000  0.000  0.220  0.220
tot    0.000  0.012  0.926  0.938
 
band    15 # energy   -1.56391529 # occ.  1.00000000
 
ion      s      p      d    tot
    1  0.000  0.000  0.242  0.243
    2  0.000  0.001  0.174  0.175
    3  0.000  0.001  0.130  0.131
    4  0.000  0.001  0.174  0.175
    5  0.000  0.000  0.242  0.243
tot    0.001  0.003  0.963  0.966
 
band    16 # energy   -1.22051464 # occ.  1.00000000
 
ion      s      p      d    tot
    1  0.004  0.003  0.260  0.267
    2  0.001  0.002  0.099  0.102
    3  0.000  0.000  0.185  0.186
    4  0.001  0.002  0.099  0.102
    5  0.004  0.003  0.260  0.267
tot    0.009  0.010  0.903  0.922
 
band    17 # energy   -1.18560250 # occ.  1.00000000
 
ion      s      p      d    tot
    1  0.000  0.000  0.161  0.161
    2  0.000  0.002  0.209  0.211
    3  0.000  0.000  0.203  0.203
    4  0.000  0.002  0.209  0.211
    5  0.000  0.000  0.161  0.161
tot    0.000  0.004  0.943  0.947
 
band    18 # energy   -1.18368627 # occ.  1.00000000
 
ion      s      p      d    tot
    1  0.018  0.016  0.223  0.257
    2  0.002  0.001  0.078  0.082
    3  0.007  0.001  0.038  0.046
    4  0.002  0.001  0.078  0.082
    5  0.018  0.016  0.223  0.257
tot    0.048  0.035  0.641  0.724
 
band    19 # energy   -1.02517861 # occ.  1.00000000
 
ion      s      p      d    tot
    1  0.009  0.014  0.225  0.247
    2  0.002  0.003  0.100  0.105
    3  0.000  0.004  0.089  0.093
    4  0.002  0.003  0.100  0.105
    5  0.009  0.014  0.225  0.247
tot    0.023  0.036  0.738  0.797
 
band    20 # energy   -0.95569357 # occ.  1.00000000
 
ion      s      p      d    tot
    1  0.001  0.001  0.221  0.224
    2  0.000  0.002  0.073  0.074
    3  0.002  0.002  0.351  0.356
    4  0.000  0.002  0.073  0.074
    5  0.001  0.001  0.221  0.224
tot    0.005  0.007  0.939  0.951
 
band    21 # energy   -0.66131048 # occ.  1.00000000
 
ion      s      p      d    tot
    1  0.000  0.000  0.066  0.067
    2  0.000  0.000  0.256  0.256
    3  0.000  0.000  0.314  0.314
    4  0.000  0.000  0.256  0.256
    5  0.000  0.000  0.066  0.067
tot    0.000  0.000  0.959  0.959
 
band    22 # energy   -0.50946796 # occ.  1.00000000
 
ion      s      p      d    tot
    1  0.000  0.002  0.134  0.136
    2  0.000  0.002  0.333  0.335
    3  0.000  0.011  0.002  0.013
    4  0.000  0.002  0.333  0.335
    5  0.000  0.002  0.134  0.136
tot    0.000  0.019  0.936  0.955
 
band    23 # energy   -0.38031975 # occ.  1.00000000
 
ion      s      p      d    tot
    1  0.000  0.001  0.160  0.161
    2  0.000  0.001  0.251  0.252
    3  0.001  0.007  0.130  0.138
    4  0.000  0.001  0.251  0.252
    5  0.000  0.001  0.160  0.161
tot    0.002  0.012  0.952  0.965
 
band    24 # energy   -0.17856659 # occ.  1.00000000
 
ion      s      p      d    tot
    1  0.006  0.002  0.005  0.013
    2  0.001  0.002  0.213  0.216
    3  0.008  0.001  0.460  0.469
    4  0.001  0.002  0.213  0.216
    5  0.006  0.002  0.005  0.013
tot    0.020  0.009  0.897  0.926
 
band    25 # energy   -0.03649195 # occ.  1.00000009
 
ion      s      p      d    tot
    1  0.000  0.002  0.130  0.132
    2  0.000  0.000  0.332  0.332
    3  0.000  0.000  0.041  0.042
    4  0.000  0.000  0.332  0.332
    5  0.000  0.002  0.130  0.132
tot    0.000  0.005  0.966  0.971
 
band    26 # energy    0.32325639 # occ.  1.00352660
 
ion      s      p      d    tot
    1  0.000  0.004  0.061  0.065
    2  0.000  0.001  0.277  0.278
    3  0.000  0.000  0.289  0.289
    4  0.000  0.001  0.277  0.278
    5  0.000  0.004  0.061  0.065
tot    0.000  0.009  0.965  0.974
 
band    27 # energy    0.34294847 # occ.  1.00507832
 
ion      s      p      d    tot
    1  0.000  0.001  0.086  0.088
    2  0.001  0.001  0.286  0.288
    3  0.000  0.002  0.222  0.224
    4  0.001  0.001  0.286  0.288
    5  0.000  0.001  0.086  0.088
tot    0.003  0.007  0.966  0.976
 
band    28 # energy    0.46490626 # occ.  1.02659665
 
ion      s      p      d    tot
    1  0.000  0.001  0.064  0.064
    2  0.000  0.000  0.282  0.282
    3  0.000  0.000  0.290  0.290
    4  0.000  0.000  0.282  0.282
    5  0.000  0.001  0.064  0.064
tot    0.000  0.002  0.981  0.982
 
band    29 # energy    1.06003019 # occ. -0.02971962
 
ion      s      p      d    tot
    1  0.003  0.031  0.012  0.046
    2  0.039  0.002  0.212  0.252
    3  0.000  0.027  0.009  0.036
    4  0.039  0.002  0.212  0.252
    5  0.003  0.031  0.012  0.046
tot    0.083  0.092  0.456  0.631
 
band    30 # energy    2.94767735 # occ. -0.00000000
 
ion      s      p      d    tot
    1  0.012  0.024  0.040  0.076
    2  0.006  0.030  0.014  0.050
    3  0.033  0.001  0.058  0.092
    4  0.006  0.030  0.014  0.050
    5  0.012  0.024  0.040  0.076
tot    0.070  0.108  0.167  0.344
 
band    31 # energy    4.77638761 # occ. -0.00000000
 
ion      s      p      d    tot
    1  0.000  0.031  0.006  0.037
    2  0.007  0.016  0.011  0.034
    3  0.016  0.001  0.022  0.038
    4  0.007  0.016  0.011  0.034
    5  0.000  0.031  0.006  0.037
tot    0.030  0.095  0.054  0.179
 
band    32 # energy    5.08617707 # occ. -0.00000000
 
ion      s      p      d    tot
    1  0.023  0.001  0.026  0.050
    2  0.011  0.023  0.017  0.051
    3  0.000  0.046  0.002  0.047
    4  0.011  0.023  0.017  0.051
    5  0.023  0.001  0.026  0.050
tot    0.068  0.095  0.087  0.250
 

 k-point     2 :    0.15000000 0.05000000 0.00000000     weight = 0.08000000

band     1 # energy   -6.66257638 # occ.  1.00000000
 
ion      s      p      d    tot
    1  0.050  0.009  0.002  0.061
    2  0.134  0.009  0.002  0.145
    3  0.180  0.009  0.001  0.190
    4  0.134  0.009  0.002  0.145
    5  0.050  0.009  0.002  0.061
tot    0.547  0.046  0.008  0.601
 
band     2 # energy   -5.28435763 # occ.  1.00000000
 
ion      s      p      d    tot
    1  0.115  0.012  0.006  0.133
    2  0.111  0.012  0.017  0.140
    3  0.000  0.036  0.016  0.052
    4  0.111  0.012  0.017  0.140
    5  0.115  0.012  0.006  0.133
tot    0.452  0.083  0.062  0.597
 
band     3 # energy   -3.77353609 # occ.  1.00000000
 
ion      s      p      d    tot
    1  0.067  0.001  0.085  0.154
    2  0.000  0.038  0.058  0.097
    3  0.059  0.004  0.119  0.182
    4  0.000  0.038  0.058  0.097
    5  0.067  0.001  0.085  0.154
tot    0.194  0.083  0.405  0.682
 
band     4 # energy   -3.74348370 # occ.  1.00000000
 
ion      s      p      d    tot
    1  0.003  0.002  0.083  0.088
    2  0.000  0.007  0.184  0.191
    3  0.009  0.002  0.281  0.292
    4  0.000  0.007  0.184  0.191
    5  0.003  0.002  0.083  0.088
tot    0.016  0.019  0.815  0.851
 
band     5 # energy   -3.64385422 # occ.  1.00000000
 
ion      s      p      d    tot
    1  0.005  0.006  0.137  0.147
    2  0.000  0.002  0.166  0.169
    3  0.001  0.003  0.199  0.203
    4  0.000  0.002  0.166  0.169
    5  0.005  0.006  0.137  0.147
tot    0.011  0.020  0.805  0.835
 
band     6 # energy   -3.47038534 # occ.  1.00000000
 
ion      s      p      d    tot
    1  0.009  0.003  0.229  0.240
    2  0.004  0.005  0.154  0.162
    3  0.000  0.010  0.020  0.029
    4  0.004  0.005  0.154  0.162
    5  0.009  0.003  0.229  0.240
tot    0.025  0.026  0.785  0.835
 
band     7 # energy   -3.19264203 # occ.  1.00000000
 
ion      s      p      d    tot
    1  0.003  0.007  0.244  0.254
    2  0.002  0.007  0.151  0.160
    3  0.000  0.012  0.003  0.015
    4  0.002  0.007  0.151  0.160
    5  0.003  0.007  0.244  0.254
tot    0.010  0.041  0.792  0.843
 
band     8 # energy   -2.45719600 # occ.  1.00000000
 
ion      s      p      d    tot
    1  0.002  0.003  0.225  0.231
    2  0.000  0.003  0.043  0.047
    3  0.002  0.007  0.324  0.333
    4  0.000  0.003  0.043  0.047
    5  0.002  0.003  0.225  0.231
tot    0.006  0.020  0.862  0.888
 
band     9 # energy   -2.03215408 # occ.  1.00000000
 
ion      s      p      d    tot
    1  0.004  0.001  0.258  0.263
    2  0.000  0.003  0.104  0.107
    3  0.000  0.001  0.173  0.174
    4  0.000  0.003  0.104  0.107
    5  0.004  0.001  0.258  0.263
tot    0.009  0.008  0.897  0.914
 
band    10 # energy   -2.01107787 # occ.  1.00000000
 
ion      s      p      d    tot
    1  0.000  0.001  0.253  0.254
    2  0.000  0.002  0.147  0.150
    3  0.001  0.000  0.139  0.140
    4  0.000  0.002  0.147  0.150
    5  0.000  0.001  0.253  0.254
tot    0.002  0.007  0.939  0.947
 
band    11 # energy   -1.89083678 # occ.  1.00000000
 
ion      s      p      d    tot
    1  0.003  0.001  0.188  0.192
    2  0.000  0.005  0.112  0.117
    3  0.000  0.000  0.301  0.301
    4  0.000  0.005  0.112  0.117
    5  0.003  0.001  0.188  0.192
tot    0.006  0.011  0.900  0.918
 
band    12 # energy   -1.87772918 # occ.  1.00000000
 
ion      s      p      d    tot
    1  0.001  0.001  0.381  0.383
    2  0.000  0.003  0.070  0.073
    3  0.001  0.001  0.015  0.016
    4  0.000  0.003  0.070  0.073
    5  0.001  0.001  0.381  0.383
tot    0.003  0.008  0.917  0.929
 
band    13 # energy   -1.80813704 # occ.  1.00000000
 
ion      s      p      d    tot
    1  0.000  0.001  0.274  0.275
    2  0.000  0.001  0.149  0.151
    3  0.000  0.000  0.108  0.109
    4  0.000  0.001  0.149  0.151
    5  0.000  0.001  0.274  0.275
tot    0.001  0.005  0.955  0.960
 
band    14 # energy   -1.72197525 # occ.  1.00000000
 
ion      s      p      d    tot
    1  0.000  0.001  0.251  0.253
    2  0.001  0.003  0.157  0.160
    3  0.000  0.001  0.130  0.131
    4  0.001  0.003  0.157  0.160
    5  0.000  0.001  0.251  0.253
tot    0.002  0.009  0.946  0.957
 
band    15 # energy   -1.60716207 # occ.  1.00000000
 
ion      s      p      d    tot
    1  0.000  0.000  0.298  0.299
    2  0.000  0.001  0.176  0.177
    3  0.000  0.004  0.005  0.009
    4  0.000  0.001  0.176  0.177
    5  0.000  0.000  0.298  0.299
tot    0.000  0.007  0.953  0.960
 
band    16 # energy   -1.23693037 # occ.  1.00000000
 
ion      s      p      d    tot
    1  0.003  0.003  0.177  0.183
    2  0.001  0.003  0.064  0.068
    3  0.000  0.002  0.418  0.419
    4  0.001  0.003  0.064  0.068
    5  0.003  0.003  0.177  0.183
tot    0.007  0.014  0.900  0.921
 
band    17 # energy   -1.04684411 # occ.  1.00000000
 
ion      s      p      d    tot
    1  0.004  0.001  0.235  0.241
    2  0.000  0.003  0.058  0.062
    3  0.000  0.000  0.331  0.331
    4  0.000  0.003  0.058  0.062
    5  0.004  0.001  0.235  0.241
tot    0.009  0.009  0.918  0.936
 
band    18 # energy   -1.01334911 # occ.  1.00000000
 
ion      s      p      d    tot
    1  0.002  0.004  0.186  0.192
    2  0.001  0.002  0.180  0.182
    3  0.000  0.001  0.161  0.162
    4  0.001  0.002  0.180  0.182
    5  0.002  0.004  0.186  0.192
tot    0.006  0.013  0.892  0.911
 
band    19 # energy   -0.94474073 # occ.  1.00000000
 
ion      s      p      d    tot
    1  0.016  0.011  0.274  0.300
    2  0.001  0.005  0.076  0.082
    3  0.014  0.001  0.022  0.036
    4  0.001  0.005  0.076  0.082
    5  0.016  0.011  0.274  0.300
tot    0.047  0.032  0.722  0.801
 
band    20 # energy   -0.79919728 # occ.  1.00000000
 
ion      s      p      d    tot
    1  0.004  0.007  0.175  0.185
    2  0.000  0.003  0.192  0.195
    3  0.000  0.002  0.132  0.135
    4  0.000  0.003  0.192  0.195
    5  0.004  0.007  0.175  0.185
tot    0.007  0.022  0.867  0.896
 
band    21 # energy   -0.61359264 # occ.  1.00000000
 
ion      s      p      d    tot
    1  0.000  0.000  0.039  0.040
    2  0.000  0.000  0.258  0.258
    3  0.001  0.000  0.365  0.366
    4  0.000  0.000  0.258  0.258
    5  0.000  0.000  0.039  0.040
tot    0.001  0.001  0.959  0.961
 
band    22 # energy   -0.54470385 # occ.  1.00000000
 
ion      s      p      d    tot
    1  0.000  0.003  0.131  0.134
    2  0.001  0.001  0.311  0.313
    3  0.001  0.008  0.046  0.056
    4  0.001  0.001  0.311  0.313
    5  0.000  0.003  0.131  0.134
tot    0.003  0.016  0.931  0.950
 
band    23 # energy   -0.24268028 # occ.  1.00000000
 
ion      s      p      d    tot
    1  0.005  0.002  0.048  0.055
    2  0.000  0.002  0.219  0.221
    3  0.005  0.002  0.376  0.383
    4  0.000  0.002  0.219  0.221
    5  0.005  0.002  0.048  0.055
tot    0.015  0.010  0.911  0.936
 
band    24 # energy   -0.20781940 # occ.  1.00000000
 
ion      s      p      d    tot
    1  0.001  0.003  0.115  0.119
    2  0.001  0.001  0.343  0.345
    3  0.000  0.003  0.033  0.036
    4  0.001  0.001  0.343  0.345
    5  0.001  0.003  0.115  0.119
tot    0.002  0.010  0.951  0.964
 
band    25 # energy   -0.07341242 # occ.  1.00000002
 
ion      s      p      d    tot
    1  0.004  0.003  0.138  0.146
    2  0.001  0.002  0.252  0.255
    3  0.002  0.008  0.113  0.123
    4  0.001  0.002  0.252  0.255
    5  0.004  0.003  0.138  0.146
tot    0.013  0.019  0.891  0.923
 
band    26 # energy    0.08810688 # occ.  1.00000800
 
ion      s      p      d    tot
    1  0.001  0.003  0.084  0.088
    2  0.002  0.002  0.293  0.296
    3  0.000  0.004  0.194  0.198
    4  0.002  0.002  0.293  0.296
    5  0.001  0.003  0.084  0.088
tot    0.006  0.012  0.948  0.966
 
band    27 # energy    0.39037832 # occ.  1.01102230
 
ion      s      p      d    tot
    1  0.000  0.003  0.048  0.050
    2  0.000  0.001  0.270  0.271
    3  0.000  0.000  0.333  0.333
    4  0.000  0.001  0.270  0.271
    5  0.000  0.003  0.048  0.050
tot    0.000  0.006  0.969  0.975
 
band    28 # energy    0.51426384 # occ.  1.03507174
 
ion      s      p      d    tot
    1  0.000  0.001  0.077  0.078
    2  0.001  0.001  0.284  0.285
    3  0.000  0.001  0.251  0.252
    4  0.001  0.001  0.284  0.285
    5  0.000  0.001  0.077  0.078
tot    0.001  0.005  0.972  0.979
 
band    29 # energy    1.33535470 # occ. -0.00023549
 
ion      s      p      d    tot
    1  0.004  0.038  0.016  0.057
    2  0.034  0.006  0.163  0.203
    3  0.000  0.030  0.027  0.057
    4  0.034  0.006  0.163  0.203
    5  0.004  0.038  0.016  0.057
tot    0.076  0.117  0.385  0.579
 
band    30 # energy    3.31820901 # occ. -0.00000000
 
ion      s      p      d    tot
    1  0.010  0.025  0.036  0.070
    2  0.005  0.031  0.017  0.053
    3  0.026  0.006  0.050  0.082
    4  0.005  0.031  0.017  0.053
    5  0.010  0.025  0.036  0.070
tot    0.056  0.117  0.157  0.329
 
band    31 # energy    5.16274135 # occ. -0.00000000
 
ion      s      p      d    tot
    1  0.000  0.031  0.007  0.038
    2  0.005  0.018  0.011  0.034
    3  0.012  0.004  0.021  0.037
    4  0.005  0.018  0.011  0.034
    5  0.000  0.031  0.007  0.038
tot    0.024  0.102  0.057  0.183
 
band    32 # energy    5.46404234 # occ. -0.00000000
 
ion      s      p      d    tot
    1  0.019  0.005  0.024  0.047
    2  0.008  0.023  0.019  0.050
    3  0.000  0.043  0.006  0.048
    4  0.008  0.023  0.019  0.050
    5  0.019  0.005  0.024  0.047
tot    0.054  0.099  0.091  0.244
 

 k-point     3 :    0.25000000 0.05000000 0.00000000     weight = 0.08000000

band     1 # energy   -5.93161452 # occ.  1.00000000
 
ion      s      p      d    tot
    1  0.042  0.012  0.009  0.063
    2  0.122  0.019  0.006  0.146
    3  0.168  0.021  0.004  0.193
    4  0.122  0.019  0.006  0.146
    5  0.042  0.012  0.009  0.063
tot    0.495  0.083  0.033  0.612
 
band     2 # energy   -4.73401113 # occ.  1.00000000
 
ion      s      p      d    tot
    1  0.089  0.018  0.019  0.126
    2  0.102  0.014  0.034  0.151
    3  0.000  0.030  0.062  0.092
    4  0.102  0.014  0.034  0.151
    5  0.089  0.018  0.019  0.126
tot    0.382  0.093  0.169  0.644
 
band     3 # energy   -3.65896076 # occ.  1.00000000
 
ion      s      p      d    tot
    1  0.058  0.002  0.109  0.169
    2  0.000  0.021  0.110  0.131
    3  0.041  0.001  0.105  0.147
    4  0.000  0.021  0.110  0.131
    5  0.058  0.002  0.109  0.169
tot    0.158  0.047  0.543  0.748
 
band     4 # energy   -3.54357826 # occ.  1.00000000
 
ion      s      p      d    tot
    1  0.000  0.002  0.100  0.102
    2  0.002  0.008  0.183  0.193
    3  0.009  0.005  0.252  0.266
    4  0.002  0.008  0.183  0.193
    5  0.000  0.002  0.100  0.102
tot    0.012  0.026  0.818  0.856
 
band     5 # energy   -3.50985277 # occ.  1.00000000
 
ion      s      p      d    tot
    1  0.019  0.001  0.220  0.241
    2  0.002  0.007  0.144  0.154
    3  0.000  0.003  0.039  0.042
    4  0.002  0.007  0.144  0.154
    5  0.019  0.001  0.220  0.241
tot    0.042  0.020  0.769  0.831
 
band     6 # energy   -3.32288552 # occ.  1.00000000
 
ion      s      p      d    tot
    1  0.000  0.006  0.116  0.122
    2  0.001  0.006  0.165  0.172
    3  0.000  0.011  0.250  0.260
    4  0.001  0.006  0.165  0.172
    5  0.000  0.006  0.116  0.122
tot    0.003  0.036  0.811  0.850
 
band     7 # energy   -2.74292429 # occ.  1.00000000
 
ion      s      p      d    tot
    1  0.001  0.010  0.257  0.268
    2  0.000  0.012  0.136  0.148
    3  0.000  0.014  0.007  0.021
    4  0.000  0.012  0.136  0.148
    5  0.001  0.010  0.257  0.268
tot    0.002  0.058  0.793  0.853
 
band     8 # energy   -2.30216252 # occ.  1.00000000
 
ion      s      p      d    tot
    1  0.002  0.000  0.191  0.194
    2  0.000  0.001  0.166  0.167
    3  0.000  0.001  0.210  0.211
    4  0.000  0.001  0.166  0.167
    5  0.002  0.000  0.191  0.194
tot    0.004  0.005  0.925  0.934
 
band     9 # energy   -2.23585354 # occ.  1.00000000
 
ion      s      p      d    tot
    1  0.003  0.003  0.181  0.186
    2  0.000  0.001  0.172  0.173
    3  0.001  0.003  0.205  0.209
    4  0.000  0.001  0.172  0.173
    5  0.003  0.003  0.181  0.186
tot    0.006  0.011  0.911  0.928
 
band    10 # energy   -2.08463238 # occ.  1.00000000
 
ion      s      p      d    tot
    1  0.001  0.001  0.345  0.347
    2  0.000  0.004  0.075  0.079
    3  0.004  0.003  0.052  0.060
    4  0.000  0.004  0.075  0.079
    5  0.001  0.001  0.345  0.347
tot    0.006  0.012  0.893  0.910
 
band    11 # energy   -2.01899114 # occ.  1.00000000
 
ion      s      p      d    tot
    1  0.008  0.009  0.240  0.257
    2  0.000  0.013  0.033  0.045
    3  0.004  0.011  0.241  0.256
    4  0.000  0.013  0.033  0.045
    5  0.008  0.009  0.240  0.257
tot    0.020  0.054  0.787  0.861
 
band    12 # energy   -2.00677060 # occ.  1.00000000
 
ion      s      p      d    tot
    1  0.012  0.005  0.336  0.352
    2  0.000  0.005  0.020  0.026
    3  0.000  0.003  0.092  0.095
    4  0.000  0.005  0.020  0.026
    5  0.012  0.005  0.336  0.352
tot    0.025  0.022  0.804  0.851
 
band    13 # energy   -1.84613767 # occ.  1.00000000
 
ion      s      p      d    tot
    1  0.001  0.001  0.270  0.273
    2  0.000  0.003  0.158  0.161
    3  0.000  0.000  0.089  0.090
    4  0.000  0.003  0.158  0.161
    5  0.001  0.001  0.270  0.273
tot    0.003  0.008  0.945  0.956
 
band    14 # energy   -1.82673751 # occ.  1.00000000
 
ion      s      p      d    tot
    1  0.000  0.000  0.322  0.322
    2  0.000  0.003  0.130  0.133
    3  0.001  0.005  0.029  0.035
    4  0.000  0.003  0.130  0.133
    5  0.000  0.000  0.322  0.322
tot    0.001  0.012  0.931  0.944
 
band    15 # energy   -1.71155501 # occ.  1.00000000
 
ion      s      p      d    tot
    1  0.002  0.003  0.186  0.191
    2  0.003  0.007  0.151  0.162
    3  0.000  0.004  0.228  0.232
    4  0.003  0.007  0.151  0.162
    5  0.002  0.003  0.186  0.191
tot    0.010  0.025  0.903  0.938
 
band    16 # energy   -1.26847900 # occ.  1.00000000
 
ion      s      p      d    tot
    1  0.001  0.000  0.259  0.259
    2  0.000  0.006  0.021  0.027
    3  0.001  0.000  0.379  0.380
    4  0.000  0.006  0.021  0.027
    5  0.001  0.000  0.259  0.259
tot    0.002  0.013  0.939  0.954
 
band    17 # energy   -1.04777867 # occ.  1.00000000
 
ion      s      p      d    tot
    1  0.002  0.001  0.244  0.246
    2  0.000  0.004  0.017  0.021
    3  0.000  0.000  0.424  0.425
    4  0.000  0.004  0.017  0.021
    5  0.002  0.001  0.244  0.246
tot    0.003  0.009  0.947  0.959
 
band    18 # energy   -0.81306501 # occ.  1.00000000
 
ion      s      p      d    tot
    1  0.008  0.004  0.242  0.254
    2  0.000  0.005  0.175  0.180
    3  0.013  0.000  0.023  0.036
    4  0.000  0.005  0.175  0.180
    5  0.008  0.004  0.242  0.254
tot    0.029  0.017  0.858  0.904
 
band    19 # energy   -0.79491567 # occ.  1.00000000
 
ion      s      p      d    tot
    1  0.003  0.005  0.153  0.162
    2  0.002  0.002  0.243  0.247
    3  0.000  0.002  0.091  0.093
    4  0.002  0.002  0.243  0.247
    5  0.003  0.005  0.153  0.162
tot    0.010  0.016  0.884  0.910
 
band    20 # energy   -0.64641657 # occ.  1.00000000
 
ion      s      p      d    tot
    1  0.004  0.001  0.042  0.048
    2  0.000  0.001  0.183  0.185
    3  0.010  0.000  0.464  0.474
    4  0.000  0.001  0.183  0.185
    5  0.004  0.001  0.042  0.048
tot    0.019  0.004  0.915  0.938
 
band    21 # energy   -0.63422298 # occ.  1.00000000
 
ion      s      p      d    tot
    1  0.001  0.003  0.134  0.137
    2  0.001  0.002  0.259  0.262
    3  0.000  0.001  0.150  0.151
    4  0.001  0.002  0.259  0.262
    5  0.001  0.003  0.134  0.137
tot    0.003  0.010  0.936  0.949
 
band    22 # energy   -0.49496194 # occ.  1.00000000
 
ion      s      p      d    tot
    1  0.002  0.010  0.104  0.116
    2  0.003  0.004  0.297  0.303
    3  0.002  0.009  0.041  0.052
    4  0.003  0.004  0.297  0.303
    5  0.002  0.010  0.104  0.116
tot    0.010  0.037  0.843  0.890
 
band    23 # energy   -0.37908316 # occ.  1.00000000
 
ion      s      p      d    tot
    1  0.001  0.003  0.107  0.111
    2  0.003  0.002  0.299  0.303
    3  0.000  0.009  0.113  0.123
    4  0.003  0.002  0.299  0.303
    5  0.001  0.003  0.107  0.111
tot    0.007  0.020  0.924  0.951
 
band    24 # energy   -0.18960290 # occ.  1.00000000
 
ion      s      p      d    tot
    1  0.004  0.003  0.075  0.083
    2  0.000  0.002  0.249  0.251
    3  0.001  0.004  0.265  0.269
    4  0.000  0.002  0.249  0.251
    5  0.004  0.003  0.075  0.083
tot    0.010  0.014  0.913  0.937
 
band    25 # energy   -0.02382816 # occ.  1.00000015
 
ion      s      p      d    tot
    1  0.001  0.003  0.124  0.128
    2  0.000  0.001  0.332  0.333
    3  0.000  0.000  0.048  0.048
    4  0.000  0.001  0.332  0.333
    5  0.001  0.003  0.124  0.128
tot    0.003  0.007  0.958  0.969
 
band    26 # energy    0.05262979 # occ.  1.00000245
 
ion      s      p      d    tot
    1  0.012  0.008  0.112  0.132
    2  0.001  0.008  0.222  0.231
    3  0.005  0.011  0.128  0.145
    4  0.001  0.008  0.222  0.231
    5  0.012  0.008  0.112  0.132
tot    0.031  0.042  0.796  0.870
 
band    27 # energy    0.51642877 # occ.  1.03521240
 
ion      s      p      d    tot
    1  0.002  0.005  0.059  0.065
    2  0.000  0.001  0.255  0.256
    3  0.001  0.001  0.307  0.309
    4  0.000  0.001  0.255  0.256
    5  0.002  0.005  0.059  0.065
tot    0.005  0.013  0.934  0.952
 
band    28 # energy    0.60650312 # occ.  0.99388869
 
ion      s      p      d    tot
    1  0.000  0.001  0.065  0.066
    2  0.000  0.001  0.282  0.283
    3  0.000  0.001  0.278  0.279
    4  0.000  0.001  0.282  0.283
    5  0.000  0.001  0.065  0.066
tot    0.001  0.005  0.972  0.978
 
band    29 # energy    1.86849998 # occ. -0.00000000
 
ion      s      p      d    tot
    1  0.005  0.048  0.022  0.075
    2  0.026  0.017  0.104  0.146
    3  0.000  0.038  0.032  0.070
    4  0.026  0.017  0.104  0.146
    5  0.005  0.048  0.022  0.075
tot    0.061  0.168  0.282  0.512
 
band    30 # energy    3.94086706 # occ. -0.00000000
 
ion      s      p      d    tot
    1  0.006  0.031  0.027  0.064
    2  0.003  0.038  0.018  0.058
    3  0.012  0.021  0.047  0.080
    4  0.003  0.038  0.018  0.058
    5  0.006  0.031  0.027  0.064
tot    0.029  0.159  0.136  0.324
 
band    31 # energy    5.74378389 # occ. -0.00000000
 
ion      s      p      d    tot
    1  0.002  0.030  0.003  0.035
    2  0.002  0.041  0.025  0.069
    3  0.002  0.047  0.040  0.089
    4  0.002  0.041  0.025  0.069
    5  0.002  0.030  0.003  0.035
tot    0.009  0.191  0.096  0.296
 
band    32 # energy    6.00508496 # occ. -0.00000000
 
ion      s      p      d    tot
    1  0.003  0.028  0.031  0.062
    2  0.000  0.040  0.021  0.061
    3  0.000  0.046  0.002  0.048
    4  0.000  0.040  0.021  0.061
    5  0.003  0.028  0.031  0.062
tot    0.007  0.181  0.106  0.293
 

 k-point     4 :    0.35000000 0.05000000 0.00000000     weight = 0.08000000

band     1 # energy   -5.00393995 # occ.  1.00000000
 
ion      s      p      d    tot
    1  0.027  0.014  0.028  0.069
    2  0.100  0.028  0.025  0.152
    3  0.145  0.035  0.022  0.202
    4  0.100  0.028  0.025  0.152
    5  0.027  0.014  0.028  0.069
tot    0.399  0.118  0.127  0.644
 
band     2 # energy   -4.28528774 # occ.  1.00000000
 
ion      s      p      d    tot
    1  0.036  0.017  0.061  0.114
    2  0.083  0.008  0.082  0.173
    3  0.000  0.014  0.167  0.181
    4  0.083  0.008  0.082  0.173
    5  0.036  0.017  0.061  0.114
tot    0.238  0.064  0.453  0.754
 
band     3 # energy   -3.69179807 # occ.  1.00000000
 
ion      s      p      d    tot
    1  0.040  0.004  0.084  0.128
    2  0.005  0.006  0.167  0.178
    3  0.032  0.002  0.164  0.198
    4  0.005  0.006  0.167  0.178
    5  0.040  0.004  0.084  0.128
tot    0.123  0.021  0.666  0.810
 
band     4 # energy   -3.48987596 # occ.  1.00000000
 
ion      s      p      d    tot
    1  0.046  0.001  0.216  0.263
    2  0.000  0.014  0.118  0.132
    3  0.000  0.000  0.017  0.017
    4  0.000  0.014  0.118  0.132
    5  0.046  0.001  0.216  0.263
tot    0.092  0.030  0.685  0.807
 
band     5 # energy   -3.41032019 # occ.  1.00000000
 
ion      s      p      d    tot
    1  0.013  0.002  0.161  0.177
    2  0.005  0.021  0.135  0.160
    3  0.013  0.012  0.128  0.153
    4  0.005  0.021  0.135  0.160
    5  0.013  0.002  0.161  0.177
tot    0.049  0.058  0.720  0.827
 