<?xml version="1.0" encoding="ISO-8859-1"?>
<modeling>
 <generator>
  <i name="program" type="string">vasp </i>
  <i name="version" type="string">5.4.4.18Apr17-6-g9f103f2a35  </i>
  <i name="subversion" type="string">(build May 18 2018 14:42:58) complex            parallel </i>
  <i name="platform" type="string">LinuxIFC </i>
  <i name="date" type="string">2020 07 01 </i>
  <i name="time" type="string">22:12:35 </i>
 </generator>
 <incar>
  <i type="string" name="SYSTEM"> BCC Fe</i>
  <i type="string" name="PREC">normal</i>
  <i type="int" name="ISPIN">     2</i>
  <i type="int" name="IBRION">     2</i>
  <i name="EDIFFG">     -0.01000000</i>
  <i type="int" name="NSW">    50</i>
  <i name="ENCUT">    268.00000000</i>
  <v name="RWIGS">      1.30200000</v>
  <v name="MAGMOM">      3.00000000      3.00000000      3.00000000      3.00000000      3.00000000</v>
  <i type="logical" name="LVHAR"> T  </i>
  <v type="int" name="KPOINT_BSE">    -1     0     0     0</v>
 </incar>
 <structure name="primitive_cell" >
  <crystal>
   <varray name="basis" >
    <v>       2.84000000       0.00000000       0.00000000 </v>
    <v>       0.00000000       2.84000000       0.00000000 </v>
    <v>       0.00000000       0.00000000      15.68000000 </v>
   </varray>
   <i name="volume">    126.46860800 </i>
   <varray name="rec_basis" >
    <v>       0.35211268       0.00000000       0.00000000 </v>
    <v>       0.00000000       0.35211268       0.00000000 </v>
    <v>       0.00000000       0.00000000       0.06377551 </v>
   </varray>
  </crystal>
  <varray name="positions" >
   <v>       0.00000000       0.00000000       0.18112245 </v>
   <v>      -0.50000000      -0.50000000       0.09056122 </v>
   <v>       0.00000000       0.00000000       0.00000000 </v>
   <v>      -0.50000000      -0.50000000      -0.09056122 </v>
   <v>       0.00000000       0.00000000      -0.18112245 </v>
  </varray>
 </structure>
 <varray name="primitive_index" >
  <v type="int" >        1 </v>
  <v type="int" >        2 </v>
  <v type="int" >        3 </v>
  <v type="int" >        4 </v>
  <v type="int" >        5 </v>
 </varray>
 <kpoints>
  <generation param="Monkhorst-Pack">
   <v type="int" name="divisions">      10       10        1 </v>
   <v name="usershift">      0.00000000       0.00000000       0.00000000 </v>
   <v name="genvec1">      0.10000000       0.00000000       0.00000000 </v>
   <v name="genvec2">      0.00000000       0.10000000       0.00000000 </v>
   <v name="genvec3">      0.00000000       0.00000000       1.00000000 </v>
   <v name="shift">      0.50000000       0.50000000       0.00000000 </v>
  </generation>
  <varray name="kpointlist" >
   <v>       0.05000000       0.05000000       0.00000000 </v>
   <v>       0.15000000       0.05000000       0.00000000 </v>
   <v>       0.25000000       0.05000000       0.00000000 </v>
   <v>       0.35000000       0.05000000       0.00000000 </v>
   <v>       0.45000000       0.05000000       0.00000000 </v>
   <v>       0.15000000       0.15000000       0.00000000 </v>
   <v>       0.25000000       0.15000000       0.00000000 </v>
   <v>       0.35000000       0.15000000       0.00000000 </v>
   <v>       0.45000000       0.15000000       0.00000000 </v>
   <v>       0.25000000       0.25000000       0.00000000 </v>
   <v>       0.35000000       0.25000000       0.00000000 </v>
   <v>       0.45000000       0.25000000       0.00000000 </v>
   <v>       0.35000000       0.35000000       0.00000000 </v>
   <v>       0.45000000       0.35000000       0.00000000 </v>
   <v>       0.45000000       0.45000000       0.00000000 </v>
  </varray>
  <varray name="weights" >
   <v>       0.04000000 </v>
   <v>       0.08000000 </v>
   <v>       0.08000000 </v>
   <v>       0.08000000 </v>
   <v>       0.08000000 </v>
   <v>       0.04000000 </v>
   <v>       0.08000000 </v>
   <v>       0.08000000 </v>
   <v>       0.08000000 </v>
   <v>       0.04000000 </v>
   <v>       0.08000000 </v>
   <v>       0.08000000 </v>
   <v>       0.04000000 </v>
   <v>       0.08000000 </v>
   <v>       0.04000000 </v>
  </varray>
 </kpoints>
 <parameters>
  <separator name="general" >
   <i type="string" name="SYSTEM">BCC Fe</i>
   <i type="logical" name="LCOMPAT"> F  </i>
  </separator>
  <separator name="electronic" >
   <i type="string" name="PREC">normal</i>
   <i name="ENMAX">    268.00000000</i>
   <i name="ENAUG">    511.36800000</i>
   <i name="EDIFF">      0.00010000</i>
   <i type="int" name="IALGO">    38</i>
   <i type="int" name="IWAVPR">    11</i>
   <i type="int" name="NBANDS">    32</i>
   <i name="NELECT">     40.00000000</i>
   <i type="int" name="TURBO">     0</i>
   <i type="int" name="IRESTART">     0</i>
   <i type="int" name="NREBOOT">     0</i>
   <i type="int" name="NMIN">     0</i>
   <i name="EREF">      0.00000000</i>
   <separator name="electronic smearing" >
    <i type="int" name="ISMEAR">     1</i>
    <i name="SIGMA">      0.20000000</i>
    <i name="KSPACING">      0.50000000</i>
    <i type="logical" name="KGAMMA"> T  </i>
   </separator>
   <separator name="electronic projectors" >
    <i type="logical" name="LREAL"> F  </i>
    <v name="ROPT">      0.00000000</v>
    <i type="int" name="LMAXPAW">  -100</i>
    <i type="int" name="LMAXMIX">     2</i>
    <i type="logical" name="NLSPLINE"> F  </i>
   </separator>
   <separator name="electronic startup" >
    <i type="int" name="ISTART">     0</i>
    <i type="int" name="ICHARG">     2</i>
    <i type="int" name="INIWAV">     1</i>
   </separator>
   <separator name="electronic spin" >
    <i type="int" name="ISPIN">     2</i>
    <i type="logical" name="LNONCOLLINEAR"> F  </i>
    <v name="MAGMOM">      3.00000000      3.00000000      3.00000000      3.00000000      3.00000000</v>
    <i name="NUPDOWN">     -1.00000000</i>
    <i type="logical" name="LSORBIT"> F  </i>
    <v name="SAXIS">      0.00000000      0.00000000      1.00000000</v>
    <i type="logical" name="LSPIRAL"> F  </i>
    <v name="QSPIRAL">      0.00000000      0.00000000      0.00000000</v>
    <i type="logical" name="LZEROZ"> F  </i>
   </separator>
   <separator name="electronic exchange-correlation" >
    <i type="logical" name="LASPH"> F  </i>
    <i type="logical" name="LMETAGGA"> F  </i>
   </separator>
   <separator name="electronic convergence" >
    <i type="int" name="NELM">    60</i>
    <i type="int" name="NELMDL">    -5</i>
    <i type="int" name="NELMIN">     2</i>
    <i name="ENINI">    268.00000000</i>
    <separator name="electronic convergence detail" >
     <i type="logical" name="LDIAG"> T  </i>
     <i type="logical" name="LSUBROT"> F  </i>
     <i name="WEIMIN">      0.00100000</i>
     <i name="EBREAK">      0.00000078</i>
     <i name="DEPER">      0.30000000</i>
     <i type="int" name="NRMM">     4</i>
     <i name="TIME">      0.40000000</i>
    </separator>
   </separator>
   <separator name="electronic mixer" >
    <i name="AMIX">      0.40000000</i>
    <i name="BMIX">      1.00000000</i>
    <i name="AMIN">      0.10000000</i>
    <i name="AMIX_MAG">      1.60000000</i>
    <i name="BMIX_MAG">      1.00000000</i>
    <separator name="electronic mixer details" >
     <i type="int" name="IMIX">     4</i>
     <i type="logical" name="MIXFIRST"> F  </i>
     <i type="int" name="MAXMIX">   -45</i>
     <i name="WC">    100.00000000</i>
     <i type="int" name="INIMIX">     1</i>
     <i type="int" name="MIXPRE">     1</i>
     <i type="int" name="MREMOVE">     5</i>
    </separator>
   </separator>
   <separator name="electronic dipolcorrection" >
    <i type="logical" name="LDIPOL"> F  </i>
    <i type="logical" name="LMONO"> F  </i>
    <i type="int" name="IDIPOL">     0</i>
    <i name="EPSILON">      1.00000000</i>
    <v name="DIPOL">   -100.00000000   -100.00000000   -100.00000000</v>
    <i name="EFIELD">      0.00000000</i>
   </separator>
  </separator>
  <separator name="grids" >
   <i type="int" name="NGX">    12</i>
   <i type="int" name="NGY">    12</i>
   <i type="int" name="NGZ">    64</i>
   <i type="int" name="NGXF">    24</i>
   <i type="int" name="NGYF">    24</i>
   <i type="int" name="NGZF">   128</i>
   <i type="logical" name="ADDGRID"> F  </i>
  </separator>
  <separator name="ionic" >
   <i type="int" name="NSW">    50</i>
   <i type="int" name="IBRION">     2</i>
   <i type="int" name="MDALGO">     0</i>
   <i type="int" name="ISIF">     2</i>
   <i name="PSTRESS">      0.00000000</i>
   <i name="EDIFFG">     -0.01000000</i>
   <i type="int" name="NFREE">     1</i>
   <i name="POTIM">      0.50000000</i>
   <i name="SMASS">     -3.00000000</i>
   <i name="SCALEE">      1.00000000</i>
  </separator>
  <separator name="ionic md" >
   <i name="TEBEG">      0.00010000</i>
   <i name="TEEND">      0.00010000</i>
   <i type="int" name="NBLOCK">     1</i>
   <i type="int" name="KBLOCK">    50</i>
   <i type="int" name="NPACO">   256</i>
   <i name="APACO">     16.00000000</i>
  </separator>
  <separator name="symmetry" >
   <i type="int" name="ISYM">     2</i>
   <i name="SYMPREC">      0.00001000</i>
  </separator>
  <separator name="dos" >
   <i type="int" name="LORBIT">     0</i>
   <v name="RWIGS">      1.30200000</v>
   <i type="int" name="NEDOS">   301</i>
   <i name="EMIN">     10.00000000</i>
   <i name="EMAX">    -10.00000000</i>
   <i name="EFERMI">      0.00000000</i>
  </separator>
  <separator name="writing" >
   <i type="int" name="NWRITE">     2</i>
   <i type="logical" name="LWAVE"> T  </i>
   <i type="logical" name="LDOWNSAMPLE"> F  </i>
   <i type="logical" name="LCHARG"> T  </i>
   <i type="logical" name="LPARD"> F  </i>
   <i type="logical" name="LVTOT"> F  </i>
   <i type="logical" name="LVHAR"> T  </i>
   <i type="logical" name="LELF"> F  </i>
   <i type="logical" name="LOPTICS"> F  </i>
   <v name="STM">      0.00000000      0.00000000      0.00000000      0.00000000      0.00000000      0.00000000      0.00000000</v>
  </separator>
  <separator name="performance" >
   <i type="int" name="NPAR">     1</i>
   <i type="int" name="NSIM">     4</i>
   <i type="int" name="NBLK">    -1</i>
   <i type="logical" name="LPLANE"> T  </i>
   <i type="logical" name="LSCALAPACK"> T  </i>
   <i type="logical" name="LSCAAWARE"> F  </i>
   <i type="logical" name="LSCALU"> F  </i>
   <i type="logical" name="LASYNC"> F  </i>
   <i type="logical" name="LORBITALREAL"> F  </i>
  </separator>
  <separator name="miscellaneous" >
   <i type="int" name="IDIOT">     3</i>
   <i type="int" name="ISPECIAL">     0</i>
   <i type="logical" name="LMUSIC"> F  </i>
   <v name="POMASS">     55.84700000</v>
   <v name="DARWINR">      0.00000000</v>
   <v name="DARWINV">      1.00000000</v>
   <i type="logical" name="LCORR"> T  </i>
  </separator>
  <i type="logical" name="GGA_COMPAT"> T  </i>
  <i type="logical" name="LBERRY"> F  </i>
  <i type="int" name="ICORELEVEL">     0</i>
  <i type="logical" name="LDAU"> F  </i>
  <i type="int" name="I_CONSTRAINED_M">     0</i>
  <separator name="electronic exchange-correlation" >
   <i type="string" name="GGA">--</i>
   <i type="int" name="VOSKOWN">     0</i>
   <i type="logical" name="LHFCALC"> F  </i>
   <i type="string" name="PRECFOCK"></i>
   <i type="logical" name="LSYMGRAD"> F  </i>
   <i type="logical" name="LHFONE"> F  </i>
   <i type="logical" name="LRHFCALC"> F  </i>
   <i type="logical" name="LTHOMAS"> F  </i>
   <i type="logical" name="LMODELHF"> F  </i>
   <i name="ENCUT4O">     -1.00000000</i>
   <i type="int" name="EXXOEP">     0</i>
   <i type="int" name="FOURORBIT">     0</i>
   <i name="AEXX">      0.00000000</i>
   <i name="HFALPHA">      0.00000000</i>
   <i name="MCALPHA">      0.00000000</i>
   <i name="ALDAX">      1.00000000</i>
   <i name="AGGAX">      1.00000000</i>
   <i name="ALDAC">      1.00000000</i>
   <i name="AGGAC">      1.00000000</i>
   <i type="int" name="NKREDX">     1</i>
   <i type="int" name="NKREDY">     1</i>
   <i type="int" name="NKREDZ">     1</i>
   <i type="logical" name="SHIFTRED"> F  </i>
   <i type="logical" name="ODDONLY"> F  </i>
   <i type="logical" name="EVENONLY"> F  </i>
   <i type="int" name="LMAXFOCK">     0</i>
   <i type="int" name="NMAXFOCKAE">     0</i>
   <i type="logical" name="LFOCKAEDFT"> F  </i>
   <i name="HFSCREEN">      0.00000000</i>
   <i name="HFSCREENC">      0.00000000</i>
   <i type="int" name="NBANDSGWLOW">     0</i>
  </separator>
  <separator name="vdW DFT" >
   <i type="logical" name="LUSE_VDW"> F  </i>
   <i name="Zab_VDW">     -0.84910000</i>
   <i name="PARAM1">      0.12340000</i>
   <i name="PARAM2">      1.00000000</i>
   <i name="PARAM3">      0.00000000</i>
  </separator>
  <separator name="model GW" >
   <i type="int" name="MODEL_GW">     0</i>
   <i name="MODEL_EPS0">     15.17623296</i>
   <i name="MODEL_ALPHA">      1.00000000</i>
  </separator>
  <separator name="linear response parameters" >
   <i type="logical" name="LEPSILON"> F  </i>
   <i type="logical" name="LRPA"> F  </i>
   <i type="logical" name="LNABLA"> F  </i>
   <i type="logical" name="LVEL"> F  </i>
   <i type="int" name="KINTER">     0</i>
   <i name="CSHIFT">      0.10000000</i>
   <i name="OMEGAMAX">     -1.00000000</i>
   <i name="DEG_THRESHOLD">      0.00200000</i>
   <i name="RTIME">     -0.10000000</i>
   <i name="WPLASMAI">      0.00000000</i>
   <v name="DFIELD">      0.00000000      0.00000000      0.00000000</v>
   <v name="WPLASMA">      0.00000000      0.00000000      0.00000000      0.00000000      0.00000000      0.00000000      0.00000000      0.00000000      0.00000000</v>
  </separator>
  <separator name="orbital magnetization" >
   <i type="logical" name="NUCIND"> F  </i>
   <v name="MAGPOS">      0.00000000      0.00000000      0.00000000</v>
   <i type="logical" name="LNICSALL"> T  </i>
   <i type="logical" name="ORBITALMAG"> F  </i>
   <i type="logical" name="LMAGBLOCH"> F  </i>
   <i type="logical" name="LCHIMAG"> F  </i>
   <i type="logical" name="LGAUGE"> T  </i>
   <i type="int" name="MAGATOM">     0</i>
   <v name="MAGDIPOL">      0.00000000      0.00000000      0.00000000</v>
   <v name="AVECCONST">      0.00000000      0.00000000      0.00000000</v>
  </separator>
  <separator name="response functions" >
   <i type="logical" name="LADDER"> F  </i>
   <i type="logical" name="LRPAFORCE"> F  </i>
   <i type="logical" name="LFXC"> F  </i>
   <i type="logical" name="LHARTREE"> T  </i>
   <i type="int" name="IBSE">     0</i>
   <v type="int" name="KPOINT">    -1     0     0     0</v>
   <i type="logical" name="LTCTE"> F  </i>
   <i type="logical" name="LTETE"> F  </i>
   <i type="logical" name="LTRIPLET"> F  </i>
   <i type="logical" name="LFXCEPS"> F  </i>
   <i type="logical" name="LFXHEG"> F  </i>
   <i type="int" name="NATURALO">     2</i>
   <i type="logical" name="L2ORDER"> F  </i>
   <i type="logical" name="LMP2LT"> F  </i>
   <i type="logical" name="LUSEW"> F  </i>
   <i name="ENCUTGW">     -2.00000000</i>
   <i name="ENCUTGWSOFT">     -2.00000000</i>
   <i name="ENCUTLF">     -1.00000000</i>
   <i type="int" name="LMAXMP2">    -1</i>
   <i name="SCISSOR">      0.00000000</i>
   <i type="int" name="NOMEGA">     0</i>
   <i type="int" name="NOMEGAR">     0</i>
   <i type="int" name="NBANDSGW">    -1</i>
   <i type="int" name="NBANDSO">    -1</i>
   <i type="int" name="NBANDSV">    -1</i>
   <i type="int" name="NELM">     1</i>
   <i type="int" name="NELMHF">     1</i>
   <i type="int" name="DIM">     3</i>
   <i type="int" name="ANTIRES">     0</i>
   <i name="OMEGAMAX">    -30.00000000</i>
   <i name="OMEGAMIN">    -30.00000000</i>
   <i name="OMEGATL">   -200.00000000</i>
   <i type="int" name="OMEGAGRID">   140</i>
   <i name="CSHIFT">     -0.10000000</i>
   <i type="logical" name="SELFENERGY"> F  </i>
   <i type="logical" name="LSPECTRAL"> F  </i>
   <i type="logical" name="LSPECTRALGW"> F  </i>
   <i type="logical" name="LSINGLES"> F  </i>
   <i type="logical" name="LFERMIGW"> F  </i>
   <i type="logical" name="ODDONLYGW"> F  </i>
   <i type="logical" name="EVENONLYGW"> F  </i>
   <i type="int" name="NKREDLFX">     1</i>
   <i type="int" name="NKREDLFY">     1</i>
   <i type="int" name="NKREDLFZ">     1</i>
   <i type="int" name="MAXMEM">  2800</i>
   <i type="int" name="TELESCOPE">     0</i>
   <i type="int" name="TAUPAR">     1</i>
   <i type="int" name="OMEGAPAR">    -1</i>
   <i name="LAMBDA">      1.00000000</i>
  </separator>
  <separator name="External order field" >
   <i name="OFIELD_KAPPA">      0.00000000</i>
   <v name="OFIELD_K">      0.00000000      0.00000000      0.00000000</v>
   <i name="OFIELD_Q6_NEAR">      0.00000000</i>
   <i name="OFIELD_Q6_FAR">      0.00000000</i>
   <i name="OFIELD_A">      0.00000000</i>
  </separator>
 </parameters>
 <atominfo>
  <atoms>       5 </atoms>
  <types>       1 </types>
  <array name="atoms" >
   <dimension dim="1">ion</dimension>
   <field type="string">element</field>
   <field type="int">atomtype</field>
   <set>
    <rc><c>Fe</c><c>   1</c></rc>
    <rc><c>Fe</c><c>   1</c></rc>
    <rc><c>Fe</c><c>   1</c></rc>
    <rc><c>Fe</c><c>   1</c></rc>
    <rc><c>Fe</c><c>   1</c></rc>
   </set>
  </array>
  <array name="atomtypes" >
   <dimension dim="1">type</dimension>
   <field type="int">atomspertype</field>
   <field type="string">element</field>
   <field>mass</field>
   <field>valence</field>
   <field type="string">pseudopotential</field>
   <set>
    <rc><c>   5</c><c>Fe</c><c>     55.84700000</c><c>      8.00000000</c><c>  PAW_PBE Fe 06Sep2000                  </c></rc>
   </set>
  </array>
 </atominfo>
 <structure name="initialpos" >
  <crystal>
   <varray name="basis" >
    <v>       2.84000000       0.00000000       0.00000000 </v>
    <v>       0.00000000       2.84000000       0.00000000 </v>
    <v>       0.00000000       0.00000000      15.68000000 </v>
   </varray>
   <i name="volume">    126.46860800 </i>
   <varray name="rec_basis" >
    <v>       0.35211268       0.00000000       0.00000000 </v>
    <v>       0.00000000       0.35211268       0.00000000 </v>
    <v>       0.00000000       0.00000000       0.06377551 </v>
   </varray>
  </crystal>
  <varray name="positions" >
   <v>       0.00000000       0.00000000       0.18112245 </v>
   <v>       0.50000000       0.50000000       0.09056122 </v>
   <v>       0.00000000       0.00000000       0.00000000 </v>
   <v>       0.50000000       0.50000000       0.90943878 </v>
   <v>       0.00000000       0.00000000       0.81887755 </v>
  </varray>
 </structure>
 <calculation>
  <scstep>
   <time name="dav">    0.30    0.31</time>
   <time name="total">    0.33    0.39</time>
   <energy>
    <i name="alphaZ">    136.62239407 </i>
    <i name="ewald">   4342.41756916 </i>
    <i name="hartreedc">  -7413.09194436 </i>
    <i name="XCdc">     23.16267033 </i>
    <i name="pawpsdc">   2768.79633427 </i>
    <i name="pawaedc">  -2807.42643554 </i>
    <i name="eentropy">      0.00218064 </i>
    <i name="bandstr">    197.10586534 </i>
    <i name="atom">   2971.40422482 </i>
    <i name="e_fr_energy">    218.99285873 </i>
    <i name="e_wo_entrp">    218.99067809 </i>
    <i name="e_0_energy">    218.99213185 </i>
   </energy>
  </scstep>
  <scstep>
   <time name="dav">    0.30    0.30</time>
   <time name="total">    0.30    0.31</time>
   <energy>
    <i name="e_fr_energy">    -31.13995315 </i>
    <i name="e_wo_entrp">    -31.14169634 </i>
    <i name="e_0_energy">    -31.14053422 </i>
   </energy>
  </scstep>
  <scstep>
   <time name="dav">    0.33    0.33</time>
   <time name="total">    0.34    0.34</time>
   <energy>
    <i name="e_fr_energy">    -43.41541216 </i>
    <i name="e_wo_entrp">    -43.42447470 </i>
    <i name="e_0_energy">    -43.41843301 </i>
   </energy>
  </scstep>
  <scstep>
   <time name="dav">    0.31    0.31</time>
   <time name="total">    0.31    0.31</time>
   <energy>
    <i name="e_fr_energy">    -43.62153482 </i>
    <i name="e_wo_entrp">    -43.63109782 </i>
    <i name="e_0_energy">    -43.62472249 </i>
   </energy>
  </scstep>
  <scstep>
   <time name="dav">    0.35    0.35</time>
   <time name="total">    0.38    0.38</time>
   <energy>
    <i name="e_fr_energy">    -43.62393497 </i>
    <i name="e_wo_entrp">    -43.63349508 </i>
    <i name="e_0_energy">    -43.62712167 </i>
   </energy>
  </scstep>
  <scstep>
   <time name="dav">    0.41    0.41</time>
   <time name="total">    0.47    0.47</time>
   <energy>
    <i name="e_fr_energy">    -67.40296139 </i>
    <i name="e_wo_entrp">    -67.41898790 </i>
    <i name="e_0_energy">    -67.40830356 </i>
   </energy>
  </scstep>
  <scstep>
   <time name="dav">    0.37    0.37</time>
   <time name="total">    0.42    0.42</time>
   <energy>
    <i name="e_fr_energy">    -38.88885557 </i>
    <i name="e_wo_entrp">    -38.89730671 </i>
    <i name="e_0_energy">    -38.89167261 </i>
   </energy>
  </scstep>
  <scstep>
   <time name="dav">    0.38    0.38</time>
   <time name="total">    0.43    0.43</time>
   <energy>
    <i name="e_fr_energy">    -40.72333875 </i>
    <i name="e_wo_entrp">    -40.72680125 </i>
    <i name="e_0_energy">    -40.72449292 </i>
   </energy>
  </scstep>
  <scstep>
   <time name="dav">    0.36    0.36</time>
   <time name="total">    0.41    0.41</time>
   <energy>
    <i name="e_fr_energy">    -39.20947683 </i>
    <i name="e_wo_entrp">    -39.19883262 </i>
    <i name="e_0_energy">    -39.20592876 </i>
   </energy>
  </scstep>
  <scstep>
   <time name="dav">    0.35    0.36</time>
   <time name="total">    0.41    0.41</time>
   <energy>
    <i name="e_fr_energy">    -38.04928900 </i>
    <i name="e_wo_entrp">    -38.04862654 </i>
    <i name="e_0_energy">    -38.04906818 </i>
   </energy>
  </scstep>
  <scstep>
   <time name="dav">    0.35    0.35</time>
   <time name="total">    0.40    0.41</time>
   <energy>
    <i name="e_fr_energy">    -38.18779143 </i>
    <i name="e_wo_entrp">    -38.18718472 </i>
    <i name="e_0_energy">    -38.18758920 </i>
   </energy>
  </scstep>
  <scstep>
   <time name="dav">    0.34    0.34</time>
   <time name="total">    0.39    0.39</time>
   <energy>
    <i name="e_fr_energy">    -38.43948353 </i>
    <i name="e_wo_entrp">    -38.43957359 </i>
    <i name="e_0_energy">    -38.43951355 </i>
   </energy>
  </scstep>
  <scstep>
   <time name="dav">    0.33    0.33</time>
   <time name="total">    0.39    0.39</time>
   <energy>
    <i name="e_fr_energy">    -38.58880320 </i>
    <i name="e_wo_entrp">    -38.58914251 </i>
    <i name="e_0_energy">    -38.58891630 </i>
   </energy>
  </scstep>
  <scstep>
   <time name="dav">    0.35    0.35</time>
   <time name="total">    0.40    0.40</time>
   <energy>
    <i name="e_fr_energy">    -38.69190440 </i>
    <i name="e_wo_entrp">    -38.69255034 </i>
    <i name="e_0_energy">    -38.69211972 </i>
   </energy>
  </scstep>
  <scstep>
   <time name="dav">    0.32    0.32</time>
   <time name="total">    0.37    0.38</time>
   <energy>
    <i name="e_fr_energy">    -38.69521314 </i>
    <i name="e_wo_entrp">    -38.69620207 </i>
    <i name="e_0_energy">    -38.69554279 </i>
   </energy>
  </scstep>
  <scstep>
   <time name="dav">    0.34    0.34</time>
   <time name="total">    0.39    0.40</time>
   <energy>
    <i name="e_fr_energy">    -38.69581066 </i>
    <i name="e_wo_entrp">    -38.69697459 </i>
    <i name="e_0_energy">    -38.69619864 </i>
   </energy>
  </scstep>
  <scstep>
   <time name="dav">    0.32    0.32</time>
   <time name="total">    0.38    0.38</time>
   <energy>
    <i name="e_fr_energy">    -38.69549696 </i>
    <i name="e_wo_entrp">    -38.69668687 </i>
    <i name="e_0_energy">    -38.69589360 </i>
   </energy>
  </scstep>
  <scstep>
   <time name="dav">    0.30    0.30</time>
   <time name="total">    0.36    0.36</time>
   <energy>
    <i name="e_fr_energy">    -38.69612253 </i>
    <i name="e_wo_entrp">    -38.69727761 </i>
    <i name="e_0_energy">    -38.69650755 </i>
   </energy>
  </scstep>
  <scstep>
   <time name="dav">    0.28    0.28</time>
   <time name="total">    0.34    0.34</time>
   <energy>
    <i name="e_fr_energy">    -38.69650126 </i>
    <i name="e_wo_entrp">    -38.69765327 </i>
    <i name="e_0_energy">    -38.69688526 </i>
   </energy>
  </scstep>
  <scstep>
   <time name="dav">    0.25    0.25</time>
   <time name="total">    0.27    0.28</time>
   <energy>
    <i name="alphaZ">    136.62239407 </i>
    <i name="ewald">   4342.41756916 </i>
    <i name="hartreedc">  -7404.36842548 </i>
    <i name="XCdc">     22.03901942 </i>
    <i name="pawpsdc">   3463.08610721 </i>
    <i name="pawaedc">  -3508.25266356 </i>
    <i name="eentropy">      0.00119327 </i>
    <i name="bandstr">    -61.64599771 </i>
    <i name="atom">   2971.40422482 </i>
    <i name="e_fr_energy">    -38.69657880 </i>
    <i name="e_wo_entrp">    -38.69777207 </i>
    <i name="e_0_energy">    -38.69697656 </i>
   </energy>
  </scstep>
  <structure>
   <crystal>
    <varray name="basis" >
     <v>       2.84000000       0.00000000       0.00000000 </v>
     <v>       0.00000000       2.84000000       0.00000000 </v>
     <v>       0.00000000       0.00000000      15.68000000 </v>
    </varray>
    <i name="volume">    126.46860800 </i>
    <varray name="rec_basis" >
     <v>       0.35211268       0.00000000       0.00000000 </v>
     <v>       0.00000000       0.35211268       0.00000000 </v>
     <v>       0.00000000       0.00000000       0.06377551 </v>
    </varray>
   </crystal>
   <varray name="positions" >
    <v>       0.00000000       0.00000000       0.18112245 </v>
    <v>       0.50000000       0.50000000       0.09056122 </v>
    <v>       0.00000000       0.00000000       0.00000000 </v>
    <v>       0.50000000       0.50000000       0.90943878 </v>
    <v>       0.00000000       0.00000000       0.81887755 </v>
   </varray>
  </structure>
  <varray name="forces" >
   <v>       0.00000000       0.00000000      -0.22800293 </v>
   <v>      -0.00000000      -0.00000000       0.47170727 </v>
   <v>       0.00000000       0.00000000       0.00000000 </v>
   <v>       0.00000000      -0.00000000      -0.47170727 </v>
   <v>       0.00000000       0.00000000       0.22800293 </v>
  </varray>
  <varray name="stress" >
   <v>     -39.71668081       0.00000000       0.00000000 </v>
   <v>       0.00000000     -39.71668081      -0.00000000 </v>
   <v>       0.00000000       0.00000000     -13.75291459 </v>
  </varray>
  <energy>
   <i name="e_fr_energy">    -38.69657880 </i>
   <i name="e_wo_entrp">    -38.69697656 </i>
   <i name="e_0_energy">      0.00119327 </i>
  </energy>
  <time name="totalsc">    8.11    8.35</time>
 </calculation>
 <calculation>
  <scstep>
   <time name="dav">    0.30    0.30</time>
   <time name="total">    0.35    0.35</time>
   <energy>
    <i name="alphaZ">    136.62239407 </i>
    <i name="ewald">   4339.15023395 </i>
    <i name="hartreedc">  -7401.27451024 </i>
    <i name="XCdc">     22.08363343 </i>
    <i name="pawpsdc">   3463.37963616 </i>
    <i name="pawaedc">  -3508.57576857 </i>
    <i name="eentropy">      0.00178991 </i>
    <i name="bandstr">    -61.47979569 </i>
    <i name="atom">   2971.40422482 </i>
    <i name="e_fr_energy">    -38.68816215 </i>
    <i name="e_wo_entrp">    -38.68995206 </i>
    <i name="e_0_energy">    -38.68875879 </i>
   </energy>
  </scstep>
  <scstep>
   <time name="dav">    0.40    0.40</time>
   <time name="total">    0.45    0.45</time>
   <energy>
    <i name="e_fr_energy">    -38.81977007 </i>
    <i name="e_wo_entrp">    -38.82024323 </i>
    <i name="e_0_energy">    -38.81992779 </i>
   </energy>
  </scstep>
  <scstep>
   <time name="dav">    0.38    0.39</time>
   <time name="total">    0.44    0.44</time>
   <energy>
    <i name="e_fr_energy">    -38.71916454 </i>
    <i name="e_wo_entrp">    -38.72033282 </i>
    <i name="e_0_energy">    -38.71955397 </i>
   </energy>
  </scstep>
  <scstep>
   <time name="dav">    0.39    0.39</time>
   <time name="total">    0.44    0.44</time>
   <energy>
    <i name="e_fr_energy">    -38.72314638 </i>
    <i name="e_wo_entrp">    -38.72562392 </i>
    <i name="e_0_energy">    -38.72397223 </i>
   </energy>
  </scstep>
  <scstep>
   <time name="dav">    0.37    0.37</time>
   <time name="total">    0.42    0.43</time>
   <energy>
    <i name="e_fr_energy">    -38.71423790 </i>
    <i name="e_wo_entrp">    -38.71649516 </i>
    <i name="e_0_energy">    -38.71499032 </i>
   </energy>
  </scstep>
  <scstep>
   <time name="dav">    0.30    0.31</time>
   <time name="total">    0.36    0.36</time>
   <energy>
    <i name="e_fr_energy">    -38.71454978 </i>
    <i name="e_wo_entrp">    -38.71680828 </i>
    <i name="e_0_energy">    -38.71530261 </i>
   </energy>
  </scstep>
  <scstep>
   <time name="dav">    0.27    0.27</time>
   <time name="total">    0.32    0.32</time>
   <energy>
    <i name="e_fr_energy">    -38.71420404 </i>
    <i name="e_wo_entrp">    -38.71647556 </i>
    <i name="e_0_energy">    -38.71496121 </i>
   </energy>
  </scstep>
  <scstep>
   <time name="dav">    0.24    0.25</time>
   <time name="total">    0.30    0.30</time>
   <energy>
    <i name="e_fr_energy">    -38.71431559 </i>
    <i name="e_wo_entrp">    -38.71659599 </i>
    <i name="e_0_energy">    -38.71507573 </i>
   </energy>
  </scstep>
  <scstep>
   <time name="dav">    0.25    0.25</time>
   <time name="total">    0.31    0.31</time>
   <energy>
    <i name="e_fr_energy">    -38.71461924 </i>
    <i name="e_wo_entrp">    -38.71692969 </i>
    <i name="e_0_energy">    -38.71538939 </i>
   </energy>
  </scstep>
  <scstep>
   <time name="dav">    0.24    0.24</time>
   <time name="total">    0.29    0.29</time>
   <energy>
    <i name="e_fr_energy">    -38.71474148 </i>
    <i name="e_wo_entrp">    -38.71706472 </i>
    <i name="e_0_energy">    -38.71551590 </i>
   </energy>
  </scstep>
  <scstep>
   <time name="dav">    0.23    0.24</time>
   <time name="total">    0.26    0.26</time>
   <energy>
    <i name="alphaZ">    136.62239407 </i>
    <i name="ewald">   4339.15023395 </i>
    <i name="hartreedc">  -7401.51384794 </i>
    <i name="XCdc">     22.08920767 </i>
    <i name="pawpsdc">   3469.87940307 </i>
    <i name="pawaedc">  -3515.14776339 </i>
    <i name="eentropy">      0.00232897 </i>
    <i name="bandstr">    -61.20101430 </i>
    <i name="atom">   2971.40422482 </i>
    <i name="e_fr_energy">    -38.71483308 </i>
    <i name="e_wo_entrp">    -38.71716204 </i>
    <i name="e_0_energy">    -38.71560940 </i>
   </energy>
  </scstep>
  <structure>
   <crystal>
    <varray name="basis" >
     <v>       2.84000000       0.00000000       0.00000000 </v>
     <v>       0.00000000       2.84000000       0.00000000 </v>
     <v>       0.00000000       0.00000000      15.68000000 </v>
    </varray>
    <i name="volume">    126.46860800 </i>
    <varray name="rec_basis" >
     <v>       0.35211268       0.00000000       0.00000000 </v>
     <v>       0.00000000       0.35211268       0.00000000 </v>
     <v>       0.00000000       0.00000000       0.06377551 </v>
    </varray>
   </crystal>
   <varray name="positions" >
    <v>       0.00000000       0.00000000       0.18042095 </v>
    <v>       0.50000000       0.50000000       0.09201253 </v>
    <v>       0.00000000       0.00000000       0.00000000 </v>
    <v>       0.50000000       0.50000000       0.90798747 </v>
    <v>       0.00000000       0.00000000       0.81957905 </v>
   </varray>
  </structure>
  <varray name="forces" >
   <v>      -0.00000000      -0.00000000      -0.07185297 </v>
   <v>      -0.00000000       0.00000000       0.17716440 </v>
   <v>      -0.00000000      -0.00000000       0.00000000 </v>
   <v>       0.00000000       0.00000000      -0.17716440 </v>
   <v>      -0.00000000      -0.00000000       0.07185297 </v>
  </varray>
  <varray name="stress" >
   <v>     -37.68243962       0.00000000      -0.00000000 </v>
   <v>       0.00000000     -37.68243962       0.00000000 </v>
   <v>      -0.00000000       0.00000000     -16.21717587 </v>
  </varray>
  <energy>
   <i name="e_fr_energy">    -38.71483308 </i>
   <i name="e_wo_entrp">    -38.71560940 </i>
   <i name="e_0_energy">      0.00232897 </i>
  </energy>
  <time name="totalsc">    4.37    4.39</time>
 </calculation>
 <calculation>
  <scstep>
   <time name="dav">    0.30    0.30</time>
   <time name="total">    0.35    0.35</time>
   <energy>
    <i name="alphaZ">    136.62239407 </i>
    <i name="ewald">   4337.29841529 </i>
    <i name="hartreedc">  -7399.55254589 </i>
    <i name="XCdc">     22.11161069 </i>
    <i name="pawpsdc">   3469.88497853 </i>
    <i name="pawaedc">  -3515.15395168 </i>
    <i name="eentropy">      0.00313697 </i>
    <i name="bandstr">    -61.32733649 </i>
    <i name="atom">   2971.40422482 </i>
    <i name="e_fr_energy">    -38.70907368 </i>
    <i name="e_wo_entrp">    -38.71221064 </i>
    <i name="e_0_energy">    -38.71011933 </i>
   </energy>
  </scstep>
  <scstep>
   <time name="dav">    0.40    0.40</time>
   <time name="total">    0.45    0.45</time>
   <energy>
    <i name="e_fr_energy">    -38.75568335 </i>
    <i name="e_wo_entrp">    -38.75741512 </i>
    <i name="e_0_energy">    -38.75626060 </i>
   </energy>
  </scstep>
  <scstep>
   <time name="dav">    0.38    0.38</time>
   <time name="total">    0.44    0.44</time>
   <energy>
    <i name="e_fr_energy">    -38.71876386 </i>
    <i name="e_wo_entrp">    -38.72165361 </i>
    <i name="e_0_energy">    -38.71972711 </i>
   </energy>
  </scstep>
  <scstep>
   <time name="dav">    0.38    0.38</time>
   <time name="total">    0.43    0.44</time>
   <energy>
    <i name="e_fr_energy">    -38.72027021 </i>
    <i name="e_wo_entrp">    -38.72380873 </i>
    <i name="e_0_energy">    -38.72144972 </i>
   </energy>
  </scstep>
  <scstep>
   <time name="dav">    0.38    0.38</time>
   <time name="total">    0.43    0.43</time>
   <energy>
    <i name="e_fr_energy">    -38.71715062 </i>
    <i name="e_wo_entrp">    -38.72038605 </i>
    <i name="e_0_energy">    -38.71822909 </i>
   </energy>
  </scstep>
  <scstep>
   <time name="dav">    0.31    0.32</time>
   <time name="total">    0.34    0.34</time>
   <energy>
    <i name="alphaZ">    136.62239407 </i>
    <i name="ewald">   4337.29841529 </i>
    <i name="hartreedc">  -7399.49275162 </i>
    <i name="XCdc">     22.11442377 </i>
    <i name="pawpsdc">   3472.83756752 </i>
    <i name="pawaedc">  -3518.13742182 </i>
    <i name="eentropy">      0.00319026 </i>
    <i name="bandstr">    -61.36716882 </i>
    <i name="atom">   2971.40422482 </i>
    <i name="e_fr_energy">    -38.71712653 </i>
    <i name="e_wo_entrp">    -38.72031679 </i>
    <i name="e_0_energy">    -38.71818995 </i>
   </energy>
  </scstep>
  <structure>
   <crystal>
    <varray name="basis" >
     <v>       2.84000000       0.00000000       0.00000000 </v>
     <v>       0.00000000       2.84000000       0.00000000 </v>
     <v>       0.00000000       0.00000000      15.68000000 </v>
    </varray>
    <i name="volume">    126.46860800 </i>
    <varray name="rec_basis" >
     <v>       0.35211268       0.00000000       0.00000000 </v>
     <v>       0.00000000       0.35211268       0.00000000 </v>
     <v>       0.00000000       0.00000000       0.06377551 </v>
    </varray>
   </crystal>
   <varray name="positions" >
    <v>       0.00000000       0.00000000       0.18001923 </v>
    <v>       0.50000000       0.50000000       0.09284363 </v>
    <v>       0.00000000       0.00000000       0.00000000 </v>
    <v>       0.50000000       0.50000000       0.90715637 </v>
    <v>       0.00000000       0.00000000       0.81998077 </v>
   </varray>
  </structure>
  <varray name="forces" >
   <v>       0.00000000      -0.00000000       0.02590024 </v>
   <v>      -0.00000000      -0.00000000       0.00988170 </v>
   <v>      -0.00000000      -0.00000000      -0.00000000 </v>
   <v>      -0.00000000      -0.00000000      -0.00988170 </v>
   <v>      -0.00000000       0.00000000      -0.02590024 </v>
  </varray>
  <varray name="stress" >
   <v>     -35.84134887       0.00000000      -0.00000000 </v>
   <v>       0.00000000     -35.84134887       0.00000000 </v>
   <v>      -0.00000000       0.00000000     -16.43671237 </v>
  </varray>
  <energy>
   <i name="e_fr_energy">    -38.71712653 </i>
   <i name="e_wo_entrp">    -38.71818995 </i>
   <i name="e_0_energy">      0.00319026 </i>
  </energy>
  <time name="totalsc">    2.87    2.88</time>
 </calculation>
 <calculation>
  <scstep>
   <time name="dav">    0.31    0.31</time>
   <time name="total">    0.36    0.36</time>
   <energy>
    <i name="alphaZ">    136.62239407 </i>
    <i name="ewald">   4337.32111501 </i>
    <i name="hartreedc">  -7399.54416976 </i>
    <i name="XCdc">     22.11629261 </i>
    <i name="pawpsdc">   3473.58928483 </i>
    <i name="pawaedc">  -3518.89205434 </i>
    <i name="eentropy">      0.00324075 </i>
    <i name="bandstr">    -61.33749245 </i>
    <i name="atom">   2971.40422482 </i>
    <i name="e_fr_energy">    -38.71716445 </i>
    <i name="e_wo_entrp">    -38.72040520 </i>
    <i name="e_0_energy">    -38.71824470 </i>
   </energy>
  </scstep>
  <scstep>
   <time name="dav">    0.33    0.33</time>
   <time name="total">    0.38    0.38</time>
   <energy>
    <i name="e_fr_energy">    -38.71762968 </i>
    <i name="e_wo_entrp">    -38.72076905 </i>
    <i name="e_0_energy">    -38.71867614 </i>
   </energy>
  </scstep>
  <scstep>
   <time name="dav">    0.28    0.29</time>
   <time name="total">    0.34    0.34</time>
   <energy>
    <i name="e_fr_energy">    -38.71731461 </i>
    <i name="e_wo_entrp">    -38.72052743 </i>
    <i name="e_0_energy">    -38.71838555 </i>
   </energy>
  </scstep>
  <scstep>
   <time name="dav">    0.22    0.22</time>
   <time name="total">    0.25    0.25</time>
   <energy>
    <i name="alphaZ">    136.62239407 </i>
    <i name="ewald">   4337.32111501 </i>
    <i name="hartreedc">  -7399.57935062 </i>
    <i name="XCdc">     22.11548596 </i>
    <i name="pawpsdc">   3473.78533334 </i>
    <i name="pawaedc">  -3519.08709509 </i>
    <i name="eentropy">      0.00325501 </i>
    <i name="bandstr">    -61.30271868 </i>
    <i name="atom">   2971.40422482 </i>
    <i name="e_fr_energy">    -38.71735617 </i>
    <i name="e_wo_entrp">    -38.72061118 </i>
    <i name="e_0_energy">    -38.71844117 </i>
   </energy>
  </scstep>
  <structure>
   <crystal>
    <varray name="basis" >
     <v>       2.84000000       0.00000000       0.00000000 </v>
     <v>       0.00000000       2.84000000       0.00000000 </v>
     <v>       0.00000000       0.00000000      15.68000000 </v>
    </varray>
    <i name="volume">    126.46860800 </i>
    <varray name="rec_basis" >
     <v>       0.35211268       0.00000000       0.00000000 </v>
     <v>       0.00000000       0.35211268       0.00000000 </v>
     <v>       0.00000000       0.00000000       0.06377551 </v>
    </varray>
   </crystal>
   <varray name="positions" >
    <v>       0.00000000       0.00000000       0.18002417 </v>
    <v>       0.50000000       0.50000000       0.09283341 </v>
    <v>       0.00000000       0.00000000       0.00000000 </v>
    <v>       0.50000000       0.50000000       0.90716659 </v>
    <v>       0.00000000       0.00000000       0.81997583 </v>
   </varray>
  </structure>
  <varray name="forces" >
   <v>       0.00000000       0.00000000       0.01957258 </v>
   <v>      -0.00000000       0.00000000       0.01083675 </v>
   <v>      -0.00000000       0.00000000       0.00000000 </v>
   <v>      -0.00000000       0.00000000      -0.01083675 </v>
   <v>       0.00000000      -0.00000000      -0.01957258 </v>
  </varray>
  <varray name="stress" >
   <v>     -35.25787107       0.00000000       0.00000000 </v>
   <v>       0.00000000     -35.25787107      -0.00000000 </v>
   <v>       0.00000000       0.00000000     -15.78301770 </v>
  </varray>
  <energy>
   <i name="e_fr_energy">    -38.71735617 </i>
   <i name="e_wo_entrp">    -38.71844117 </i>
   <i name="e_0_energy">      0.00325501 </i>
  </energy>
  <time name="totalsc">    1.75    1.76</time>
 </calculation>
 <calculation>
  <scstep>
   <time name="dav">    0.23    0.23</time>
   <time name="total">    0.28    0.28</time>
   <energy>
    <i name="alphaZ">    136.62239407 </i>
    <i name="ewald">   4337.31333136 </i>
    <i name="hartreedc">  -7399.57586962 </i>
    <i name="XCdc">     22.11604141 </i>
    <i name="pawpsdc">   3473.84604141 </i>
    <i name="pawaedc">  -3519.14901869 </i>
    <i name="eentropy">      0.00325674 </i>
    <i name="bandstr">    -61.29781220 </i>
    <i name="atom">   2971.40422482 </i>
    <i name="e_fr_energy">    -38.71741070 </i>
    <i name="e_wo_entrp">    -38.72066744 </i>
    <i name="e_0_energy">    -38.71849628 </i>
   </energy>
  </scstep>
  <scstep>
   <time name="dav">    0.24    0.24</time>
   <time name="total">    0.27    0.27</time>
   <energy>
    <i name="alphaZ">    136.62239407 </i>
    <i name="ewald">   4337.31333136 </i>
    <i name="hartreedc">  -7399.59714770 </i>
    <i name="XCdc">     22.11656251 </i>
    <i name="pawpsdc">   3473.88855559 </i>
    <i name="pawaedc">  -3519.19109462 </i>
    <i name="eentropy">      0.00323413 </i>
    <i name="bandstr">    -61.27755302 </i>
    <i name="atom">   2971.40422482 </i>
    <i name="e_fr_energy">    -38.71749287 </i>
    <i name="e_wo_entrp">    -38.72072700 </i>
    <i name="e_0_energy">    -38.71857091 </i>
   </energy>
  </scstep>
  <structure>
   <crystal>
    <varray name="basis" >
     <v>       2.84000000       0.00000000       0.00000000 </v>
     <v>       0.00000000       2.84000000       0.00000000 </v>
     <v>       0.00000000       0.00000000      15.68000000 </v>
    </varray>
    <i name="volume">    126.46860800 </i>
    <varray name="rec_basis" >
     <v>       0.35211268       0.00000000       0.00000000 </v>
     <v>       0.00000000       0.35211268       0.00000000 </v>
     <v>       0.00000000       0.00000000       0.06377551 </v>
    </varray>
   </crystal>
   <varray name="positions" >
    <v>       0.00000000       0.00000000       0.18002248 </v>
    <v>       0.50000000       0.50000000       0.09283691 </v>
    <v>       0.00000000       0.00000000       0.00000000 </v>
    <v>       0.50000000       0.50000000       0.90716309 </v>
    <v>       0.00000000       0.00000000       0.81997752 </v>
   </varray>
  </structure>
  <varray name="forces" >
   <v>      -0.00000000      -0.00000000       0.03410468 </v>
   <v>      -0.00000000       0.00000000      -0.00682524 </v>
   <v>      -0.00000000       0.00000000       0.00000000 </v>
   <v>      -0.00000000       0.00000000       0.00682524 </v>
   <v>       0.00000000      -0.00000000      -0.03410468 </v>
  </varray>
  <varray name="stress" >
   <v>     -35.65606907       0.00000000       0.00000000 </v>
   <v>       0.00000000     -35.65606907       0.00000000 </v>
   <v>       0.00000000       0.00000000     -16.94134138 </v>
  </varray>
  <energy>
   <i name="e_fr_energy">    -38.71749287 </i>
   <i name="e_wo_entrp">    -38.71857091 </i>
   <i name="e_0_energy">      0.00323413 </i>
  </energy>
  <time name="totalsc">    0.97    0.98</time>
 </calculation>
 <calculation>
  <scstep>
   <time name="dav">    0.21    0.21</time>
   <time name="total">    0.26    0.27</time>
   <energy>
    <i name="alphaZ">    136.62239407 </i>
    <i name="ewald">   4337.32068108 </i>
    <i name="hartreedc">  -7399.58553393 </i>
    <i name="XCdc">     22.11548422 </i>
    <i name="pawpsdc">   3473.88603770 </i>
    <i name="pawaedc">  -3519.18819518 </i>
    <i name="eentropy">      0.00324682 </i>
    <i name="bandstr">    -61.29582299 </i>
    <i name="atom">   2971.40422482 </i>
    <i name="e_fr_energy">    -38.71748338 </i>
    <i name="e_wo_entrp">    -38.72073020 </i>
    <i name="e_0_energy">    -38.71856566 </i>
   </energy>
  </scstep>
  <scstep>
   <time name="dav">    0.23    0.23</time>
   <time name="total">    0.26    0.26</time>
   <energy>
    <i name="alphaZ">    136.62239407 </i>
    <i name="ewald">   4337.32068108 </i>
    <i name="hartreedc">  -7399.60300015 </i>
    <i name="XCdc">     22.11612842 </i>
    <i name="pawpsdc">   3473.91539840 </i>
    <i name="pawaedc">  -3519.21871405 </i>
    <i name="eentropy">      0.00327724 </i>
    <i name="bandstr">    -61.27792092 </i>
    <i name="atom">   2971.40422482 </i>
    <i name="e_fr_energy">    -38.71753109 </i>
    <i name="e_wo_entrp">    -38.72080833 </i>
    <i name="e_0_energy">    -38.71862351 </i>
   </energy>
  </scstep>
  <structure>
   <crystal>
    <varray name="basis" >
     <v>       2.84000000       0.00000000       0.00000000 </v>
     <v>       0.00000000       2.84000000       0.00000000 </v>
     <v>       0.00000000       0.00000000      15.68000000 </v>
    </varray>
    <i name="volume">    126.46860800 </i>
    <varray name="rec_basis" >
     <v>       0.35211268       0.00000000       0.00000000 </v>
     <v>       0.00000000       0.35211268       0.00000000 </v>
     <v>       0.00000000       0.00000000       0.06377551 </v>
    </varray>
   </crystal>
   <varray name="positions" >
    <v>       0.00000000       0.00000000       0.18002408 </v>
    <v>       0.50000000       0.50000000       0.09283361 </v>
    <v>       0.00000000       0.00000000       0.00000000 </v>
    <v>       0.50000000       0.50000000       0.90716639 </v>
    <v>       0.00000000       0.00000000       0.81997592 </v>
   </varray>
  </structure>
  <varray name="forces" >
   <v>      -0.00000000      -0.00000000       0.01501835 </v>
   <v>      -0.00000000       0.00000000       0.01860611 </v>
   <v>      -0.00000000       0.00000000       0.00000000 </v>
   <v>       0.00000000       0.00000000      -0.01860611 </v>
   <v>       0.00000000      -0.00000000      -0.01501835 </v>
  </varray>
  <varray name="stress" >
   <v>     -35.37334736       0.00000000      -0.00000000 </v>
   <v>       0.00000000     -35.37334736       0.00000000 </v>
   <v>      -0.00000000       0.00000000     -15.90993032 </v>
  </varray>
  <energy>
   <i name="e_fr_energy">    -38.71753109 </i>
   <i name="e_wo_entrp">    -38.71862351 </i>
   <i name="e_0_energy">      0.00327724 </i>
  </energy>
  <time name="totalsc">    0.95    0.95</time>
 </calculation>
 <calculation>
  <scstep>
   <time name="dav">    0.21    0.21</time>
   <time name="total">    0.26    0.27</time>
   <energy>
    <i name="alphaZ">    136.62239407 </i>
    <i name="ewald">   4337.31700620 </i>
    <i name="hartreedc">  -7399.59255516 </i>
    <i name="XCdc">     22.11601899 </i>
    <i name="pawpsdc">   3473.91685473 </i>
    <i name="pawaedc">  -3519.22024449 </i>
    <i name="eentropy">      0.00326266 </i>
    <i name="bandstr">    -61.28449273 </i>
    <i name="atom">   2971.40422482 </i>
    <i name="e_fr_energy">    -38.71753091 </i>
    <i name="e_wo_entrp">    -38.72079357 </i>
    <i name="e_0_energy">    -38.71861846 </i>
   </energy>
  </scstep>
  <scstep>
   <time name="dav">    0.23    0.23</time>
   <time name="total">    0.26    0.26</time>
   <energy>
    <i name="alphaZ">    136.62239407 </i>
    <i name="ewald">   4337.31700620 </i>
    <i name="hartreedc">  -7399.60383366 </i>
    <i name="XCdc">     22.11636480 </i>
    <i name="pawpsdc">   3473.93085595 </i>
    <i name="pawaedc">  -3519.23439658 </i>
    <i name="eentropy">      0.00326154 </i>
    <i name="bandstr">    -61.27344034 </i>
    <i name="atom">   2971.40422482 </i>
    <i name="e_fr_energy">    -38.71756320 </i>
    <i name="e_wo_entrp">    -38.72082474 </i>
    <i name="e_0_energy">    -38.71865038 </i>
   </energy>
  </scstep>
  <structure>
   <crystal>
    <varray name="basis" >
     <v>       2.84000000       0.00000000       0.00000000 </v>
     <v>       0.00000000       2.84000000       0.00000000 </v>
     <v>       0.00000000       0.00000000      15.68000000 </v>
    </varray>
    <i name="volume">    126.46860800 </i>
    <varray name="rec_basis" >
     <v>       0.35211268       0.00000000       0.00000000 </v>
     <v>       0.00000000       0.35211268       0.00000000 </v>
     <v>       0.00000000       0.00000000       0.06377551 </v>
    </varray>
   </crystal>
   <varray name="positions" >
    <v>       0.00000000       0.00000000       0.18002328 </v>
    <v>       0.50000000       0.50000000       0.09283526 </v>
    <v>       0.00000000       0.00000000       0.00000000 </v>
    <v>       0.50000000       0.50000000       0.90716474 </v>
    <v>       0.00000000       0.00000000       0.81997672 </v>
   </varray>
  </structure>
  <varray name="forces" >
   <v>      -0.00000000       0.00000000       0.02469838 </v>
   <v>       0.00000000      -0.00000000       0.00108978 </v>
   <v>       0.00000000      -0.00000000       0.00000000 </v>
   <v>      -0.00000000      -0.00000000      -0.00108978 </v>
   <v>       0.00000000      -0.00000000      -0.02469838 </v>
  </varray>
  <varray name="stress" >
   <v>     -35.59412126       0.00000000       0.00000000 </v>
   <v>       0.00000000     -35.59412126       0.00000000 </v>
   <v>       0.00000000      -0.00000000     -16.32562790 </v>
  </varray>
  <energy>
   <i name="e_fr_energy">    -38.71756320 </i>
   <i name="e_wo_entrp">    -38.71865038 </i>
   <i name="e_0_energy">      0.00326154 </i>
  </energy>
  <time name="totalsc">    0.95    0.95</time>
 </calculation>
 <calculation>
  <scstep>
   <time name="dav">    0.21    0.21</time>
   <time name="total">    0.27    0.27</time>
   <energy>
    <i name="alphaZ">    136.62239407 </i>
    <i name="ewald">   4337.31880236 </i>
    <i name="hartreedc">  -7399.59762589 </i>
    <i name="XCdc">     22.11595929 </i>
    <i name="pawpsdc">   3473.92894217 </i>
    <i name="pawaedc">  -3519.23230109 </i>
    <i name="eentropy">      0.00326356 </i>
    <i name="bandstr">    -61.28122508 </i>
    <i name="atom">   2971.40422482 </i>
    <i name="e_fr_energy">    -38.71756577 </i>
    <i name="e_wo_entrp">    -38.72082933 </i>
    <i name="e_0_energy">    -38.71865363 </i>
   </energy>
  </scstep>
  <scstep>
   <time name="dav">    0.23    0.23</time>
   <time name="total">    0.26    0.26</time>
   <energy>
    <i name="alphaZ">    136.62239407 </i>
    <i name="ewald">   4337.31880236 </i>
    <i name="hartreedc">  -7399.60995326 </i>
    <i name="XCdc">     22.11645920 </i>
    <i name="pawpsdc">   3473.93702294 </i>
    <i name="pawaedc">  -3519.24075813 </i>
    <i name="eentropy">      0.00326809 </i>
    <i name="bandstr">    -61.26904554 </i>
    <i name="atom">   2971.40422482 </i>
    <i name="e_fr_energy">    -38.71758543 </i>
    <i name="e_wo_entrp">    -38.72085352 </i>
    <i name="e_0_energy">    -38.71867479 </i>
   </energy>
  </scstep>
  <structure>
   <crystal>
    <varray name="basis" >
     <v>       2.84000000       0.00000000       0.00000000 </v>
     <v>       0.00000000       2.84000000       0.00000000 </v>
     <v>       0.00000000       0.00000000      15.68000000 </v>
    </varray>
    <i name="volume">    126.46860800 </i>
    <varray name="rec_basis" >
     <v>       0.35211268       0.00000000       0.00000000 </v>
     <v>       0.00000000       0.35211268       0.00000000 </v>
     <v>       0.00000000       0.00000000       0.06377551 </v>
    </varray>
   </crystal>
   <varray name="positions" >
    <v>       0.00000000       0.00000000       0.18002367 </v>
    <v>       0.50000000       0.50000000       0.09283445 </v>
    <v>       0.00000000       0.00000000       0.00000000 </v>
    <v>       0.50000000       0.50000000       0.90716555 </v>
    <v>       0.00000000       0.00000000       0.81997633 </v>
   </varray>
  </structure>
  <varray name="forces" >
   <v>       0.00000000       0.00000000       0.02102154 </v>
   <v>      -0.00000000      -0.00000000       0.00857835 </v>
   <v>      -0.00000000       0.00000000       0.00000000 </v>
   <v>       0.00000000      -0.00000000      -0.00857835 </v>
   <v>      -0.00000000       0.00000000      -0.02102154 </v>
  </varray>
  <varray name="stress" >
   <v>     -35.58572322       0.00000000      -0.00000000 </v>
   <v>       0.00000000     -35.58572322       0.00000000 </v>
   <v>       0.00000000       0.00000000     -16.31288710 </v>
  </varray>
  <energy>
   <i name="e_fr_energy">    -38.71758543 </i>
   <i name="e_wo_entrp">    -38.71867479 </i>
   <i name="e_0_energy">      0.00326809 </i>
  </energy>
  <time name="totalsc">    0.95    0.95</time>
 </calculation>
 <calculation>
  <scstep>
   <time name="dav">    0.21    0.21</time>
   <time name="total">    0.26    0.26</time>
   <energy>
    <i name="alphaZ">    136.62239407 </i>
    <i name="ewald">   4337.31907159 </i>
    <i name="hartreedc">  -7399.60157748 </i>
    <i name="XCdc">     22.11607723 </i>
    <i name="pawpsdc">   3473.93442101 </i>
    <i name="pawaedc">  -3519.23797636 </i>
    <i name="eentropy">      0.00326783 </i>
    <i name="bandstr">    -61.27748885 </i>
    <i name="atom">   2971.40422482 </i>
    <i name="e_fr_energy">    -38.71758612 </i>
    <i name="e_wo_entrp">    -38.72085395 </i>
    <i name="e_0_energy">    -38.71867540 </i>
   </energy>
  </scstep>
  <scstep>
   <time name="dav">    0.23    0.23</time>
   <time name="total">    0.26    0.26</time>
   <energy>
    <i name="alphaZ">    136.62239407 </i>
    <i name="ewald">   4337.31907159 </i>
    <i name="hartreedc">  -7399.60970513 </i>
    <i name="XCdc">     22.11644390 </i>
    <i name="pawpsdc">   3473.93890410 </i>
    <i name="pawaedc">  -3519.24272052 </i>
    <i name="eentropy">      0.00326843 </i>
    <i name="bandstr">    -61.26947940 </i>
    <i name="atom">   2971.40422482 </i>
    <i name="e_fr_energy">    -38.71759814 </i>
    <i name="e_wo_entrp">    -38.72086657 </i>
    <i name="e_0_energy">    -38.71868761 </i>
   </energy>
  </scstep>
  <structure>
   <crystal>
    <varray name="basis" >
     <v>       2.84000000       0.00000000       0.00000000 </v>
     <v>       0.00000000       2.84000000       0.00000000 </v>
     <v>       0.00000000       0.00000000      15.68000000 </v>
    </varray>
    <i name="volume">    126.46860800 </i>
    <varray name="rec_basis" >
     <v>       0.35211268       0.00000000       0.00000000 </v>
     <v>       0.00000000       0.35211268       0.00000000 </v>
     <v>       0.00000000       0.00000000       0.06377551 </v>
    </varray>
   </crystal>
   <varray name="positions" >
    <v>       0.00000000       0.00000000       0.18002373 </v>
    <v>       0.50000000       0.50000000       0.09283433 </v>
    <v>       0.00000000       0.00000000       0.00000000 </v>
    <v>       0.50000000       0.50000000       0.90716567 </v>
    <v>       0.00000000       0.00000000       0.81997627 </v>
   </varray>
  </structure>
  <varray name="forces" >
   <v>      -0.00000000      -0.00000000       0.02078820 </v>
   <v>      -0.00000000       0.00000000       0.00719763 </v>
   <v>      -0.00000000       0.00000000       0.00000000 </v>
   <v>      -0.00000000       0.00000000      -0.00719763 </v>
   <v>       0.00000000       0.00000000      -0.02078820 </v>
  </varray>
  <varray name="stress" >
   <v>     -35.56957594       0.00000000       0.00000000 </v>
   <v>       0.00000000     -35.56957594       0.00000000 </v>
   <v>      -0.00000000       0.00000000     -16.20133515 </v>
  </varray>
  <energy>
   <i name="e_fr_energy">    -38.71759814 </i>
   <i name="e_wo_entrp">    -38.71868761 </i>
   <i name="e_0_energy">      0.00326843 </i>
  </energy>
  <time name="totalsc">    0.94    0.95</time>
 </calculation>
 <calculation>
  <scstep>
   <time name="dav">    0.21    0.21</time>
   <time name="total">    0.26    0.26</time>
   <energy>
    <i name="alphaZ">    136.62239407 </i>
    <i name="ewald">   4337.31987633 </i>
    <i name="hartreedc">  -7399.60567188 </i>
    <i name="XCdc">     22.11620243 </i>
    <i name="pawpsdc">   3473.93724934 </i>
    <i name="pawaedc">  -3519.24095443 </i>
    <i name="eentropy">      0.00326963 </i>
    <i name="bandstr">    -61.27418963 </i>
    <i name="atom">   2971.40422482 </i>
    <i name="e_fr_energy">    -38.71759931 </i>
    <i name="e_wo_entrp">    -38.72086894 </i>
    <i name="e_0_energy">    -38.71868919 </i>
   </energy>
  </scstep>
  <scstep>
   <time name="dav">    0.23    0.23</time>
   <time name="total">    0.25    0.25</time>
   <energy>
    <i name="alphaZ">    136.62239407 </i>
    <i name="ewald">   4337.31987633 </i>
    <i name="hartreedc">  -7399.60873067 </i>
    <i name="XCdc">     22.11628706 </i>
    <i name="pawpsdc">   3473.93684925 </i>
    <i name="pawaedc">  -3519.24066904 </i>
    <i name="eentropy">      0.00327358 </i>
    <i name="bandstr">    -61.27111301 </i>
    <i name="atom">   2971.40422482 </i>
    <i name="e_fr_energy">    -38.71760761 </i>
    <i name="e_wo_entrp">    -38.72088119 </i>
    <i name="e_0_energy">    -38.71869880 </i>
   </energy>
  </scstep>
  <structure>
   <crystal>
    <varray name="basis" >
     <v>       2.84000000       0.00000000       0.00000000 </v>
     <v>       0.00000000       2.84000000       0.00000000 </v>
     <v>       0.00000000       0.00000000      15.68000000 </v>
    </varray>
    <i name="volume">    126.46860800 </i>
    <varray name="rec_basis" >
     <v>       0.35211268       0.00000000       0.00000000 </v>
     <v>       0.00000000       0.35211268       0.00000000 </v>
     <v>       0.00000000       0.00000000       0.06377551 </v>
    </varray>
   </crystal>
   <varray name="positions" >
    <v>       0.00000000       0.00000000       0.18002390 </v>
    <v>       0.50000000       0.50000000       0.09283397 </v>
    <v>       0.00000000       0.00000000       0.00000000 </v>
    <v>       0.50000000       0.50000000       0.90716603 </v>
    <v>       0.00000000       0.00000000       0.81997610 </v>
   </varray>
  </structure>
  <varray name="forces" >
   <v>      -0.00000000       0.00000000       0.02007404 </v>
   <v>       0.00000000       0.00000000       0.00602849 </v>
   <v>       0.00000000       0.00000000       0.00000000 </v>
   <v>      -0.00000000       0.00000000      -0.00602849 </v>
   <v>       0.00000000       0.00000000      -0.02007404 </v>
  </varray>
  <varray name="stress" >
   <v>     -35.52514730       0.00000000       0.00000000 </v>
   <v>       0.00000000     -35.52514730       0.00000000 </v>
   <v>       0.00000000      -0.00000000     -16.02189061 </v>
  </varray>
  <energy>
   <i name="e_fr_energy">    -38.71760761 </i>
   <i name="e_wo_entrp">    -38.71869880 </i>
   <i name="e_0_energy">      0.00327358 </i>
  </energy>
  <time name="totalsc">    0.94    0.95</time>
 </calculation>
 <calculation>
  <scstep>
   <time name="dav">    0.21    0.21</time>
   <time name="total">    0.27    0.27</time>
   <energy>
    <i name="alphaZ">    136.62239407 </i>
    <i name="ewald">   4337.32027871 </i>
    <i name="hartreedc">  -7399.60746285 </i>
    <i name="XCdc">     22.11621284 </i>
    <i name="pawpsdc">   3473.93636310 </i>
    <i name="pawaedc">  -3519.24015628 </i>
    <i name="eentropy">      0.00327287 </i>
    <i name="bandstr">    -61.27273620 </i>
    <i name="atom">   2971.40422482 </i>
    <i name="e_fr_energy">    -38.71760892 </i>
    <i name="e_wo_entrp">    -38.72088179 </i>
    <i name="e_0_energy">    -38.71869988 </i>
   </energy>
  </scstep>
  <scstep>
   <time name="dav">    0.23    0.23</time>
   <time name="total">    0.25    0.25</time>
   <energy>
    <i name="alphaZ">    136.62239407 </i>
    <i name="ewald">   4337.32027871 </i>
    <i name="hartreedc">  -7399.61189173 </i>
    <i name="XCdc">     22.11635401 </i>
    <i name="pawpsdc">   3473.93525021 </i>
    <i name="pawaedc">  -3519.23909050 </i>
    <i name="eentropy">      0.00327427 </i>
    <i name="bandstr">    -61.26840724 </i>
    <i name="atom">   2971.40422482 </i>
    <i name="e_fr_energy">    -38.71761338 </i>
    <i name="e_wo_entrp">    -38.72088766 </i>
    <i name="e_0_energy">    -38.71870481 </i>
   </energy>
  </scstep>
  <structure>
   <crystal>
    <varray name="basis" >
     <v>       2.84000000       0.00000000       0.00000000 </v>
     <v>       0.00000000       2.84000000       0.00000000 </v>
     <v>       0.00000000       0.00000000      15.68000000 </v>
    </varray>
    <i name="volume">    126.46860800 </i>
    <varray name="rec_basis" >
     <v>       0.35211268       0.00000000       0.00000000 </v>
     <v>       0.00000000       0.35211268       0.00000000 </v>
     <v>       0.00000000       0.00000000       0.06377551 </v>
    </varray>
   </crystal>
   <varray name="positions" >
    <v>       0.00000000       0.00000000       0.18002399 </v>
    <v>       0.50000000       0.50000000       0.09283379 </v>
    <v>       0.00000000       0.00000000       0.00000000 </v>
    <v>       0.50000000       0.50000000       0.90716621 </v>
    <v>       0.00000000       0.00000000       0.81997601 </v>
   </varray>
  </structure>
  <varray name="forces" >
   <v>       0.00000000       0.00000000       0.02054193 </v>
   <v>       0.00000000       0.00000000       0.00597403 </v>
   <v>       0.00000000       0.00000000      -0.00000000 </v>
   <v>      -0.00000000      -0.00000000      -0.00597403 </v>
   <v>      -0.00000000       0.00000000      -0.02054193 </v>
  </varray>
  <varray name="stress" >
   <v>     -35.55269237       0.00000000       0.00000000 </v>
   <v>       0.00000000     -35.55269237      -0.00000000 </v>
   <v>       0.00000000       0.00000000     -16.11065862 </v>
  </varray>
  <energy>
   <i name="e_fr_energy">    -38.71761338 </i>
   <i name="e_wo_entrp">    -38.71870481 </i>
   <i name="e_0_energy">      0.00327427 </i>
  </energy>
  <time name="totalsc">    1.13    1.14</time>
 </calculation>
 <calculation>
  <scstep>
   <time name="dav">    0.21    0.21</time>
   <time name="total">    0.26    0.26</time>
   <energy>
    <i name="alphaZ">    136.62239407 </i>
    <i name="ewald">   4337.32047989 </i>
    <i name="hartreedc">  -7399.60924241 </i>
    <i name="XCdc">     22.11622313 </i>
    <i name="pawpsdc">   3473.93413680 </i>
    <i name="pawaedc">  -3519.23791367 </i>
    <i name="eentropy">      0.00327442 </i>
    <i name="bandstr">    -61.27119057 </i>
    <i name="atom">   2971.40422482 </i>
    <i name="e_fr_energy">    -38.71761351 </i>
    <i name="e_wo_entrp">    -38.72088793 </i>
    <i name="e_0_energy">    -38.71870499 </i>
   </energy>
  </scstep>
  <scstep>
   <time name="dav">    0.22    0.22</time>
   <time name="total">    0.25    0.25</time>
   <energy>
    <i name="alphaZ">    136.62239407 </i>
    <i name="ewald">   4337.32047989 </i>
    <i name="hartreedc">  -7399.60958005 </i>
    <i name="XCdc">     22.11624647 </i>
    <i name="pawpsdc">   3473.93260040 </i>
    <i name="pawaedc">  -3519.23641394 </i>
    <i name="eentropy">      0.00327569 </i>
    <i name="bandstr">    -61.27084303 </i>
    <i name="atom">   2971.40422482 </i>
    <i name="e_fr_energy">    -38.71761567 </i>
    <i name="e_wo_entrp">    -38.72089136 </i>
    <i name="e_0_energy">    -38.71870757 </i>
   </energy>
  </scstep>
  <structure>
   <crystal>
    <varray name="basis" >
     <v>       2.84000000       0.00000000       0.00000000 </v>
     <v>       0.00000000       2.84000000       0.00000000 </v>
     <v>       0.00000000       0.00000000      15.68000000 </v>
    </varray>
    <i name="volume">    126.46860800 </i>
    <varray name="rec_basis" >
     <v>       0.35211268       0.00000000       0.00000000 </v>
     <v>       0.00000000       0.35211268       0.00000000 </v>
     <v>       0.00000000       0.00000000       0.06377551 </v>
    </varray>
   </crystal>
   <varray name="positions" >
    <v>       0.00000000       0.00000000       0.18002403 </v>
    <v>       0.50000000       0.50000000       0.09283370 </v>
    <v>       0.00000000       0.00000000       0.00000000 </v>
    <v>       0.50000000       0.50000000       0.90716630 </v>
    <v>       0.00000000       0.00000000       0.81997597 </v>
   </varray>
  </structure>
  <varray name="forces" >
   <v>      -0.00000000       0.00000000       0.02087719 </v>
   <v>       0.00000000       0.00000000       0.00260708 </v>
   <v>       0.00000000       0.00000000       0.00000000 </v>
   <v>       0.00000000       0.00000000      -0.00260708 </v>
   <v>       0.00000000      -0.00000000      -0.02087719 </v>
  </varray>
  <varray name="stress" >
   <v>     -35.51897762       0.00000000       0.00000000 </v>
   <v>       0.00000000     -35.51897762       0.00000000 </v>
   <v>       0.00000000      -0.00000000     -15.93527437 </v>
  </varray>
  <energy>
   <i name="e_fr_energy">    -38.71761567 </i>
   <i name="e_wo_entrp">    -38.71870757 </i>
   <i name="e_0_energy">      0.00327569 </i>
  </energy>
  <time name="totalsc">    0.93    0.94</time>
 </calculation>
 <calculation>
  <scstep>
   <time name="dav">    0.20    0.20</time>
   <time name="total">    0.26    0.26</time>
   <energy>
    <i name="alphaZ">    136.62239407 </i>
    <i name="ewald">   4337.32058049 </i>
    <i name="hartreedc">  -7399.61076942 </i>
    <i name="XCdc">     22.11628252 </i>
    <i name="pawpsdc">   3473.93252293 </i>
    <i name="pawaedc">  -3519.23635696 </i>
    <i name="eentropy">      0.00327585 </i>
    <i name="bandstr">    -61.26977019 </i>
    <i name="atom">   2971.40422482 </i>
    <i name="e_fr_energy">    -38.71761589 </i>
    <i name="e_wo_entrp">    -38.72089174 </i>
    <i name="e_0_energy">    -38.71870784 </i>
   </energy>
  </scstep>
  <scstep>
   <time name="dav">    0.22    0.22</time>
   <time name="total">    0.25    0.25</time>
   <energy>
    <i name="alphaZ">    136.62239407 </i>
    <i name="ewald">   4337.32058049 </i>
    <i name="hartreedc">  -7399.61054869 </i>
    <i name="XCdc">     22.11622180 </i>
    <i name="pawpsdc">   3473.93111681 </i>
    <i name="pawaedc">  -3519.23491192 </i>
    <i name="eentropy">      0.00327697 </i>
    <i name="bandstr">    -61.26997139 </i>
    <i name="atom">   2971.40422482 </i>
    <i name="e_fr_energy">    -38.71761703 </i>
    <i name="e_wo_entrp">    -38.72089400 </i>
    <i name="e_0_energy">    -38.71870936 </i>
   </energy>
  </scstep>
  <structure>
   <crystal>
    <varray name="basis" >
     <v>       2.84000000       0.00000000       0.00000000 </v>
     <v>       0.00000000       2.84000000       0.00000000 </v>
     <v>       0.00000000       0.00000000      15.68000000 </v>
    </varray>
    <i name="volume">    126.46860800 </i>
    <varray name="rec_basis" >
     <v>       0.35211268       0.00000000       0.00000000 </v>
     <v>       0.00000000       0.35211268       0.00000000 </v>
     <v>       0.00000000       0.00000000       0.06377551 </v>
    </varray>
   </crystal>
   <varray name="positions" >
    <v>       0.00000000       0.00000000       0.18002406 </v>
    <v>       0.50000000       0.50000000       0.09283365 </v>
    <v>       0.00000000       0.00000000       0.00000000 </v>
    <v>       0.50000000       0.50000000       0.90716635 </v>
    <v>       0.00000000       0.00000000       0.81997594 </v>
   </varray>
  </structure>
  <varray name="forces" >
   <v>      -0.00000000       0.00000000       0.02096215 </v>
   <v>      -0.00000000      -0.00000000       0.00248320 </v>
   <v>       0.00000000      -0.00000000       0.00000000 </v>
   <v>       0.00000000      -0.00000000      -0.00248320 </v>
   <v>       0.00000000       0.00000000      -0.02096215 </v>
  </varray>
  <varray name="stress" >
   <v>     -35.51882774       0.00000000       0.00000000 </v>
   <v>       0.00000000     -35.51882774       0.00000000 </v>
   <v>      -0.00000000       0.00000000     -15.92819500 </v>
  </varray>
  <energy>
   <i name="e_fr_energy">    -38.71761703 </i>
   <i name="e_wo_entrp">    -38.71870936 </i>
   <i name="e_0_energy">      0.00327697 </i>
  </energy>
  <time name="totalsc">    0.93    0.94</time>
 </calculation>
 <calculation>
  <scstep>
   <time name="dav">    0.20    0.20</time>
   <time name="total">    0.25    0.25</time>
   <energy>
    <i name="alphaZ">    136.62239407 </i>
    <i name="ewald">   4337.32063078 </i>
    <i name="hartreedc">  -7399.61204961 </i>
    <i name="XCdc">     22.11628649 </i>
    <i name="pawpsdc">   3473.93131015 </i>
    <i name="pawaedc">  -3519.23513589 </i>
    <i name="eentropy">      0.00327684 </i>
    <i name="bandstr">    -61.26855476 </i>
    <i name="atom">   2971.40422482 </i>
    <i name="e_fr_energy">    -38.71761711 </i>
    <i name="e_wo_entrp">    -38.72089394 </i>
    <i name="e_0_energy">    -38.71870938 </i>
   </energy>
  </scstep>
  <scstep>
   <time name="dav">    0.22    0.22</time>
   <time name="total">    0.25    0.25</time>
   <energy>
    <i name="alphaZ">    136.62239407 </i>
    <i name="ewald">   4337.32063078 </i>
    <i name="hartreedc">  -7399.61030009 </i>
    <i name="XCdc">     22.11620536 </i>
    <i name="pawpsdc">   3473.92943699 </i>
    <i name="pawaedc">  -3519.23321869 </i>
    <i name="eentropy">      0.00327782 </i>
    <i name="bandstr">    -61.27026887 </i>
    <i name="atom">   2971.40422482 </i>
    <i name="e_fr_energy">    -38.71761781 </i>
    <i name="e_wo_entrp">    -38.72089562 </i>
    <i name="e_0_energy">    -38.71871041 </i>
   </energy>
  </scstep>
  <structure>
   <crystal>
    <varray name="basis" >
     <v>       2.84000000       0.00000000       0.00000000 </v>
     <v>       0.00000000       2.84000000       0.00000000 </v>
     <v>       0.00000000       0.00000000      15.68000000 </v>
    </varray>
    <i name="volume">    126.46860800 </i>
    <varray name="rec_basis" >
     <v>       0.35211268       0.00000000       0.00000000 </v>
     <v>       0.00000000       0.35211268       0.00000000 </v>
     <v>       0.00000000       0.00000000       0.06377551 </v>
    </varray>
   </crystal>
   <varray name="positions" >
    <v>       0.00000000       0.00000000       0.18002407 </v>
    <v>       0.50000000       0.50000000       0.09283363 </v>
    <v>       0.00000000       0.00000000       0.00000000 </v>
    <v>       0.50000000       0.50000000       0.90716637 </v>
    <v>       0.00000000       0.00000000       0.81997593 </v>
   </varray>
  </structure>
  <varray name="forces" >
   <v>       0.00000000       0.00000000       0.02093023 </v>
   <v>       0.00000000       0.00000000       0.00203595 </v>
   <v>       0.00000000       0.00000000       0.00000000 </v>
   <v>      -0.00000000       0.00000000      -0.00203595 </v>
   <v>       0.00000000      -0.00000000      -0.02093023 </v>
  </varray>
  <varray name="stress" >
   <v>     -35.50718404       0.00000000       0.00000000 </v>
   <v>       0.00000000     -35.50718404      -0.00000000 </v>
   <v>       0.00000000       0.00000000     -15.87633254 </v>
  </varray>
  <energy>
   <i name="e_fr_energy">    -38.71761781 </i>
   <i name="e_wo_entrp">    -38.71871041 </i>
   <i name="e_0_energy">      0.00327782 </i>
  </energy>
  <time name="totalsc">    0.92    0.93</time>
 </calculation>
 <calculation>
  <scstep>
   <time name="dav">    0.20    0.20</time>
   <time name="total">    0.25    0.25</time>
   <energy>
    <i name="alphaZ">    136.62239407 </i>
    <i name="ewald">   4337.32065593 </i>
    <i name="hartreedc">  -7399.61251601 </i>
    <i name="XCdc">     22.11630357 </i>
    <i name="pawpsdc">   3473.93007161 </i>
    <i name="pawaedc">  -3519.23390262 </i>
    <i name="eentropy">      0.00327767 </i>
    <i name="bandstr">    -61.26812671 </i>
    <i name="atom">   2971.40422482 </i>
    <i name="e_fr_energy">    -38.71761766 </i>
    <i name="e_wo_entrp">    -38.72089534 </i>
    <i name="e_0_energy">    -38.71871022 </i>
   </energy>
  </scstep>
  <scstep>
   <time name="dav">    0.22    0.22</time>
   <time name="total">    0.24    0.25</time>
   <energy>
    <i name="alphaZ">    136.62239407 </i>
    <i name="ewald">   4337.32065593 </i>
    <i name="hartreedc">  -7399.61317921 </i>
    <i name="XCdc">     22.11631758 </i>
    <i name="pawpsdc">   3473.92944910 </i>
    <i name="pawaedc">  -3519.23329370 </i>
    <i name="eentropy">      0.00327793 </i>
    <i name="bandstr">    -61.26746439 </i>
    <i name="atom">   2971.40422482 </i>
    <i name="e_fr_energy">    -38.71761786 </i>
    <i name="e_wo_entrp">    -38.72089579 </i>
    <i name="e_0_energy">    -38.71871050 </i>
   </energy>
  </scstep>
  <structure>
   <crystal>
    <varray name="basis" >
     <v>       2.84000000       0.00000000       0.00000000 </v>
     <v>       0.00000000       2.84000000       0.00000000 </v>
     <v>       0.00000000       0.00000000      15.68000000 </v>
    </varray>
    <i name="volume">    126.46860800 </i>
    <varray name="rec_basis" >
     <v>       0.35211268       0.00000000       0.00000000 </v>
     <v>       0.00000000       0.35211268       0.00000000 </v>
     <v>       0.00000000       0.00000000       0.06377551 </v>
    </varray>
   </crystal>
   <varray name="positions" >
    <v>       0.00000000       0.00000000       0.18002407 </v>
    <v>       0.50000000       0.50000000       0.09283362 </v>
    <v>       0.00000000       0.00000000       0.00000000 </v>
    <v>       0.50000000       0.50000000       0.90716638 </v>
    <v>       0.00000000       0.00000000       0.81997593 </v>
   </varray>
  </structure>
  <varray name="forces" >
   <v>       0.00000000       0.00000000       0.02158212 </v>
   <v>      -0.00000000      -0.00000000       0.00226440 </v>
   <v>       0.00000000      -0.00000000       0.00000000 </v>
   <v>       0.00000000       0.00000000      -0.00226440 </v>
   <v>      -0.00000000       0.00000000      -0.02158212 </v>
  </varray>
  <varray name="stress" >
   <v>     -35.52766029       0.00000000      -0.00000000 </v>
   <v>       0.00000000     -35.52766029      -0.00000000 </v>
   <v>      -0.00000000      -0.00000000     -15.97268632 </v>
  </varray>
  <energy>
   <i name="e_fr_energy">    -38.71761786 </i>
   <i name="e_wo_entrp">    -38.71871050 </i>
   <i name="e_0_energy">      0.00327793 </i>
  </energy>
  <time name="totalsc">    0.92    0.92</time>
 </calculation>
 <calculation>
  <scstep>
   <time name="dav">    0.20    0.20</time>
   <time name="total">    0.25    0.25</time>
   <energy>
    <i name="alphaZ">    136.62239407 </i>
    <i name="ewald">   4337.32066851 </i>
    <i name="hartreedc">  -7399.61323191 </i>
    <i name="XCdc">     22.11631056 </i>
    <i name="pawpsdc">   3473.92902691 </i>
    <i name="pawaedc">  -3519.23287229 </i>
    <i name="eentropy">      0.00327846 </i>
    <i name="bandstr">    -61.26741705 </i>
    <i name="atom">   2971.40422482 </i>
    <i name="e_fr_energy">    -38.71761791 </i>
    <i name="e_wo_entrp">    -38.72089637 </i>
    <i name="e_0_energy">    -38.71871073 </i>
   </energy>
  </scstep>
  <scstep>
   <time name="dav">    0.21    0.21</time>
   <time name="total">    0.24    0.24</time>
   <energy>
    <i name="alphaZ">    136.62239407 </i>
    <i name="ewald">   4337.32066851 </i>
    <i name="hartreedc">  -7399.61534667 </i>
    <i name="XCdc">     22.11639699 </i>
    <i name="pawpsdc">   3473.92875298 </i>
    <i name="pawaedc">  -3519.23264148 </i>
    <i name="eentropy">      0.00327758 </i>
    <i name="bandstr">    -61.26534479 </i>
    <i name="atom">   2971.40422482 </i>
    <i name="e_fr_energy">    -38.71761799 </i>
    <i name="e_wo_entrp">    -38.72089557 </i>
    <i name="e_0_energy">    -38.71871051 </i>
   </energy>
  </scstep>
  <structure>
   <crystal>
    <varray name="basis" >
     <v>       2.84000000       0.00000000       0.00000000 </v>
     <v>       0.00000000       2.84000000       0.00000000 </v>
     <v>       0.00000000       0.00000000      15.68000000 </v>
    </varray>
    <i name="volume">    126.46860800 </i>
    <varray name="rec_basis" >
     <v>       0.35211268       0.00000000       0.00000000 </v>
     <v>       0.00000000       0.35211268       0.00000000 </v>
     <v>       0.00000000       0.00000000       0.06377551 </v>
    </varray>
   </crystal>
   <varray name="positions" >
    <v>       0.00000000       0.00000000       0.18002407 </v>
    <v>       0.50000000       0.50000000       0.09283361 </v>
    <v>       0.00000000       0.00000000       0.00000000 </v>
    <v>       0.50000000       0.50000000       0.90716639 </v>
    <v>       0.00000000       0.00000000       0.81997593 </v>
   </varray>
  </structure>
  <varray name="forces" >
   <v>       0.00000000       0.00000000       0.02186150 </v>
   <v>      -0.00000000      -0.00000000       0.00256693 </v>
   <v>      -0.00000000       0.00000000       0.00000000 </v>
   <v>       0.00000000       0.00000000      -0.00256693 </v>
   <v>      -0.00000000       0.00000000      -0.02186150 </v>
  </varray>
  <varray name="stress" >
   <v>     -35.54081820       0.00000000       0.00000000 </v>
   <v>       0.00000000     -35.54081820       0.00000000 </v>
   <v>      -0.00000000       0.00000000     -16.03456886 </v>
  </varray>
  <energy>
   <i name="e_fr_energy">    -38.71761799 </i>
   <i name="e_wo_entrp">    -38.71871051 </i>
   <i name="e_0_energy">      0.00327758 </i>
  </energy>
  <time name="totalsc">    0.92    0.92</time>
 </calculation>
 <calculation>
  <scstep>
   <time name="dav">    0.20    0.20</time>
   <time name="total">    0.25    0.25</time>
   <energy>
    <i name="alphaZ">    136.62239407 </i>
    <i name="ewald">   4337.32067479 </i>
    <i name="hartreedc">  -7399.61399603 </i>
    <i name="XCdc">     22.11632854 </i>
    <i name="pawpsdc">   3473.92817210 </i>
    <i name="pawaedc">  -3519.23202860 </i>
    <i name="eentropy">      0.00327841 </i>
    <i name="bandstr">    -61.26666604 </i>
    <i name="atom">   2971.40422482 </i>
    <i name="e_fr_energy">    -38.71761793 </i>
    <i name="e_wo_entrp">    -38.72089634 </i>
    <i name="e_0_energy">    -38.71871073 </i>
   </energy>
  </scstep>
  <scstep>
   <time name="dav">    0.21    0.21</time>
   <time name="total">    0.24    0.24</time>
   <energy>
    <i name="alphaZ">    136.62239407 </i>
    <i name="ewald">   4337.32067479 </i>
    <i name="hartreedc">  -7399.61524170 </i>
    <i name="XCdc">     22.11637817 </i>
    <i name="pawpsdc">   3473.92800588 </i>
    <i name="pawaedc">  -3519.23188677 </i>
    <i name="eentropy">      0.00327962 </i>
    <i name="bandstr">    -61.26544680 </i>
    <i name="atom">   2971.40422482 </i>
    <i name="e_fr_energy">    -38.71761790 </i>
    <i name="e_wo_entrp">    -38.72089752 </i>
    <i name="e_0_energy">    -38.71871110 </i>
   </energy>
  </scstep>
  <structure>
   <crystal>
    <varray name="basis" >
     <v>       2.84000000       0.00000000       0.00000000 </v>
     <v>       0.00000000       2.84000000       0.00000000 </v>
     <v>       0.00000000       0.00000000      15.68000000 </v>
    </varray>
    <i name="volume">    126.46860800 </i>
    <varray name="rec_basis" >
     <v>       0.35211268       0.00000000       0.00000000 </v>
     <v>       0.00000000       0.35211268       0.00000000 </v>
     <v>       0.00000000       0.00000000       0.06377551 </v>
    </varray>
   </crystal>
   <varray name="positions" >
    <v>       0.00000000       0.00000000       0.18002408 </v>
    <v>       0.50000000       0.50000000       0.09283361 </v>
    <v>       0.00000000       0.00000000       0.00000000 </v>
    <v>       0.50000000       0.50000000       0.90716639 </v>
    <v>       0.00000000       0.00000000       0.81997592 </v>
   </varray>
  </structure>
  <varray name="forces" >
   <v>      -0.00000000       0.00000000       0.02160794 </v>
   <v>       0.00000000      -0.00000000       0.00251587 </v>
   <v>      -0.00000000      -0.00000000       0.00000000 </v>
   <v>       0.00000000      -0.00000000      -0.00251587 </v>
   <v>      -0.00000000       0.00000000      -0.02160794 </v>
  </varray>
  <varray name="stress" >
   <v>     -35.53158963       0.00000000       0.00000000 </v>
   <v>       0.00000000     -35.53158963       0.00000000 </v>
   <v>       0.00000000       0.00000000     -15.98726818 </v>
  </varray>
  <energy>
   <i name="e_fr_energy">    -38.71761790 </i>
   <i name="e_wo_entrp">    -38.71871110 </i>
   <i name="e_0_energy">      0.00327962 </i>
  </energy>
  <time name="totalsc">    0.91    0.92</time>
 </calculation>
 <calculation>
  <scstep>
   <time name="dav">    0.20    0.20</time>
   <time name="total">    0.25    0.25</time>
   <energy>
    <i name="alphaZ">    136.62239407 </i>
    <i name="ewald">   4337.32067794 </i>
    <i name="hartreedc">  -7399.61471072 </i>
    <i name="XCdc">     22.11635716 </i>
    <i name="pawpsdc">   3473.92778546 </i>
    <i name="pawaedc">  -3519.23165550 </i>
    <i name="eentropy">      0.00327917 </i>
    <i name="bandstr">    -61.26597028 </i>
    <i name="atom">   2971.40422482 </i>
    <i name="e_fr_energy">    -38.71761788 </i>
    <i name="e_wo_entrp">    -38.72089705 </i>
    <i name="e_0_energy">    -38.71871094 </i>
   </energy>
  </scstep>
  <scstep>
   <time name="dav">    0.20    0.20</time>
   <time name="total">    0.22    0.22</time>
   <energy>
    <i name="alphaZ">    136.62239407 </i>
    <i name="ewald">   4337.32067794 </i>
    <i name="hartreedc">  -7399.61570862 </i>
    <i name="XCdc">     22.11638990 </i>
    <i name="pawpsdc">   3473.92765466 </i>
    <i name="pawaedc">  -3519.23153638 </i>
    <i name="eentropy">      0.00327893 </i>
    <i name="bandstr">    -61.26499314 </i>
    <i name="atom">   2971.40422482 </i>
    <i name="e_fr_energy">    -38.71761781 </i>
    <i name="e_wo_entrp">    -38.72089674 </i>
    <i name="e_0_energy">    -38.71871079 </i>
   </energy>
  </scstep>
  <structure>
   <crystal>
    <varray name="basis" >
     <v>       2.84000000       0.00000000       0.00000000 </v>
     <v>       0.00000000       2.84000000       0.00000000 </v>
     <v>       0.00000000       0.00000000      15.68000000 </v>
    </varray>
    <i name="volume">    126.46860800 </i>
    <varray name="rec_basis" >
     <v>       0.35211268       0.00000000       0.00000000 </v>
     <v>       0.00000000       0.35211268       0.00000000 </v>
     <v>       0.00000000       0.00000000       0.06377551 </v>
    </varray>
   </crystal>
   <varray name="positions" >
    <v>       0.00000000       0.00000000       0.18002408 </v>
    <v>       0.50000000       0.50000000       0.09283361 </v>
    <v>       0.00000000       0.00000000       0.00000000 </v>
    <v>       0.50000000       0.50000000       0.90716639 </v>
    <v>       0.00000000       0.00000000       0.81997592 </v>
   </varray>
  </structure>
  <varray name="forces" >
   <v>       0.00000000       0.00000000       0.02173622 </v>
   <v>       0.00000000       0.00000000       0.00232420 </v>
   <v>      -0.00000000       0.00000000       0.00000000 </v>
   <v>      -0.00000000       0.00000000      -0.00232420 </v>
   <v>      -0.00000000       0.00000000      -0.02173622 </v>
  </varray>
  <varray name="stress" >
   <v>     -35.53320088       0.00000000       0.00000000 </v>
   <v>       0.00000000     -35.53320088       0.00000000 </v>
   <v>       0.00000000       0.00000000     -15.99305993 </v>
  </varray>
  <energy>
   <i name="e_fr_energy">    -38.71761781 </i>
   <i name="e_wo_entrp">    -38.71871079 </i>
   <i name="e_0_energy">      0.00327893 </i>
  </energy>
  <time name="totalsc">    0.89    0.90</time>
 </calculation>
 <calculation>
  <scstep>
   <time name="dav">    0.20    0.20</time>
   <time name="total">    0.25    0.25</time>
   <energy>
    <i name="alphaZ">    136.62239407 </i>
    <i name="ewald">   4337.32067951 </i>
    <i name="hartreedc">  -7399.61524984 </i>
    <i name="XCdc">     22.11636570 </i>
    <i name="pawpsdc">   3473.92744279 </i>
    <i name="pawaedc">  -3519.23131334 </i>
    <i name="eentropy">      0.00327923 </i>
    <i name="bandstr">    -61.26544073 </i>
    <i name="atom">   2971.40422482 </i>
    <i name="e_fr_energy">    -38.71761780 </i>
    <i name="e_wo_entrp">    -38.72089703 </i>
    <i name="e_0_energy">    -38.71871087 </i>
   </energy>
  </scstep>
  <scstep>
   <time name="dav">    0.20    0.20</time>
   <time name="total">    0.23    0.23</time>
   <energy>
    <i name="alphaZ">    136.62239407 </i>
    <i name="ewald">   4337.32067951 </i>
    <i name="hartreedc">  -7399.61592692 </i>
    <i name="XCdc">     22.11638586 </i>
    <i name="pawpsdc">   3473.92726406 </i>
    <i name="pawaedc">  -3519.23114573 </i>
    <i name="eentropy">      0.00327970 </i>
    <i name="bandstr">    -61.26477307 </i>
    <i name="atom">   2971.40422482 </i>
    <i name="e_fr_energy">    -38.71761770 </i>
    <i name="e_wo_entrp">    -38.72089740 </i>
    <i name="e_0_energy">    -38.71871094 </i>
   </energy>
  </scstep>
  <structure>
   <crystal>
    <varray name="basis" >
     <v>       2.84000000       0.00000000       0.00000000 </v>
     <v>       0.00000000       2.84000000       0.00000000 </v>
     <v>       0.00000000       0.00000000      15.68000000 </v>
    </varray>
    <i name="volume">    126.46860800 </i>
    <varray name="rec_basis" >
     <v>       0.35211268       0.00000000       0.00000000 </v>
     <v>       0.00000000       0.35211268       0.00000000 </v>
     <v>       0.00000000       0.00000000       0.06377551 </v>
    </varray>
   </crystal>
   <varray name="positions" >
    <v>       0.00000000       0.00000000       0.18002408 </v>
    <v>       0.50000000       0.50000000       0.09283361 </v>
    <v>       0.00000000       0.00000000       0.00000000 </v>
    <v>       0.50000000       0.50000000       0.90716639 </v>
    <v>       0.00000000       0.00000000       0.81997592 </v>
   </varray>
  </structure>
  <varray name="forces" >
   <v>      -0.00000000       0.00000000       0.02166287 </v>
   <v>      -0.00000000      -0.00000000       0.00227987 </v>
   <v>      -0.00000000      -0.00000000       0.00000000 </v>
   <v>       0.00000000      -0.00000000      -0.00227987 </v>
   <v>      -0.00000000      -0.00000000      -0.02166287 </v>
  </varray>
  <varray name="stress" >
   <v>     -35.52947284       0.00000000      -0.00000000 </v>
   <v>       0.00000000     -35.52947284       0.00000000 </v>
   <v>       0.00000000       0.00000000     -15.97689970 </v>
  </varray>
  <energy>
   <i name="e_fr_energy">    -38.71761770 </i>
   <i name="e_wo_entrp">    -38.71871094 </i>
   <i name="e_0_energy">      0.00327970 </i>
  </energy>
  <time name="totalsc">    0.90    0.91</time>
 </calculation>
 <calculation>
  <scstep>
   <time name="dav">    0.30    0.30</time>
   <time name="total">    0.36    0.36</time>
   <energy>
    <i name="alphaZ">    136.62239407 </i>
    <i name="ewald">   4342.41756916 </i>
    <i name="hartreedc">  -7405.13886269 </i>
    <i name="XCdc">     22.10062667 </i>
    <i name="pawpsdc">   3473.92716636 </i>
    <i name="pawaedc">  -3519.23104432 </i>
    <i name="eentropy">      0.00093006 </i>
    <i name="bandstr">    -60.73433034 </i>
    <i name="atom">   2971.40422482 </i>
    <i name="e_fr_energy">    -38.63132621 </i>
    <i name="e_wo_entrp">    -38.63225627 </i>
    <i name="e_0_energy">    -38.63163623 </i>
   </energy>
  </scstep>
  <scstep>
   <time name="dav">    0.40    0.40</time>
   <time name="total">    0.45    0.45</time>
   <energy>
    <i name="e_fr_energy">    -39.03785846 </i>
    <i name="e_wo_entrp">    -39.03071965 </i>
    <i name="e_0_energy">    -39.03547886 </i>
   </energy>
  </scstep>
  <scstep>
   <time name="dav">    0.39    0.39</time>
   <time name="total">    0.44    0.45</time>
   <energy>
    <i name="e_fr_energy">    -38.72685371 </i>
    <i name="e_wo_entrp">    -38.72631502 </i>
    <i name="e_0_energy">    -38.72667415 </i>
   </energy>
  </scstep>
  <scstep>
   <time name="dav">    0.39    0.39</time>
   <time name="total">    0.45    0.45</time>
   <energy>
    <i name="e_fr_energy">    -38.73862940 </i>
    <i name="e_wo_entrp">    -38.74072035 </i>
    <i name="e_0_energy">    -38.73932638 </i>
   </energy>
  </scstep>
  <scstep>
   <time name="dav">    0.36    0.36</time>
   <time name="total">    0.42    0.42</time>
   <energy>
    <i name="e_fr_energy">    -38.68769000 </i>
    <i name="e_wo_entrp">    -38.68910449 </i>
    <i name="e_0_energy">    -38.68816149 </i>
   </energy>
  </scstep>
  <scstep>
   <time name="dav">    0.32    0.32</time>
   <time name="total">    0.37    0.37</time>
   <energy>
    <i name="e_fr_energy">    -38.69010406 </i>
    <i name="e_wo_entrp">    -38.69160684 </i>
    <i name="e_0_energy">    -38.69060499 </i>
   </energy>
  </scstep>
  <scstep>
   <time name="dav">    0.34    0.34</time>
   <time name="total">    0.40    0.40</time>
   <energy>
    <i name="e_fr_energy">    -38.69313653 </i>
    <i name="e_wo_entrp">    -38.69455144 </i>
    <i name="e_0_energy">    -38.69360817 </i>
   </energy>
  </scstep>
  <scstep>
   <time name="dav">    0.31    0.31</time>
   <time name="total">    0.37    0.37</time>
   <energy>
    <i name="e_fr_energy">    -38.69590774 </i>
    <i name="e_wo_entrp">    -38.69722884 </i>
    <i name="e_0_energy">    -38.69634811 </i>
   </energy>
  </scstep>
  <scstep>
   <time name="dav">    0.27    0.27</time>
   <time name="total">    0.32    0.32</time>
   <energy>
    <i name="e_fr_energy">    -38.69673951 </i>
    <i name="e_wo_entrp">    -38.69804579 </i>
    <i name="e_0_energy">    -38.69717494 </i>
   </energy>
  </scstep>
  <scstep>
   <time name="dav">    0.24    0.24</time>
   <time name="total">    0.29    0.29</time>
   <energy>
    <i name="e_fr_energy">    -38.69684157 </i>
    <i name="e_wo_entrp">    -38.69814738 </i>
    <i name="e_0_energy">    -38.69727684 </i>
   </energy>
  </scstep>
  <scstep>
   <time name="dav">    0.23    0.23</time>
   <time name="total">    0.26    0.26</time>
   <energy>
    <i name="alphaZ">    136.62239407 </i>
    <i name="ewald">   4342.41756916 </i>
    <i name="hartreedc">  -7405.26062275 </i>
    <i name="XCdc">     22.04079075 </i>
    <i name="pawpsdc">   3463.34768093 </i>
    <i name="pawaedc">  -3508.55846732 </i>
    <i name="eentropy">      0.00129135 </i>
    <i name="bandstr">    -60.71174014 </i>
    <i name="atom">   2971.40422482 </i>
    <i name="e_fr_energy">    -38.69687912 </i>
    <i name="e_wo_entrp">    -38.69817047 </i>
    <i name="e_0_energy">    -38.69730957 </i>
   </energy>
  </scstep>
  <structure>
   <crystal>
    <varray name="basis" >
     <v>       2.84000000       0.00000000       0.00000000 </v>
     <v>       0.00000000       2.84000000       0.00000000 </v>
     <v>       0.00000000       0.00000000      15.68000000 </v>
    </varray>
    <i name="volume">    126.46860800 </i>
    <varray name="rec_basis" >
     <v>       0.35211268       0.00000000       0.00000000 </v>
     <v>       0.00000000       0.35211268       0.00000000 </v>
     <v>       0.00000000       0.00000000       0.06377551 </v>
    </varray>
   </crystal>
   <varray name="positions" >
    <v>      -0.00000000       0.00000000       0.18112245 </v>
    <v>       0.50000000       0.50000000       0.09056122 </v>
    <v>      -0.00000000       0.00000000       0.00000000 </v>
    <v>       0.50000000       0.50000000       0.90943878 </v>
    <v>      -0.00000000       0.00000000       0.81887755 </v>
   </varray>
  </structure>
  <varray name="forces" >
   <v>      -0.00000000       0.00000000      -0.22295114 </v>
   <v>      -0.00000000      -0.00000000       0.47135342 </v>
   <v>      -0.00000000       0.00000000       0.00000000 </v>
   <v>       0.00000000       0.00000000      -0.47135342 </v>
   <v>      -0.00000000      -0.00000000       0.22295114 </v>
  </varray>
  <varray name="stress" >
   <v>     -41.31437582       0.00000000       0.00000000 </v>
   <v>       0.00000000     -41.31437582       0.00000000 </v>
   <v>      -0.00000000       0.00000000     -16.66190417 </v>
  </varray>
  <energy>
   <i name="e_fr_energy">    -38.69687912 </i>
   <i name="e_wo_entrp">    -38.69730957 </i>
   <i name="e_0_energy">      0.00129135 </i>
  </energy>
