BCC Fe                                  
           1
     2.840000    0.000000    0.000000
     0.000000    2.840000    0.000000
     0.000000    0.000000   15.680000
   Fe
   5
Direct configuration=     1
   0.00000000  0.00000000  0.18112245
   0.50000000  0.50000000  0.09056122
   0.00000000  0.00000000  0.00000000
   0.50000000  0.50000000  0.90943878
   0.00000000  0.00000000  0.81887755
Direct configuration=     2
   0.00000000  0.00000000  0.18042095
   0.50000000  0.50000000  0.09201253
   0.00000000  0.00000000  0.00000000
   0.50000000  0.50000000  0.90798747
   0.00000000  0.00000000  0.81957905
Direct configuration=     3
   0.00000000  0.00000000  0.18001923
   0.50000000  0.50000000  0.09284363
   0.00000000  0.00000000  0.00000000
   0.50000000  0.50000000  0.90715637
   0.00000000  0.00000000  0.81998077
Direct configuration=     4
   0.00000000  0.00000000  0.18002417
   0.50000000  0.50000000  0.09283341
   0.00000000  0.00000000  0.00000000
   0.50000000  0.50000000  0.90716659
   0.00000000  0.00000000  0.81997583
Direct configuration=     5
   0.00000000  0.00000000  0.18002248
   0.50000000  0.50000000  0.09283691
   0.00000000  0.00000000  0.00000000
   0.50000000  0.50000000  0.90716309
   0.00000000  0.00000000  0.81997752
Direct configuration=     6
   0.00000000  0.00000000  0.18002408
   0.50000000  0.50000000  0.09283361
   0.00000000  0.00000000  0.00000000
   0.50000000  0.50000000  0.90716639
   0.00000000  0.00000000  0.81997592
Direct configuration=     7
   0.00000000  0.00000000  0.18002328
   0.50000000  0.50000000  0.09283526
   0.00000000  0.00000000  0.00000000
   0.50000000  0.50000000  0.90716474
   0.00000000  0.00000000  0.81997672
Direct configuration=     8
   0.00000000  0.00000000  0.18002367
   0.50000000  0.50000000  0.09283445
   0.00000000  0.00000000  0.00000000
   0.50000000  0.50000000  0.90716555
   0.00000000  0.00000000  0.81997633
Direct configuration=     9
   0.00000000  0.00000000  0.18002373
   0.50000000  0.50000000  0.09283433
   0.00000000  0.00000000  0.00000000
   0.50000000  0.50000000  0.90716567
   0.00000000  0.00000000  0.81997627
Direct configuration=    10
   0.00000000  0.00000000  0.18002390
   0.50000000  0.50000000  0.09283397
   0.00000000  0.00000000  0.00000000
   0.50000000  0.50000000  0.90716603
   0.00000000  0.00000000  0.81997610
Direct configuration=    11
   0.00000000  0.00000000  0.18002399
   0.50000000  0.50000000  0.09283379
   0.00000000  0.00000000  0.00000000
   0.50000000  0.50000000  0.90716621
   0.00000000  0.00000000  0.81997601
Direct configuration=    12
   0.00000000  0.00000000  0.18002403
   0.50000000  0.50000000  0.09283370
   0.00000000  0.00000000  0.00000000
   0.50000000  0.50000000  0.90716630
   0.00000000  0.00000000  0.81997597
Direct configuration=    13
   0.00000000  0.00000000  0.18002406
   0.50000000  0.50000000  0.09283365
   0.00000000  0.00000000  0.00000000
   0.50000000  0.50000000  0.90716635
   0.00000000  0.00000000  0.81997594
Direct configuration=    14
   0.00000000  0.00000000  0.18002407
   0.50000000  0.50000000  0.09283363
   0.00000000  0.00000000  0.00000000
   0.50000000  0.50000000  0.90716637
   0.00000000  0.00000000  0.81997593
Direct configuration=    15
   0.00000000  0.00000000  0.18002407
   0.50000000  0.50000000  0.09283362
   0.00000000  0.00000000  0.00000000
   0.50000000  0.50000000  0.90716638
   0.00000000  0.00000000  0.81997593
Direct configuration=    16
   0.00000000  0.00000000  0.18002407
   0.50000000  0.50000000  0.09283361
   0.00000000  0.00000000  0.00000000
   0.50000000  0.50000000  0.90716639
   0.00000000  0.00000000  0.81997593
Direct configuration=    17
   0.00000000  0.00000000  0.18002408
   0.50000000  0.50000000  0.09283361
   0.00000000  0.00000000  0.00000000
   0.50000000  0.50000000  0.90716639
   0.00000000  0.00000000  0.81997592
Direct configuration=    18
   0.00000000  0.00000000  0.18002408
   0.50000000  0.50000000  0.09283361
   0.00000000  0.00000000  0.00000000
   0.50000000  0.50000000  0.90716639
   0.00000000  0.00000000  0.81997592
Direct configuration=    19
   0.00000000  0.00000000  0.18002408
   0.50000000  0.50000000  0.09283361
   0.00000000  0.00000000  0.00000000
   0.50000000  0.50000000  0.90716639
   0.00000000  0.00000000  0.81997592
