fcc Ni                                  
   3.25000000000000     
     0.000000    0.500000    0.500000
     0.500000    0.000000    0.500000
     0.500000    0.500000    0.000000
   Ni
     1
Direct
  0.000000  0.000000  0.000000
 
   20   20   20
  118.16      111.72      94.294      70.740      46.788      27.029      13.780      6.9483      4.5983      4.0050    
  3.8079      4.0050      4.5983      6.9483      13.780      27.029      46.788      70.740      94.294      111.72    
  111.72      99.802      79.420      55.944      34.554      18.654      9.2628      5.2626      4.1966      3.8231    
  3.8231      4.1967      5.2629      9.2640      18.656      34.555      55.941      79.414      99.795      111.72    
  94.294      79.420      59.344      39.023      22.431      11.535      6.1342      4.3836      3.8631      3.6792    
  3.8631      4.3835      6.1347      11.536      22.433      39.023      59.341      79.413      94.288      99.795    
  70.740      55.944      39.023      23.854      12.945      6.8947      4.5844      3.9130      3.5859      3.5859    
  3.9129      4.5840      6.8945      12.945      23.856      39.023      55.943      70.738      79.413      79.414    
  46.788      34.554      22.431      12.945      7.1972      4.7270      3.9538      3.5378      3.3943      3.5380    
  3.9539      4.7265      7.1961      12.944      22.431      34.555      46.790      55.943      59.341      55.941    
  27.029      18.654      11.535      6.8947      4.7270      3.9695      3.5198      3.2883      3.2885      3.5205    
  3.9703      4.7272      6.8937      11.533      18.652      27.028      34.555      39.023      39.023      34.555    
  13.780      9.2628      6.1342      4.5844      3.9538      3.5198      3.2551      3.1687      3.2553      3.5206    
  3.9555      4.5862      6.1347      9.2611      13.776      18.652      22.431      23.856      22.433      18.656    
  6.9483      5.2626      4.3836      3.9130      3.5378      3.2883      3.1687      3.1683      3.2875      3.5378    
  3.9146      4.3865      5.2650      6.9482      9.2611      11.533      12.944      12.945      11.536      9.2640    
  4.5983      4.1966      3.8631      3.5859      3.3943      3.2885      3.2553      3.2875      3.3925      3.5843    
  3.8631      4.1988      4.6015      5.2650      6.1347      6.8937      7.1961      6.8945      6.1347      5.2629    
  4.0050      3.8231      3.6792      3.5859      3.5380      3.5205      3.5206      3.5378      3.5843      3.6765    
  3.8209      4.0050      4.1988      4.3865      4.5862      4.7272      4.7265      4.5840      4.3835      4.1967    
  3.8079      3.8231      3.8631      3.9129      3.9539      3.9703      3.9555      3.9146      3.8631      3.8209    
  3.8047      3.8209      3.8631      3.9146      3.9555      3.9703      3.9539      3.9129      3.8631      3.8231    
  4.0050      4.1967      4.3835      4.5840      4.7265      4.7272      4.5862      4.3865      4.1988      4.0050    
  3.8209      3.6765      3.5843      3.5378      3.5206      3.5205      3.5380      3.5859      3.6792      3.8231    
  4.5983      5.2629      6.1347      6.8945      7.1961      6.8937      6.1347      5.2650      4.6015      4.1988    
  3.8631      3.5843      3.3925      3.2875      3.2553      3.2885      3.3943      3.5859      3.8631      4.1966    
  6.9483      9.2640      11.536      12.945      12.944      11.533      9.2611      6.9482      5.2650      4.3865    
  3.9146      3.5378      3.2875      3.1683      3.1687      3.2883      3.5378      3.9130      4.3836      5.2626    
  13.780      18.656      22.433      23.856      22.431      18.652      13.776      9.2611      6.1347      4.5862    
  3.9555      3.5206      3.2553      3.1687      3.2551      3.5198      3.9538      4.5844      6.1342      9.2628    
  27.029      34.555      39.023      39.023      34.555      27.028      18.652      11.533      6.8937      4.7272    
  3.9703      3.5205      3.2885      3.2883      3.5198      3.9695      4.7270      6.8947      11.535      18.654    
  46.788      55.941      59.341      55.943      46.790      34.555      22.431      12.944      7.1961      4.7265    
  3.9539      3.5380      3.3943      3.5378      3.9538      4.7270      7.1972      12.945      22.431      34.554    
  70.740      79.414      79.413      70.738      55.943      39.023      23.856      12.945      6.8945      4.5840    
  3.9129      3.5859      3.5859      3.9130      4.5844      6.8947      12.945      23.854      39.023      55.944    
  94.294      99.795      94.288      79.413      59.341      39.023      22.433      11.536      6.1347      4.3835    
  3.8631      3.6792      3.8631      4.3836      6.1342      11.535      22.431      39.023      59.344      79.420    
  111.72      111.72      99.795      79.414      55.941      34.555      18.656      9.2640      5.2629      4.1967    
  3.8231      3.8231      4.1966      5.2626      9.2628      18.654      34.554      55.944      79.420      99.802    
  111.72      99.802      79.420      55.944      34.554      18.654      9.2628      5.2626      4.1966      3.8231    
  3.8231      4.1967      5.2629      9.2640      18.656      34.555      55.941      79.414      99.795      111.72    
  99.802      84.028      62.777      41.298      23.755      12.181      6.3737      4.4553      3.9182      3.7308    
  3.9181      4.4553      6.3745      12.183      23.758      41.298      62.771      84.018      99.794      105.64    
  79.420      62.777      43.798      26.790      14.481      7.5257      4.7728      4.0170      3.6771      3.6770    
  4.0167      4.7725      7.5264      14.483      26.793      43.797      62.772      79.414      89.199      89.202    
  55.944      41.298      26.790      15.353      8.2607      5.0655      4.0978      3.6571      3.5022      3.6571    
  4.0974      5.0646      8.2602      15.354      26.792      41.300      55.944      66.933      71.023      66.933    
  34.554      23.755      14.481      8.2607      5.1860      4.1436      3.6558      3.3974      3.3976      3.6561    
  4.1434      5.1850      8.2592      14.480      23.756      34.557      44.249      50.010      50.008      44.246    
  18.654      12.181      7.5257      5.0655      4.1436      3.6575      3.3507      3.2492      3.3511      3.6584    
  4.1444      5.0655      7.5244      12.179      18.653      25.530      30.831      32.826      30.830      25.530    
  9.2628      6.3737      4.7728      4.0978      3.6558      3.3507      3.2020      3.2019      3.3508      3.6567    
  4.0997      4.7746      6.3741      9.2612      13.029      16.632      18.843      18.844      16.635      13.032    
  5.2626      4.4553      4.0170      3.6571      3.3974      3.2492      3.2019      3.2483      3.3963      3.6571    
  4.0186      4.4582      5.2649      6.6606      8.3779      9.8144      10.376      9.8164      8.3799      6.6606    
  4.1966      3.9182      3.6771      3.5022      3.3976      3.3511      3.3508      3.3963      3.5001      3.6753    
  3.9181      4.1988      4.5158      4.9832      5.5197      5.8858      5.8857      5.5190      4.9810      4.5128    
  3.8231      3.7308      3.6770      3.6571      3.6561      3.6584      3.6567      3.6571      3.6753      3.7279    
  3.8209      3.9448      4.0773      4.1943      4.2878      4.3262      4.2860      4.1916      4.0753      3.9448    
  3.8231      3.9181      4.0167      4.0974      4.1434      4.1444      4.0997      4.0186      3.9181      3.8209    
  3.7481      3.7111      3.7069      3.7203      3.7327      3.7320      3.7191      3.7069      3.7131      3.7512    
  4.1967      4.4553      4.7725      5.0646      5.1850      5.0655      4.7746      4.4582      4.1988      3.9448    
  3.7111      3.5321      3.4187      3.3614      3.3446      3.3618      3.4202      3.5345      3.7131      3.9448    
  5.2629      6.3745      7.5264      8.2602      8.2592      7.5244      6.3741      5.2649      4.5158      4.0773    
  3.7069      3.4187      3.2356      3.1506      3.1511      3.2369      3.4201      3.7069      4.0753      4.5128    
  9.2640      12.183      14.483      15.354      14.480      12.179      9.2612      6.6606      4.9832      4.1943    
  3.7203      3.3614      3.1506      3.0831      3.1510      3.3614      3.7191      4.1919      4.9810      6.6606    
  18.656      23.758      26.793      26.792      23.756      18.653      13.029      8.3779      5.5197      4.2878    
  3.7327      3.3446      3.1511      3.1510      3.3440      3.7314      4.2864      5.5194      8.3794      13.032    
  34.555      41.298      43.797      41.300      34.557      25.530      16.632      9.8144      5.8858      4.3262    
  3.7320      3.3618      3.2369      3.3614      3.7314      4.3261      5.8868      9.8163      16.634      25.530    
  55.941      62.771      62.772      55.944      44.249      30.831      18.843      10.376      5.8857      4.2860    
  3.7191      3.4202      3.4201      3.7191      4.2864      5.8868      10.377      18.844      30.830      44.246    
  79.414      84.018      79.414      66.933      50.010      32.826      18.844      9.8164      5.5190      4.1916    
  3.7069      3.5345      3.7069      4.1919      5.5194      9.8163      18.844      32.825      50.009      66.933    
  99.795      99.794      89.199      71.023      50.008      30.830      16.635      8.3799      4.9810      4.0753    
  3.7131      3.7131      4.0753      4.9810      8.3794      16.634      30.830      50.009      71.025      89.202    
  111.72      105.64      89.202      66.933      44.246      25.530      13.032      6.6606      4.5128      3.9448    
  3.7512      3.9448      4.5128      6.6606      13.032      25.530      44.246      66.933      89.202      105.64    
  94.294      79.420      59.344      39.023      22.431      11.535      6.1342      4.3836      3.8631      3.6792    
  3.8631      4.3835      6.1347      11.536      22.433      39.023      59.341      79.413      94.288      99.795    
  79.420      62.777      43.798      26.790      14.481      7.5257      4.7728      4.0170      3.6771      3.6770    
  4.0167      4.7725      7.5264      14.483      26.793      43.797      62.772      79.414      89.199      89.202    
  59.344      43.798      28.407      16.255      8.6682      5.1993      4.1474      3.6993      3.5406      3.6991    
  4.1467      5.1984      8.6681      16.256      28.410      43.799      59.344      71.024      75.375      71.025    
  39.023      26.790      16.255      9.1090      5.4851      4.2378      3.7298      3.4580      3.4580      3.7297    
  4.2369      5.4834      9.1075      16.255      26.793      39.028      50.013      56.553      56.551      50.009    
  22.431      14.481      8.6682      5.4851      4.2727      3.7509      3.4183      3.3070      3.4186      3.7512    
  4.2722      5.4834      8.6659      14.480      22.433      30.834      37.303      39.738      37.299      30.830    
  11.535      7.5257      5.1993      4.2378      3.7509      3.4072      3.2372      3.2373      3.4077      3.7518    
  4.2386      5.1989      7.5240      11.533      16.633      21.455      24.402      24.401      21.454      16.634    
  6.1342      4.7728      4.1474      3.7298      3.4183      3.2372      3.1791      3.2368      3.4183      3.7308    
  4.1492      4.7742      6.1343      8.3779      11.031      13.205      14.046      13.206      11.033      8.3794    
  4.3836      4.0170      3.6993      3.4580      3.3070      3.2373      3.2368      3.3058      3.4568      3.6992    
  4.0185      4.3861      4.9829      5.9176      6.9391      7.6133      7.6139      6.9400      5.9174      4.9810    
  3.8631      3.6771      3.5406      3.4580      3.4186      3.4077      3.4183      3.4568      3.5385      3.6753    
  3.8630      4.0772      4.2916      4.5437      4.7841      4.8852      4.7832      4.5417      4.2891      4.0753    
  3.6792      3.6770      3.6991      3.7297      3.7512      3.7518      3.7308      3.6992      3.6753      3.6765    
  3.7111      3.7744      3.8503      3.9171      3.9556      3.9547      3.9151      3.8486      3.7745      3.7131    
  3.8631      4.0167      4.1467      4.2369      4.2722      4.2386      4.1492      4.0185      3.8630      3.7111    
  3.5894      3.5119      3.4752      3.4640      3.4621      3.4634      3.4753      3.5135      3.5921      3.7131    
  4.3835      4.7725      5.1984      5.4834      5.4834      5.1989      4.7742      4.3861      4.0772      3.7744    
  3.5119      3.3216      3.2074      3.1566      3.1568      3.2084      3.3233      3.5135      3.7745      4.0753    
  6.1347      7.5264      8.6681      9.1075      8.6659      7.5240      6.1343      4.9829      4.2916      3.8503    
  3.4752      3.2074      3.0558      3.0082      3.0566      3.2083      3.4753      3.8487      4.2891      4.9810    
  11.536      14.483      16.256      16.255      14.480      11.533      8.3779      5.9176      4.5437      3.9171    
  3.4640      3.1566      3.0082      3.0083      3.1565      3.4631      3.9153      4.5420      5.9174      8.3799    
  22.433      26.793      28.410      26.793      22.433      16.633      11.031      6.9391      4.7841      3.9556    
  3.4621      3.1568      3.0566      3.1565      3.4613      3.9546      4.7840      6.9405      11.033      16.635    
  39.023      43.797      43.799      39.028      30.834      21.455      13.205      7.6133      4.8852      3.9547    
  3.4634      3.2084      3.2083      3.4631      3.9546      4.8861      7.6152      13.206      21.454      30.830    
  59.341      62.772      59.344      50.013      37.303      24.402      14.046      7.6139      4.7832      3.9151    
  3.4753      3.3233      3.4753      3.9153      4.7840      7.6152      14.047      24.401      37.299      50.008    
  79.413      79.414      71.024      56.553      39.738      24.401      13.206      6.9400      4.5417      3.8486    
  3.5135      3.5135      3.8487      4.5420      6.9405      13.206      24.401      39.736      56.551      71.023    
  94.288      89.199      75.375      56.551      37.299      21.454      11.033      5.9174      4.2891      3.7745    
  3.5921      3.7745      4.2891      5.9174      11.033      21.454      37.299      56.551      75.375      89.199    
  99.795      89.202      71.025      50.009      30.830      16.634      8.3794      4.9810      4.0753      3.7131    
  3.7131      4.0753      4.9810      8.3799      16.635      30.830      50.008      71.023      89.199      99.794    
  70.740      55.944      39.023      23.854      12.945      6.8947      4.5844      3.9130      3.5859      3.5859    
  3.9129      4.5840      6.8945      12.945      23.856      39.023      55.943      70.738      79.413      79.414    
  55.944      41.298      26.790      15.353      8.2607      5.0655      4.0978      3.6571      3.5022      3.6571    
  4.0974      5.0646      8.2602      15.354      26.792      41.300      55.944      66.933      71.023      66.933    
  39.023      26.790      16.255      9.1090      5.4851      4.2378      3.7298      3.4580      3.4580      3.7297    
  4.2369      5.4834      9.1075      16.255      26.793      39.028      50.013      56.553      56.551      50.009    
  23.854      15.353      9.1090      5.6524      4.3213      3.7838      3.4427      3.3280      3.4430      3.7838    
  4.3202      5.6499      9.1064      15.353      23.858      32.832      39.741      42.342      39.736      32.825    
  12.945      8.2607      5.4851      4.3213      3.8037      3.4406      3.2595      3.2597      3.4412      3.8043    
  4.3208      5.4828      8.2578      12.944      18.846      24.405      27.797      27.795      24.401      18.844    
  6.8947      5.0655      4.2378      3.7838      3.4406      3.2388      3.1740      3.2389      3.4413      3.7850    
  4.2385      5.0647      6.8927      9.8144      13.205      15.959      17.020      15.959      13.206      9.8163    
  4.5844      4.0978      3.7298      3.4427      3.2595      3.1740      3.1736      3.2590      3.4428      3.7310    
  4.0995      4.5855      5.5189      6.9388      8.4417      9.4170      9.4178      8.4436      6.9405      5.5194    
  3.9130      3.6571      3.4580      3.3280      3.2597      3.2389      3.2590      3.3268      3.4569      3.6571    
  3.9144      4.1938      4.5433      5.0200      5.4659      5.6503      5.4664      5.0200      4.5420      4.1919    
  3.5859      3.5022      3.4580      3.4430      3.4412      3.4413      3.4428      3.4569      3.5002      3.5843    
  3.7068      3.8501      3.9877      4.0991      4.1706      4.1701      4.0976      3.9858      3.8487      3.7069    
  3.5859      3.6571      3.7297      3.7838      3.8043      3.7850      3.7310      3.6571      3.5843      3.5322    
  3.5119      3.5222      3.5502      3.5773      3.5878      3.5761      3.5490      3.5223      3.5135      3.5345    
  3.9129      4.0974      4.2369      4.3202      4.3208      4.2385      4.0995      3.9144      3.7068      3.5119    
  3.3586      3.2585      3.2053      3.1842      3.1841      3.2055      3.2597      3.3606      3.5135      3.7069    
  4.5840      5.0646      5.4834      5.6499      5.4828      5.0647      4.5855      4.1938      3.8501      3.5222    
  3.2585      3.0804      2.9833      2.9534      2.9839      3.0816      3.2596      3.5223      3.8486      4.1916    
  6.8945      8.2602      9.1075      9.1064      8.2578      6.8927      5.5189      4.5433      3.9877      3.5502    
  3.2053      2.9833      2.8790      2.8793      2.9838      3.2053      3.5491      3.9858      4.5417      5.5190    
  12.945      15.354      16.255      15.353      12.944      9.8144      6.9388      5.0200      4.0991      3.5773    
  3.1842      2.9534      2.8793      2.9534      3.1837      3.5761      4.0980      5.0200      6.9400      9.8164    
  23.856      26.792      26.793      23.858      18.846      13.205      8.4417      5.4659      4.1706      3.5878    
  3.1841      2.9839      2.9838      3.1837      3.5872      4.1706      5.4672      8.4436      13.206      18.844    
  39.023      41.300      39.028      32.832      24.405      15.959      9.4170      5.6503      4.1701      3.5761    
  3.2055      3.0816      3.2053      3.5761      4.1706      5.6518      9.4187      15.959      24.401      32.826    
  55.943      55.944      50.013      39.741      27.797      17.020      9.4178      5.4664      4.0976      3.5490    
  3.2597      3.2596      3.5491      4.0980      5.4672      9.4187      17.020      27.795      39.738      50.010    
  70.738      66.933      56.553      42.342      27.795      15.959      8.4436      5.0200      3.9858      3.5223    
  3.3606      3.5223      3.9858      5.0200      8.4436      15.959      27.795      42.342      56.553      66.933    
  79.413      71.023      56.551      39.736      24.401      13.206      6.9405      4.5420      3.8487      3.5135    
  3.5135      3.8486      4.5417      6.9400      13.206      24.401      39.738      56.553      71.024      79.414    
  79.414      66.933      50.009      32.825      18.844      9.8163      5.5194      4.1919      3.7069      3.5345    
  3.7069      4.1916      5.5190      9.8164      18.844      32.826      50.010      66.933      79.414      84.018    
  46.788      34.554      22.431      12.945      7.1972      4.7270      3.9538      3.5378      3.3943      3.5380    
  3.9539      4.7265      7.1961      12.944      22.431      34.555      46.790      55.943      59.341      55.941    
  34.554      23.755      14.481      8.2607      5.1860      4.1436      3.6558      3.3974      3.3976      3.6561    
  4.1434      5.1850      8.2592      14.480      23.756      34.557      44.249      50.010      50.008      44.246    
  22.431      14.481      8.6682      5.4851      4.2727      3.7509      3.4183      3.3070      3.4186      3.7512    
  4.2722      5.4834      8.6659      14.480      22.433      30.834      37.303      39.738      37.299      30.830    
  12.945      8.2607      5.4851      4.3213      3.8037      3.4406      3.2595      3.2597      3.4412      3.8043    
  4.3208      5.4828      8.2578      12.944      18.846      24.405      27.797      27.795      24.401      18.844    
  7.1972      5.1860      4.2727      3.8037      3.4499      3.2410      3.1739      3.2413      3.4509      3.8049    
  4.2727      5.1840      7.1942      10.375      14.047      17.021      18.167      17.020      14.047      10.377    
  4.7270      4.1436      3.7509      3.4406      3.2410      3.1475      3.1474      3.2411      3.4416      3.7525    
  4.1446      4.7264      5.8846      7.6125      9.4167      10.579      10.580      9.4187      7.6152      5.8868    
  3.9538      3.6558      3.4183      3.2595      3.1739      3.1474      3.1734      3.2590      3.4186      3.6572    
  3.9555      4.2872      4.7832      5.4653      6.0897      6.3450      6.0913      5.4672      4.7840      4.2864    
  3.5378      3.3974      3.3070      3.2597      3.2413      3.2411      3.2590      3.3059      3.3966      3.5380    
  3.7203      3.9168      4.0987      4.2736      4.3961      4.3963      4.2736      4.0980      3.9153      3.7191    
  3.3943      3.3976      3.4186      3.4412      3.4509      3.4416      3.4186      3.3966      3.3927      3.4189    
  3.4753      3.5501      3.6243      3.6781      3.6974      3.6773      3.6230      3.5491      3.4753      3.4201    
  3.5380      3.6561      3.7512      3.8043      3.8049      3.7525      3.6572      3.5380      3.4189      3.3216    
  3.2585      3.2290      3.2220      3.2231      3.2228      3.2214      3.2290      3.2596      3.3233      3.4202    
  3.9539      4.1434      4.2722      4.3208      4.2727      4.1446      3.9555      3.7203      3.4753      3.2585    
  3.0952      2.9910      2.9367      2.9203      2.9369      2.9917      3.0966      3.2597      3.4753      3.7191    
  4.7265      5.1850      5.4834      5.4828      5.1840      4.7264      4.2872      3.9168      3.5501      3.2290    
  2.9910      2.8435      2.7754      2.7757      2.8441      2.9917      3.2290      3.5490      3.9151      4.2860    
  7.1961      8.2592      8.6659      8.2578      7.1942      5.8846      4.7832      4.0987      3.6243      3.2220    
  2.9367      2.7754      2.7245      2.7757      2.9368      3.2214      3.6230      4.0976      4.7832      5.8857    
  12.944      14.480      14.480      12.944      10.375      7.6125      5.4653      4.2736      3.6781      3.2231    
  2.9203      2.7757      2.7757      2.9202      3.2225      3.6774      4.2736      5.4664      7.6139      10.376    
  22.431      23.756      22.433      18.846      14.047      9.4167      6.0897      4.3961      3.6974      3.2228    
  2.9369      2.8441      2.9368      3.2225      3.6973      4.3969      6.0913      9.4178      14.046      18.843    
  34.555      34.557      30.834      24.405      17.021      10.579      6.3450      4.3963      3.6773      3.2214    
  2.9917      2.9917      3.2214      3.6774      4.3969      6.3461      10.580      17.020      24.402      30.831    
  46.790      44.249      37.303      27.797      18.167      10.580      6.0913      4.2736      3.6230      3.2290    
  3.0966      3.2290      3.6230      4.2736      6.0913      10.580      18.167      27.797      37.303      44.249    
  55.943      50.010      39.738      27.795      17.020      9.4187      5.4672      4.0980      3.5491      3.2596    
  3.2597      3.5490      4.0976      5.4664      9.4178      17.020      27.797      39.741      50.013      55.944    
  59.341      50.008      37.299      24.401      14.047      7.6152      4.7840      3.9153      3.4753      3.3233    
  3.4753      3.9151      4.7832      7.6139      14.046      24.402      37.303      50.013      59.344      62.772    
  55.941      44.246      30.830      18.844      10.377      5.8868      4.2864      3.7191      3.4201      3.4202    
  3.7191      4.2860      5.8857      10.376      18.843      30.831      44.249      55.944      62.772      62.771    
  27.029      18.654      11.535      6.8947      4.7270      3.9695      3.5198      3.2883      3.2885      3.5205    
  3.9703      4.7272      6.8937      11.533      18.652      27.028      34.555      39.023      39.023      34.555    
  18.654      12.181      7.5257      5.0655      4.1436      3.6575      3.3507      3.2492      3.3511      3.6584    
  4.1444      5.0655      7.5244      12.179      18.653      25.530      30.831      32.826      30.830      25.530    
  11.535      7.5257      5.1993      4.2378      3.7509      3.4072      3.2372      3.2373      3.4077      3.7518    
  4.2386      5.1989      7.5240      11.533      16.633      21.455      24.402      24.401      21.454      16.634    
  6.8947      5.0655      4.2378      3.7838      3.4406      3.2388      3.1740      3.2389      3.4413      3.7850    
  4.2385      5.0647      6.8927      9.8144      13.205      15.959      17.020      15.959      13.206      9.8163    
  4.7270      4.1436      3.7509      3.4406      3.2410      3.1475      3.1474      3.2411      3.4416      3.7525    
  4.1446      4.7264      5.8846      7.6125      9.4167      10.579      10.580      9.4187      7.6152      5.8868    
  3.9695      3.6575      3.4072      3.2388      3.1475      3.1191      3.1471      3.2387      3.4081      3.6594    
  3.9711      4.3262      4.8844      5.6491      6.3441      6.6273      6.3461      5.6518      4.8861      4.3261    
  3.5198      3.3507      3.2372      3.1740      3.1474      3.1471      3.1733      3.2367      3.3511      3.5212    
  3.7332      3.9556      4.1700      4.3956      4.5554      4.5561      4.3969      4.1706      3.9546      3.7314    
  3.2883      3.2492      3.2373      3.2389      3.2411      3.2387      3.2367      3.2483      3.2877      3.3617    
  3.4643      3.5773      3.6779      3.7465      3.7708      3.7465      3.6774      3.5761      3.4631      3.3614    
  3.2885      3.3511      3.4077      3.4413      3.4416      3.4081      3.3511      3.2877      3.2358      3.2076    
  3.2054      3.2220      3.2444      3.2594      3.2591      3.2437      3.2214      3.2053      3.2083      3.2369    
  3.5205      3.6584      3.7518      3.7850      3.7525      3.6594      3.5212      3.3617      3.2076      3.0804    
  2.9910      2.9379      2.9122      2.9047      2.9119      2.9379      2.9917      3.0816      3.2084      3.3618    
  3.9703      4.1444      4.2386      4.2385      4.1446      3.9711      3.7332      3.4643      3.2054      2.9910    
  2.8376      2.7442      2.7014      2.7015      2.7446      2.8384      2.9917      3.2055      3.4634      3.7320    
  4.7272      5.0655      5.1989      5.0647      4.7264      4.3262      3.9556      3.5773      3.2220      2.9379    
  2.7442      2.6366      2.6029      2.6370      2.7446      2.9379      3.2214      3.5761      3.9547      4.3262    
  6.8937      7.5244      7.5240      6.8927      5.8846      4.8844      4.1700      3.6779      3.2444      2.9122    
  2.7014      2.6029      2.6030      2.7014      2.9118      3.2437      3.6773      4.1701      4.8852      5.8858    
  11.533      12.179      11.533      9.8144      7.6125      5.6491      4.3956      3.7465      3.2594      2.9047    
  2.7015      2.6370      2.7014      2.9044      3.2590      3.7465      4.3963      5.6503      7.6133      9.8144    
  18.652      18.653      16.633      13.205      9.4167      6.3441      4.5554      3.7708      3.2591      2.9119    
  2.7446      2.7446      2.9118      3.2590      3.7710      4.5561      6.3450      9.4170      13.205      16.632    
  27.028      25.530      21.455      15.959      10.579      6.6273      4.5561      3.7465      3.2437      2.9379    
  2.8384      2.9379      3.2437      3.7465      4.5561      6.6273      10.579      15.959      21.455      25.530    
  34.555      30.831      24.402      17.020      10.580      6.3461      4.3969      3.6774      3.2214      2.9917    
  2.9917      3.2214      3.6773      4.3963      6.3450      10.579      17.021      24.405      30.834      34.557    
  39.023      32.826      24.401      15.959      9.4187      5.6518      4.1706      3.5761      3.2053      3.0816    
  3.2055      3.5761      4.1701      5.6503      9.4170      15.959      24.405      32.832      39.028      41.300    
  39.023      30.830      21.454      13.206      7.6152      4.8861      3.9546      3.4631      3.2083      3.2084    
  3.4634      3.9547      4.8852      7.6133      13.205      21.455      30.834      39.028      43.799      43.797    
  34.555      25.530      16.634      9.8163      5.8868      4.3261      3.7314      3.3614      3.2369      3.3618    
  3.7320      4.3262      5.8858      9.8144      16.632      25.530      34.557      41.300      43.797      41.298    
  13.780      9.2628      6.1342      4.5844      3.9538      3.5198      3.2551      3.1687      3.2553      3.5206    
  3.9555      4.5862      6.1347      9.2611      13.776      18.652      22.431      23.856      22.433      18.656    
  9.2628      6.3737      4.7728      4.0978      3.6558      3.3507      3.2020      3.2019      3.3508      3.6567    
  4.0997      4.7746      6.3741      9.2612      13.029      16.632      18.843      18.844      16.635      13.032    
  6.1342      4.7728      4.1474      3.7298      3.4183      3.2372      3.1791      3.2368      3.4183      3.7308    