fcc Ni                                  
   3.25000000000000     
     0.000000    0.500000    0.500000
     0.500000    0.000000    0.500000
     0.500000    0.500000    0.000000
   Ni
     1
Direct
  0.000000  0.000000  0.000000
 
   20   20   20
 0.11816306240E+03 0.11171839543E+03 0.94294222577E+02 0.70740240405E+02 0.46788363016E+02
 0.27029064471E+02 0.13779768706E+02 0.69482647999E+01 0.45983336157E+01 0.40049802549E+01
 0.38079276771E+01 0.40049802549E+01 0.45983336157E+01 0.69482647999E+01 0.13779768706E+02
 0.27029064471E+02 0.46788363016E+02 0.70740240405E+02 0.94294222577E+02 0.11171839543E+03
 0.11171839543E+03 0.99802298072E+02 0.79420215794E+02 0.55943719704E+02 0.34554189549E+02
 0.18653825116E+02 0.92628268927E+01 0.52626005546E+01 0.41966264870E+01 0.38231160485E+01
 0.38231211114E+01 0.41966572579E+01 0.52629312095E+01 0.92640009510E+01 0.18655720835E+02
 0.34555113006E+02 0.55941320916E+02 0.79414074799E+02 0.99795430276E+02 0.11171537299E+03
 0.94294222577E+02 0.79420215794E+02 0.59344485062E+02 0.39022511253E+02 0.22430718188E+02
 0.11534608695E+02 0.61342375786E+01 0.43836379428E+01 0.38631144156E+01 0.36792280465E+01
 0.38630664905E+01 0.43835476580E+01 0.61346779798E+01 0.11536325289E+02 0.22433062079E+02
 0.39022892288E+02 0.59340571869E+02 0.79413061639E+02 0.94288453765E+02 0.99795430276E+02
 0.70740240405E+02 0.55943719704E+02 0.39022511253E+02 0.23854349980E+02 0.12944745415E+02
 0.68947378422E+01 0.45844390113E+01 0.39130320616E+01 0.35858990678E+01 0.35859197309E+01
 0.39128898249E+01 0.45839970425E+01 0.68945200136E+01 0.12945449689E+02 0.23855703328E+02
 0.39023151240E+02 0.55942655282E+02 0.70738233150E+02 0.79413061639E+02 0.79414074799E+02
 0.46788363016E+02 0.34554189549E+02 0.22430718188E+02 0.12944745415E+02 0.71971628512E+01
 0.47270256339E+01 0.39538108902E+01 0.35377860535E+01 0.33943393336E+01 0.35380292396E+01
 0.39538652160E+01 0.47264636383E+01 0.71960543666E+01 0.12943752359E+02 0.22430649789E+02
 0.34555336116E+02 0.46790157388E+02 0.55942655282E+02 0.59340571869E+02 0.55941320916E+02
 0.27029064471E+02 0.18653825116E+02 0.11534608695E+02 0.68947378422E+01 0.47270256339E+01
 0.39694819897E+01 0.35197764914E+01 0.32882653714E+01 0.32885041933E+01 0.35204566569E+01
 0.39702958093E+01 0.47272468609E+01 0.68937265565E+01 0.11532598064E+02 0.18651939728E+02
 0.27028293834E+02 0.34555336116E+02 0.39023151240E+02 0.39022892288E+02 0.34555113006E+02
 0.13779768706E+02 0.92628268927E+01 0.61342375786E+01 0.45844390113E+01 0.39538108902E+01
 0.35197764914E+01 0.32551300851E+01 0.31686906529E+01 0.32552685271E+01 0.35205818971E+01
 0.39554881446E+01 0.45862073758E+01 0.61347112271E+01 0.92611256719E+01 0.13776291371E+02
 0.18651939728E+02 0.22430649789E+02 0.23855703328E+02 0.22433062079E+02 0.18655720835E+02
 0.69482647999E+01 0.52626005546E+01 0.43836379428E+01 0.39130320616E+01 0.35377860535E+01
 0.32882653714E+01 0.31686906529E+01 0.31682808310E+01 0.32875015912E+01 0.35377588427E+01
 0.39146043606E+01 0.43864719883E+01 0.52649617474E+01 0.69481921142E+01 0.92611256719E+01
 0.11532598064E+02 0.12943752359E+02 0.12945449689E+02 0.11536325289E+02 0.92640009510E+01
 0.45983336157E+01 0.41966264870E+01 0.38631144156E+01 0.35858990678E+01 0.33943393336E+01
 0.32885041933E+01 0.32552685271E+01 0.32875015912E+01 0.33925452322E+01 0.35842616737E+01
 0.38630912079E+01 0.41988159200E+01 0.46014978069E+01 0.52649617474E+01 0.61347112271E+01
 0.68937265565E+01 0.71960543666E+01 0.68945200136E+01 0.61346779798E+01 0.52629312095E+01
 0.40049802549E+01 0.38231160485E+01 0.36792280465E+01 0.35859197309E+01 0.35380292396E+01
 0.35204566569E+01 0.35205818971E+01 0.35377588427E+01 0.35842616737E+01 0.36764531422E+01
 0.38209296351E+01 0.40049677681E+01 0.41988159200E+01 0.43864719883E+01 0.45862073758E+01
 0.47272468609E+01 0.47264636383E+01 0.45839970425E+01 0.43835476580E+01 0.41966572579E+01
 0.38079276771E+01 0.38231211114E+01 0.38630664905E+01 0.39128898249E+01 0.39538652160E+01
 0.39702958093E+01 0.39554881446E+01 0.39146043606E+01 0.38630912079E+01 0.38209296351E+01
 0.38047316876E+01 0.38209296351E+01 0.38630912079E+01 0.39146043606E+01 0.39554881446E+01
 0.39702958093E+01 0.39538652160E+01 0.39128898249E+01 0.38630664905E+01 0.38231211114E+01
 0.40049802549E+01 0.41966572579E+01 0.43835476580E+01 0.45839970425E+01 0.47264636383E+01
 0.47272468609E+01 0.45862073758E+01 0.43864719883E+01 0.41988159200E+01 0.40049677681E+01
 0.38209296351E+01 0.36764531422E+01 0.35842616737E+01 0.35377588427E+01 0.35205818971E+01
 0.35204566569E+01 0.35380292396E+01 0.35859197309E+01 0.36792280465E+01 0.38231160485E+01
 0.45983336157E+01 0.52629312095E+01 0.61346779798E+01 0.68945200136E+01 0.71960543666E+01
 0.68937265565E+01 0.61347112271E+01 0.52649617474E+01 0.46014978069E+01 0.41988159200E+01
 0.38630912079E+01 0.35842616737E+01 0.33925452322E+01 0.32875015912E+01 0.32552685271E+01
 0.32885041933E+01 0.33943393336E+01 0.35858990678E+01 0.38631144156E+01 0.41966264870E+01
 0.69482647999E+01 0.92640009510E+01 0.11536325289E+02 0.12945449689E+02 0.12943752359E+02
 0.11532598064E+02 0.92611256719E+01 0.69481921142E+01 0.52649617474E+01 0.43864719883E+01
 0.39146043606E+01 0.35377588427E+01 0.32875015912E+01 0.31682808310E+01 0.31686906529E+01
 0.32882653714E+01 0.35377860535E+01 0.39130320616E+01 0.43836379428E+01 0.52626005546E+01
 0.13779768706E+02 0.18655720835E+02 0.22433062079E+02 0.23855703328E+02 0.22430649789E+02
 0.18651939728E+02 0.13776291371E+02 0.92611256719E+01 0.61347112271E+01 0.45862073758E+01
 0.39554881446E+01 0.35205818971E+01 0.32552685271E+01 0.31686906529E+01 0.32551300851E+01
 0.35197764914E+01 0.39538108902E+01 0.45844390113E+01 0.61342375786E+01 0.92628268927E+01
 0.27029064471E+02 0.34555113006E+02 0.39022892288E+02 0.39023151240E+02 0.34555336116E+02
 0.27028293834E+02 0.18651939728E+02 0.11532598064E+02 0.68937265565E+01 0.47272468609E+01
 0.39702958093E+01 0.35204566569E+01 0.32885041933E+01 0.32882653714E+01 0.35197764914E+01
 0.39694819897E+01 0.47270256339E+01 0.68947378422E+01 0.11534608695E+02 0.18653825116E+02
 0.46788363016E+02 0.55941320916E+02 0.59340571869E+02 0.55942655282E+02 0.46790157388E+02
 0.34555336116E+02 0.22430649789E+02 0.12943752359E+02 0.71960543666E+01 0.47264636383E+01
 0.39538652160E+01 0.35380292396E+01 0.33943393336E+01 0.35377860535E+01 0.39538108902E+01
 0.47270256339E+01 0.71971628512E+01 0.12944745415E+02 0.22430718188E+02 0.34554189549E+02
 0.70740240405E+02 0.79414074799E+02 0.79413061639E+02 0.70738233150E+02 0.55942655282E+02
 0.39023151240E+02 0.23855703328E+02 0.12945449689E+02 0.68945200136E+01 0.45839970425E+01
 0.39128898249E+01 0.35859197309E+01 0.35858990678E+01 0.39130320616E+01 0.45844390113E+01
 0.68947378422E+01 0.12944745415E+02 0.23854349980E+02 0.39022511253E+02 0.55943719704E+02
 0.94294222577E+02 0.99795430276E+02 0.94288453765E+02 0.79413061639E+02 0.59340571869E+02
 0.39022892288E+02 0.22433062079E+02 0.11536325289E+02 0.61346779798E+01 0.43835476580E+01
 0.38630664905E+01 0.36792280465E+01 0.38631144156E+01 0.43836379428E+01 0.61342375786E+01
 0.11534608695E+02 0.22430718188E+02 0.39022511253E+02 0.59344485062E+02 0.79420215794E+02
 0.11171839543E+03 0.11171537299E+03 0.99795430276E+02 0.79414074799E+02 0.55941320916E+02
 0.34555113006E+02 0.18655720835E+02 0.92640009510E+01 0.52629312095E+01 0.41966572579E+01
 0.38231211114E+01 0.38231160485E+01 0.41966264870E+01 0.52626005546E+01 0.92628268927E+01
 0.18653825116E+02 0.34554189549E+02 0.55943719704E+02 0.79420215794E+02 0.99802298072E+02
 0.11171839543E+03 0.99802298072E+02 0.79420215794E+02 0.55943719704E+02 0.34554189549E+02
 0.18653825116E+02 0.92628268927E+01 0.52626005546E+01 0.41966264870E+01 0.38231160485E+01
 0.38231211114E+01 0.41966572579E+01 0.52629312095E+01 0.92640009510E+01 0.18655720835E+02
 0.34555113006E+02 0.55941320916E+02 0.79414074799E+02 0.99795430276E+02 0.11171537299E+03
 0.99802298072E+02 0.84028115982E+02 0.62776742524E+02 0.41297993097E+02 0.23755021252E+02
 0.12180719524E+02 0.63736769421E+01 0.44552975284E+01 0.39181903670E+01 0.37307643540E+01
 0.39181347178E+01 0.44553085947E+01 0.63745422488E+01 0.12183225962E+02 0.23757994341E+02
 0.41297844521E+02 0.62770540072E+02 0.84017632815E+02 0.99794043461E+02 0.10564247563E+03
 0.79420215794E+02 0.62776742524E+02 0.43797551656E+02 0.26790165524E+02 0.14480951164E+02
 0.75256779493E+01 0.47727709545E+01 0.40169586553E+01 0.36770930332E+01 0.36770470129E+01
 0.40166867230E+01 0.47724669417E+01 0.75263739421E+01 0.14483298792E+02 0.26792639917E+02
 0.43797019968E+02 0.62771802267E+02 0.79413670020E+02 0.89199405250E+02 0.89202443313E+02
 0.55943719704E+02 0.41297993097E+02 0.26790165524E+02 0.15353335582E+02 0.82606891774E+01
 0.50654844503E+01 0.40978399137E+01 0.36571223119E+01 0.35021813311E+01 0.36571004443E+01
 0.40973784692E+01 0.50646038140E+01 0.82602235497E+01 0.15354096059E+02 0.26791896291E+02
 0.41299545638E+02 0.55944306323E+02 0.66932842389E+02 0.71022568336E+02 0.66932909059E+02
 0.34554189549E+02 0.23755021252E+02 0.14480951164E+02 0.82606891774E+01 0.51859682200E+01
 0.41435610858E+01 0.36558020599E+01 0.33973681906E+01 0.33975535325E+01 0.36561055922E+01
 0.41434072370E+01 0.51849599346E+01 0.82591591222E+01 0.14480020050E+02 0.23755830564E+02
 0.34556781002E+02 0.44248801797E+02 0.50009595336E+02 0.50008312246E+02 0.44245873871E+02
 0.18653825116E+02 0.12180719524E+02 0.75256779493E+01 0.50654844503E+01 0.41435610858E+01
 0.36575437535E+01 0.33507340390E+01 0.32491998642E+01 0.33511435161E+01 0.36583862300E+01
 0.41444193004E+01 0.50655065878E+01 0.75244193950E+01 0.12178845786E+02 0.18652599943E+02
 0.25530318859E+02 0.30830947167E+02 0.32826055627E+02 0.30830464972E+02 0.25530343077E+02
 0.92628268927E+01 0.63736769421E+01 0.47727709545E+01 0.40978399137E+01 0.36558020599E+01
 0.33507340390E+01 0.32020205768E+01 0.32019008612E+01 0.33507864268E+01 0.36567413351E+01
 0.40997027906E+01 0.47745609829E+01 0.63740552841E+01 0.92612007547E+01 0.13029132128E+02
 0.16631884626E+02 0.18843260453E+02 0.18844378146E+02 0.16634651722E+02 0.13032091687E+02
 0.52626005546E+01 0.44552975284E+01 0.40169586553E+01 0.36571223119E+01 0.33973681906E+01
 0.32491998642E+01 0.32019008612E+01 0.32483017390E+01 0.33963083559E+01 0.36570519705E+01
 0.40186289239E+01 0.44581612761E+01 0.52648662317E+01 0.66606422500E+01 0.83778955956E+01
 0.98143734572E+01 0.10375911945E+02 0.98163559240E+01 0.83798700415E+01 0.66605888944E+01
 0.41966264870E+01 0.39181903670E+01 0.36770930332E+01 0.35021813311E+01 0.33975535325E+01
 0.33511435161E+01 0.33507864268E+01 0.33963083559E+01 0.35001140256E+01 0.36752743545E+01
 0.39181398958E+01 0.41987602071E+01 0.45158351833E+01 0.49831558293E+01 0.55196964068E+01
 0.58857974655E+01 0.58857378049E+01 0.55189668801E+01 0.49810151350E+01 0.45128196244E+01
 0.38231160485E+01 0.37307643540E+01 0.36770470129E+01 0.36571004443E+01 0.36561055922E+01
 0.36583862300E+01 0.36567413351E+01 0.36570519705E+01 0.36752743545E+01 0.37278646889E+01
 0.38209294054E+01 0.39448107206E+01 0.40772969721E+01 0.41942771210E+01 0.42877577215E+01
 0.43262114344E+01 0.42859758973E+01 0.41916115621E+01 0.40752932955E+01 0.39448455884E+01
 0.38231211114E+01 0.39181347178E+01 0.40166867230E+01 0.40973784692E+01 0.41434072370E+01
 0.41444193004E+01 0.40997027906E+01 0.40186289239E+01 0.39181398958E+01 0.38209294054E+01
 0.37481216556E+01 0.37111154603E+01 0.37068959768E+01 0.37203210681E+01 0.37327064625E+01
 0.37320276277E+01 0.37191361608E+01 0.37068960686E+01 0.37131132951E+01 0.37511802672E+01
 0.41966572579E+01 0.44553085947E+01 0.47724669417E+01 0.50646038140E+01 0.51849599346E+01
 0.50655065878E+01 0.47745609829E+01 0.44581612761E+01 0.41987602071E+01 0.39448107206E+01
 0.37111154603E+01 0.35321177647E+01 0.34187438547E+01 0.33613713605E+01 0.33445942008E+01
 0.33617701842E+01 0.34201555917E+01 0.35345010397E+01 0.37131137217E+01 0.39448455884E+01
 0.52629312095E+01 0.63745422488E+01 0.75263739421E+01 0.82602235497E+01 0.82591591222E+01
 0.75244193950E+01 0.63740552841E+01 0.52648662317E+01 0.45158351833E+01 0.40772969721E+01
 0.37068959768E+01 0.34187438547E+01 0.32356096955E+01 0.31506114419E+01 0.31511320485E+01
 0.32369399514E+01 0.34200581955E+01 0.37069240299E+01 0.40753366421E+01 0.45128196244E+01
 0.92640009510E+01 0.12183225962E+02 0.14483298792E+02 0.15354096059E+02 0.14480020050E+02
 0.12178845786E+02 0.92612007547E+01 0.66606422500E+01 0.49831558293E+01 0.41942771210E+01
 0.37203210681E+01 0.33613713605E+01 0.31506114419E+01 0.30831327271E+01 0.31510186585E+01
 0.33613666971E+01 0.37190595130E+01 0.41918748443E+01 0.49810086604E+01 0.66605888944E+01
 0.18655720835E+02 0.23757994341E+02 0.26792639917E+02 0.26791896291E+02 0.23755830564E+02
 0.18652599943E+02 0.13029132128E+02 0.83778955956E+01 0.55196964068E+01 0.42877577215E+01
 0.37327064625E+01 0.33445942008E+01 0.31511320485E+01 0.31510186585E+01 0.33440158316E+01
 0.37314407576E+01 0.42863619057E+01 0.55193710708E+01 0.83794241675E+01 0.13032091687E+02
 0.34555113006E+02 0.41297844521E+02 0.43797019968E+02 0.41299545638E+02 0.34556781002E+02
 0.25530318859E+02 0.16631884626E+02 0.98143734572E+01 0.58857974655E+01 0.43262114344E+01
 0.37320276277E+01 0.33617701842E+01 0.32369399514E+01 0.33613666971E+01 0.37314407576E+01
 0.43260579588E+01 0.58867662279E+01 0.98163486648E+01 0.16633592638E+02 0.25530343077E+02
 0.55941320916E+02 0.62770540072E+02 0.62771802267E+02 0.55944306323E+02 0.44248801797E+02
 0.30830947167E+02 0.18843260453E+02 0.10375911945E+02 0.58857378049E+01 0.42859758973E+01
 0.37191361608E+01 0.34201555917E+01 0.34200581955E+01 0.37190595130E+01 0.42863619057E+01
 0.58867662279E+01 0.10377095337E+02 0.18843560615E+02 0.30829522388E+02 0.44245873871E+02
 0.79414074799E+02 0.84017632815E+02 0.79413670020E+02 0.66932842389E+02 0.50009595336E+02
 0.32826055627E+02 0.18844378146E+02 0.98163559240E+01 0.55189668801E+01 0.41916115621E+01
 0.37068960686E+01 0.35345010397E+01 0.37069240299E+01 0.41918748443E+01 0.55193710708E+01
 0.98163486648E+01 0.18843560615E+02 0.32824812590E+02 0.50008806386E+02 0.66932909059E+02
 0.99795430276E+02 0.99794043461E+02 0.89199405250E+02 0.71022568336E+02 0.50008312246E+02
 0.30830464972E+02 0.16634651722E+02 0.83798700415E+01 0.49810151350E+01 0.40752932955E+01
 0.37131132951E+01 0.37131137217E+01 0.40753366421E+01 0.49810086604E+01 0.83794241675E+01
 0.16633592638E+02 0.30829522388E+02 0.50008806386E+02 0.71024993702E+02 0.89202443313E+02
 0.11171537299E+03 0.10564247563E+03 0.89202443313E+02 0.66932909059E+02 0.44245873871E+02
 0.25530343077E+02 0.13032091687E+02 0.66605888944E+01 0.45128196244E+01 0.39448455884E+01
 0.37511802672E+01 0.39448455884E+01 0.45128196244E+01 0.66605888944E+01 0.13032091687E+02
 0.25530343077E+02 0.44245873871E+02 0.66932909059E+02 0.89202443313E+02 0.10564247563E+03
 0.94294222577E+02 0.79420215794E+02 0.59344485062E+02 0.39022511253E+02 0.22430718188E+02
 0.11534608695E+02 0.61342375786E+01 0.43836379428E+01 0.38631144156E+01 0.36792280465E+01
 0.38630664905E+01 0.43835476580E+01 0.61346779798E+01 0.11536325289E+02 0.22433062079E+02
 0.39022892288E+02 0.59340571869E+02 0.79413061639E+02 0.94288453765E+02 0.99795430276E+02
 0.79420215794E+02 0.62776742524E+02 0.43797551656E+02 0.26790165524E+02 0.14480951164E+02
 0.75256779493E+01 0.47727709545E+01 0.40169586553E+01 0.36770930332E+01 0.36770470129E+01
 0.40166867230E+01 0.47724669417E+01 0.75263739421E+01 0.14483298792E+02 0.26792639917E+02
 0.43797019968E+02 0.62771802267E+02 0.79413670020E+02 0.89199405250E+02 0.89202443313E+02
 0.59344485062E+02 0.43797551656E+02 0.28407450167E+02 0.16254837699E+02 0.86681519938E+01
 0.51993289045E+01 0.41473925170E+01 0.36992862907E+01 0.35405837439E+01 0.36991324045E+01
 0.41467182430E+01 0.51983916015E+01 0.86681037721E+01 0.16256473229E+02 0.28409954475E+02
 0.43799119318E+02 0.59344307347E+02 0.71024142503E+02 0.75375481774E+02 0.71024993702E+02
 0.39022511253E+02 0.26790165524E+02 0.16254837699E+02 0.91089539565E+01 0.54850943258E+01
 0.42378451399E+01 0.37298029763E+01 0.34579577509E+01 0.34580375040E+01 0.37296921932E+01
 0.42369285539E+01 0.54833752705E+01 0.91074971954E+01 0.16255221351E+02 0.26793254470E+02
 0.39027516854E+02 0.50013469797E+02 0.56552912277E+02 0.56551012928E+02 0.50008806386E+02
 0.22430718188E+02 0.14480951164E+02 0.86681519938E+01 0.54850943258E+01 0.42727091996E+01
 0.37508729318E+01 0.34182669475E+01 0.33069916051E+01 0.34186275091E+01 0.37512000601E+01
 0.42722486889E+01 0.54833545303E+01 0.86658915708E+01 0.14480198419E+02 0.22433083239E+02
 0.30834193455E+02 0.37302982516E+02 0.39737573875E+02 0.37299178035E+02 0.30829522388E+02
 0.11534608695E+02 0.75256779493E+01 0.51993289045E+01 0.42378451399E+01 0.37508729318E+01
 0.34071502224E+01 0.32372086704E+01 0.32373153545E+01 0.34076552824E+01 0.37518396268E+01
 0.42385841929E+01 0.51988735275E+01 0.75240136874E+01 0.11532984675E+02 0.16633242534E+02
 0.21455208677E+02 0.24401716994E+02 0.24401215108E+02 0.21454471026E+02 0.16633592638E+02
 0.61342375786E+01 0.47727709545E+01 0.41473925170E+01 0.37298029763E+01 0.34182669475E+01
 0.32372086704E+01 0.31791477058E+01 0.32368275616E+01 0.34182613356E+01 0.37308246337E+01
 0.41491774117E+01 0.47742173846E+01 0.61342921905E+01 0.83779362114E+01 0.11031014929E+02
 0.13204538285E+02 0.14046326706E+02 0.13206070023E+02 0.11033172049E+02 0.83794241675E+01
 0.43836379428E+01 0.40169586553E+01 0.36992862907E+01 0.34579577509E+01 0.33069916051E+01
 0.32373153545E+01 0.32368275616E+01 0.33057732152E+01 0.34567748916E+01 0.36991957091E+01
 0.40185143594E+01 0.43861468748E+01 0.49828796828E+01 0.59176069229E+01 0.69390574609E+01
 0.76132635695E+01 0.76138657449E+01 0.69400415640E+01 0.59174327368E+01 0.49810086604E+01
 0.38631144156E+01 0.36770930332E+01 0.35405837439E+01 0.34580375040E+01 0.34186275091E+01
 0.34076552824E+01 0.34182613356E+01 0.34567748916E+01 0.35384584784E+01 0.36752834150E+01
 0.38630173388E+01 0.40771584519E+01 0.42916302807E+01 0.45436916340E+01 0.47840623734E+01
 0.48852193069E+01 0.47831513083E+01 0.45417105513E+01 0.42890568735E+01 0.40753366421E+01
 0.36792280465E+01 0.36770470129E+01 0.36991324045E+01 0.37296921932E+01 0.37512000601E+01
 0.37518396268E+01 0.37308246337E+01 0.36991957091E+01 0.36752834150E+01 0.36764772304E+01
 0.37111111395E+01 0.37744240798E+01 0.38502514705E+01 0.39170888816E+01 0.39555761286E+01
 0.39547056672E+01 0.39150931587E+01 0.38486035732E+01 0.37744872388E+01 0.37131137217E+01
 0.38630664905E+01 0.40166867230E+01 0.41467182430E+01 0.42369285539E+01 0.42722486889E+01
 0.42385841929E+01 0.41491774117E+01 0.40185143594E+01 0.38630173388E+01 0.37111111395E+01
 0.35894305534E+01 0.35119235482E+01 0.34752489112E+01 0.34639673774E+01 0.34620578235E+01
 0.34634069587E+01 0.34753084031E+01 0.35135372022E+01 0.35920675927E+01 0.37131132951E+01
 0.43835476580E+01 0.47724669417E+01 0.51983916015E+01 0.54833752705E+01 0.54833545303E+01
 0.51988735275E+01 0.47742173846E+01 0.43861468748E+01 0.40771584519E+01 0.37744240798E+01
 0.35119235482E+01 0.33215509407E+01 0.32074025626E+01 0.31565637297E+01 0.31568492300E+01
 0.32084454874E+01 0.33233485986E+01 0.35135406568E+01 0.37744872388E+01 0.40752932955E+01
 0.61346779798E+01 0.75263739421E+01 0.86681037721E+01 0.91074971954E+01 0.86658915708E+01
 0.75240136874E+01 0.61342921905E+01 0.49828796828E+01 0.42916302807E+01 0.38502514705E+01
 0.34752489112E+01 0.32074025626E+01 0.30558284540E+01 0.30082181446E+01 0.30565955118E+01
 0.32083067454E+01 0.34752691779E+01 0.38487061883E+01 0.42890568735E+01 0.49810151350E+01
 0.11536325289E+02 0.14483298792E+02 0.16256473229E+02 0.16255221351E+02 0.14480198419E+02
 0.11532984675E+02 0.83779362114E+01 0.59176069229E+01 0.45436916340E+01 0.39170888816E+01
 0.34639673774E+01 0.31565637297E+01 0.30082181446E+01 0.30083456919E+01 0.31565409808E+01
 0.34630883388E+01 0.39153181889E+01 0.45420337874E+01 0.59174327368E+01 0.83798700415E+01
 0.22433062079E+02 0.26792639917E+02 0.28409954475E+02 0.26793254470E+02 0.22433083239E+02
 0.16633242534E+02 0.11031014929E+02 0.69390574609E+01 0.47840623734E+01 0.39555761286E+01
 0.34620578235E+01 0.31568492300E+01 0.30565955118E+01 0.31565409808E+01 0.34612644079E+01
 0.39546459075E+01 0.47839902144E+01 0.69404591437E+01 0.11033172049E+02 0.16634651722E+02
 0.39022892288E+02 0.43797019968E+02 0.43799119318E+02 0.39027516854E+02 0.30834193455E+02
 0.21455208677E+02 0.13204538285E+02 0.76132635695E+01 0.48852193069E+01 0.39547056672E+01
 0.34634069587E+01 0.32084454874E+01 0.32083067454E+01 0.34630883388E+01 0.39546459075E+01
 0.48861117691E+01 0.76151908387E+01 0.13206158826E+02 0.21454471026E+02 0.30830464972E+02
 0.59340571869E+02 0.62771802267E+02 0.59344307347E+02 0.50013469797E+02 0.37302982516E+02
 0.24401716994E+02 0.14046326706E+02 0.76138657449E+01 0.47831513083E+01 0.39150931587E+01
 0.34753084031E+01 0.33233485986E+01 0.34752691779E+01 0.39153181889E+01 0.47839902144E+01
 0.76151908387E+01 0.14047135909E+02 0.24400541947E+02 0.37299178035E+02 0.50008312246E+02
 0.79413061639E+02 0.79413670020E+02 0.71024142503E+02 0.56552912277E+02 0.39737573875E+02
 0.24401215108E+02 0.13206070023E+02 0.69400415640E+01 0.45417105513E+01 0.38486035732E+01
 0.35135372022E+01 0.35135406568E+01 0.38487061883E+01 0.45420337874E+01 0.69404591437E+01
 0.13206158826E+02 0.24400541947E+02 0.39736071852E+02 0.56551012928E+02 0.71022568336E+02
 0.94288453765E+02 0.89199405250E+02 0.75375481774E+02 0.56551012928E+02 0.37299178035E+02
 0.21454471026E+02 0.11033172049E+02 0.59174327368E+01 0.42890568735E+01 0.37744872388E+01
 0.35920675927E+01 0.37744872388E+01 0.42890568735E+01 0.59174327368E+01 0.11033172049E+02
 0.21454471026E+02 0.37299178035E+02 0.56551012928E+02 0.75375481774E+02 0.89199405250E+02
 0.99795430276E+02 0.89202443313E+02 0.71024993702E+02 0.50008806386E+02 0.30829522388E+02
 0.16633592638E+02 0.83794241675E+01 0.49810086604E+01 0.40753366421E+01 0.37131137217E+01
 0.37131132951E+01 0.40752932955E+01 0.49810151350E+01 0.83798700415E+01 0.16634651722E+02
 0.30830464972E+02 0.50008312246E+02 0.71022568336E+02 0.89199405250E+02 0.99794043461E+02
 0.70740240405E+02 0.55943719704E+02 0.39022511253E+02 0.23854349980E+02 0.12944745415E+02
 0.68947378422E+01 0.45844390113E+01 0.39130320616E+01 0.35858990678E+01 0.35859197309E+01
 0.39128898249E+01 0.45839970425E+01 0.68945200136E+01 0.12945449689E+02 0.23855703328E+02
 0.39023151240E+02 0.55942655282E+02 0.70738233150E+02 0.79413061639E+02 0.79414074799E+02
 0.55943719704E+02 0.41297993097E+02 0.26790165524E+02 0.15353335582E+02 0.82606891774E+01
 0.50654844503E+01 0.40978399137E+01 0.36571223119E+01 0.35021813311E+01 0.36571004443E+01
 0.40973784692E+01 0.50646038140E+01 0.82602235497E+01 0.15354096059E+02 0.26791896291E+02
 0.41299545638E+02 0.55944306323E+02 0.66932842389E+02 0.71022568336E+02 0.66932909059E+02
 0.39022511253E+02 0.26790165524E+02 0.16254837699E+02 0.91089539565E+01 0.54850943258E+01
 0.42378451399E+01 0.37298029763E+01 0.34579577509E+01 0.34580375040E+01 0.37296921932E+01
 0.42369285539E+01 0.54833752705E+01 0.91074971954E+01 0.16255221351E+02 0.26793254470E+02
 0.39027516854E+02 0.50013469797E+02 0.56552912277E+02 0.56551012928E+02 0.50008806386E+02
 0.23854349980E+02 0.15353335582E+02 0.91089539565E+01 0.56523941546E+01 0.43212726534E+01
 0.37838135896E+01 0.34426655299E+01 0.33280454333E+01 0.34429536302E+01 0.37838372857E+01
 0.43201852265E+01 0.56499254926E+01 0.91064084321E+01 0.15353281224E+02 0.23858455893E+02
 0.32831620073E+02 0.39741347692E+02 0.42342237703E+02 0.39736071852E+02 0.32824812590E+02
 0.12944745415E+02 0.82606891774E+01 0.54850943258E+01 0.43212726534E+01 0.38037362584E+01
 0.34405847705E+01 0.32595116835E+01 0.32597196212E+01 0.34411941510E+01 0.38043212946E+01
 0.43207611941E+01 0.54828253354E+01 0.82578288345E+01 0.12943845232E+02 0.18845984598E+02
 0.24404515638E+02 0.27796661190E+02 0.27794725259E+02 0.24400541947E+02 0.18843560615E+02
 0.68947378422E+01 0.50654844503E+01 0.42378451399E+01 0.37838135896E+01 0.34405847705E+01
 0.32387677721E+01 0.31739602397E+01 0.32388844847E+01 0.34412901380E+01 0.37850380473E+01
 0.42385437477E+01 0.50646526118E+01 0.68926714188E+01 0.98144374784E+01 0.13205382717E+02
 0.15958546610E+02 0.17020350880E+02 0.15958518420E+02 0.13206158826E+02 0.98163486648E+01
 0.45844390113E+01 0.40978399137E+01 0.37298029763E+01 0.34426655299E+01 0.32595116835E+01
 0.31739602397E+01 0.31736431351E+01 0.32589869565E+01 0.34427833600E+01 0.37309605377E+01
 0.40994916826E+01 0.45854565002E+01 0.55189419932E+01 0.69387632233E+01 0.84417019796E+01
 0.94169937274E+01 0.94177977066E+01 0.84435749727E+01 0.69404591437E+01 0.55193710708E+01
 0.39130320616E+01 0.36571223119E+01 0.34579577509E+01 0.33280454333E+01 0.32597196212E+01
 0.32388844847E+01 0.32589869565E+01 0.33268078522E+01 0.34568909057E+01 0.36571258430E+01
 0.39144147354E+01 0.41938391421E+01 0.45432997369E+01 0.50200121987E+01 0.54659225069E+01
 0.56502628532E+01 0.54663733558E+01 0.50199544622E+01 0.45420337874E+01 0.41918748443E+01
 0.35858990678E+01 0.35021813311E+01 0.34580375040E+01 0.34429536302E+01 0.34411941510E+01
 0.34412901380E+01 0.34427833600E+01 0.34568909057E+01 0.35002292903E+01 0.35843214677E+01
 0.37068277730E+01 0.38501015168E+01 0.39877494194E+01 0.40990890709E+01 0.41705701514E+01
 0.41700550060E+01 0.40976308826E+01 0.39858206915E+01 0.38487061883E+01 0.37069240299E+01
 0.35859197309E+01 0.36571004443E+01 0.37296921932E+01 0.37838372857E+01 0.38043212946E+01
 0.37850380473E+01 0.37309605377E+01 0.36571258430E+01 0.35843214677E+01 0.35321631824E+01
 0.35119096827E+01 0.35222325706E+01 0.35501893358E+01 0.35772519536E+01 0.35877906632E+01
 0.35761496387E+01 0.35490474004E+01 0.35222929577E+01 0.35135406568E+01 0.35345010397E+01
 0.39128898249E+01 0.40973784692E+01 0.42369285539E+01 0.43201852265E+01 0.43207611941E+01
 0.42385437477E+01 0.40994916826E+01 0.39144147354E+01 0.37068277730E+01 0.35119096827E+01
 0.33585956648E+01 0.32585146795E+01 0.32053310369E+01 0.31841846517E+01 0.31840654627E+01
 0.32054629333E+01 0.32596637058E+01 0.33606019063E+01 0.35135372022E+01 0.37068960686E+01
 0.45839970425E+01 0.50646038140E+01 0.54833752705E+01 0.56499254926E+01 0.54828253354E+01
 0.50646526118E+01 0.45854565002E+01 0.41938391421E+01 0.38501015168E+01 0.35222325706E+01
 0.32585146795E+01 0.30804159883E+01 0.29833165407E+01 0.29533769926E+01 0.29839401777E+01
 0.30815934648E+01 0.32596497882E+01 0.35222929577E+01 0.38486035732E+01 0.41916115621E+01
 0.68945200136E+01 0.82602235497E+01 0.91074971954E+01 0.91064084321E+01 0.82578288345E+01
 0.68926714188E+01 0.55189419932E+01 0.45432997369E+01 0.39877494194E+01 0.35501893358E+01
 0.32053310369E+01 0.29833165407E+01 0.28790372551E+01 0.28793253610E+01 0.29838456947E+01
 0.32053349615E+01 0.35490949139E+01 0.39858206915E+01 0.45417105513E+01 0.55189668801E+01
 0.12945449689E+02 0.15354096059E+02 0.16255221351E+02 0.15353281224E+02 0.12943845232E+02
 0.98144374784E+01 0.69387632233E+01 0.50200121987E+01 0.40990890709E+01 0.35772519536E+01
 0.31841846517E+01 0.29533769926E+01 0.28793253610E+01 0.29533766758E+01 0.31836824570E+01
 0.35760901424E+01 0.40979768846E+01 0.50199544622E+01 0.69400415640E+01 0.98163559240E+01
 0.23855703328E+02 0.26791896291E+02 0.26793254470E+02 0.23858455893E+02 0.18845984598E+02
 0.13205382717E+02 0.84417019796E+01 0.54659225069E+01 0.41705701514E+01 0.35877906632E+01
 0.31840654627E+01 0.29839401777E+01 0.29838456947E+01 0.31836824570E+01 0.35872352433E+01
 0.41705885736E+01 0.54671814470E+01 0.84435749727E+01 0.13206070023E+02 0.18844378146E+02
 0.39023151240E+02 0.41299545638E+02 0.39027516854E+02 0.32831620073E+02 0.24404515638E+02
 0.15958546610E+02 0.94169937274E+01 0.56502628532E+01 0.41700550060E+01 0.35761496387E+01
 0.32054629333E+01 0.30815934648E+01 0.32053349615E+01 0.35760901424E+01 0.41705885736E+01
 0.56517687248E+01 0.94187204272E+01 0.15958518420E+02 0.24401215108E+02 0.32826055627E+02
 0.55942655282E+02 0.55944306323E+02 0.50013469797E+02 0.39741347692E+02 0.27796661190E+02
 0.17020350880E+02 0.94177977066E+01 0.54663733558E+01 0.40976308826E+01 0.35490474004E+01
 0.32596637058E+01 0.32596497882E+01 0.35490949139E+01 0.40979768846E+01 0.54671814470E+01
 0.94187204272E+01 0.17020364546E+02 0.27794725259E+02 0.39737573875E+02 0.50009595336E+02
 0.70738233150E+02 0.66932842389E+02 0.56552912277E+02 0.42342237703E+02 0.27794725259E+02
 0.15958518420E+02 0.84435749727E+01 0.50199544622E+01 0.39858206915E+01 0.35222929577E+01
 0.33606019063E+01 0.35222929577E+01 0.39858206915E+01 0.50199544622E+01 0.84435749727E+01
 0.15958518420E+02 0.27794725259E+02 0.42342237703E+02 0.56552912277E+02 0.66932842389E+02
 0.79413061639E+02 0.71022568336E+02 0.56551012928E+02 0.39736071852E+02 0.24400541947E+02
 0.13206158826E+02 0.69404591437E+01 0.45420337874E+01 0.38487061883E+01 0.35135406568E+01
 0.35135372022E+01 0.38486035732E+01 0.45417105513E+01 0.69400415640E+01 0.13206070023E+02
 0.24401215108E+02 0.39737573875E+02 0.56552912277E+02 0.71024142503E+02 0.79413670020E+02
 0.79414074799E+02 0.66932909059E+02 0.50008806386E+02 0.32824812590E+02 0.18843560615E+02
 0.98163486648E+01 0.55193710708E+01 0.41918748443E+01 0.37069240299E+01 0.35345010397E+01
 0.37068960686E+01 0.41916115621E+01 0.55189668801E+01 0.98163559240E+01 0.18844378146E+02
 0.32826055627E+02 0.50009595336E+02 0.66932842389E+02 0.79413670020E+02 0.84017632815E+02
 0.46788363016E+02 0.34554189549E+02 0.22430718188E+02 0.12944745415E+02 0.71971628512E+01
 0.47270256339E+01 0.39538108902E+01 0.35377860535E+01 0.33943393336E+01 0.35380292396E+01
 0.39538652160E+01 0.47264636383E+01 0.71960543666E+01 0.12943752359E+02 0.22430649789E+02
 0.34555336116E+02 0.46790157388E+02 0.55942655282E+02 0.59340571869E+02 0.55941320916E+02
 0.34554189549E+02 0.23755021252E+02 0.14480951164E+02 0.82606891774E+01 0.51859682200E+01
 0.41435610858E+01 0.36558020599E+01 0.33973681906E+01 0.33975535325E+01 0.36561055922E+01