   1   1   0   0
  0.8582031E+01  0.2298097E-09  0.2298097E-09  0.2298097E-09  0.5000000E-15
  1.000000000000000E-004
  CAR 
 fcc Ni                                  
     65.72734574     -0.49643582  301     13.18868169      1.00000000
     -0.496  0.0000E+00  0.0000E+00  0.0000E+00  0.0000E+00
     -0.276  0.0000E+00  0.0000E+00  0.0000E+00  0.0000E+00
     -0.055  0.0000E+00  0.0000E+00  0.0000E+00  0.0000E+00
      0.166  0.0000E+00  0.0000E+00  0.0000E+00  0.0000E+00
      0.387  0.0000E+00  0.0000E+00  0.0000E+00  0.0000E+00
      0.607  0.0000E+00  0.0000E+00  0.0000E+00  0.0000E+00
      0.828 -0.1080E-32 -0.3029E-32 -0.2385E-33 -0.6687E-33
      1.049 -0.3829E-25 -0.9366E-25 -0.8452E-26 -0.2068E-25
      1.270 -0.1161E-18 -0.2476E-18 -0.2562E-19 -0.5465E-19
      1.490 -0.2873E-13 -0.5336E-13 -0.6343E-14 -0.1178E-13
      1.711 -0.6025E-09 -0.9730E-09 -0.1330E-09 -0.2148E-09
      1.932 -0.9925E-06 -0.1388E-05 -0.2192E-06 -0.3065E-06
      2.153 -0.1077E-03 -0.1276E-03 -0.2400E-04 -0.2846E-04
      2.373  0.2179E-03  0.3964E-03  0.2411E-04  0.5905E-04
      2.594  0.5895E-02  0.6131E-02  0.1325E-02  0.1412E-02
      2.815  0.1395E-01  0.1480E-01  0.4405E-02  0.4678E-02
      3.035  0.2003E-01  0.1969E-01  0.8828E-02  0.9026E-02
      3.256  0.2082E-01  0.2083E-01  0.1342E-01  0.1362E-01
      3.477  0.2562E-01  0.2597E-01  0.1908E-01  0.1936E-01
      3.698  0.3481E-01  0.3517E-01  0.2676E-01  0.2712E-01
      3.918  0.3825E-01  0.3715E-01  0.3521E-01  0.3532E-01
      4.139  0.2217E-01  0.2208E-01  0.4010E-01  0.4019E-01
      4.360  0.4229E-01  0.4221E-01  0.4943E-01  0.4951E-01
      4.581  0.6528E-01  0.6425E-01  0.6385E-01  0.6369E-01
      4.801  0.4243E-01  0.4235E-01  0.7321E-01  0.7304E-01
      5.022  0.3368E-01  0.3157E-01  0.8065E-01  0.8001E-01
      5.243  0.7241E-01  0.6820E-01  0.9663E-01  0.9507E-01
      5.464  0.6598E-01  0.6758E-01  0.1112E+00  0.1100E+00
      5.684  0.6825E-01  0.6109E-01  0.1263E+00  0.1235E+00
      5.905  0.7542E-01  0.7328E-01  0.1429E+00  0.1396E+00
      6.126  0.1028E+00  0.8630E-01  0.1656E+00  0.1587E+00
      6.347  0.8164E-01  0.8570E-01  0.1836E+00  0.1776E+00
      6.567  0.1245E+00  0.8470E-01  0.2111E+00  0.1963E+00
      6.788  0.1859E+00  0.1455E+00  0.2521E+00  0.2284E+00
      7.009  0.3028E+00  0.1441E+00  0.3190E+00  0.2602E+00
      7.230  0.4555E+00  0.1967E+00  0.4196E+00  0.3037E+00
      7.450  0.4742E+00  0.4192E+00  0.5242E+00  0.3962E+00
      7.671  0.5443E+00  0.4252E+00  0.6444E+00  0.4900E+00
      7.892  0.6522E+00  0.4187E+00  0.7884E+00  0.5825E+00
      8.113  0.7842E+00  0.4698E+00  0.9615E+00  0.6862E+00
      8.333  0.7289E+00  0.5862E+00  0.1122E+01  0.8156E+00
      8.554  0.7002E+00  0.6819E+00  0.1277E+01  0.9661E+00
      8.775  0.6177E+00  0.6690E+00  0.1413E+01  0.1114E+01
      8.996  0.6241E+00  0.6755E+00  0.1551E+01  0.1263E+01
      9.216  0.5985E+00  0.5967E+00  0.1683E+01  0.1395E+01
      9.437  0.7592E+00  0.6089E+00  0.1851E+01  0.1529E+01
      9.658  0.8813E+00  0.5544E+00  0.2045E+01  0.1651E+01
      9.879  0.8152E+00  0.6510E+00  0.2225E+01  0.1795E+01
     10.099  0.1065E+01  0.8444E+00  0.2460E+01  0.1981E+01
     10.320  0.1179E+01  0.8078E+00  0.2721E+01  0.2160E+01
     10.541  0.1162E+01  0.8984E+00  0.2977E+01  0.2358E+01
     10.762  0.8273E+00  0.1044E+01  0.3160E+01  0.2589E+01
     10.982  0.6812E+00  0.1065E+01  0.3310E+01  0.2824E+01
     11.203  0.7576E+00  0.1027E+01  0.3477E+01  0.3050E+01
     11.424  0.9040E+00  0.8119E+00  0.3677E+01  0.3229E+01
     11.645  0.9481E+00  0.6881E+00  0.3886E+01  0.3381E+01
     11.865  0.9808E+00  0.7508E+00  0.4103E+01  0.3547E+01
     12.086  0.8386E+00  0.9351E+00  0.4288E+01  0.3753E+01
     12.307  0.8817E+00  0.8829E+00  0.4482E+01  0.3948E+01
     12.528  0.1235E+01  0.9006E+00  0.4755E+01  0.4147E+01
     12.748  0.1569E+01  0.7029E+00  0.5101E+01  0.4302E+01
     12.969  0.6164E+00  0.8358E+00  0.5237E+01  0.4487E+01
     13.190  0.2202E+00  0.1037E+01  0.5286E+01  0.4716E+01
     13.411  0.1303E+00  0.1407E+01  0.5315E+01  0.5026E+01
     13.631  0.9152E-01  0.8901E+00  0.5335E+01  0.5223E+01
     13.852  0.1529E+00  0.3855E+00  0.5369E+01  0.5308E+01
     14.073  0.1692E+00  0.9450E-01  0.5406E+01  0.5329E+01
     14.294  0.1019E+00  0.1012E+00  0.5429E+01  0.5351E+01
     14.514  0.9461E-01  0.1951E+00  0.5449E+01  0.5394E+01
     14.735  0.1089E+00  0.1533E+00  0.5473E+01  0.5428E+01
     14.956  0.1461E+00  0.1069E+00  0.5506E+01  0.5452E+01
     15.177  0.1476E+00  0.9389E-01  0.5538E+01  0.5472E+01
     15.397  0.9703E-01  0.1463E+00  0.5560E+01  0.5505E+01
     15.618  0.7673E-01  0.1888E+00  0.5577E+01  0.5546E+01
     15.839  0.1668E+00  0.7320E-01  0.5613E+01  0.5562E+01
     16.060  0.1155E+00  0.1419E+00  0.5639E+01  0.5594E+01
     16.280  0.6296E-01  0.1266E+00  0.5653E+01  0.5622E+01
     16.501  0.1152E+00  0.9720E-01  0.5678E+01  0.5643E+01
     16.722  0.8022E-01  0.9640E-01  0.5696E+01  0.5664E+01
     16.942  0.1543E+00  0.9832E-01  0.5730E+01  0.5686E+01
     17.163  0.1154E+00  0.1573E+00  0.5756E+01  0.5721E+01
     17.384  0.9520E-01  0.1036E+00  0.5777E+01  0.5744E+01
     17.605  0.1047E+00  0.1127E+00  0.5800E+01  0.5769E+01
     17.825  0.3813E-01  0.9468E-01  0.5808E+01  0.5790E+01
     18.046  0.4137E-01  0.8273E-01  0.5817E+01  0.5808E+01
     18.267  0.1092E+00  0.2020E-01  0.5841E+01  0.5812E+01
     18.488  0.1151E+00  0.1138E+00  0.5867E+01  0.5837E+01
     18.708  0.1025E+00  0.9885E-01  0.5889E+01  0.5859E+01
     18.929  0.9001E-01  0.1139E+00  0.5909E+01  0.5884E+01
     19.150  0.1686E-02  0.1021E+00  0.5910E+01  0.5907E+01
     19.371  0.4600E-01  0.1380E-01  0.5920E+01  0.5910E+01
     19.591  0.7300E-01  0.2619E-01  0.5936E+01  0.5916E+01
     19.812  0.5932E-01  0.8419E-01  0.5949E+01  0.5934E+01
     20.033  0.3974E-01  0.6446E-01  0.5958E+01  0.5948E+01
     20.254  0.7799E-01  0.3525E-01  0.5975E+01  0.5956E+01
     20.474  0.4742E-02  0.8110E-01  0.5976E+01  0.5974E+01
     20.695  0.2870E-01  0.8379E-02  0.5982E+01  0.5976E+01
     20.916  0.5527E-01  0.2729E-01  0.5995E+01  0.5982E+01
     21.137  0.1251E+00  0.2334E-01  0.6022E+01  0.5987E+01
     21.357  0.1722E+00  0.7066E-01  0.6060E+01  0.6003E+01
     21.578  0.1862E+00  0.2068E+00  0.6101E+01  0.6048E+01
     21.799  0.1314E+00  0.1772E+00  0.6130E+01  0.6088E+01
     22.020  0.1313E+00  0.1425E+00  0.6159E+01  0.6119E+01
     22.240  0.1152E+00  0.1626E+00  0.6185E+01  0.6155E+01
     22.461  0.1175E+00  0.1161E+00  0.6211E+01  0.6181E+01
     22.682  0.1327E+00  0.1183E+00  0.6240E+01  0.6207E+01
     22.903  0.1207E+00  0.1236E+00  0.6267E+01  0.6234E+01
     23.123  0.1280E+00  0.1383E+00  0.6295E+01  0.6265E+01
     23.344  0.7436E-01  0.1292E+00  0.6311E+01  0.6293E+01
     23.565  0.7782E-01  0.7473E-01  0.6328E+01  0.6310E+01
     23.786  0.1036E+00  0.8466E-01  0.6351E+01  0.6328E+01
     24.006  0.1326E+00  0.1016E+00  0.6381E+01  0.6351E+01
     24.227  0.8479E-01  0.1283E+00  0.6399E+01  0.6379E+01
     24.448  0.8489E-01  0.8938E-01  0.6418E+01  0.6399E+01
     24.669  0.1239E+00  0.9727E-01  0.6445E+01  0.6420E+01
     24.889  0.7955E-01  0.1199E+00  0.6463E+01  0.6447E+01
     25.110  0.1907E+00  0.7276E-01  0.6505E+01  0.6463E+01
     25.331  0.1194E+00  0.1861E+00  0.6531E+01  0.6504E+01
     25.552  0.9458E-01  0.1306E+00  0.6552E+01  0.6533E+01
     25.772  0.1588E+00  0.9873E-01  0.6587E+01  0.6554E+01
     25.993  0.1999E+00  0.1667E+00  0.6631E+01  0.6591E+01
     26.214  0.7483E-01  0.1917E+00  0.6648E+01  0.6634E+01
     26.435  0.1719E+00  0.8356E-01  0.6686E+01  0.6652E+01
     26.655  0.1771E+00  0.1952E+00  0.6725E+01  0.6695E+01
     26.876  0.2231E+00  0.1733E+00  0.6774E+01  0.6733E+01
     27.097  0.9599E-01  0.2150E+00  0.6795E+01  0.6781E+01
     27.318  0.1131E+00  0.7897E-01  0.6820E+01  0.6798E+01
     27.538  0.2448E+00  0.1477E+00  0.6874E+01  0.6831E+01
     27.759  0.1976E+00  0.2650E+00  0.6918E+01  0.6889E+01
     27.980  0.1083E+00  0.1597E+00  0.6942E+01  0.6925E+01
     28.201  0.8403E-01  0.9339E-01  0.6960E+01  0.6945E+01
     28.421  0.2496E+00  0.1571E+00  0.7016E+01  0.6980E+01
     28.642  0.1581E+00  0.2292E+00  0.7050E+01  0.7030E+01
     28.863  0.1423E+00  0.1372E+00  0.7082E+01  0.7061E+01
     29.084  0.2252E+00  0.1794E+00  0.7132E+01  0.7100E+01
     29.304  0.1149E+00  0.1884E+00  0.7157E+01  0.7142E+01
     29.525  0.1776E+00  0.1361E+00  0.7196E+01  0.7172E+01
     29.746  0.2184E+00  0.1865E+00  0.7244E+01  0.7213E+01
     29.967  0.2257E+00  0.2622E+00  0.7294E+01  0.7271E+01
     30.187  0.1204E+00  0.1520E+00  0.7321E+01  0.7305E+01
     30.408  0.1825E+00  0.1787E+00  0.7361E+01  0.7344E+01
     30.629  0.1634E+00  0.1431E+00  0.7397E+01  0.7376E+01
     30.849  0.2571E+00  0.2268E+00  0.7454E+01  0.7426E+01
     31.070  0.2924E+00  0.2715E+00  0.7518E+01  0.7486E+01
     31.291  0.1037E+00  0.2312E+00  0.7541E+01  0.7537E+01
     31.512  0.6434E-01  0.3166E-01  0.7556E+01  0.7544E+01
     31.732  0.2617E+00  0.2066E+00  0.7613E+01  0.7589E+01
     31.953  0.2327E+00  0.2162E+00  0.7665E+01  0.7637E+01
     32.174  0.2651E+00  0.3033E+00  0.7723E+01  0.7704E+01
     32.395  0.7699E-01  0.1294E+00  0.7740E+01  0.7732E+01
     32.615  0.1747E+00  0.1109E+00  0.7779E+01  0.7757E+01
     32.836  0.1708E+00  0.2040E+00  0.7816E+01  0.7802E+01
     33.057  0.1249E+00  0.1358E+00  0.7844E+01  0.7832E+01
     33.278  0.1636E+00  0.1410E+00  0.7880E+01  0.7863E+01
     33.498  0.2689E+00  0.2403E+00  0.7939E+01  0.7916E+01
     33.719  0.2160E+00  0.2427E+00  0.7987E+01  0.7970E+01
     33.940  0.1346E+00  0.1719E+00  0.8017E+01  0.8008E+01
     34.161  0.7793E-01  0.7663E-01  0.8034E+01  0.8025E+01
     34.381  0.2236E+00  0.1676E+00  0.8083E+01  0.8062E+01
     34.602  0.2259E+00  0.2646E+00  0.8133E+01  0.8120E+01
     34.823  0.8232E-01  0.1201E+00  0.8151E+01  0.8146E+01
     35.044  0.1429E+00  0.1069E+00  0.8183E+01  0.8170E+01
     35.264  0.1243E+00  0.1528E+00  0.8210E+01  0.8204E+01
     35.485  0.9736E-01  0.1178E+00  0.8232E+01  0.8230E+01
     35.706  0.1479E+00  0.7938E-01  0.8265E+01  0.8247E+01
     35.927  0.3124E+00  0.2917E+00  0.8334E+01  0.8312E+01
     36.147  0.1385E+00  0.2223E+00  0.8364E+01  0.8361E+01
     36.368  0.6945E-01  0.8054E-01  0.8379E+01  0.8379E+01
     36.589  0.1687E+00  0.1235E+00  0.8417E+01  0.8406E+01
     36.810  0.1574E+00  0.1724E+00  0.8451E+01  0.8444E+01
     37.030  0.1462E+00  0.1438E+00  0.8484E+01  0.8476E+01
     37.251  0.1669E+00  0.1575E+00  0.8521E+01  0.8510E+01
     37.472  0.2144E+00  0.2446E+00  0.8568E+01  0.8564E+01
     37.693  0.1399E+00  0.1266E+00  0.8599E+01  0.8592E+01
     37.913  0.1173E+00  0.1075E+00  0.8625E+01  0.8616E+01
     38.134  0.1366E+00  0.1233E+00  0.8655E+01  0.8643E+01
     38.355  0.1877E+00  0.1733E+00  0.8696E+01  0.8681E+01
     38.576  0.2450E+00  0.2679E+00  0.8750E+01  0.8741E+01
     38.796  0.2652E+00  0.2565E+00  0.8809E+01  0.8797E+01
     39.017  0.1793E+00  0.1697E+00  0.8848E+01  0.8835E+01
     39.238  0.2036E+00  0.1997E+00  0.8893E+01  0.8879E+01
     39.459  0.1597E+00  0.1846E+00  0.8929E+01  0.8920E+01
     39.679  0.2759E+00  0.2427E+00  0.8990E+01  0.8973E+01
     39.900  0.2205E+00  0.2516E+00  0.9038E+01  0.9029E+01
     40.121  0.1862E+00  0.1974E+00  0.9079E+01  0.9072E+01
     40.342  0.1507E+00  0.1502E+00  0.9113E+01  0.9105E+01
     40.562  0.1859E+00  0.1744E+00  0.9154E+01  0.9144E+01
     40.783  0.3042E+00  0.2696E+00  0.9221E+01  0.9203E+01
     41.004  0.3337E+00  0.3544E+00  0.9294E+01  0.9282E+01
     41.225  0.1006E+00  0.1389E+00  0.9317E+01  0.9312E+01
     41.445  0.2109E+00  0.1545E+00  0.9363E+01  0.9346E+01
     41.666  0.2128E+00  0.2577E+00  0.9410E+01  0.9403E+01
     41.887  0.1393E+00  0.1347E+00  0.9441E+01  0.9433E+01
     42.108  0.1848E+00  0.1633E+00  0.9482E+01  0.9469E+01
     42.328  0.2635E+00  0.2591E+00  0.9540E+01  0.9526E+01
     42.549  0.3601E+00  0.3430E+00  0.9619E+01  0.9602E+01
     42.770  0.1785E+00  0.2320E+00  0.9659E+01  0.9653E+01
     42.991  0.1425E+00  0.1308E+00  0.9690E+01  0.9682E+01
     43.211  0.2472E+00  0.2264E+00  0.9745E+01  0.9732E+01
     43.432  0.1314E+00  0.1706E+00  0.9774E+01  0.9770E+01
     43.653  0.1225E+00  0.8235E-01  0.9801E+01  0.9788E+01
     43.873  0.1913E+00  0.1993E+00  0.9843E+01  0.9832E+01
     44.094  0.1624E+00  0.1715E+00  0.9879E+01  0.9870E+01
     44.315  0.1602E+00  0.1732E+00  0.9914E+01  0.9908E+01
     44.536  0.1207E+00  0.1346E+00  0.9941E+01  0.9938E+01
     44.756  0.1541E+00  0.1264E+00  0.9975E+01  0.9966E+01
     44.977  0.6977E-01  0.9414E-01  0.9990E+01  0.9986E+01
     45.198  0.9368E-01  0.8775E-01  0.1001E+02  0.1001E+02
     45.419  0.1430E+00  0.1416E+00  0.1004E+02  0.1004E+02
     45.639  0.1135E+00  0.9227E-01  0.1007E+02  0.1006E+02
     45.860  0.8838E-01  0.9691E-01  0.1009E+02  0.1008E+02
     46.081  0.2011E+00  0.1510E+00  0.1013E+02  0.1011E+02
     46.302  0.2513E+00  0.2863E+00  0.1019E+02  0.1018E+02
     46.522  0.1649E+00  0.1825E+00  0.1022E+02  0.1022E+02
     46.743  0.7188E-01  0.7894E-01  0.1024E+02  0.1023E+02
     46.964  0.1230E+00  0.1164E+00  0.1027E+02  0.1026E+02
     47.185  0.2575E+00  0.2357E+00  0.1032E+02  0.1031E+02
     47.405  0.2251E+00  0.1944E+00  0.1037E+02  0.1035E+02
     47.626  0.1427E+00  0.1971E+00  0.1040E+02  0.1040E+02
     47.847  0.3246E+00  0.2936E+00  0.1048E+02  0.1046E+02
     48.068  0.3291E+00  0.3471E+00  0.1055E+02  0.1054E+02
     48.288  0.2686E+00  0.2501E+00  0.1061E+02  0.1059E+02
     48.509  0.3553E+00  0.3356E+00  0.1069E+02  0.1067E+02
     48.730  0.2532E+00  0.2634E+00  0.1074E+02  0.1073E+02
     48.951  0.2021E+00  0.2127E+00  0.1079E+02  0.1077E+02
     49.171  0.1257E+00  0.1549E+00  0.1081E+02  0.1081E+02
     49.392  0.2361E+00  0.1954E+00  0.1087E+02  0.1085E+02
     49.613  0.3030E+00  0.3115E+00  0.1093E+02  0.1092E+02
     49.834  0.2501E+00  0.2785E+00  0.1099E+02  0.1098E+02
     50.054  0.9078E-01  0.1209E+00  0.1101E+02  0.1101E+02
     50.275  0.9896E-01  0.1006E+00  0.1103E+02  0.1103E+02
     50.496  0.2062E+00  0.1669E+00  0.1108E+02  0.1107E+02
     50.717  0.1872E+00  0.2128E+00  0.1112E+02  0.1111E+02
     50.937  0.2463E+00  0.2134E+00  0.1117E+02  0.1116E+02
     51.158  0.2772E+00  0.2950E+00  0.1123E+02  0.1123E+02
     51.379  0.8770E-01  0.1082E+00  0.1125E+02  0.1125E+02
     51.600  0.2272E-01  0.3535E-01  0.1126E+02  0.1126E+02
     51.820  0.1506E+00  0.1198E+00  0.1129E+02  0.1128E+02
     52.041  0.1512E+00  0.1661E+00  0.1132E+02  0.1132E+02
     52.262  0.7656E-01  0.8756E-01  0.1134E+02  0.1134E+02
     52.483  0.1773E+00  0.1077E+00  0.1138E+02  0.1136E+02
     52.703  0.1581E+00  0.2069E+00  0.1142E+02  0.1141E+02
     52.924  0.1034E+00  0.1273E+00  0.1144E+02  0.1144E+02
     53.145  0.1315E+00  0.9702E-01  0.1147E+02  0.1146E+02
     53.366  0.3807E+00  0.3128E+00  0.1155E+02  0.1153E+02
     53.586  0.2369E+00  0.3334E+00  0.1160E+02  0.1160E+02
     53.807  0.3177E-01  0.2465E-01  0.1161E+02  0.1161E+02
     54.028  0.3125E-01  0.4408E-01  0.1162E+02  0.1162E+02
     54.249  0.9914E-01  0.7986E-01  0.1164E+02  0.1163E+02
     54.469  0.1192E+00  0.1061E+00  0.1167E+02  0.1166E+02
     54.690  0.1369E+00  0.1233E+00  0.1170E+02  0.1168E+02
     54.911  0.2176E+00  0.2193E+00  0.1174E+02  0.1173E+02
     55.132  0.1380E+00  0.1573E+00  0.1177E+02  0.1177E+02
     55.352  0.4279E-01  0.7514E-01  0.1178E+02  0.1178E+02
     55.573  0.3122E-01  0.3035E-01  0.1179E+02  0.1179E+02
     55.794  0.7487E-01  0.4387E-01  0.1181E+02  0.1180E+02
     56.015  0.6873E-01  0.8046E-01  0.1182E+02  0.1182E+02
     56.235  0.7120E-01  0.8111E-01  0.1184E+02  0.1184E+02
     56.456  0.6811E-01  0.5590E-01  0.1185E+02  0.1185E+02
     56.677  0.7352E-01  0.8898E-01  0.1187E+02  0.1187E+02
     56.898  0.4798E-01  0.5425E-01  0.1188E+02  0.1188E+02
     57.118  0.8992E-01  0.8039E-01  0.1190E+02  0.1190E+02
     57.339  0.7199E-01  0.6853E-01  0.1192E+02  0.1191E+02
     57.560  0.1782E-01  0.3300E-01  0.1192E+02  0.1192E+02
     57.780  0.1136E-01  0.6827E-02  0.1192E+02  0.1192E+02
     58.001  0.3820E-02  0.2837E-02  0.1192E+02  0.1192E+02
     58.222  0.3383E-01  0.2893E-01  0.1193E+02  0.1193E+02
     58.443  0.4261E-01  0.4516E-01  0.1194E+02  0.1194E+02
     58.663  0.1847E-02  0.5371E-02  0.1194E+02  0.1194E+02
     58.884 -0.9387E-03 -0.1228E-02  0.1194E+02  0.1194E+02
     59.105  0.9511E-04 -0.2317E-03  0.1194E+02  0.1194E+02
     59.326  0.1792E-01  0.1734E-01  0.1194E+02  0.1194E+02
     59.546  0.1649E-01  0.1314E-01  0.1195E+02  0.1195E+02
     59.767  0.4089E-01  0.3953E-01  0.1196E+02  0.1196E+02
     59.988  0.2966E-01  0.4048E-01  0.1196E+02  0.1196E+02
     60.209  0.2979E-01  0.2582E-01  0.1197E+02  0.1197E+02
     60.429  0.2003E-01  0.1622E-01  0.1197E+02  0.1197E+02
     60.650  0.3632E-01  0.3828E-01  0.1198E+02  0.1198E+02
     60.871 -0.2757E-03  0.3869E-03  0.1198E+02  0.1198E+02
     61.092 -0.4191E-03 -0.4995E-03  0.1198E+02  0.1198E+02
     61.312 -0.3311E-03 -0.2858E-03  0.1198E+02  0.1198E+02
     61.533  0.9170E-03  0.4878E-03  0.1198E+02  0.1198E+02
     61.754  0.2006E-01  0.1983E-01  0.1199E+02  0.1199E+02
     61.975  0.8661E-02  0.7980E-02  0.1199E+02  0.1199E+02
     62.195  0.1994E-01 -0.1673E-02  0.1199E+02  0.1199E+02
     62.416  0.7485E-02  0.6881E-02  0.1199E+02  0.1199E+02
     62.637  0.2066E-01  0.2594E-01  0.1200E+02  0.1200E+02
     62.858  0.4825E-02  0.2161E-01  0.1200E+02  0.1200E+02
     63.078 -0.6595E-03  0.1157E-02  0.1200E+02  0.1200E+02
     63.299 -0.1448E-04 -0.3843E-03  0.1200E+02  0.1200E+02
     63.520 -0.1810E-07 -0.4164E-05  0.1200E+02  0.1200E+02
     63.741 -0.1730E-11 -0.2919E-08  0.1200E+02  0.1200E+02
     63.961 -0.1207E-16 -0.1601E-12  0.1200E+02  0.1200E+02
     64.182  0.0000E+00  0.0000E+00  0.1200E+02  0.1200E+02
     64.403  0.0000E+00  0.0000E+00  0.1200E+02  0.1200E+02
     64.624  0.0000E+00  0.0000E+00  0.1200E+02  0.1200E+02
     64.844  0.0000E+00  0.0000E+00  0.1200E+02  0.1200E+02
     65.065  0.0000E+00  0.0000E+00  0.1200E+02  0.1200E+02
     65.286  0.0000E+00  0.0000E+00  0.1200E+02  0.1200E+02
     65.507  0.0000E+00  0.0000E+00  0.1200E+02  0.1200E+02
     65.727  0.0000E+00  0.0000E+00  0.1200E+02  0.1200E+02
