    1    1    1    2
  0.8582031E+01  0.2298097E-09  0.2298097E-09  0.2298097E-09  0.5000000E-15
  1.000000000000000E-004
  CAR 
 fcc Ni                                  
     10    110     12
 
  0.5000000E-01  0.5000000E-01  0.5000000E-01  0.2000000E-02
    1        2.526011      2.513736   1.000000   1.000000
    2       10.040144     10.698776   1.000000   1.000000
    3       10.110812     10.773805   1.000000   1.000000
    4       10.110812     10.773805   1.000000   1.000000
    5       11.687131     12.263173   1.000000   1.000000
    6       11.687131     12.263173   1.000000   1.000000
    7       38.802039     38.706579   0.000000   0.000000
    8       43.245764     43.232784   0.000000   0.000000
    9       44.598046     44.583014   0.000000   0.000000
   10       44.598046     44.583014   0.000000   0.000000
   11       49.611320     49.682454   0.000000   0.000000
   12       49.611669     49.754716   0.000000   0.000000
 
  0.1500000E+00  0.5000000E-01  0.5000000E-01  0.6000000E-02
    1        3.137938      3.127373   1.000000   1.000000
    2        9.839748     10.481018   1.000000   1.000000
    3       10.252350     10.920212   1.000000   1.000000
    4       10.272010     10.933885   1.000000   1.000000
    5       11.534257     12.103800   1.000000   1.000000
    6       11.725222     12.305432   1.000000   1.000000
    7       37.371207     37.381118   0.000000   0.000000
    8       40.076044     40.059944   0.000000   0.000000
    9       43.185270     43.186934   0.000000   0.000000
   10       45.400773     45.389842   0.000000   0.000000
   11       48.302059     48.316134   0.000000   0.000000
   12       49.618546     49.686827   0.000000   0.000000
 
  0.2500000E+00  0.5000000E-01  0.5000000E-01  0.6000000E-02
    1        4.531154      4.536730   1.000000   1.000000
    2        9.565667     10.155878   1.000000   1.000000
    3       10.390293     11.023539   1.000000   1.000000
    4       10.436127     11.082518   1.000000   1.000000
    5       11.511354     12.105073   1.000000   1.000000
    6       11.892727     12.503931   1.000000   1.000007
    7       32.236929     32.359863   0.000000   0.000000
    8       38.699307     38.675697   0.000000   0.000000
    9       42.543619     42.569189   0.000000   0.000000
   10       45.291957     45.338014   0.000000   0.000000
   11       47.745479     47.742809   0.000000   0.000000
   12       48.653869     48.715971   0.000000   0.000000
 
  0.3500000E+00  0.5000000E-01  0.5000000E-01  0.6000000E-02
    1        6.127463      6.241870   1.000000   1.000000
    2        9.797992     10.231020   1.000000   1.000000
    3       10.252510     10.844470   1.000000   1.000000
    4       10.325531     10.920873   1.000000   1.000000
    5       11.932440     12.586607   1.000000   1.000088
    6       12.378829     13.028049   1.000000   0.990852
    7       26.896792     27.103062   0.000000   0.000000
    8       37.790989     37.752078   0.000000   0.000000
    9       41.430658     41.487339   0.000000   0.000000
   10       44.774847     44.884563   0.000000   0.000000
   11       46.144910     46.182219   0.000000   0.000000
   12       47.967404     47.989788   0.000000   0.000000
 
  0.4500000E+00  0.5000000E-01  0.5000000E-01  0.6000000E-02
    1        6.856189      7.184215   1.000000   1.000000
    2       10.054712     10.613982   1.000000   1.000000
    3       10.146614     10.719313   1.000000   1.000000
    4       11.129552     11.348107   1.000000   1.000000
    5       12.445861     13.136334   1.000001   0.713313
    6       13.039094     13.630404   0.975505  -0.003849
    7       22.488098     22.805192   0.000000   0.000000
    8       37.118338     37.050808   0.000000   0.000000
    9       40.899616     40.976005   0.000000   0.000000
   10       42.820607     42.916863   0.000000   0.000000
   11       45.770931     45.827271   0.000000   0.000000
   12       47.208306     47.250079   0.000000   0.000000
 
 -0.4500000E+00  0.5000000E-01  0.5000000E-01  0.6000000E-02
    1        6.943376      7.325871   1.000000   1.000000
    2        9.981815     10.533958   1.000000   1.000000
    3       10.101993     10.671633   1.000000   1.000000
    4       11.698855     11.952821   1.000000   1.000000
    5       12.685510     13.387035   1.001078  -0.024252
    6       13.474171     13.910781  -0.030727  -0.000002
    7       20.912406     21.303231   0.000000   0.000000
    8       36.987174     36.904861   0.000000   0.000000
    9       41.310831     41.400876   0.000000   0.000000
   10       41.392581     41.481561   0.000000   0.000000
   11       46.422652     46.470921   0.000000   0.000000
   12       46.481187     46.538156   0.000000   0.000000
 
 -0.3500000E+00  0.5000000E-01  0.5000000E-01  0.6000000E-02
    1        6.724981      6.993126   1.000000   1.000000
    2       10.091365     10.631107   1.000000   1.000000
    3       10.217548     10.800325   1.000000   1.000000
    4       10.601171     10.897635   1.000000   1.000000
    5       12.522691     13.207670   1.000013   0.420052
    6       12.597754     13.218329   1.000120   0.376066
    7       23.783622     24.058569   0.000000   0.000000
    8       37.542190     37.461669   0.000000   0.000000
    9       40.778683     40.873791   0.000000   0.000000
   10       42.911865     43.016574   0.000000   0.000000
   11       46.194497     46.229145   0.000000   0.000000
   12       47.877672     47.921135   0.000000   0.000000
 
 -0.2500000E+00  0.5000000E-01  0.5000000E-01  0.6000000E-02
    1        5.641874      5.699881   1.000000   1.000000
    2        9.590870     10.097706   1.000000   1.000000
    3       10.315616     10.915146   1.000000   1.000000
    4       10.391748     11.006187   1.000000   1.000000
    5       11.859293     12.491227   1.000000   1.000005
    6       12.103185     12.746823   1.000000   1.003839
    7       28.613745     28.790375   0.000000   0.000000
    8       38.577357     38.507847   0.000000   0.000000
    9       41.016365     41.111005   0.000000   0.000000
   10       45.015498     45.124316   0.000000   0.000000
   11       46.282393     46.287835   0.000000   0.000000
   12       49.751613     49.777587   0.000000   0.000000
 
 -0.1500000E+00  0.5000000E-01  0.5000000E-01  0.6000000E-02
    1        4.000533      3.996790   1.000000   1.000000
    2        9.627425     10.240429   1.000000   1.000000
    3       10.388421     11.040868   1.000000   1.000000
    4       10.402106     11.057666   1.000000   1.000000
    5       11.481480     12.062622   1.000000   1.000000
    6       11.789696     12.383458   1.000000   1.000000
    7       34.074511     34.170120   0.000000   0.000000
    8       39.623691     39.557640   0.000000   0.000000
    9       41.822109     41.896904   0.000000   0.000000
   10       45.380611     45.369767   0.000000   0.000000
   11       47.395573     47.458856   0.000000   0.000000
   12       51.237353     51.236427   0.000000   0.000000
 
 -0.5000000E-01  0.5000000E-01  0.5000000E-01  0.6000000E-02
    1        2.835374      2.823712   1.000000   1.000000
    2        9.913505     10.563703   1.000000   1.000000
    3       10.201886     10.867042   1.000000   1.000000
    4       10.206410     10.871396   1.000000   1.000000
    5       11.562390     12.132749   1.000000   1.000000
    6       11.738634     12.316709   1.000000   1.000000
    7       38.364403     38.311572   0.000000   0.000000
    8       41.601013     41.586063   0.000000   0.000000
    9       43.112706     43.145936   0.000000   0.000000
   10       44.349704     44.331684   0.000000   0.000000
   11       49.423838     49.472988   0.000000   0.000000
   12       50.677031     50.699741   0.000000   0.000000
 
  0.1500000E+00  0.1500000E+00  0.5000000E-01  0.6000000E-02
    1        3.435717      3.426022   1.000000   1.000000
    2        9.663946     10.298944   1.000000   1.000000
    3       10.392083     11.059845   1.000000   1.000000
    4       10.396293     11.065249   1.000000   1.000000
    5       11.343099     11.902738   1.000000   1.000000
    6       11.834328     12.416678   1.000000   1.000000
    7       37.585847     37.596666   0.000000   0.000000
    8       39.961321     39.942302   0.000000   0.000000
    9       41.077072     41.145703   0.000000   0.000000
   10       42.748485     42.743971   0.000000   0.000000
   11       50.482612     50.538816   0.000000   0.000000
   12       52.170932     52.134585   0.000000   0.000000
 
  0.2500000E+00  0.1500000E+00  0.5000000E-01  0.1200000E-01
    1        4.550511      4.550759   1.000000   1.000000
    2        9.337456      9.945919   1.000000   1.000000
    3       10.484993     11.105550   1.000000   1.000000
    4       10.674201     11.346200   1.000000   1.000000
    5       11.267063     11.843987   1.000000   1.000000
    6       12.019744     12.623316   1.000000   1.000238
    7       34.492026     34.587475   0.000000   0.000000
    8       36.864426     36.908985   0.000000   0.000000
    9       40.881180     40.899590   0.000000   0.000000
   10       42.454232     42.463223   0.000000   0.000000
   11       49.201123     49.386759   0.000000   0.000000
   12       50.963795     50.972420   0.000000   0.000000
 
  0.3500000E+00  0.1500000E+00  0.5000000E-01  0.1200000E-01
    1        6.116883      6.179955   1.000000   1.000000
    2        9.195021      9.733775   1.000000   1.000000
    3       10.171736     10.740150   1.000000   1.000000
    4       10.698632     11.319969   1.000000   1.000000
    5       11.852290     12.475013   1.000000   1.000003
    6       12.529385     13.165604   1.000016   0.596932
    7       29.001180     29.168435   0.000000   0.000000
    8       35.918533     35.968606   0.000000   0.000000
    9       39.244309     39.283343   0.000000   0.000000
   10       42.524106     42.594976   0.000000   0.000000
   11       49.428801     49.434829   0.000000   0.000000
   12       49.885610     49.967356   0.000000   0.000000
 
  0.4500000E+00  0.1500000E+00  0.5000000E-01  0.1200000E-01
    1        7.140890      7.421167   1.000000   1.000000
    2        9.626744     10.013628   1.000000   1.000000
    3       10.017187     10.557061   1.000000   1.000000
    4       10.532966     11.118609   1.000000   1.000000
    5       12.492918     13.169120   1.000005   0.582338
    6       13.668554     14.196363  -0.001794  -0.000000
    7       24.086542     24.341213   0.000000   0.000000
    8       35.372316     35.399304   0.000000   0.000000
    9       37.869055     37.951116   0.000000   0.000000
   10       41.377310     41.445842   0.000000   0.000000
   11       48.468086     48.501494   0.000000   0.000000
   12       50.991910     51.007110   0.000000   0.000000
 
 -0.4500000E+00  0.1500000E+00  0.5000000E-01  0.1200000E-01
    1        7.341642      7.742259   1.000000   1.000000
    2        9.603758     10.060132   1.000000   1.000000
    3       10.401593     10.973251   1.000000   1.000000
    4       10.632215     11.060467   1.000000   1.000000
    5       12.644673     13.348879   1.000410   0.009700
    6       15.194001     15.531938  -0.000000  -0.000000
    7       21.000685     21.368790   0.000000   0.000000
    8       34.839765     34.863191   0.000000   0.000000
    9       37.608783     37.708043   0.000000   0.000000
   10       40.911484     40.951037   0.000000   0.000000
   11       47.871690     47.922404   0.000000   0.000000
   12       50.670471     50.685480   0.000000   0.000000
 
 -0.3500000E+00  0.1500000E+00  0.5000000E-01  0.1200000E-01
    1        7.279988      7.622830   1.000000   1.000000
    2        9.713480     10.164394   1.000000   1.000000
    3       10.257920     10.700580   1.000000   1.000000
    4       10.459508     11.023526   1.000000   1.000000
    5       12.362912     13.052363   1.000000   0.953283
    6       14.368027     14.842511  -0.000000  -0.000000
    7       22.747536     23.042226   0.000000   0.000000
    8       34.363889     34.416453   0.000000   0.000000
    9       38.540768     38.601650   0.000000   0.000000
   10       41.824884     41.872961   0.000000   0.000000
   11       47.437795     47.490541   0.000000   0.000000
   12       50.278054     50.294511   0.000000   0.000000
 
 -0.2500000E+00  0.1500000E+00  0.5000000E-01  0.1200000E-01
    1        6.606727      6.724102   1.000000   1.000000
    2        9.385485      9.874721   1.000000   1.000000
    3       10.042651     10.604171   1.000000   1.000000
    4       10.622104     11.216367   1.000000   1.000000
    5       11.757062     12.407966   1.000000   1.000000
    6       13.063659     13.684635   0.930965  -0.001267
    7       27.286589     27.482037   0.000000   0.000000
    8       34.405668     34.477365   0.000000   0.000000
    9       40.272172     40.297153   0.000000   0.000000
   10       43.864163     43.923363   0.000000   0.000000
   11       47.150723     47.175611   0.000000   0.000000
   12       49.541223     49.571505   0.000000   0.000000
 
 -0.1500000E+00  0.1500000E+00  0.5000000E-01  0.1200000E-01
    1        5.064662      5.074802   1.000000   1.000000
    2        9.327101      9.922276   1.000000   1.000000
    3       10.354810     10.954840   1.000000   1.000000
    4       10.710990     11.378078   1.000000   1.000000
    5       11.256754     11.830802   1.000000   1.000000
    6       12.252685     12.877873   1.000000   1.025192
    7       32.627264     32.750832   0.000000   0.000000
    8       35.072526     35.140787   0.000000   0.000000
    9       42.538251     42.543372   0.000000   0.000000
   10       44.191194     44.180306   0.000000   0.000000
   11       47.959387     47.960597   0.000000   0.000000
   12       49.647485     49.765637   0.000000   0.000000
 
 -0.5000000E-01  0.1500000E+00  0.5000000E-01  0.1200000E-01
    1        3.724578      3.717056   1.000000   1.000000
    2        9.637100     10.263775   1.000000   1.000000
    3       10.390234     11.043485   1.000000   1.000000
    4       10.415797     11.086564   1.000000   1.000000
    5       11.376370     11.941117   1.000000   1.000000
    6       11.834520     12.424334   1.000000   1.000000
    7       35.980806     36.043759   0.000000   0.000000
    8       38.445538     38.455833   0.000000   0.000000
    9       42.367467     42.371173   0.000000   0.000000
   10       44.591899     44.578174   0.000000   0.000000
   11       48.506862     48.540209   0.000000   0.000000
   12       50.486205     50.519127   0.000000   0.000000
 
  0.2500000E+00  0.2500000E+00  0.5000000E-01  0.6000000E-02
    1        5.278981      5.293496   1.000000   1.000000
    2        8.944609      9.539247   1.000000   1.000000
    3       10.683466     11.224454   1.000000   1.000000
    4       11.028829     11.711541   1.000000   1.000000
    5       11.248112     11.890752   1.000000   1.000000
    6       12.131790     12.728208   1.000000   1.002674
    7       35.023707     35.111549   0.000000   0.000000
    8       36.913382     37.003301   0.000000   0.000000
    9       37.222968     37.238404   0.000000   0.000000
   10       38.906731     38.955642   0.000000   0.000000
   11       46.045662     46.261991   0.000000   0.000000
   12       55.110321     55.076985   0.000000   0.000000
 
  0.3500000E+00  0.2500000E+00  0.5000000E-01  0.1200000E-01
    1        6.446929      6.520902   1.000000   1.000000
    2        8.626745      9.196065   1.000000   1.000000
    3       10.373788     10.887892   1.000000   1.000000
    4       11.375879     12.041092   1.000000   1.000000
    5       11.903568     12.506166   1.000000   1.000008
    6       12.557464     13.186627   1.000038   0.508695
    7       31.603640     31.724643   0.000000   0.000000
    8       33.743269     33.828673   0.000000   0.000000
    9       35.900437     35.977607   0.000000   0.000000
   10       39.726092     39.784730   0.000000   0.000000
   11       45.655919     45.825630   0.000000   0.000000
   12       54.753632     54.747420   0.000000   0.000000
 
  0.4500000E+00  0.2500000E+00  0.5000000E-01  0.1200000E-01
    1        7.457714      7.690575   1.000000   1.000000
    2        8.621715      9.116962   1.000000   1.000000
    3       10.025035     10.536448   1.000000   1.000000
    4       11.265296     11.878491   1.000000   1.000000
    5       12.576175     13.253268   1.000066   0.241871
    6       14.128136     14.623768  -0.000000  -0.000000
    7       26.418972     26.601743   0.000000   0.000000
    8       32.627237     32.718059   0.000000   0.000000
    9       34.186270     34.286671   0.000000   0.000000
   10       40.016990     40.088699   0.000000   0.000000
   11       48.820702     48.925196   0.000000   0.000000
   12       53.393450     53.432464   0.000000   0.000000
 
 -0.4500000E+00  0.2500000E+00  0.5000000E-01  0.1200000E-01
    1        7.891764      8.308181   1.000000   1.000000
    2        8.827913      9.208960   1.000000   1.000000
    3        9.967532     10.492577   1.000000   1.000000
    4       11.072081     11.657709   1.000000   1.000000
    5       12.669894     13.382966   1.000753  -0.021902
    6       16.742501     17.073951  -0.000000  -0.000000
    7       22.119725     22.393644   0.000000   0.000000
    8       30.983178     31.098998   0.000000   0.000000
    9       34.474356     34.569639   0.000000   0.000000
   10       40.011106     40.065587   0.000000   0.000000
   11       51.065201     51.084207   0.000000   0.000000
   12       54.686339     54.768275   0.000000   0.000000
 
 -0.3500000E+00  0.2500000E+00  0.5000000E-01  0.1200000E-01
    1        8.080969      8.501749   1.000000   1.000000
    2        9.015539      9.394548   1.000000   1.000000
    3        9.788448     10.301972   1.000000   1.000000
    4       10.980027     11.548585   1.000000   1.000000
    5       12.319405     13.033747   1.000000   0.983281
    6       16.938810     17.282838  -0.000000  -0.000000
    7       22.145167     22.432621   0.000000   0.000000
    8       29.756738     29.887006   0.000000   0.000000
    9       35.940947     36.030550   0.000000   0.000000
   10       40.725770     40.764873   0.000000   0.000000
   11       50.031161     50.044684   0.000000   0.000000
   12       54.245329     54.242424   0.000000   0.000000
 
 -0.2500000E+00  0.2500000E+00  0.5000000E-01  0.1200000E-01
    1        7.831177      8.038200   1.000000   1.000000
    2        9.154935      9.669531   1.000000   1.000000
    3        9.483209      9.988227   1.000000   1.000000
    4       11.059795     11.609415   1.000000   1.000000
    5       11.695736     12.403761   1.000000   1.000000
    6       14.738739     15.262901  -0.000000  -0.000000
    7       26.432996     26.641461   0.000000   0.000000
    8       29.364962     29.497524   0.000000   0.000000
    9       38.052640     38.121626   0.000000   0.000000
   10       42.521952     42.566567   0.000000   0.000000
   11       48.219739     48.202120   0.000000   0.000000
   12       53.026697     53.036925   0.000000   0.000000
 
 -0.1500000E+00  0.2500000E+00  0.5000000E-01  0.1200000E-01
    1        6.586247      6.655262   1.000000   1.000000
    2        9.128589      9.688613   1.000000   1.000000
    3       10.004612     10.552637   1.000000   1.000000
    4       10.951329     11.540767   1.000000   1.000000
    5       11.343906     11.998305   1.000000   1.000000
    6       13.182007     13.803399   0.528226  -0.000062
    7       29.397335     29.565483   0.000000   0.000000
    8       31.965724     32.072234   0.000000   0.000000
    9       40.467201     40.504144   0.000000   0.000000
   10       44.815264     44.852063   0.000000   0.000000
   11       46.205987     46.198919   0.000000   0.000000
   12       51.090487     51.141439   0.000000   0.000000
 
 -0.5000000E-01  0.2500000E+00  0.5000000E-01  0.1200000E-01
    1        5.267489      5.292345   1.000000   1.000000
    2        9.416885      9.982230   1.000000   1.000000
    3       10.345660     10.947670   1.000000   1.000000
    4       10.528186     11.159239   1.000000   1.000000
    5       11.552241     12.165188   1.000000   1.000000
    6       12.170426     12.800193   1.000000   1.009586
    7       30.534258     30.682294   0.000000   0.000000
    8       37.330974     37.349845   0.000000   0.000000
    9       41.302252     41.326775   0.000000   0.000000
   10       45.105133     45.146169   0.000000   0.000000
   11       47.103747     47.142235   0.000000   0.000000
   12       49.257177     49.298658   0.000000   0.000000
 
  0.3500000E+00  0.3500000E+00  0.5000000E-01  0.6000000E-02
    1        6.827850      6.992212   1.000000   1.000000
    2        8.199982      8.756627   1.000000   1.000000
    3       11.232886     11.643828   1.000000   1.000000
    4       11.860440     12.556693   1.000000   1.000037
    5       12.339769     12.939443   1.000000   1.035389
    6       12.475467     13.100414   1.000003   0.836200
    7       31.680573     31.778184   0.000000   0.000000
    8       32.627911     32.730887   0.000000   0.000000
    9       33.386760     33.459294   0.000000   0.000000
   10       37.420301     37.530626   0.000000   0.000000
   11       43.073445     43.245332   0.000000   0.000000
   12       60.051922     59.998563   0.000000   0.000000
 
  0.4500000E+00  0.3500000E+00  0.5000000E-01  0.1200000E-01
    1        7.200757      7.461994   1.000000   1.000000
    2        8.015062      8.554642   1.000000   1.000000
    3       11.166404     11.665249   1.000000   1.000000
    4       12.157928     12.800564   1.000000   1.009640
    5       12.590894     13.268895   1.000099   0.188963
    6       14.254546     14.672949  -0.000000  -0.000000
    7       28.883000     29.015162   0.000000   0.000000
    8       29.858290     29.991370   0.000000   0.000000
    9       31.659261     31.737052   0.000000   0.000000
   10       38.640384     38.735723   0.000000   0.000000
   11       44.005187     44.155172   0.000000   0.000000
   12       58.295281     58.326105   0.000000   0.000000
 
 -0.4500000E+00  0.3500000E+00  0.5000000E-01  0.1200000E-01
    1        7.613910      7.954427   1.000000   1.000000
    2        8.151847      8.654509   1.000000   1.000000
    3       10.651419     11.173061   1.000000   1.000000
    4       11.896538     12.494498   1.000000   1.000005
    5       12.739287     13.473848   1.003325  -0.030790
    6       17.310801     17.611453  -0.000000  -0.000000
    7       24.578710     24.750899   0.000000   0.000000
    8       27.491349     27.670332   0.000000   0.000000
    9       31.955431     32.034662   0.000000   0.000000
   10       39.277440     39.364563   0.000000   0.000000
   11       48.128827     48.251343   0.000000   0.000000
   12       56.190057     56.213724   0.000000   0.000000
 
 -0.3500000E+00  0.3500000E+00  0.5000000E-01  0.1200000E-01
    1        8.140714      8.554250   1.000000   1.000000
    2        8.462485      8.891399   1.000000   1.000000
    3        9.987929     10.515057   1.000000   1.000000
    4       11.612831     12.174114   1.000000   1.000000
    5       12.450699     13.200074   1.000001   0.451881
    6       20.073840     20.318027   0.000000   0.000000
    7       21.392442     21.639927   0.000000   0.000000
    8       26.273733     26.466201   0.000000   0.000000
    9       33.448907     33.540041   0.000000   0.000000
   10       39.766537     39.832576   0.000000   0.000000
   11       53.465426     53.506568   0.000000   0.000000
   12       54.188885     54.259110   0.000000   0.000000
 
 -0.2500000E+00  0.3500000E+00  0.5000000E-01  0.1200000E-01
    1        8.415701      8.800383   1.000000   1.000000
    2        8.866570      9.268590   1.000000   1.000000
    3        9.443095      9.971031   1.000000   1.000000
    4       11.252565     11.802797   1.000000   1.000000
    5       12.095062     12.827865   1.000000   1.014275
    6       17.117277     17.486162  -0.000000  -0.000000
    7       23.723674     23.960478   0.000000   0.000000
    8       27.448812     27.608823   0.000000   0.000000
    9       35.688499     35.780552   0.000000   0.000000
   10       40.777575     40.821971   0.000000   0.000000
   11       50.862535     50.848878   0.000000   0.000000
   12       55.367315     55.352103   0.000000   0.000000
 
 -0.1500000E+00  0.3500000E+00  0.5000000E-01  0.1200000E-01
    1        7.569648      7.856596   1.000000   1.000000
    2        9.495030      9.883224   1.000000   1.000000
    3        9.680326     10.232977   1.000000   1.000000
    4       10.746173     11.317093   1.000000   1.000000
    5       12.031580     12.719694   1.000000   1.002251
    6       14.626101     15.133200  -0.000000  -0.000000
    7       24.454640     24.697026   0.000000   0.000000
    8       31.815348     31.919679   0.000000   0.000000
    9       38.188332     38.250711   0.000000   0.000000
   10       42.228607     42.269457   0.000000   0.000000
   11       47.950511     47.971927   0.000000   0.000000
   12       51.741367     51.752353   0.000000   0.000000
 
 -0.5000000E-01  0.3500000E+00  0.5000000E-01  0.1200000E-01
    1        6.648725      6.841610   1.000000   1.000000
    2        9.888054     10.261967   1.000000   1.000000
    3       10.094199     10.673698   1.000000   1.000000
    4       10.373645     10.961832   1.000000   1.000000
    5       12.165144     12.823209   1.000000   1.013402
    6       12.837769     13.463532   1.016237  -0.032671
    7       25.389641     25.622832   0.000000   0.000000
    8       36.647544     36.645197   0.000000   0.000000
    9       40.091588     40.139684   0.000000   0.000000
   10       43.220111     43.314456   0.000000   0.000000
   11       46.929077     46.967801   0.000000   0.000000
   12       48.901990     48.928689   0.000000   0.000000
 
  0.4500000E+00  0.4500000E+00  0.5000000E-01  0.6000000E-02
    1        6.975414      7.275020   1.000000   1.000000
    2        7.695635      8.228759   1.000000   1.000000
    3       12.410105     13.058607   1.000000   0.941339
    4       12.531513     13.168470   1.000017   0.585040
    5       12.768433     13.496637   1.005686  -0.025849
    6       14.799867     14.982747  -0.000000  -0.000000
    7       26.688681     26.897967   0.000000   0.000000
    8       30.229637     30.291878   0.000000   0.000000
    9       31.093205     31.134849   0.000000   0.000000
   10       36.955436     37.103858   0.000000   0.000000
   11       42.146141     42.308397   0.000000   0.000000
   12       62.545133     62.478514   0.000000   0.000000
 
 -0.4500000E+00  0.4500000E+00  0.5000000E-01  0.1200000E-01
    1        7.095936      7.418412   1.000000   1.000000
    2        7.714875      8.241352   1.000000   1.000000
    3       11.941980     12.543328   1.000000   1.000025
    4       12.504949     13.102958   1.000007   0.828414
    5       12.862303     13.632285   1.021598  -0.003715
    6       16.895069     17.070197  -0.000000  -0.000000
    7       25.035821     25.287152   0.000000   0.000000
    8       28.246838     28.339346   0.000000   0.000000
    9       30.271684     30.326062   0.000000   0.000000
   10       38.239405     38.355319   0.000000   0.000000
   11       43.509488     43.665347   0.000000   0.000000
   12       60.468634     60.479884   0.000000   0.000000
 
 -0.3500000E+00  0.4500000E+00  0.5000000E-01  0.1200000E-01
    1        7.553353      7.901457   1.000000   1.000000
    2        8.061166      8.568015   1.000000   1.000000
    3       10.871546     11.413060   1.000000   1.000000
    4       12.084341     12.664360   1.000000   1.000661
    5       12.717518     13.478494   1.002152  -0.029851
    6       18.792935     19.025758   0.000000   0.000000
    7       23.886082     24.068816   0.000000   0.000000
    8       25.838292     26.042968   0.000000   0.000000
    9       31.549918     31.624384   0.000000   0.000000
   10       39.164807     39.257005   0.000000   0.000000
   11       47.993083     48.123055   0.000000   0.000000
   12       57.088980     57.084790   0.000000   0.000000
 
 -0.2500000E+00  0.4500000E+00  0.5000000E-01  0.1200000E-01
    1        8.090083      8.528631   1.000000   1.000000
    2        8.559823      8.949527   1.000000   1.000000
    3        9.972570     10.498448   1.000000   1.000000
    4       11.379987     11.958158   1.000000   1.000000
    5       12.574397     13.303169   1.000062   0.092739
    6       18.614379     18.884579  -0.000000   0.000000
    7       21.533482     21.804496   0.000000   0.000000
    8       28.320557     28.476625   0.000000   0.000000
    9       33.781045     33.873174   0.000000   0.000000
   10       39.838506     39.899369   0.000000   0.000000
   11       52.362271     52.376733   0.000000   0.000000
   12       54.541171     54.659640   0.000000   0.000000
 
 -0.1500000E+00  0.4500000E+00  0.5000000E-01  0.1200000E-01
    1        7.692219      8.111001   1.000000   1.000000
    2        9.285594      9.688979   1.000000   1.000000
    3       10.206971     10.691197   1.000000   1.000000
    4       10.667347     11.241275   1.000000   1.000000
    5       12.534247     13.242080   1.000019   0.282734
    6       16.324039     16.639179  -0.000000  -0.000000
    7       21.116444     21.463540   0.000000   0.000000
    8       32.431768     32.519827   0.000000   0.000000
    9       36.495813     36.584620   0.000000   0.000000
   10       40.729606     40.763379   0.000000   0.000000
   11       48.932838     48.971374   0.000000   0.000000
   12       52.609556     52.616670   0.000000   0.000000
 
 -0.5000000E-01  0.4500000E+00  0.5000000E-01  0.1200000E-01
    1        7.059908      7.430928   1.000000   1.000000
    2        9.881213     10.399730   1.000000   1.000000