       N       E                     dE             d eps       ncg     rms          rms(c)
DAV:   1     0.179894567159E+02    0.17989E+02   -0.29329E+03  5976   0.671E+02
DAV:   2    -0.480248252409E+01   -0.22792E+02   -0.21412E+02  5812   0.122E+02
DAV:   3    -0.514611146992E+01   -0.34363E+00   -0.34318E+00  5984   0.164E+01
DAV:   4    -0.514754613157E+01   -0.14347E-02   -0.14346E-02  6064   0.947E-01
DAV:   5    -0.514756113323E+01   -0.15002E-04   -0.15002E-04  5696   0.883E-02    0.175E+01
DAV:   6    -0.513781200227E+01    0.97491E-02   -0.81072E+00  6828   0.383E+01    0.547E+00
DAV:   7    -0.501991090027E+01    0.11790E+00   -0.11050E+00  6692   0.123E+01    0.294E+00
DAV:   8    -0.499914637844E+01    0.20765E-01   -0.14575E-02  6268   0.940E-01    0.122E+00
DAV:   9    -0.499529067655E+01    0.38557E-02   -0.55185E-03  6868   0.509E-01    0.274E-01
DAV:  10    -0.499509216706E+01    0.19851E-03   -0.81701E-05  4316   0.100E-01    0.509E-02
DAV:  11    -0.499509231139E+01   -0.14434E-06   -0.16078E-05  2944   0.293E-02
   1 F= -.49950923E+01 E0= -.49943183E+01  d E =-.232202E-02  mag=     0.5709
