 vasp.5.4.4.18Apr17-6-g9f103f2a35 (build Jul 01 2019 03:25:34) complex          
  
 executed on             LinuxIFC date 2020.07.09  19:35:14
 running on    4 total cores
 distrk:  each k-point on    4 cores,    1 groups
 distr:  one band on NCORES_PER_BAND=   1 cores,    4 groups


--------------------------------------------------------------------------------------------------------


 INCAR:
 POTCAR:    PAW_PBE Ni 02Aug2007                  
 POTCAR:    PAW_PBE Ni 02Aug2007                  
   VRHFIN =Ni:                                                                  
   LEXCH  = PE                                                                  
   EATOM  =  1077.6739 eV,   79.2068 Ry                                         
                                                                                
   TITEL  = PAW_PBE Ni 02Aug2007                                                
   LULTRA =        F    use ultrasoft PP ?                                      
   IUNSCR =        1    unscreen: 0-lin 1-nonlin 2-no                           
   RPACOR =    2.000    partial core radius                                     
   POMASS =   58.690; ZVAL   =   10.000    mass and valenz                      
   RCORE  =    2.300    outmost cutoff radius                                   
   RWIGS  =    2.430; RWIGS  =    1.286    wigner-seitz radius (au A)           
   ENMAX  =  269.532; ENMIN  =  202.149 eV                                      
   RCLOC  =    1.201    cutoff for local pot                                    
   LCOR   =        T    correct aug charges                                     
   LPAW   =        T    paw PP                                                  
   EAUG   =  544.565                                                            
   DEXC   =    0.000                                                            
   RMAX   =    2.357    core radius for proj-oper                               
   RAUG   =    1.300    factor for augmentation sphere                          
   RDEP   =    2.390    radius for radial grids                                 
   RDEPT  =    1.838    core radius for aug-charge                              
                                                                                
   Atomic configuration                                                         
    9 entries                                                                   
     n  l   j            E        occ.                                          
     1  0  0.50     -8206.4253   2.0000                                         
     2  0  0.50      -976.1748   2.0000                                         
     2  1  1.50      -839.0571   6.0000                                         
     3  0  0.50      -105.9991   2.0000                                         
     3  1  1.50       -66.4603   6.0000                                         
     3  2  2.50        -4.6458   9.0000                                         
     4  0  0.50        -4.4926   1.0000                                         
     4  1  1.50        -4.0817   0.0000                                         
     4  3  2.50        -1.3606   0.0000                                         
   Description                                                                  
     l       E           TYP  RCUT    TYP  RCUT                                 
     2     -4.6457903     23  2.300                                             
     2     -6.0063729     23  2.300                                             
     0     -4.4925590     23  2.300                                             
     0      5.0102601     23  2.300                                             
     1     -2.7211652     23  2.300                                             
     1     16.5183231     23  2.300                                             
  local pseudopotential read in
  partial core-charges read in
  partial kinetic energy density read in
  atomic valenz-charges read in
  non local Contribution for L=           2  read in
    real space projection operators read in
  non local Contribution for L=           2  read in
    real space projection operators read in
  non local Contribution for L=           0  read in
    real space projection operators read in
  non local Contribution for L=           0  read in
    real space projection operators read in
  non local Contribution for L=           1  read in
    real space projection operators read in
  non local Contribution for L=           1  read in
    real space projection operators read in
    PAW grid and wavefunctions read in
 
   number of l-projection  operators is LMAX  =           6
   number of lm-projection operators is LMMAX =          18
 
  PAW_PBE Ni 02Aug2007                  :
 energy of atom  1       EATOM=-1077.6739
 kinetic energy error for atom=    0.0378 (will be added to EATOM!!)
 
 
 POSCAR: FCC Ni Bulk                             
  positions in direct lattice
  No initial velocities read in
 exchange correlation table for  LEXCH =        8
   RHO(1)=    0.500       N(1)  =     2000
   RHO(2)=  100.500       N(2)  =     4000
 


--------------------------------------------------------------------------------------------------------


 ion  position               nearest neighbor table
   1  0.000  0.000  0.000-
 
  LATTYP: Found a face centered cubic cell.
 ALAT       =     3.2500000000
  
  Lattice vectors:
  
 A1 = (   0.0000000000,   1.6250000000,   1.6250000000)
 A2 = (   1.6250000000,   0.0000000000,   1.6250000000)
 A3 = (   1.6250000000,   1.6250000000,   0.0000000000)


Analysis of symmetry for initial positions (statically):
=====================================================================
 Subroutine PRICEL returns:
 Original cell was already a primitive cell.
 

 Routine SETGRP: Setting up the symmetry group for a 
 face centered cubic supercell.


 Subroutine GETGRP returns: Found 48 space group operations
 (whereof 48 operations were pure point group operations)
 out of a pool of 48 trial point group operations.


The static configuration has the point symmetry O_h .


Analysis of symmetry for dynamics (positions and initial velocities):
=====================================================================
 Subroutine PRICEL returns:
 Original cell was already a primitive cell.
 

 Routine SETGRP: Setting up the symmetry group for a 
 face centered cubic supercell.


 Subroutine GETGRP returns: Found 48 space group operations
 (whereof 48 operations were pure point group operations)
 out of a pool of 48 trial point group operations.


The dynamic configuration has the point symmetry O_h .


Analysis of structural, dynamic, and magnetic symmetry:
=====================================================================
 Subroutine PRICEL returns:
 Original cell was already a primitive cell.
 

 Routine SETGRP: Setting up the symmetry group for a 
 face centered cubic supercell.


 Subroutine GETGRP returns: Found 48 space group operations
 (whereof 48 operations were pure point group operations)
 out of a pool of 48 trial point group operations.


The magnetic configuration has the point symmetry O_h .


 Subroutine INISYM returns: Found 48 space group operations
 (whereof 48 operations are pure point group operations),
 and found     1 'primitive' translations

 
 
 KPOINTS: 10x10x10                                

Automatic generation of k-mesh.
Space group operators:
 irot       det(A)        alpha          n_x          n_y          n_z        tau_x        tau_y        tau_z
    1     1.000000     0.000001     1.000000     0.000000     0.000000     0.000000     0.000000     0.000000
    2    -1.000000     0.000001     1.000000     0.000000     0.000000     0.000000     0.000000     0.000000
    3     1.000000   120.000000    -0.577350    -0.577350    -0.577350     0.000000     0.000000     0.000000
    4    -1.000000   120.000000    -0.577350    -0.577350    -0.577350     0.000000     0.000000     0.000000
    5     1.000000   120.000000     0.577350     0.577350     0.577350     0.000000     0.000000     0.000000
    6    -1.000000   120.000000     0.577350     0.577350     0.577350     0.000000     0.000000     0.000000
    7     1.000000    90.000000     0.000000     0.000000    -1.000000     0.000000     0.000000     0.000000
    8    -1.000000    90.000000     0.000000     0.000000    -1.000000     0.000000     0.000000     0.000000
    9     1.000000   180.000000     0.000000     0.707107     0.707107     0.000000     0.000000     0.000000
   10    -1.000000   180.000000     0.000000     0.707107     0.707107     0.000000     0.000000     0.000000
   11     1.000000    90.000000     0.000000     1.000000     0.000000     0.000000     0.000000     0.000000
   12    -1.000000    90.000000     0.000000     1.000000     0.000000     0.000000     0.000000     0.000000
   13     1.000000   180.000000     0.000000     0.000000     1.000000     0.000000     0.000000     0.000000
   14    -1.000000   180.000000     0.000000     0.000000     1.000000     0.000000     0.000000     0.000000
   15     1.000000   120.000000    -0.577350     0.577350     0.577350     0.000000     0.000000     0.000000
   16    -1.000000   120.000000    -0.577350     0.577350     0.577350     0.000000     0.000000     0.000000
   17     1.000000   120.000000    -0.577350     0.577350    -0.577350     0.000000     0.000000     0.000000
   18    -1.000000   120.000000    -0.577350     0.577350    -0.577350     0.000000     0.000000     0.000000
   19     1.000000    90.000000     0.000000     0.000000     1.000000     0.000000     0.000000     0.000000
   20    -1.000000    90.000000     0.000000     0.000000     1.000000     0.000000     0.000000     0.000000
   21     1.000000    90.000000    -1.000000     0.000000     0.000000     0.000000     0.000000     0.000000
   22    -1.000000    90.000000    -1.000000     0.000000     0.000000     0.000000     0.000000     0.000000
   23     1.000000   180.000000     0.707107     0.000000     0.707107     0.000000     0.000000     0.000000
   24    -1.000000   180.000000     0.707107     0.000000     0.707107     0.000000     0.000000     0.000000
   25     1.000000   120.000000     0.577350    -0.577350     0.577350     0.000000     0.000000     0.000000
   26    -1.000000   120.000000     0.577350    -0.577350     0.577350     0.000000     0.000000     0.000000
   27     1.000000   120.000000    -0.577350    -0.577350     0.577350     0.000000     0.000000     0.000000
   28    -1.000000   120.000000    -0.577350    -0.577350     0.577350     0.000000     0.000000     0.000000
   29     1.000000   180.000000     1.000000     0.000000     0.000000     0.000000     0.000000     0.000000
   30    -1.000000   180.000000     1.000000     0.000000     0.000000     0.000000     0.000000     0.000000
   31     1.000000    90.000000     0.000000    -1.000000     0.000000     0.000000     0.000000     0.000000
   32    -1.000000    90.000000     0.000000    -1.000000     0.000000     0.000000     0.000000     0.000000
   33     1.000000   180.000000     0.707107     0.707107     0.000000     0.000000     0.000000     0.000000
   34    -1.000000   180.000000     0.707107     0.707107     0.000000     0.000000     0.000000     0.000000
   35     1.000000    90.000000     1.000000     0.000000     0.000000     0.000000     0.000000     0.000000
   36    -1.000000    90.000000     1.000000     0.000000     0.000000     0.000000     0.000000     0.000000
   37     1.000000   120.000000     0.577350    -0.577350    -0.577350     0.000000     0.000000     0.000000
   38    -1.000000   120.000000     0.577350    -0.577350    -0.577350     0.000000     0.000000     0.000000
   39     1.000000   180.000000     0.000000     1.000000     0.000000     0.000000     0.000000     0.000000
   40    -1.000000   180.000000     0.000000     1.000000     0.000000     0.000000     0.000000     0.000000
   41     1.000000   120.000000     0.577350     0.577350    -0.577350     0.000000     0.000000     0.000000
   42    -1.000000   120.000000     0.577350     0.577350    -0.577350     0.000000     0.000000     0.000000
   43     1.000000   180.000000     0.000000    -0.707107     0.707107     0.000000     0.000000     0.000000
   44    -1.000000   180.000000     0.000000    -0.707107     0.707107     0.000000     0.000000     0.000000
   45     1.000000   180.000000     0.707107    -0.707107     0.000000     0.000000     0.000000     0.000000
   46    -1.000000   180.000000     0.707107    -0.707107     0.000000     0.000000     0.000000     0.000000
   47     1.000000   180.000000     0.707107     0.000000    -0.707107     0.000000     0.000000     0.000000
   48    -1.000000   180.000000     0.707107     0.000000    -0.707107     0.000000     0.000000     0.000000
 
 Subroutine IBZKPT returns following result:
 ===========================================
 
 Found    110 irreducible k-points:
 
 Following reciprocal coordinates:
            Coordinates               Weight
  0.050000  0.050000  0.050000     96.000000
  0.150000  0.050000  0.050000    288.000000
  0.250000  0.050000  0.050000    288.000000
  0.350000  0.050000  0.050000    288.000000
  0.450000  0.050000  0.050000    288.000000
 -0.450000  0.050000  0.050000    288.000000
 -0.350000  0.050000  0.050000    288.000000
 -0.250000  0.050000  0.050000    288.000000
 -0.150000  0.050000  0.050000    288.000000
 -0.050000  0.050000  0.050000    288.000000
  0.150000  0.150000  0.050000    288.000000
  0.250000  0.150000  0.050000    576.000000
  0.350000  0.150000  0.050000    576.000000
  0.450000  0.150000  0.050000    576.000000
 -0.450000  0.150000  0.050000    576.000000
 -0.350000  0.150000  0.050000    576.000000
 -0.250000  0.150000  0.050000    576.000000
 -0.150000  0.150000  0.050000    576.000000
 -0.050000  0.150000  0.050000    576.000000
  0.250000  0.250000  0.050000    288.000000
  0.350000  0.250000  0.050000    576.000000
  0.450000  0.250000  0.050000    576.000000
 -0.450000  0.250000  0.050000    576.000000
 -0.350000  0.250000  0.050000    576.000000
 -0.250000  0.250000  0.050000    576.000000
 -0.150000  0.250000  0.050000    576.000000
 -0.050000  0.250000  0.050000    576.000000
  0.350000  0.350000  0.050000    288.000000
  0.450000  0.350000  0.050000    576.000000
 -0.450000  0.350000  0.050000    576.000000
 -0.350000  0.350000  0.050000    576.000000
 -0.250000  0.350000  0.050000    576.000000
 -0.150000  0.350000  0.050000    576.000000
 -0.050000  0.350000  0.050000    576.000000
  0.450000  0.450000  0.050000    288.000000
 -0.450000  0.450000  0.050000    576.000000
 -0.350000  0.450000  0.050000    576.000000
 -0.250000  0.450000  0.050000    576.000000
 -0.150000  0.450000  0.050000    576.000000
 -0.050000  0.450000  0.050000    576.000000
 -0.450000 -0.450000  0.050000    288.000000
 -0.350000 -0.450000  0.050000    576.000000
 -0.250000 -0.450000  0.050000    576.000000
 -0.150000 -0.450000  0.050000    576.000000
 -0.350000 -0.350000  0.050000    288.000000
 -0.250000 -0.350000  0.050000    576.000000
 -0.150000 -0.350000  0.050000    576.000000
 -0.250000 -0.250000  0.050000    288.000000
 -0.150000 -0.250000  0.050000    576.000000
 -0.150000 -0.150000  0.050000    288.000000
  0.150000  0.150000  0.150000     96.000000
  0.250000  0.150000  0.150000    288.000000
  0.350000  0.150000  0.150000    288.000000
  0.450000  0.150000  0.150000    288.000000
 -0.450000  0.150000  0.150000    288.000000
 -0.350000  0.150000  0.150000    288.000000
 -0.250000  0.150000  0.150000    288.000000
 -0.150000  0.150000  0.150000    288.000000
  0.250000  0.250000  0.150000    288.000000
  0.350000  0.250000  0.150000    576.000000
  0.450000  0.250000  0.150000    576.000000
 -0.450000  0.250000  0.150000    576.000000
 -0.350000  0.250000  0.150000    576.000000
 -0.250000  0.250000  0.150000    576.000000
 -0.150000  0.250000  0.150000    576.000000
  0.350000  0.350000  0.150000    288.000000
  0.450000  0.350000  0.150000    576.000000
 -0.450000  0.350000  0.150000    576.000000
 -0.350000  0.350000  0.150000    576.000000
 -0.250000  0.350000  0.150000    576.000000
 -0.150000  0.350000  0.150000    576.000000
  0.450000  0.450000  0.150000    288.000000
 -0.450000  0.450000  0.150000    576.000000
 -0.350000  0.450000  0.150000    576.000000
 -0.250000  0.450000  0.150000    576.000000
 -0.150000  0.450000  0.150000    576.000000
 -0.450000 -0.450000  0.150000    288.000000
 -0.350000 -0.450000  0.150000    576.000000
 -0.250000 -0.450000  0.150000    576.000000
 -0.350000 -0.350000  0.150000    288.000000
 -0.250000 -0.350000  0.150000    576.000000
 -0.250000 -0.250000  0.150000    288.000000
  0.250000  0.250000  0.250000     96.000000
  0.350000  0.250000  0.250000    288.000000
  0.450000  0.250000  0.250000    288.000000
 -0.450000  0.250000  0.250000    288.000000
 -0.350000  0.250000  0.250000    288.000000
 -0.250000  0.250000  0.250000    288.000000
  0.350000  0.350000  0.250000    288.000000
  0.450000  0.350000  0.250000    576.000000
 -0.450000  0.350000  0.250000    576.000000
 -0.350000  0.350000  0.250000    576.000000
 -0.250000  0.350000  0.250000    576.000000
  0.450000  0.450000  0.250000    288.000000
 -0.450000  0.450000  0.250000    576.000000
 -0.350000  0.450000  0.250000    576.000000
 -0.250000  0.450000  0.250000    576.000000
 -0.450000 -0.450000  0.250000    288.000000
 -0.350000 -0.450000  0.250000    576.000000
 -0.350000 -0.350000  0.250000    288.000000
  0.350000  0.350000  0.350000     96.000000
  0.450000  0.350000  0.350000    288.000000
 -0.450000  0.350000  0.350000    288.000000
 -0.350000  0.350000  0.350000    288.000000
  0.450000  0.450000  0.350000    288.000000
 -0.450000  0.450000  0.350000    576.000000
 -0.350000  0.450000  0.350000    576.000000
 -0.450000 -0.450000  0.350000    288.000000
  0.450000  0.450000  0.450000     96.000000
 -0.450000  0.450000  0.450000    288.000000
 
 Following cartesian coordinates:
            Coordinates               Weight
  0.050000  0.050000  0.050000     96.000000
 -0.050000  0.150000  0.150000    288.000000
 -0.150000  0.250000  0.250000    288.000000
 -0.250000  0.350000  0.350000    288.000000
 -0.350000  0.450000  0.450000    288.000000
  0.550000 -0.450000 -0.450000    288.000000
  0.450000 -0.350000 -0.350000    288.000000
  0.350000 -0.250000 -0.250000    288.000000
  0.250000 -0.150000 -0.150000    288.000000
  0.150000 -0.050000 -0.050000    288.000000
  0.050000  0.050000  0.250000    288.000000
 -0.050000  0.150000  0.350000    576.000000
 -0.150000  0.250000  0.450000    576.000000
 -0.250000  0.350000  0.550000    576.000000
  0.650000 -0.550000 -0.350000    576.000000
  0.550000 -0.450000 -0.250000    576.000000
  0.450000 -0.350000 -0.150000    576.000000
  0.350000 -0.250000 -0.050000    576.000000
  0.250000 -0.150000  0.050000    576.000000
  0.050000  0.050000  0.450000    288.000000
 -0.050000  0.150000  0.550000    576.000000
 -0.150000  0.250000  0.650000    576.000000
  0.750000 -0.650000 -0.250000    576.000000
  0.650000 -0.550000 -0.150000    576.000000
  0.550000 -0.450000 -0.050000    576.000000
  0.450000 -0.350000  0.050000    576.000000
  0.350000 -0.250000  0.150000    576.000000
  0.050000  0.050000  0.650000    288.000000
 -0.050000  0.150000  0.750000    576.000000
  0.850000 -0.750000 -0.150000    576.000000
  0.750000 -0.650000 -0.050000    576.000000
  0.650000 -0.550000  0.050000    576.000000
  0.550000 -0.450000  0.150000    576.000000
  0.450000 -0.350000  0.250000    576.000000
  0.050000  0.050000  0.850000    288.000000
  0.950000 -0.850000 -0.050000    576.000000
  0.850000 -0.750000  0.050000    576.000000
  0.750000 -0.650000  0.150000    576.000000
  0.650000 -0.550000  0.250000    576.000000
  0.550000 -0.450000  0.350000    576.000000
  0.050000  0.050000 -0.950000    288.000000
 -0.050000  0.150000 -0.850000    576.000000
 -0.150000  0.250000 -0.750000    576.000000
 -0.250000  0.350000 -0.650000    576.000000
  0.050000  0.050000 -0.750000    288.000000
 -0.050000  0.150000 -0.650000    576.000000
 -0.150000  0.250000 -0.550000    576.000000
  0.050000  0.050000 -0.550000    288.000000
 -0.050000  0.150000 -0.450000    576.000000
  0.050000  0.050000 -0.350000    288.000000
  0.150000  0.150000  0.150000     96.000000
  0.050000  0.250000  0.250000    288.000000
 -0.050000  0.350000  0.350000    288.000000
 -0.150000  0.450000  0.450000    288.000000
  0.750000 -0.450000 -0.450000    288.000000
  0.650000 -0.350000 -0.350000    288.000000
  0.550000 -0.250000 -0.250000    288.000000
  0.450000 -0.150000 -0.150000    288.000000
  0.150000  0.150000  0.350000    288.000000
  0.050000  0.250000  0.450000    576.000000
 -0.050000  0.350000  0.550000    576.000000
  0.850000 -0.550000 -0.350000    576.000000
  0.750000 -0.450000 -0.250000    576.000000
  0.650000 -0.350000 -0.150000    576.000000
  0.550000 -0.250000 -0.050000    576.000000
  0.150000  0.150000  0.550000    288.000000
  0.050000  0.250000  0.650000    576.000000
  0.950000 -0.650000 -0.250000    576.000000
  0.850000 -0.550000 -0.150000    576.000000
  0.750000 -0.450000 -0.050000    576.000000
  0.650000 -0.350000  0.050000    576.000000
  0.150000  0.150000  0.750000    288.000000
  1.050000 -0.750000 -0.150000    576.000000
  0.950000 -0.650000 -0.050000    576.000000
  0.850000 -0.550000  0.050000    576.000000
  0.750000 -0.450000  0.150000    576.000000
  0.150000  0.150000 -1.050000    288.000000
  0.050000  0.250000 -0.950000    576.000000
 -0.050000  0.350000 -0.850000    576.000000
  0.150000  0.150000 -0.850000    288.000000
  0.050000  0.250000 -0.750000    576.000000
  0.150000  0.150000 -0.650000    288.000000
  0.250000  0.250000  0.250000     96.000000
  0.150000  0.350000  0.350000    288.000000
  0.050000  0.450000  0.450000    288.000000
  0.950000 -0.450000 -0.450000    288.000000
  0.850000 -0.350000 -0.350000    288.000000
  0.750000 -0.250000 -0.250000    288.000000
  0.250000  0.250000  0.450000    288.000000
  0.150000  0.350000  0.550000    576.000000
  1.050000 -0.550000 -0.350000    576.000000
  0.950000 -0.450000 -0.250000    576.000000
  0.850000 -0.350000 -0.150000    576.000000
  0.250000  0.250000  0.650000    288.000000
  1.150000 -0.650000 -0.250000    576.000000
  1.050000 -0.550000 -0.150000    576.000000
  0.950000 -0.450000 -0.050000    576.000000
  0.250000  0.250000 -1.150000    288.000000
  0.150000  0.350000 -1.050000    576.000000
  0.250000  0.250000 -0.950000    288.000000
  0.350000  0.350000  0.350000     96.000000
  0.250000  0.450000  0.450000    288.000000
  1.150000 -0.450000 -0.450000    288.000000
  1.050000 -0.350000 -0.350000    288.000000
  0.350000  0.350000  0.550000    288.000000
  1.250000 -0.550000 -0.350000    576.000000
  1.150000 -0.450000 -0.250000    576.000000
  0.350000  0.350000 -1.250000    288.000000
  0.450000  0.450000  0.450000     96.000000
  1.350000 -0.450000 -0.450000    288.000000
 


--------------------------------------------------------------------------------------------------------




 Dimension of arrays:
   k-points           NKPTS =    110   k-points in BZ     NKDIM =    110   number of bands    NBANDS=     12
   number of dos      NEDOS =    301   number of ions     NIONS =      1
   non local maximal  LDIM  =      6   non local SUM 2l+1 LMDIM =     18
   total plane-waves  NPLWV =   1000
   max r-space proj   IRMAX =      1   max aug-charges    IRDMAX=   3976
   dimension x,y,z NGX =    10 NGY =   10 NGZ =   10
   dimension x,y,z NGXF=    20 NGYF=   20 NGZF=   20
   support grid    NGXF=    20 NGYF=   20 NGZF=   20
   ions per type =               1
   NGX,Y,Z   is equivalent  to a cutoff of   7.23,  7.23,  7.23 a.u.
   NGXF,Y,Z  is equivalent  to a cutoff of  14.47, 14.47, 14.47 a.u.

 SYSTEM =  fcc Ni                                  
 POSCAR =  FCC Ni Bulk                             

 Startparameter for this run:
   NWRITE =      2    write-flag & timer
   PREC   = normal    normal or accurate (medium, high low for compatibility)
   ISTART =      0    job   : 0-new  1-cont  2-samecut
   ICHARG =      2    charge: 1-file 2-atom 10-const
   ISPIN  =      2    spin polarized calculation?
   LNONCOLLINEAR =      F non collinear calculations
   LSORBIT =      F    spin-orbit coupling
   INIWAV =      1    electr: 0-lowe 1-rand  2-diag
   LASPH  =      F    aspherical Exc in radial PAW
   METAGGA=      F    non-selfconsistent MetaGGA calc.

 Electronic Relaxation 1
   ENCUT  =  270.0 eV  19.84 Ry    4.45 a.u.   3.08  3.08  3.08*2*pi/ulx,y,z
   ENINI  =  270.0     initial cutoff
   ENAUG  =  544.6 eV  augmentation charge cutoff
   NELM   =     60;   NELMIN=  2; NELMDL= -5     # of ELM steps 
   EDIFF  = 0.1E-03   stopping-criterion for ELM
   LREAL  =      F    real-space projection
   NLSPLINE    = F    spline interpolate recip. space projectors
   LCOMPAT=      F    compatible to vasp.4.4
   GGA_COMPAT  = T    GGA compatible to vasp.4.4-vasp.4.6
   LMAXPAW     = -100 max onsite density
   LMAXMIX     =    2 max onsite mixed and CHGCAR
   VOSKOWN=      0    Vosko Wilk Nusair interpolation
   ROPT   =    0.00000
 Ionic relaxation
   EDIFFG = 0.1E-02   stopping-criterion for IOM
   NSW    =      0    number of steps for IOM
   NBLOCK =      1;   KBLOCK =      1    inner block; outer block 
   IBRION =     -1    ionic relax: 0-MD 1-quasi-New 2-CG
   NFREE  =      0    steps in history (QN), initial steepest desc. (CG)
   ISIF   =      2    stress and relaxation
   IWAVPR =     10    prediction:  0-non 1-charg 2-wave 3-comb
   ISYM   =      2    0-nonsym 1-usesym 2-fastsym
   LCORR  =      T    Harris-Foulkes like correction to forces

   POTIM  = 0.5000    time-step for ionic-motion
   TEIN   =    0.0    initial temperature
   TEBEG  =    0.0;   TEEND  =   0.0 temperature during run
   SMASS  =  -3.00    Nose mass-parameter (am)
   estimated Nose-frequenzy (Omega)   =  0.10E-29 period in steps =****** mass=  -0.121E-27a.u.
   SCALEE = 1.0000    scale energy and forces
   NPACO  =    256;   APACO  = 16.0  distance and # of slots for P.C.
   PSTRESS=    0.0 pullay stress

  Mass of Ions in am
   POMASS =  58.69
  Ionic Valenz
   ZVAL   =  10.00
  Atomic Wigner-Seitz radii
   RWIGS  =  -1.00
  virtual crystal weights 
   VCA    =   1.00
   NELECT =      10.0000    total number of electrons
   NUPDOWN=      -1.0000    fix difference up-down

 DOS related values:
   EMIN   =  10.00;   EMAX   =-10.00  energy-range for DOS
   EFERMI =   0.00
   ISMEAR =     1;   SIGMA  =   0.20  broadening in eV -4-tet -1-fermi 0-gaus

 Electronic relaxation 2 (details)
   IALGO  =     38    algorithm
   LDIAG  =      T    sub-space diagonalisation (order eigenvalues)
   LSUBROT=      F    optimize rotation matrix (better conditioning)
   TURBO    =      0    0=normal 1=particle mesh
   IRESTART =      0    0=no restart 2=restart with 2 vectors
   NREBOOT  =      0    no. of reboots
   NMIN     =      0    reboot dimension
   EREF     =   0.00    reference energy to select bands
   IMIX   =      4    mixing-type and parameters
     AMIX     =   0.40;   BMIX     =  1.00
     AMIX_MAG =   1.60;   BMIX_MAG =  1.00
     AMIN     =   0.10
     WC   =   100.;   INIMIX=   1;  MIXPRE=   1;  MAXMIX= -45

 Intra band minimization:
   WEIMIN = 0.0000     energy-eigenvalue tresh-hold
   EBREAK =  0.21E-05  absolut break condition
   DEPER  =   0.30     relativ break condition  

   TIME   =   0.40     timestep for ELM

  volume/ion in A,a.u.               =       8.58        57.91
  Fermi-wavevector in a.u.,A,eV,Ry     =   1.722707  3.255445 40.378283  2.967720
  Thomas-Fermi vector in A             =   2.798721
 
 Write flags
   LWAVE        =      T    write WAVECAR
   LDOWNSAMPLE  =      F    k-point downsampling of WAVECAR
   LCHARG       =      T    write CHGCAR
   LVTOT        =      F    write LOCPOT, total local potential
   LVHAR        =      F    write LOCPOT, Hartree potential only
   LELF         =      F    write electronic localiz. function (ELF)
   LORBIT       =      0    0 simple, 1 ext, 2 COOP (PROOUT), +10 PAW based schemes


 Dipole corrections
   LMONO  =      F    monopole corrections only (constant potential shift)
   LDIPOL =      F    correct potential (dipole corrections)
   IDIPOL =      0    1-x, 2-y, 3-z, 4-all directions 
   EPSILON=  1.0000000 bulk dielectric constant

 Exchange correlation treatment:
   GGA     =    --    GGA type
   LEXCH   =     8    internal setting for exchange type
   VOSKOWN=      0    Vosko Wilk Nusair interpolation
   LHFCALC =     F    Hartree Fock is set to
   LHFONE  =     F    Hartree Fock one center treatment
   AEXX    =    0.0000 exact exchange contribution

 Linear response parameters
   LEPSILON=     F    determine dielectric tensor
   LRPA    =     F    only Hartree local field effects (RPA)
   LNABLA  =     F    use nabla operator in PAW spheres
   LVEL    =     F    velocity operator in full k-point grid
   LINTERFAST=   F  fast interpolation
   KINTER  =     0    interpolate to denser k-point grid
   CSHIFT  =0.1000    complex shift for real part using Kramers Kronig
   OMEGAMAX=  -1.0    maximum frequency
   DEG_THRESHOLD= 0.2000000E-02 threshold for treating states as degnerate
   RTIME   =   -0.100 relaxation time in fs
  (WPLASMAI=    0.000 imaginary part of plasma frequency in eV, 0.658/RTIME)
   DFIELD  = 0.0000000 0.0000000 0.0000000 field for delta impulse in time
 
 Orbital magnetization related:
   ORBITALMAG=     F  switch on orbital magnetization
   LCHIMAG   =     F  perturbation theory with respect to B field
   DQ        =  0.001000  dq finite difference perturbation B field
   LLRAUG    =     F  two centre corrections for induced B field



--------------------------------------------------------------------------------------------------------


 Static calculation
 charge density and potential will be updated during run
 spin polarized calculation
 Variant of blocked Davidson
 Davidson routine will perform the subspace rotation
 perform sub-space diagonalisation
    after iterative eigenvector-optimisation
 modified Broyden-mixing scheme, WC =      100.0
 initial mixing is a Kerker type mixing with AMIX =  0.4000 and BMIX =      1.0000
 Hartree-type preconditioning will be used
 using additional bands            7
 reciprocal scheme for non local part
 use partial core corrections
 calculate Harris-corrections to forces 
   (improved forces if not selfconsistent)
 use gradient corrections 
 use of overlap-Matrix (Vanderbilt PP)
 Methfessel and Paxton  Order N= 1 SIGMA  =   0.20


--------------------------------------------------------------------------------------------------------


  energy-cutoff  :      270.00
  volume of cell :        8.58
      direct lattice vectors                 reciprocal lattice vectors
     0.000000000  1.625000000  1.625000000    -0.307692308  0.307692308  0.307692308
     1.625000000  0.000000000  1.625000000     0.307692308 -0.307692308  0.307692308
     1.625000000  1.625000000  0.000000000     0.307692308  0.307692308 -0.307692308

  length of vectors
     2.298097039  2.298097039  2.298097039     0.532938710  0.532938710  0.532938710


 
 k-points in units of 2pi/SCALE and weight: 10x10x10                                
   0.05000000  0.05000000  0.05000000       0.002
  -0.05000000  0.15000000  0.15000000       0.006
  -0.15000000  0.25000000  0.25000000       0.006
  -0.25000000  0.35000000  0.35000000       0.006
  -0.35000000  0.45000000  0.45000000       0.006
   0.55000000 -0.45000000 -0.45000000       0.006
   0.45000000 -0.35000000 -0.35000000       0.006
   0.35000000 -0.25000000 -0.25000000       0.006
   0.25000000 -0.15000000 -0.15000000       0.006
   0.15000000 -0.05000000 -0.05000000       0.006
   0.05000000  0.05000000  0.25000000       0.006
  -0.05000000  0.15000000  0.35000000       0.012
  -0.15000000  0.25000000  0.45000000       0.012
  -0.25000000  0.35000000  0.55000000       0.012
   0.65000000 -0.55000000 -0.35000000       0.012
   0.55000000 -0.45000000 -0.25000000       0.012
   0.45000000 -0.35000000 -0.15000000       0.012
   0.35000000 -0.25000000 -0.05000000       0.012
   0.25000000 -0.15000000  0.05000000       0.012
   0.05000000  0.05000000  0.45000000       0.006
  -0.05000000  0.15000000  0.55000000       0.012
  -0.15000000  0.25000000  0.65000000       0.012
   0.75000000 -0.65000000 -0.25000000       0.012
   0.65000000 -0.55000000 -0.15000000       0.012
   0.55000000 -0.45000000 -0.05000000       0.012
   0.45000000 -0.35000000  0.05000000       0.012
   0.35000000 -0.25000000  0.15000000       0.012
   0.05000000  0.05000000  0.65000000       0.006
  -0.05000000  0.15000000  0.75000000       0.012
   0.85000000 -0.75000000 -0.15000000       0.012
   0.75000000 -0.65000000 -0.05000000       0.012
   0.65000000 -0.55000000  0.05000000       0.012
   0.55000000 -0.45000000  0.15000000       0.012
   0.45000000 -0.35000000  0.25000000       0.012
   0.05000000  0.05000000  0.85000000       0.006
   0.95000000 -0.85000000 -0.05000000       0.012
   0.85000000 -0.75000000  0.05000000       0.012
   0.75000000 -0.65000000  0.15000000       0.012
   0.65000000 -0.55000000  0.25000000       0.012
   0.55000000 -0.45000000  0.35000000       0.012
   0.05000000  0.05000000 -0.95000000       0.006
  -0.05000000  0.15000000 -0.85000000       0.012
  -0.15000000  0.25000000 -0.75000000       0.012
  -0.25000000  0.35000000 -0.65000000       0.012
   0.05000000  0.05000000 -0.75000000       0.006
  -0.05000000  0.15000000 -0.65000000       0.012
  -0.15000000  0.25000000 -0.55000000       0.012
   0.05000000  0.05000000 -0.55000000       0.006
  -0.05000000  0.15000000 -0.45000000       0.012
   0.05000000  0.05000000 -0.35000000       0.006
   0.15000000  0.15000000  0.15000000       0.002
   0.05000000  0.25000000  0.25000000       0.006
  -0.05000000  0.35000000  0.35000000       0.006
  -0.15000000  0.45000000  0.45000000       0.006
   0.75000000 -0.45000000 -0.45000000       0.006
   0.65000000 -0.35000000 -0.35000000       0.006
   0.55000000 -0.25000000 -0.25000000       0.006
   0.45000000 -0.15000000 -0.15000000       0.006
   0.15000000  0.15000000  0.35000000       0.006
   0.05000000  0.25000000  0.45000000       0.012
  -0.05000000  0.35000000  0.55000000       0.012
   0.85000000 -0.55000000 -0.35000000       0.012
   0.75000000 -0.45000000 -0.25000000       0.012
   0.65000000 -0.35000000 -0.15000000       0.012
   0.55000000 -0.25000000 -0.05000000       0.012
   0.15000000  0.15000000  0.55000000       0.006
   0.05000000  0.25000000  0.65000000       0.012
   0.95000000 -0.65000000 -0.25000000       0.012
   0.85000000 -0.55000000 -0.15000000       0.012
   0.75000000 -0.45000000 -0.05000000       0.012
   0.65000000 -0.35000000  0.05000000       0.012
   0.15000000  0.15000000  0.75000000       0.006
   1.05000000 -0.75000000 -0.15000000       0.012
   0.95000000 -0.65000000 -0.05000000       0.012
   0.85000000 -0.55000000  0.05000000       0.012
   0.75000000 -0.45000000  0.15000000       0.012
   0.15000000  0.15000000 -1.05000000       0.006
   0.05000000  0.25000000 -0.95000000       0.012
  -0.05000000  0.35000000 -0.85000000       0.012
   0.15000000  0.15000000 -0.85000000       0.006
   0.05000000  0.25000000 -0.75000000       0.012
   0.15000000  0.15000000 -0.65000000       0.006
   0.25000000  0.25000000  0.25000000       0.002
   0.15000000  0.35000000  0.35000000       0.006
   0.05000000  0.45000000  0.45000000       0.006
   0.95000000 -0.45000000 -0.45000000       0.006
   0.85000000 -0.35000000 -0.35000000       0.006
   0.75000000 -0.25000000 -0.25000000       0.006
   0.25000000  0.25000000  0.45000000       0.006
   0.15000000  0.35000000  0.55000000       0.012
   1.05000000 -0.55000000 -0.35000000       0.012
   0.95000000 -0.45000000 -0.25000000       0.012
   0.85000000 -0.35000000 -0.15000000       0.012
   0.25000000  0.25000000  0.65000000       0.006
   1.15000000 -0.65000000 -0.25000000       0.012
   1.05000000 -0.55000000 -0.15000000       0.012
   0.95000000 -0.45000000 -0.05000000       0.012
   0.25000000  0.25000000 -1.15000000       0.006
   0.15000000  0.35000000 -1.05000000       0.012
   0.25000000  0.25000000 -0.95000000       0.006
   0.35000000  0.35000000  0.35000000       0.002
   0.25000000  0.45000000  0.45000000       0.006
   1.15000000 -0.45000000 -0.45000000       0.006
   1.05000000 -0.35000000 -0.35000000       0.006
   0.35000000  0.35000000  0.55000000       0.006
   1.25000000 -0.55000000 -0.35000000       0.012
   1.15000000 -0.45000000 -0.25000000       0.012
   0.35000000  0.35000000 -1.25000000       0.006
   0.45000000  0.45000000  0.45000000       0.002
   1.35000000 -0.45000000 -0.45000000       0.006
 
 k-points in reciprocal lattice and weights: 10x10x10                                
   0.05000000  0.05000000  0.05000000       0.002
   0.15000000  0.05000000  0.05000000       0.006
   0.25000000  0.05000000  0.05000000       0.006
   0.35000000  0.05000000  0.05000000       0.006
   0.45000000  0.05000000  0.05000000       0.006
  -0.45000000  0.05000000  0.05000000       0.006
  -0.35000000  0.05000000  0.05000000       0.006
  -0.25000000  0.05000000  0.05000000       0.006
  -0.15000000  0.05000000  0.05000000       0.006
  -0.05000000  0.05000000  0.05000000       0.006
   0.15000000  0.15000000  0.05000000       0.006
   0.25000000  0.15000000  0.05000000       0.012
   0.35000000  0.15000000  0.05000000       0.012
   0.45000000  0.15000000  0.05000000       0.012
  -0.45000000  0.15000000  0.05000000       0.012
  -0.35000000  0.15000000  0.05000000       0.012
  -0.25000000  0.15000000  0.05000000       0.012
  -0.15000000  0.15000000  0.05000000       0.012
  -0.05000000  0.15000000  0.05000000       0.012
   0.25000000  0.25000000  0.05000000       0.006
   0.35000000  0.25000000  0.05000000       0.012
   0.45000000  0.25000000  0.05000000       0.012
  -0.45000000  0.25000000  0.05000000       0.012
  -0.35000000  0.25000000  0.05000000       0.012
  -0.25000000  0.25000000  0.05000000       0.012
  -0.15000000  0.25000000  0.05000000       0.012
  -0.05000000  0.25000000  0.05000000       0.012
   0.35000000  0.35000000  0.05000000       0.006
   0.45000000  0.35000000  0.05000000       0.012
  -0.45000000  0.35000000  0.05000000       0.012
  -0.35000000  0.35000000  0.05000000       0.012
  -0.25000000  0.35000000  0.05000000       0.012
  -0.15000000  0.35000000  0.05000000       0.012
  -0.05000000  0.35000000  0.05000000       0.012
   0.45000000  0.45000000  0.05000000       0.006
  -0.45000000  0.45000000  0.05000000       0.012
  -0.35000000  0.45000000  0.05000000       0.012
  -0.25000000  0.45000000  0.05000000       0.012
  -0.15000000  0.45000000  0.05000000       0.012
  -0.05000000  0.45000000  0.05000000       0.012
  -0.45000000 -0.45000000  0.05000000       0.006
  -0.35000000 -0.45000000  0.05000000       0.012
  -0.25000000 -0.45000000  0.05000000       0.012
  -0.15000000 -0.45000000  0.05000000       0.012
  -0.35000000 -0.35000000  0.05000000       0.006
  -0.25000000 -0.35000000  0.05000000       0.012
  -0.15000000 -0.35000000  0.05000000       0.012
  -0.25000000 -0.25000000  0.05000000       0.006
  -0.15000000 -0.25000000  0.05000000       0.012
  -0.15000000 -0.15000000  0.05000000       0.006
   0.15000000  0.15000000  0.15000000       0.002
   0.25000000  0.15000000  0.15000000       0.006
   0.35000000  0.15000000  0.15000000       0.006
   0.45000000  0.15000000  0.15000000       0.006
  -0.45000000  0.15000000  0.15000000       0.006
  -0.35000000  0.15000000  0.15000000       0.006
  -0.25000000  0.15000000  0.15000000       0.006
  -0.15000000  0.15000000  0.15000000       0.006
   0.25000000  0.25000000  0.15000000       0.006
   0.35000000  0.25000000  0.15000000       0.012
   0.45000000  0.25000000  0.15000000       0.012
  -0.45000000  0.25000000  0.15000000       0.012
  -0.35000000  0.25000000  0.15000000       0.012
  -0.25000000  0.25000000  0.15000000       0.012
  -0.15000000  0.25000000  0.15000000       0.012
   0.35000000  0.35000000  0.15000000       0.006
   0.45000000  0.35000000  0.15000000       0.012
  -0.45000000  0.35000000  0.15000000       0.012
  -0.35000000  0.35000000  0.15000000       0.012
  -0.25000000  0.35000000  0.15000000       0.012
  -0.15000000  0.35000000  0.15000000       0.012
   0.45000000  0.45000000  0.15000000       0.006
  -0.45000000  0.45000000  0.15000000       0.012
  -0.35000000  0.45000000  0.15000000       0.012
  -0.25000000  0.45000000  0.15000000       0.012
  -0.15000000  0.45000000  0.15000000       0.012
  -0.45000000 -0.45000000  0.15000000       0.006
  -0.35000000 -0.45000000  0.15000000       0.012
  -0.25000000 -0.45000000  0.15000000       0.012
  -0.35000000 -0.35000000  0.15000000       0.006
  -0.25000000 -0.35000000  0.15000000       0.012
  -0.25000000 -0.25000000  0.15000000       0.006
   0.25000000  0.25000000  0.25000000       0.002
   0.35000000  0.25000000  0.25000000       0.006
   0.45000000  0.25000000  0.25000000       0.006
  -0.45000000  0.25000000  0.25000000       0.006
  -0.35000000  0.25000000  0.25000000       0.006
  -0.25000000  0.25000000  0.25000000       0.006
   0.35000000  0.35000000  0.25000000       0.006
   0.45000000  0.35000000  0.25000000       0.012
  -0.45000000  0.35000000  0.25000000       0.012
  -0.35000000  0.35000000  0.25000000       0.012
  -0.25000000  0.35000000  0.25000000       0.012
   0.45000000  0.45000000  0.25000000       0.006
  -0.45000000  0.45000000  0.25000000       0.012
  -0.35000000  0.45000000  0.25000000       0.012
  -0.25000000  0.45000000  0.25000000       0.012
  -0.45000000 -0.45000000  0.25000000       0.006
  -0.35000000 -0.45000000  0.25000000       0.012
  -0.35000000 -0.35000000  0.25000000       0.006
   0.35000000  0.35000000  0.35000000       0.002
   0.45000000  0.35000000  0.35000000       0.006
  -0.45000000  0.35000000  0.35000000       0.006
  -0.35000000  0.35000000  0.35000000       0.006
   0.45000000  0.45000000  0.35000000       0.006
  -0.45000000  0.45000000  0.35000000       0.012
  -0.35000000  0.45000000  0.35000000       0.012
  -0.45000000 -0.45000000  0.35000000       0.006
   0.45000000  0.45000000  0.45000000       0.002
  -0.45000000  0.45000000  0.45000000       0.006
 
 position of ions in fractional coordinates (direct lattice) 
   0.00000000  0.00000000  0.00000000
 
 position of ions in cartesian coordinates  (Angst):
   0.00000000  0.00000000  0.00000000
 


--------------------------------------------------------------------------------------------------------


 k-point  1 :   0.0500 0.0500 0.0500  plane waves:      77
 k-point  2 :   0.1500 0.0500 0.0500  plane waves:      81
 k-point  3 :   0.2500 0.0500 0.0500  plane waves:      83
 k-point  4 :   0.3500 0.0500 0.0500  plane waves:      83
 k-point  5 :   0.4500 0.0500 0.0500  plane waves:      85
 k-point  6 :  -0.4500 0.0500 0.0500  plane waves:      85
 k-point  7 :  -0.3500 0.0500 0.0500  plane waves:      83
 k-point  8 :  -0.2500 0.0500 0.0500  plane waves:      82
 k-point  9 :  -0.1500 0.0500 0.0500  plane waves:      85
 k-point 10 :  -0.0500 0.0500 0.0500  plane waves:      79
 k-point 11 :   0.1500 0.1500 0.0500  plane waves:      82
 k-point 12 :   0.2500 0.1500 0.0500  plane waves:      83
 k-point 13 :   0.3500 0.1500 0.0500  plane waves:      84
 k-point 14 :   0.4500 0.1500 0.0500  plane waves:      86
 k-point 15 :  -0.4500 0.1500 0.0500  plane waves:      84
 k-point 16 :  -0.3500 0.1500 0.0500  plane waves:      85
 k-point 17 :  -0.2500 0.1500 0.0500  plane waves:      83
 k-point 18 :  -0.1500 0.1500 0.0500  plane waves:      85
 k-point 19 :  -0.0500 0.1500 0.0500  plane waves:      83
 k-point 20 :   0.2500 0.2500 0.0500  plane waves:      84
 k-point 21 :   0.3500 0.2500 0.0500  plane waves:      83
 k-point 22 :   0.4500 0.2500 0.0500  plane waves:      86
 k-point 23 :  -0.4500 0.2500 0.0500  plane waves:      88
 k-point 24 :  -0.3500 0.2500 0.0500  plane waves:      89
 k-point 25 :  -0.2500 0.2500 0.0500  plane waves:      88
 k-point 26 :  -0.1500 0.2500 0.0500  plane waves:      85
 k-point 27 :  -0.0500 0.2500 0.0500  plane waves:      84
 k-point 28 :   0.3500 0.3500 0.0500  plane waves:      85
 k-point 29 :   0.4500 0.3500 0.0500  plane waves:      85
 k-point 30 :  -0.4500 0.3500 0.0500  plane waves:      89
 k-point 31 :  -0.3500 0.3500 0.0500  plane waves:      89
 k-point 32 :  -0.2500 0.3500 0.0500  plane waves:      89
 k-point 33 :  -0.1500 0.3500 0.0500  plane waves:      86
 k-point 34 :  -0.0500 0.3500 0.0500  plane waves:      84
 k-point 35 :   0.4500 0.4500 0.0500  plane waves:      88
 k-point 36 :  -0.4500 0.4500 0.0500  plane waves:      91
 k-point 37 :  -0.3500 0.4500 0.0500  plane waves:      90
 k-point 38 :  -0.2500 0.4500 0.0500  plane waves:      89
 k-point 39 :  -0.1500 0.4500 0.0500  plane waves:      87
 k-point 40 :  -0.0500 0.4500 0.0500  plane waves:      83
 k-point 41 :  -0.4500-0.4500 0.0500  plane waves:      92
 k-point 42 :  -0.3500-0.4500 0.0500  plane waves:      88
 k-point 43 :  -0.2500-0.4500 0.0500  plane waves:      87
 k-point 44 :  -0.1500-0.4500 0.0500  plane waves:      87
 k-point 45 :  -0.3500-0.3500 0.0500  plane waves:      87
 k-point 46 :  -0.2500-0.3500 0.0500  plane waves:      84
 k-point 47 :  -0.1500-0.3500 0.0500  plane waves:      85
 k-point 48 :  -0.2500-0.2500 0.0500  plane waves:      84
 k-point 49 :  -0.1500-0.2500 0.0500  plane waves:      84
 k-point 50 :  -0.1500-0.1500 0.0500  plane waves:      82
 k-point 51 :   0.1500 0.1500 0.1500  plane waves:      83
 k-point 52 :   0.2500 0.1500 0.1500  plane waves:      83
 k-point 53 :   0.3500 0.1500 0.1500  plane waves:      83
 k-point 54 :   0.4500 0.1500 0.1500  plane waves:      85
 k-point 55 :  -0.4500 0.1500 0.1500  plane waves:      84
 k-point 56 :  -0.3500 0.1500 0.1500  plane waves:      85
 k-point 57 :  -0.2500 0.1500 0.1500  plane waves:      85
 k-point 58 :  -0.1500 0.1500 0.1500  plane waves:      84
 k-point 59 :   0.2500 0.2500 0.1500  plane waves:      84
 k-point 60 :   0.3500 0.2500 0.1500  plane waves:      85
 k-point 61 :   0.4500 0.2500 0.1500  plane waves:      87
 k-point 62 :  -0.4500 0.2500 0.1500  plane waves:      86
 k-point 63 :  -0.3500 0.2500 0.1500  plane waves:      88
 k-point 64 :  -0.2500 0.2500 0.1500  plane waves:      86
 k-point 65 :  -0.1500 0.2500 0.1500  plane waves:      85
 k-point 66 :   0.3500 0.3500 0.1500  plane waves:      85
 k-point 67 :   0.4500 0.3500 0.1500  plane waves:      85
 k-point 68 :  -0.4500 0.3500 0.1500  plane waves:      87
 k-point 69 :  -0.3500 0.3500 0.1500  plane waves:      91
 k-point 70 :  -0.2500 0.3500 0.1500  plane waves:      89
 k-point 71 :  -0.1500 0.3500 0.1500  plane waves:      87
 k-point 72 :   0.4500 0.4500 0.1500  plane waves:      88
 k-point 73 :  -0.4500 0.4500 0.1500  plane waves:      87
 k-point 74 :  -0.3500 0.4500 0.1500  plane waves:      89
 k-point 75 :  -0.2500 0.4500 0.1500  plane waves:      91
 k-point 76 :  -0.1500 0.4500 0.1500  plane waves:      88
 k-point 77 :  -0.4500-0.4500 0.1500  plane waves:      90
 k-point 78 :  -0.3500-0.4500 0.1500  plane waves:      88
 k-point 79 :  -0.2500-0.4500 0.1500  plane waves:      88
 k-point 80 :  -0.3500-0.3500 0.1500  plane waves:      87
 k-point 81 :  -0.2500-0.3500 0.1500  plane waves:      85
 k-point 82 :  -0.2500-0.2500 0.1500  plane waves:      84
 k-point 83 :   0.2500 0.2500 0.2500  plane waves:      83
 k-point 84 :   0.3500 0.2500 0.2500  plane waves:      83
 k-point 85 :   0.4500 0.2500 0.2500  plane waves:      85
 k-point 86 :  -0.4500 0.2500 0.2500  plane waves:      89
 k-point 87 :  -0.3500 0.2500 0.2500  plane waves:      88
 k-point 88 :  -0.2500 0.2500 0.2500  plane waves:      89
 k-point 89 :   0.3500 0.3500 0.2500  plane waves:      85
 k-point 90 :   0.4500 0.3500 0.2500  plane waves:      85
 k-point 91 :  -0.4500 0.3500 0.2500  plane waves:      89
 k-point 92 :  -0.3500 0.3500 0.2500  plane waves:      89
 k-point 93 :  -0.2500 0.3500 0.2500  plane waves:      90
 k-point 94 :   0.4500 0.4500 0.2500  plane waves:      87
 k-point 95 :  -0.4500 0.4500 0.2500  plane waves:      87
 k-point 96 :  -0.3500 0.4500 0.2500  plane waves:      90
 k-point 97 :  -0.2500 0.4500 0.2500  plane waves:      89
 k-point 98 :  -0.4500-0.4500 0.2500  plane waves:      90
 k-point 99 :  -0.3500-0.4500 0.2500  plane waves:      92
 k-point ** :  -0.3500-0.3500 0.2500  plane waves:      90
 k-point ** :   0.3500 0.3500 0.3500  plane waves:      83
 k-point ** :   0.4500 0.3500 0.3500  plane waves:      84
 k-point ** :  -0.4500 0.3500 0.3500  plane waves:      87
 k-point ** :  -0.3500 0.3500 0.3500  plane waves:      89
 k-point ** :   0.4500 0.4500 0.3500  plane waves:      83
 k-point ** :  -0.4500 0.4500 0.3500  plane waves:      86
 k-point ** :  -0.3500 0.4500 0.3500  plane waves:      87
 k-point ** :  -0.4500-0.4500 0.3500  plane waves:      88
 k-point ** :   0.4500 0.4500 0.4500  plane waves:      89
 k-point ** :  -0.4500 0.4500 0.4500  plane waves:      83

 maximum and minimum number of plane-waves per node :        92       77

 maximum number of plane-waves:        92
 maximum index in each direction: 
   IXMAX=    3   IYMAX=    3   IZMAX=    3
   IXMIN=   -3   IYMIN=   -3   IZMIN=   -3


 serial   3D FFT for wavefunctions
 parallel 3D FFT for charge:
    minimum data exchange during FFTs selected (reduces bandwidth)


 total amount of memory used by VASP MPI-rank0    33133. kBytes
=======================================================================

   base      :      30000. kBytes
   nonl-proj :       1458. kBytes
   fftplans  :        142. kBytes
   grid      :        320. kBytes
   one-center:         31. kBytes
   wavefun   :       1182. kBytes
 
     INWAV:  cpu time    0.0001: real time    0.0002
 Broyden mixing: mesh for mixing (old mesh)
   NGX =  5   NGY =  5   NGZ =  5
  (NGX  = 20   NGY  = 20   NGZ  = 20)
  gives a total of    125 points

 initial charge density was supplied:
 charge density of overlapping atoms calculated
 number of electron      10.0000000 magnetization       3.0000000
 keeping initial charge density in first step


--------------------------------------------------------------------------------------------------------


 Maximum index for augmentation-charges          907 (set IRDMAX)


--------------------------------------------------------------------------------------------------------


 First call to EWALD:  gamma=   0.866
 Maximum number of real-space cells 3x 3x 3
 Maximum number of reciprocal cells 3x 3x 3

    FEWALD:  cpu time    0.0010: real time    0.0027


--------------------------------------- Iteration      1(   1)  ---------------------------------------


    POTLOK:  cpu time    0.0039: real time    0.0192
    SETDIJ:  cpu time    0.0068: real time    0.0068
     EDDAV:  cpu time    0.3277: real time    0.3483
       DOS:  cpu time    0.0018: real time    0.0019
    --------------------------------------------
      LOOP:  cpu time    0.3404: real time    0.3762

 eigenvalue-minimisations  :  5976
 total energy-change (2. order) : 0.1798946E+02  (-0.2932854E+03)
 number of electron      10.0000000 magnetization       3.0000000
 augmentation part       10.0000000 magnetization       3.0000000

 Free energy of the ion-electron system (eV)
  ---------------------------------------------------
  alpha Z        PSCENC =        59.42579270
  Ewald energy   TEWEN  =     -1015.70827765
  -Hartree energ DENC   =      -210.09173171
  -exchange      EXHF   =         0.00000000
  -V(xc)+E(xc)   XCENC  =        33.56921601
  PAW double counting   =       961.92645289    -1028.66799202
  entropy T*S    EENTRO =         0.00062631
  eigenvalues    EBANDS =       139.89929551
  atomic energy  EATOM  =      1077.63607467
  Solvation  Ediel_sol  =         0.00000000
  ---------------------------------------------------
  free energy    TOTEN  =        17.98945672 eV

  energy without entropy =       17.98883041  energy(sigma->0) =       17.98924795


--------------------------------------------------------------------------------------------------------




--------------------------------------- Iteration      1(   2)  ---------------------------------------


     EDDAV:  cpu time    0.2930: real time    0.3012
       DOS:  cpu time    0.0018: real time    0.0018
    --------------------------------------------
      LOOP:  cpu time    0.2948: real time    0.3030

 eigenvalue-minimisations  :  5812
 total energy-change (2. order) :-0.2279194E+02  (-0.2141241E+02)
 number of electron      10.0000000 magnetization       3.0000000
 augmentation part       10.0000000 magnetization       3.0000000

 Free energy of the ion-electron system (eV)
  ---------------------------------------------------
  alpha Z        PSCENC =        59.42579270
  Ewald energy   TEWEN  =     -1015.70827765
  -Hartree energ DENC   =      -210.09173171
  -exchange      EXHF   =         0.00000000
  -V(xc)+E(xc)   XCENC  =        33.56921601
  PAW double counting   =       961.92645289    -1028.66799202
  entropy T*S    EENTRO =        -0.00107316
  eigenvalues    EBANDS =       117.10905574
  atomic energy  EATOM  =      1077.63607467
  Solvation  Ediel_sol  =         0.00000000
  ---------------------------------------------------
  free energy    TOTEN  =        -4.80248252 eV

  energy without entropy =       -4.80140937  energy(sigma->0) =       -4.80212480


--------------------------------------------------------------------------------------------------------




--------------------------------------- Iteration      1(   3)  ---------------------------------------


     EDDAV:  cpu time    0.3050: real time    0.3115
       DOS:  cpu time    0.0018: real time    0.0018
    --------------------------------------------
      LOOP:  cpu time    0.3068: real time    0.3133

 eigenvalue-minimisations  :  5984
 total energy-change (2. order) :-0.3436289E+00  (-0.3431835E+00)
 number of electron      10.0000000 magnetization       3.0000000
 augmentation part       10.0000000 magnetization       3.0000000

 Free energy of the ion-electron system (eV)
  ---------------------------------------------------
  alpha Z        PSCENC =        59.42579270
  Ewald energy   TEWEN  =     -1015.70827765
  -Hartree energ DENC   =      -210.09173171
  -exchange      EXHF   =         0.00000000
  -V(xc)+E(xc)   XCENC  =        33.56921601
  PAW double counting   =       961.92645289    -1028.66799202
  entropy T*S    EENTRO =        -0.00079394
  eigenvalues    EBANDS =       116.76514758
  atomic energy  EATOM  =      1077.63607467
  Solvation  Ediel_sol  =         0.00000000
  ---------------------------------------------------
  free energy    TOTEN  =        -5.14611147 eV

  energy without entropy =       -5.14531753  energy(sigma->0) =       -5.14584682


--------------------------------------------------------------------------------------------------------




--------------------------------------- Iteration      1(   4)  ---------------------------------------


     EDDAV:  cpu time    0.3031: real time    0.3098
       DOS:  cpu time    0.0019: real time    0.0019
    --------------------------------------------
      LOOP:  cpu time    0.3050: real time    0.3118

 eigenvalue-minimisations  :  6064
 total energy-change (2. order) :-0.1434662E-02  (-0.1434585E-02)
 number of electron      10.0000000 magnetization       3.0000000
 augmentation part       10.0000000 magnetization       3.0000000

 Free energy of the ion-electron system (eV)
  ---------------------------------------------------
  alpha Z        PSCENC =        59.42579270
  Ewald energy   TEWEN  =     -1015.70827765
  -Hartree energ DENC   =      -210.09173171
  -exchange      EXHF   =         0.00000000
  -V(xc)+E(xc)   XCENC  =        33.56921601
  PAW double counting   =       961.92645289    -1028.66799202
  entropy T*S    EENTRO =        -0.00079240
  eigenvalues    EBANDS =       116.76371138
  atomic energy  EATOM  =      1077.63607467
  Solvation  Ediel_sol  =         0.00000000
  ---------------------------------------------------
  free energy    TOTEN  =        -5.14754613 eV

  energy without entropy =       -5.14675373  energy(sigma->0) =       -5.14728200


--------------------------------------------------------------------------------------------------------




--------------------------------------- Iteration      1(   5)  ---------------------------------------


     EDDAV:  cpu time    0.2915: real time    0.2980
       DOS:  cpu time    0.0018: real time    0.0018
    CHARGE:  cpu time    0.0047: real time    0.0099
    MIXING:  cpu time    0.0002: real time    0.0002
    --------------------------------------------
      LOOP:  cpu time    0.2982: real time    0.3098

 eigenvalue-minimisations  :  5696
 total energy-change (2. order) :-0.1500166E-04  (-0.1500190E-04)
 number of electron      10.0000081 magnetization       0.3014165
 augmentation part        5.6171990 magnetization       0.1277265

 Broyden mixing:
  rms(total) = 0.17540E+01    rms(broyden)= 0.17530E+01
  rms(prec ) = 0.36015E+01
  weight for this iteration     100.00

 Free energy of the ion-electron system (eV)
  ---------------------------------------------------
  alpha Z        PSCENC =        59.42579270
  Ewald energy   TEWEN  =     -1015.70827765
  -Hartree energ DENC   =      -210.09173171
  -exchange      EXHF   =         0.00000000
  -V(xc)+E(xc)   XCENC  =        33.56921601
  PAW double counting   =       961.92645289    -1028.66799202
  entropy T*S    EENTRO =        -0.00079238
  eigenvalues    EBANDS =       116.76369635
  atomic energy  EATOM  =      1077.63607467
  Solvation  Ediel_sol  =         0.00000000
  ---------------------------------------------------
  free energy    TOTEN  =        -5.14756113 eV

  energy without entropy =       -5.14676875  energy(sigma->0) =       -5.14729701


--------------------------------------------------------------------------------------------------------




--------------------------------------- Iteration      1(   6)  ---------------------------------------


    POTLOK:  cpu time    0.0030: real time    0.0031
    SETDIJ:  cpu time    0.0033: real time    0.0032
     EDDAV:  cpu time    0.3347: real time    0.3414
       DOS:  cpu time    0.0021: real time    0.0021
    CHARGE:  cpu time    0.0045: real time    0.0045
    MIXING:  cpu time    0.0004: real time    0.0005
    --------------------------------------------
      LOOP:  cpu time    0.3480: real time    0.3548

 eigenvalue-minimisations  :  6828
 total energy-change (2. order) : 0.9749131E-02  (-0.8107225E+00)
 number of electron      10.0000091 magnetization       0.5612661
 augmentation part        6.2940869 magnetization       0.6025356

 Broyden mixing:
  rms(total) = 0.54661E+00    rms(broyden)= 0.54595E+00
  rms(prec ) = 0.89304E+00
  weight for this iteration     100.00

 eigenvalues of (default mixing * dielectric matrix)
  average eigenvalue GAMMA=   0.9020
  0.9020

 Free energy of the ion-electron system (eV)
  ---------------------------------------------------
  alpha Z        PSCENC =        59.42579270
  Ewald energy   TEWEN  =     -1015.70827765
  -Hartree energ DENC   =      -188.64888834
  -exchange      EXHF   =         0.00000000
  -V(xc)+E(xc)   XCENC  =        31.42024606
  PAW double counting   =      1110.11132892    -1174.37457190
  entropy T*S    EENTRO =        -0.00366071
  eigenvalues    EBANDS =        95.00414426
  atomic energy  EATOM  =      1077.63607467
  Solvation  Ediel_sol  =         0.00000000
  ---------------------------------------------------
  free energy    TOTEN  =        -5.13781200 eV

  energy without entropy =       -5.13415129  energy(sigma->0) =       -5.13659177


--------------------------------------------------------------------------------------------------------




--------------------------------------- Iteration      1(   7)  ---------------------------------------


    POTLOK:  cpu time    0.0031: real time    0.0035
    SETDIJ:  cpu time    0.0031: real time    0.0034
     EDDAV:  cpu time    0.3246: real time    0.3311
       DOS:  cpu time    0.0021: real time    0.0021
    CHARGE:  cpu time    0.0042: real time    0.0042
    MIXING:  cpu time    0.0003: real time    0.0003
    --------------------------------------------
      LOOP:  cpu time    0.3374: real time    0.3445

 eigenvalue-minimisations  :  6692
 total energy-change (2. order) : 0.1179011E+00  (-0.1105013E+00)
 number of electron      10.0000088 magnetization       0.6236601
 augmentation part        6.0840023 magnetization       0.5988009

 Broyden mixing:
  rms(total) = 0.29405E+00    rms(broyden)= 0.29398E+00
  rms(prec ) = 0.45953E+00
  weight for this iteration     100.00

 eigenvalues of (default mixing * dielectric matrix)
  average eigenvalue GAMMA=   0.9384
  1.1905  0.6863

 Free energy of the ion-electron system (eV)
  ---------------------------------------------------
  alpha Z        PSCENC =        59.42579270
  Ewald energy   TEWEN  =     -1015.70827765
  -Hartree energ DENC   =      -192.61062574
  -exchange      EXHF   =         0.00000000
  -V(xc)+E(xc)   XCENC  =        31.63822213
  PAW double counting   =      1171.64953232    -1239.53531021
  entropy T*S    EENTRO =        -0.00186947
  eigenvalues    EBANDS =       102.48655034
  atomic energy  EATOM  =      1077.63607467
  Solvation  Ediel_sol  =         0.00000000
  ---------------------------------------------------
  free energy    TOTEN  =        -5.01991090 eV

  energy without entropy =       -5.01804143  energy(sigma->0) =       -5.01928774


--------------------------------------------------------------------------------------------------------




--------------------------------------- Iteration      1(   8)  ---------------------------------------


    POTLOK:  cpu time    0.0030: real time    0.0031
    SETDIJ:  cpu time    0.0031: real time    0.0031
     EDDAV:  cpu time    0.3172: real time    0.3237
       DOS:  cpu time    0.0021: real time    0.0021
    CHARGE:  cpu time    0.0042: real time    0.0043
    MIXING:  cpu time    0.0002: real time    0.0002
    --------------------------------------------
      LOOP:  cpu time    0.3299: real time    0.3365

 eigenvalue-minimisations  :  6268
 total energy-change (2. order) : 0.2076452E-01  (-0.1457491E-02)
 number of electron      10.0000088 magnetization       0.5760901
 augmentation part        6.1047056 magnetization       0.5422177

 Broyden mixing:
  rms(total) = 0.12177E+00    rms(broyden)= 0.12177E+00
  rms(prec ) = 0.18952E+00
  weight for this iteration     100.00

 eigenvalues of (default mixing * dielectric matrix)
  average eigenvalue GAMMA=   1.2639
  2.1652  0.9503  0.6761

 Free energy of the ion-electron system (eV)
  ---------------------------------------------------
  alpha Z        PSCENC =        59.42579270
  Ewald energy   TEWEN  =     -1015.70827765
  -Hartree energ DENC   =      -190.32158991
  -exchange      EXHF   =         0.00000000
  -V(xc)+E(xc)   XCENC  =        31.52142597
  PAW double counting   =      1248.87173710    -1318.26208550
  entropy T*S    EENTRO =        -0.00187573
  eigenvalues    EBANDS =       101.83965196
  atomic energy  EATOM  =      1077.63607467
  Solvation  Ediel_sol  =         0.00000000
  ---------------------------------------------------
  free energy    TOTEN  =        -4.99914638 eV

  energy without entropy =       -4.99727064  energy(sigma->0) =       -4.99852113


--------------------------------------------------------------------------------------------------------




--------------------------------------- Iteration      1(   9)  ---------------------------------------


    POTLOK:  cpu time    0.0032: real time    0.0033
    SETDIJ:  cpu time    0.0033: real time    0.0032
     EDDAV:  cpu time    0.3511: real time    0.3576
       DOS:  cpu time    0.0021: real time    0.0022
    CHARGE:  cpu time    0.0046: real time    0.0045
    MIXING:  cpu time    0.0002: real time    0.0003
    --------------------------------------------
      LOOP:  cpu time    0.3645: real time    0.3711

 eigenvalue-minimisations  :  6868
 total energy-change (2. order) : 0.3855702E-02  (-0.5518528E-03)
 number of electron      10.0000089 magnetization       0.5684995
 augmentation part        6.1190191 magnetization       0.5441488

 Broyden mixing:
  rms(total) = 0.27397E-01    rms(broyden)= 0.27385E-01
  rms(prec ) = 0.29102E-01
  weight for this iteration     100.00

 eigenvalues of (default mixing * dielectric matrix)
  average eigenvalue GAMMA=   1.1835
  2.3468  0.8561  0.8561  0.6749

 Free energy of the ion-electron system (eV)
  ---------------------------------------------------
  alpha Z        PSCENC =        59.42579270
  Ewald energy   TEWEN  =     -1015.70827765
  -Hartree energ DENC   =      -188.87485843
  -exchange      EXHF   =         0.00000000
  -V(xc)+E(xc)   XCENC  =        31.44894668
  PAW double counting   =      1304.28466060    -1374.68081689
  entropy T*S    EENTRO =        -0.00232091
  eigenvalues    EBANDS =       101.47550855
  atomic energy  EATOM  =      1077.63607467
  Solvation  Ediel_sol  =         0.00000000
  ---------------------------------------------------
  free energy    TOTEN  =        -4.99529068 eV

  energy without entropy =       -4.99296977  energy(sigma->0) =       -4.99451704


--------------------------------------------------------------------------------------------------------




--------------------------------------- Iteration      1(  10)  ---------------------------------------


    POTLOK:  cpu time    0.0030: real time    0.0032
    SETDIJ:  cpu time    0.0033: real time    0.0032
     EDDAV:  cpu time    0.2583: real time    0.2648
       DOS:  cpu time    0.0023: real time    0.0022
    CHARGE:  cpu time    0.0044: real time    0.0045
    MIXING:  cpu time    0.0002: real time    0.0003
    --------------------------------------------
      LOOP:  cpu time    0.2716: real time    0.2781

 eigenvalue-minimisations  :  4316
 total energy-change (2. order) : 0.1985095E-03  (-0.8170121E-05)
 number of electron      10.0000089 magnetization       0.5727357
 augmentation part        6.1186254 magnetization       0.5481662

 Broyden mixing:
  rms(total) = 0.50872E-02    rms(broyden)= 0.50842E-02
  rms(prec ) = 0.65549E-02
  weight for this iteration     100.00

 eigenvalues of (default mixing * dielectric matrix)
  average eigenvalue GAMMA=   1.1223
  2.4026  1.0058  0.8615  0.7208  0.6208

 Free energy of the ion-electron system (eV)
  ---------------------------------------------------
  alpha Z        PSCENC =        59.42579270
  Ewald energy   TEWEN  =     -1015.70827765
  -Hartree energ DENC   =      -188.75052396
  -exchange      EXHF   =         0.00000000
  -V(xc)+E(xc)   XCENC  =        31.43967848
  PAW double counting   =      1312.86297801    -1383.39364170
  entropy T*S    EENTRO =        -0.00231426
  eigenvalues    EBANDS =       101.49514154
  atomic energy  EATOM  =      1077.63607467
  Solvation  Ediel_sol  =         0.00000000
  ---------------------------------------------------
  free energy    TOTEN  =        -4.99509217 eV

  energy without entropy =       -4.99277791  energy(sigma->0) =       -4.99432075


--------------------------------------------------------------------------------------------------------




--------------------------------------- Iteration      1(  11)  ---------------------------------------


    POTLOK:  cpu time    0.0031: real time    0.0032
    SETDIJ:  cpu time    0.0033: real time    0.0032
     EDDAV:  cpu time    0.2069: real time    0.2130
       DOS:  cpu time    0.0022: real time    0.0022
    --------------------------------------------
      LOOP:  cpu time    0.2155: real time    0.2216

 eigenvalue-minimisations  :  2944
 total energy-change (2. order) :-0.1443377E-06  (-0.1607829E-05)
 number of electron      10.0000089 magnetization       0.5727357
 augmentation part        6.1186254 magnetization       0.5481662

 Free energy of the ion-electron system (eV)
  ---------------------------------------------------
  alpha Z        PSCENC =        59.42579270
  Ewald energy   TEWEN  =     -1015.70827765
  -Hartree energ DENC   =      -188.70676968
  -exchange      EXHF   =         0.00000000
  -V(xc)+E(xc)   XCENC  =        31.43833529
  PAW double counting   =      1317.07794725    -1387.64004576
  entropy T*S    EENTRO =        -0.00232202
  eigenvalues    EBANDS =       101.48417288
  atomic energy  EATOM  =      1077.63607467
  Solvation  Ediel_sol  =         0.00000000
  ---------------------------------------------------
  free energy    TOTEN  =        -4.99509231 eV

  energy without entropy =       -4.99277030  energy(sigma->0) =       -4.99431831


--------------------------------------------------------------------------------------------------------




 average (electrostatic) potential at core
  the test charge radii are     0.9791
  (the norm of the test charge is              1.0000)
       1 -78.6485
 
 
 
 E-fermi :  13.1887     XC(G=0): -14.7186     alpha+bet :-20.8708


 spin component 1

 k-point     1 :       0.0500    0.0500    0.0500
  band No.  band energies     occupation 
      1       2.5260      1.00000
      2      10.0401      1.00000
      3      10.1108      1.00000
      4      10.1108      1.00000
      5      11.6871      1.00000
      6      11.6871      1.00000
      7      38.8020      0.00000
      8      43.2458      0.00000
      9      44.5980      0.00000
     10      44.5980      0.00000
     11      49.6113      0.00000
     12      49.6117      0.00000

 k-point     2 :       0.1500    0.0500    0.0500
  band No.  band energies     occupation 
      1       3.1379      1.00000
      2       9.8397      1.00000
      3      10.2524      1.00000
      4      10.2720      1.00000
      5      11.5343      1.00000
      6      11.7252      1.00000
      7      37.3712      0.00000
      8      40.0760      0.00000
      9      43.1853      0.00000
     10      45.4008      0.00000
     11      48.3021      0.00000
     12      49.6185      0.00000

 k-point     3 :       0.2500    0.0500    0.0500
  band No.  band energies     occupation 
      1       4.5312      1.00000
      2       9.5657      1.00000
      3      10.3903      1.00000
      4      10.4361      1.00000
      5      11.5114      1.00000
      6      11.8927      1.00000
      7      32.2369      0.00000
      8      38.6993      0.00000
      9      42.5436      0.00000
     10      45.2920      0.00000
     11      47.7455      0.00000
     12      48.6539      0.00000

 k-point     4 :       0.3500    0.0500    0.0500
  band No.  band energies     occupation 
      1       6.1275      1.00000
      2       9.7980      1.00000
      3      10.2525      1.00000
      4      10.3255      1.00000
      5      11.9324      1.00000
      6      12.3788      1.00000
      7      26.8968      0.00000
      8      37.7910      0.00000
      9      41.4307      0.00000
     10      44.7748      0.00000
     11      46.1449      0.00000
     12      47.9674      0.00000

 k-point     5 :       0.4500    0.0500    0.0500
  band No.  band energies     occupation 
      1       6.8562      1.00000
      2      10.0547      1.00000
      3      10.1466      1.00000
      4      11.1296      1.00000
      5      12.4459      1.00000
      6      13.0391      0.97550
      7      22.4881      0.00000
      8      37.1183      0.00000
      9      40.8996      0.00000
     10      42.8206      0.00000
     11      45.7709      0.00000
     12      47.2083      0.00000

 k-point     6 :      -0.4500    0.0500    0.0500
  band No.  band energies     occupation 
      1       6.9434      1.00000
      2       9.9818      1.00000
      3      10.1020      1.00000
      4      11.6989      1.00000
      5      12.6855      1.00108
      6      13.4742     -0.03073
      7      20.9124      0.00000
      8      36.9872      0.00000
      9      41.3108      0.00000
     10      41.3926      0.00000
     11      46.4227      0.00000
     12      46.4812      0.00000

 k-point     7 :      -0.3500    0.0500    0.0500
  band No.  band energies     occupation 
      1       6.7250      1.00000
      2      10.0914      1.00000
      3      10.2175      1.00000
      4      10.6012      1.00000
      5      12.5227      1.00001
      6      12.5978      1.00012
      7      23.7836      0.00000
      8      37.5422      0.00000
      9      40.7787      0.00000
     10      42.9119      0.00000
     11      46.1945      0.00000
     12      47.8777      0.00000

 k-point     8 :      -0.2500    0.0500    0.0500
  band No.  band energies     occupation 
      1       5.6419      1.00000
      2       9.5909      1.00000
      3      10.3156      1.00000
      4      10.3917      1.00000
      5      11.8593      1.00000
      6      12.1032      1.00000
      7      28.6137      0.00000
      8      38.5774      0.00000
      9      41.0164      0.00000
     10      45.0155      0.00000
     11      46.2824      0.00000
     12      49.7516      0.00000

 k-point     9 :      -0.1500    0.0500    0.0500
  band No.  band energies     occupation 
      1       4.0005      1.00000
      2       9.6274      1.00000
      3      10.3884      1.00000
      4      10.4021      1.00000
      5      11.4815      1.00000
      6      11.7897      1.00000
      7      34.0745      0.00000
      8      39.6237      0.00000
      9      41.8221      0.00000
     10      45.3806      0.00000
     11      47.3956      0.00000
     12      51.2374      0.00000

 k-point    10 :      -0.0500    0.0500    0.0500
  band No.  band energies     occupation 
      1       2.8354      1.00000
      2       9.9135      1.00000
      3      10.2019      1.00000
      4      10.2064      1.00000
      5      11.5624      1.00000
      6      11.7386      1.00000
      7      38.3644      0.00000
      8      41.6010      0.00000
      9      43.1127      0.00000
     10      44.3497      0.00000
     11      49.4238      0.00000
     12      50.6770      0.00000

 k-point    11 :       0.1500    0.1500    0.0500
  band No.  band energies     occupation 
      1       3.4357      1.00000
      2       9.6639      1.00000
      3      10.3921      1.00000
      4      10.3963      1.00000
      5      11.3431      1.00000
      6      11.8343      1.00000
      7      37.5858      0.00000
      8      39.9613      0.00000
      9      41.0771      0.00000
     10      42.7485      0.00000
     11      50.4826      0.00000
     12      52.1709      0.00000

 k-point    12 :       0.2500    0.1500    0.0500
  band No.  band energies     occupation 
      1       4.5505      1.00000
      2       9.3375      1.00000
      3      10.4850      1.00000
      4      10.6742      1.00000
      5      11.2671      1.00000
      6      12.0197      1.00000
      7      34.4920      0.00000
      8      36.8644      0.00000
      9      40.8812      0.00000
     10      42.4542      0.00000
     11      49.2011      0.00000
     12      50.9638      0.00000

 k-point    13 :       0.3500    0.1500    0.0500
  band No.  band energies     occupation 
      1       6.1169      1.00000
      2       9.1950      1.00000
      3      10.1717      1.00000
      4      10.6986      1.00000
      5      11.8523      1.00000
      6      12.5294      1.00002
      7      29.0012      0.00000
      8      35.9185      0.00000
      9      39.2443      0.00000
     10      42.5241      0.00000
     11      49.4288      0.00000
     12      49.8856      0.00000

 k-point    14 :       0.4500    0.1500    0.0500
  band No.  band energies     occupation 
      1       7.1409      1.00000
      2       9.6267      1.00000
      3      10.0172      1.00000
      4      10.5330      1.00000
      5      12.4929      1.00001
      6      13.6686     -0.00179
      7      24.0865      0.00000
      8      35.3723      0.00000
      9      37.8691      0.00000
     10      41.3773      0.00000
     11      48.4681      0.00000
     12      50.9919      0.00000

 k-point    15 :      -0.4500    0.1500    0.0500
  band No.  band energies     occupation 
      1       7.3416      1.00000
      2       9.6038      1.00000
      3      10.4016      1.00000
      4      10.6322      1.00000
      5      12.6447      1.00041
      6      15.1940     -0.00000
      7      21.0007      0.00000
      8      34.8398      0.00000
      9      37.6088      0.00000
     10      40.9115      0.00000
     11      47.8717      0.00000
     12      50.6705      0.00000

 k-point    16 :      -0.3500    0.1500    0.0500
  band No.  band energies     occupation 
      1       7.2800      1.00000
      2       9.7135      1.00000
      3      10.2579      1.00000
      4      10.4595      1.00000
      5      12.3629      1.00000
      6      14.3680     -0.00000
      7      22.7475      0.00000
      8      34.3639      0.00000
      9      38.5408      0.00000
     10      41.8249      0.00000
     11      47.4378      0.00000
     12      50.2781      0.00000

 k-point    17 :      -0.2500    0.1500    0.0500
  band No.  band energies     occupation 
      1       6.6067      1.00000
      2       9.3855      1.00000
      3      10.0427      1.00000
      4      10.6221      1.00000
      5      11.7571      1.00000
      6      13.0637      0.93096
      7      27.2866      0.00000
      8      34.4057      0.00000
      9      40.2722      0.00000
     10      43.8642      0.00000
     11      47.1507      0.00000
     12      49.5412      0.00000

 k-point    18 :      -0.1500    0.1500    0.0500
  band No.  band energies     occupation 
      1       5.0647      1.00000
      2       9.3271      1.00000
      3      10.3548      1.00000
      4      10.7110      1.00000
      5      11.2568      1.00000
      6      12.2527      1.00000
      7      32.6273      0.00000
      8      35.0725      0.00000
      9      42.5383      0.00000
     10      44.1912      0.00000
     11      47.9594      0.00000
     12      49.6475      0.00000

 k-point    19 :      -0.0500    0.1500    0.0500
  band No.  band energies     occupation 
      1       3.7246      1.00000
      2       9.6371      1.00000
      3      10.3902      1.00000
      4      10.4158      1.00000
      5      11.3764      1.00000
      6      11.8345      1.00000
      7      35.9808      0.00000
      8      38.4455      0.00000
      9      42.3675      0.00000
     10      44.5919      0.00000
     11      48.5069      0.00000
     12      50.4862      0.00000

 k-point    20 :       0.2500    0.2500    0.0500
  band No.  band energies     occupation 
      1       5.2790      1.00000
      2       8.9446      1.00000
      3      10.6835      1.00000
      4      11.0288      1.00000
      5      11.2481      1.00000
      6      12.1318      1.00000
      7      35.0237      0.00000
      8      36.9134      0.00000
      9      37.2230      0.00000
     10      38.9067      0.00000
     11      46.0457      0.00000
     12      55.1103      0.00000

 k-point    21 :       0.3500    0.2500    0.0500
  band No.  band energies     occupation 
      1       6.4469      1.00000
      2       8.6267      1.00000
      3      10.3738      1.00000
      4      11.3759      1.00000
      5      11.9036      1.00000
      6      12.5575      1.00004
      7      31.6036      0.00000
      8      33.7433      0.00000
      9      35.9004      0.00000
     10      39.7261      0.00000
     11      45.6559      0.00000
     12      54.7536      0.00000

[...]
      4      10.8060      1.00000
      5      12.9352      1.03519
      6      12.9352      1.03519
      7      25.4538      0.00000
      8      38.0661      0.00000
      9      42.7794      0.00000
     10      42.7794      0.00000
     11      46.9250      0.00000
     12      46.9250      0.00000

 k-point   102 :       0.4500    0.3500    0.3500
  band No.  band energies     occupation 
      1       7.2317      1.00000
      2      10.4417      1.00000
      3      10.6502      1.00000
      4      10.9081      1.00000
      5      12.8394      1.01658
      6      14.0311     -0.00000
      7      24.2140      0.00000
      8      35.5122      0.00000
      9      40.3621      0.00000
     10      42.6556      0.00000
     11      47.2519      0.00000
     12      48.2168      0.00000

 k-point   103 :      -0.4500    0.3500    0.3500
  band No.  band energies     occupation 
      1       8.1973      1.00000
      2       9.7477      1.00000
      3      10.2869      1.00000
      4      11.3531      1.00000
      5      12.8276      1.01422
      6      16.0740     -0.00000
      7      23.4560      0.00000
      8      30.7994      0.00000
      9      39.0942      0.00000
     10      39.5459      0.00000
     11      50.5364      0.00000
     12      51.1534      0.00000

 k-point   104 :      -0.3500    0.3500    0.3500
  band No.  band energies     occupation 
      1       8.8170      1.00000
      2       8.9836      1.00000
      3      10.2681      1.00000
      4      11.9548      1.00000
      5      12.9774      1.03003
      6      18.8194      0.00000
      7      22.6425      0.00000
      8      26.9311      0.00000
      9      35.9039      0.00000
     10      38.8802      0.00000
     11      54.3583      0.00000
     12      54.5497      0.00000

 k-point   105 :       0.4500    0.4500    0.3500
  band No.  band energies     occupation 
      1       7.3985      1.00000
      2      10.3054      1.00000
      3      10.9054      1.00000
      4      10.9328      1.00000
      5      13.3744     -0.01602
      6      14.1209     -0.00000
      7      22.9075      0.00000
      8      36.3751      0.00000
      9      39.2452      0.00000
     10      40.8107      0.00000
     11      48.3035      0.00000
     12      49.1426      0.00000

 k-point   106 :      -0.4500    0.4500    0.3500
  band No.  band energies     occupation 
      1       8.0164      1.00000
      2       9.7500      1.00000
      3      10.6157      1.00000
      4      11.2431      1.00000
      5      13.2427      0.28023
      6      16.0456     -0.00000
      7      22.1265      0.00000
      8      33.3331      0.00000
      9      35.8146      0.00000
     10      42.0054      0.00000
     11      47.7590      0.00000
     12      53.1461      0.00000

 k-point   107 :      -0.3500    0.4500    0.3500
  band No.  band energies     occupation 
      1       8.7883      1.00000
      2       9.0291      1.00000
      3      10.2152      1.00000
      4      11.8014      1.00000
      5      13.2307      0.32655
      6      18.6864      0.00000
      7      21.7724      0.00000
      8      29.1836      0.00000
      9      32.9522      0.00000
     10      42.4215      0.00000
     11      49.4110      0.00000
     12      57.2849      0.00000

 k-point   108 :      -0.4500   -0.4500    0.3500
  band No.  band energies     occupation 
      1       8.2154      1.00000
      2       9.4688      1.00000
      3      10.6284      1.00000
      4      11.3904      1.00000
      5      13.3339      0.03129
      6      17.0353     -0.00000
      7      21.4902      0.00000
      8      31.7379      0.00000
      9      36.9076      0.00000
     10      38.9990      0.00000
     11      51.8902      0.00000
     12      51.9990      0.00000

 k-point   109 :       0.4500    0.4500    0.4500
  band No.  band energies     occupation 
      1       7.2078      1.00000
      2      10.6361      1.00000
      3      10.6361      1.00000
      4      12.0750      1.00000
      5      13.3271      0.04289
      6      13.3271      0.04289
      7      21.8159      0.00000
      8      37.2839      0.00000
      9      42.4273      0.00000
     10      42.4273      0.00000
     11      45.5714      0.00000
     12      45.5714      0.00000

 k-point   110 :      -0.4500    0.4500    0.4500
  band No.  band energies     occupation 
      1       7.5432      1.00000
      2      10.3085      1.00000
      3      10.8163      1.00000
      4      11.3840      1.00000
      5      13.3097      0.07780
      6      14.8887     -0.00000
      7      21.3378      0.00000
      8      35.6939      0.00000
      9      39.9471      0.00000
     10      40.4139      0.00000
     11      47.9021      0.00000
     12      48.3915      0.00000


--------------------------------------------------------------------------------------------------------


 soft charge-density along one line, spin component           1
         0         1         2         3         4         5         6         7         8         9
 total charge-density along one line
 
 soft charge-density along one line, spin component           2
         0         1         2         3         4         5         6         7         8         9
 total charge-density along one line
 
 pseudopotential strength for first ion, spin component:           1
  1.866   0.000   0.000   0.000   0.000   0.000   0.000   0.000  -0.000   0.000   1.085   0.000   0.000   0.000   0.000   0.000
  0.000   0.000   1.866   0.000  -0.000   0.000   0.000   0.000   0.000   0.000   0.000   0.000   1.085   0.000  -0.000   0.000
  0.000   0.000  -0.000   0.000   1.968   0.000  -0.000   0.000   0.000   0.000   0.000   0.000  -0.000   0.000   1.183   0.000
  0.000   0.000   0.000   0.000  -0.000   0.000   1.866   0.000  -0.000   0.000   0.000   0.000   0.000   0.000  -0.000   0.000
 -0.000   0.000   0.000   0.000   0.000   0.000  -0.000   0.000   1.968   0.000  -0.000   0.000   0.000   0.000   0.000   0.000
  1.085   0.000   0.000   0.000   0.000   0.000   0.000   0.000  -0.000   0.000   0.379   0.000   0.000   0.000   0.000   0.000
  0.000   0.000   1.085   0.000  -0.000   0.000   0.000   0.000   0.000   0.000   0.000   0.000   0.379   0.000  -0.000   0.000
  0.000   0.000  -0.000   0.000   1.183   0.000  -0.000   0.000   0.000   0.000   0.000   0.000  -0.000   0.000   0.473   0.000
  0.000   0.000   0.000   0.000  -0.000   0.000   1.085   0.000  -0.000   0.000   0.000   0.000   0.000   0.000  -0.000   0.000
 -0.000   0.000   0.000   0.000   0.000   0.000  -0.000   0.000   1.183   0.000  -0.000   0.000   0.000   0.000   0.000   0.000
  0.000   0.000   0.000   0.000   0.000   0.000   0.000   0.000  -0.000   0.000   0.000   0.000   0.000   0.000   0.000   0.000
  0.000   0.000   0.000   0.000   0.000   0.000   0.000   0.000  -0.000   0.000   0.000   0.000   0.000   0.000   0.000   0.000
 -0.000   0.000  -0.000   0.000   0.000   0.000   0.000   0.000   0.000   0.000  -0.000   0.000  -0.000   0.000   0.000   0.000
  0.000   0.000  -0.000   0.000  -0.000   0.000  -0.000   0.000   0.000   0.000   0.000   0.000  -0.000   0.000  -0.000   0.000
 -0.000   0.000   0.000   0.000   0.000   0.000  -0.000   0.000  -0.000   0.000  -0.000   0.000   0.000   0.000   0.000   0.000
 -0.000   0.000  -0.000   0.000   0.000   0.000   0.000   0.000   0.000   0.000  -0.000   0.000  -0.000   0.000   0.000   0.000
  0.000   0.000  -0.000   0.000  -0.000   0.000  -0.000   0.000   0.000   0.000   0.000   0.000  -0.000   0.000  -0.000   0.000
 -0.000   0.000   0.000   0.000   0.000   0.000  -0.000   0.000  -0.000   0.000  -0.000   0.000   0.000   0.000   0.000   0.000
 pseudopotential strength for first ion, spin component:           2
  2.440   0.000   0.000   0.000  -0.000   0.000   0.000   0.000  -0.000   0.000   1.632   0.000   0.000   0.000  -0.000   0.000
  0.000   0.000   2.440   0.000   0.000   0.000   0.000   0.000  -0.000   0.000   0.000   0.000   1.632   0.000   0.000   0.000
 -0.000   0.000   0.000   0.000   2.424   0.000   0.000   0.000   0.000   0.000  -0.000   0.000   0.000   0.000   1.616   0.000
  0.000   0.000   0.000   0.000   0.000   0.000   2.440   0.000   0.000   0.000   0.000   0.000   0.000   0.000   0.000   0.000
 -0.000   0.000  -0.000   0.000   0.000   0.000   0.000   0.000   2.424   0.000  -0.000   0.000  -0.000   0.000   0.000   0.000
  1.632   0.000   0.000   0.000  -0.000   0.000   0.000   0.000  -0.000   0.000   0.900   0.000   0.000   0.000  -0.000   0.000
  0.000   0.000   1.632   0.000   0.000   0.000   0.000   0.000  -0.000   0.000   0.000   0.000   0.900   0.000   0.000   0.000
 -0.000   0.000   0.000   0.000   1.616   0.000   0.000   0.000   0.000   0.000  -0.000   0.000   0.000   0.000   0.885   0.000
  0.000   0.000   0.000   0.000   0.000   0.000   1.632   0.000   0.000   0.000   0.000   0.000   0.000   0.000   0.000   0.000
 -0.000   0.000  -0.000   0.000   0.000   0.000   0.000   0.000   1.616   0.000  -0.000   0.000  -0.000   0.000   0.000   0.000
 -0.000   0.000  -0.000   0.000   0.000   0.000  -0.000   0.000  -0.000   0.000  -0.000   0.000  -0.000   0.000   0.000   0.000
 -0.000   0.000  -0.000   0.000   0.000   0.000  -0.000   0.000  -0.000   0.000  -0.000   0.000  -0.000   0.000   0.000   0.000
 -0.000   0.000  -0.000   0.000   0.000   0.000   0.000   0.000   0.000   0.000  -0.000   0.000  -0.000   0.000   0.000   0.000
  0.000   0.000  -0.000   0.000  -0.000   0.000  -0.000   0.000  -0.000   0.000   0.000   0.000  -0.000   0.000  -0.000   0.000
 -0.000   0.000   0.000   0.000   0.000   0.000  -0.000   0.000  -0.000   0.000  -0.000   0.000   0.000   0.000   0.000   0.000
 -0.000   0.000  -0.000   0.000   0.000   0.000   0.000   0.000   0.000   0.000  -0.000   0.000  -0.000   0.000   0.000   0.000
  0.000   0.000  -0.000   0.000  -0.000   0.000  -0.000   0.000  -0.000   0.000   0.000   0.000  -0.000   0.000  -0.000   0.000
 -0.000   0.000   0.000   0.000   0.000   0.000  -0.000   0.000  -0.000   0.000  -0.000   0.000   0.000   0.000   0.000   0.000
 total augmentation occupancy for first ion, spin component:           1
  3.480  -0.000   0.000  -0.000   0.000  -2.306  -0.000   0.000  -0.000   0.000   0.000  -0.000   0.000   0.000   0.000   0.000
 -0.000   3.480   0.000   0.000   0.000  -0.000  -2.306  -0.000   0.000   0.000   0.000   0.000   0.000   0.000   0.000   0.000
  0.000  -0.000   4.342   0.000   0.000   0.000  -0.000  -2.675  -0.000   0.000   0.000  -0.000   0.000   0.000   0.000   0.000
 -0.000   0.000   0.000   3.480   0.000   0.000   0.000   0.000  -2.306   0.000   0.000  -0.000   0.000   0.000   0.000   0.000
 -0.000   0.000   0.000   0.000   4.342  -0.000   0.000   0.000  -0.000  -2.675   0.000   0.000   0.000   0.000   0.000   0.000
 -2.306  -0.000   0.000   0.000   0.000   2.866  -0.000   0.000  -0.000   0.000   0.000   0.000   0.000   0.000   0.000   0.000
 -0.000  -2.306  -0.000  -0.000   0.000  -0.000   2.866   0.000   0.000   0.000  -0.000   0.000   0.000   0.000   0.000   0.000
  0.000   0.000  -2.675  -0.000   0.000   0.000   0.000   2.848   0.000   0.000  -0.000   0.000   0.000   0.000   0.000   0.000
  0.000   0.000  -0.000  -2.306  -0.000   0.000   0.000   0.000   2.866   0.000  -0.000  -0.000   0.000   0.000   0.000   0.000
  0.000   0.000   0.000  -0.000  -2.675   0.000   0.000  -0.000   0.000   2.848   0.000   0.000   0.000   0.000   0.000   0.000
  0.000   0.000   0.000  -0.000   0.000   0.000   0.000  -0.000  -0.000  -0.000   3.080  -0.486   0.000   0.000   0.000   0.000
  0.000   0.000  -0.000  -0.000  -0.000   0.000  -0.000   0.000  -0.000   0.000  -0.486   0.088   0.000   0.000   0.000   0.000
  0.000   0.000   0.000   0.000   0.000   0.000   0.000   0.000   0.000   0.000   0.000   0.000   0.463   0.000   0.000  -0.051
  0.000   0.000   0.000   0.000   0.000   0.000   0.000   0.000   0.000   0.000   0.000   0.000   0.000   0.463   0.000   0.000
  0.000   0.000   0.000   0.000   0.000   0.000   0.000   0.000   0.000   0.000   0.000   0.000   0.000   0.000   0.463   0.000
  0.000   0.000   0.000   0.000   0.000   0.000   0.000   0.000   0.000   0.000   0.000   0.000  -0.051   0.000  -0.000   0.006
  0.000   0.000   0.000   0.000   0.000   0.000   0.000   0.000   0.000   0.000   0.000   0.000  -0.000  -0.051   0.000   0.000
  0.000   0.000   0.000   0.000   0.000   0.000   0.000   0.000   0.000   0.000   0.000   0.000   0.000  -0.000  -0.051   0.000
 total augmentation occupancy for first ion, spin component:           2
  1.183   0.000   0.000   0.000  -0.000  -0.649   0.000  -0.000   0.000  -0.000   0.000   0.000   0.000   0.000   0.000   0.000
  0.000   1.183  -0.000   0.000   0.000   0.000  -0.649   0.000   0.000   0.000   0.000   0.000   0.000   0.000   0.000   0.000
  0.000   0.000   0.622  -0.000   0.000   0.000   0.000  -0.326  -0.000   0.000  -0.000   0.000   0.000   0.000   0.000   0.000
  0.000  -0.000  -0.000   1.183  -0.000   0.000   0.000  -0.000  -0.649   0.000  -0.000   0.000   0.000   0.000   0.000   0.000
  0.000   0.000  -0.000  -0.000   0.622   0.000   0.000   0.000   0.000  -0.326  -0.000   0.000   0.000   0.000   0.000   0.000
 -0.649  -0.000   0.000   0.000   0.000   0.273   0.000   0.000   0.000  -0.000   0.000   0.000   0.000   0.000   0.000   0.000
 -0.000  -0.649   0.000  -0.000   0.000   0.000   0.273  -0.000  -0.000   0.000   0.000   0.000   0.000   0.000   0.000   0.000
  0.000   0.000  -0.326   0.000  -0.000   0.000  -0.000   0.107  -0.000   0.000   0.000  -0.000   0.000   0.000   0.000   0.000
 -0.000   0.000  -0.000  -0.649  -0.000   0.000   0.000   0.000   0.273   0.000   0.000   0.000   0.000   0.000   0.000   0.000
  0.000   0.000   0.000  -0.000  -0.326  -0.000   0.000   0.000   0.000   0.107   0.000   0.000   0.000   0.000   0.000   0.000
 -0.000  -0.000  -0.000   0.000   0.000   0.000   0.000   0.000  -0.000   0.000  -0.150   0.051   0.000   0.000   0.000   0.000
  0.000   0.000   0.000   0.000  -0.000   0.000   0.000  -0.000  -0.000   0.000   0.051  -0.011   0.000   0.000   0.000   0.000
  0.000   0.000   0.000   0.000   0.000   0.000   0.000   0.000   0.000   0.000   0.000   0.000  -0.019  -0.000   0.000   0.003
  0.000   0.000   0.000   0.000   0.000   0.000   0.000   0.000   0.000   0.000   0.000   0.000   0.000  -0.019   0.000   0.000
  0.000   0.000   0.000   0.000   0.000   0.000   0.000   0.000   0.000   0.000   0.000   0.000   0.000  -0.000  -0.019   0.000
  0.000   0.000   0.000   0.000   0.000   0.000   0.000   0.000   0.000   0.000   0.000   0.000   0.003  -0.000   0.000  -0.001
  0.000   0.000   0.000   0.000   0.000   0.000   0.000   0.000   0.000   0.000   0.000   0.000   0.000   0.003  -0.000   0.000
  0.000   0.000   0.000   0.000   0.000   0.000   0.000   0.000   0.000   0.000   0.000   0.000   0.000  -0.000   0.003   0.000


------------------------ aborting loop because EDIFF is reached ----------------------------------------


    CHARGE:  cpu time    0.0041: real time    0.0041
    FORLOC:  cpu time    0.0001: real time    0.0001
    FORNL :  cpu time    0.0097: real time    0.0097
    STRESS:  cpu time    0.0352: real time    0.0353
    FORCOR:  cpu time    0.0023: real time    0.0022
    FORHAR:  cpu time    0.0003: real time    0.0004
    MIXING:  cpu time    0.0002: real time    0.0002
    OFIELD:  cpu time    0.0000: real time    0.0000

  FORCE on cell =-STRESS in cart. coord.  units (eV):
  Direction    XX          YY          ZZ          XY          YZ          ZX
  --------------------------------------------------------------------------------------
  Alpha Z    59.42579    59.42579    59.42579
  Ewald    -338.56944  -338.56944  -338.56944     0.00000     0.00000    -0.00000
  Hartree    62.90646    62.90646    62.90646     0.00000     0.00000     0.00000
  E(xc)     -55.92606   -55.92606   -55.92606    -0.00007    -0.00007    -0.00007
  Local      23.16505    23.16505    23.16505     0.00108     0.00108     0.00108
  n-local    -2.40179    -1.37862    -4.75777     2.12030    -2.16543     0.08371
  augment   174.83189   174.83189   174.83189    -0.00138    -0.00138    -0.00138
  Kinetic    80.23064    80.21141    83.13452    -0.80352     0.77591    -0.04145
  Fock        0.00000     0.00000     0.00000     0.00000     0.00000     0.00000
  -------------------------------------------------------------------------------------
  Total       4.17984     4.17984     4.17984     0.00000    -0.00000    -0.00000
  in kB     780.33302   780.33302   780.33302     0.00000    -0.00000    -0.00000
  external pressure =      780.33 kB  Pullay stress =        0.00 kB


 VOLUME and BASIS-vectors are now :
 -----------------------------------------------------------------------------
  energy-cutoff  :      270.00
  volume of cell :        8.58
      direct lattice vectors                 reciprocal lattice vectors
     0.000000000  1.625000000  1.625000000    -0.307692308  0.307692308  0.307692308
     1.625000000  0.000000000  1.625000000     0.307692308 -0.307692308  0.307692308
     1.625000000  1.625000000  0.000000000     0.307692308  0.307692308 -0.307692308

  length of vectors
     2.298097039  2.298097039  2.298097039     0.532938710  0.532938710  0.532938710


 FORCES acting on ions
    electron-ion (+dipol)            ewald-force                    non-local-force                 convergence-correction
 -----------------------------------------------------------------------------------------------
   0.257E-13 0.398E-13 0.310E-13   0.177E-15 -.255E-14 0.434E-14   0.165E-23 0.165E-23 -.662E-23   0.313E-13 0.139E-13 0.309E-13
 -----------------------------------------------------------------------------------------------
   0.257E-13 0.398E-13 0.310E-13   0.177E-15 -.255E-14 0.434E-14   0.165E-23 0.165E-23 -.662E-23   0.313E-13 0.139E-13 0.309E-13
 
 
 POSITION                                       TOTAL-FORCE (eV/Angst)
 -----------------------------------------------------------------------------------
      0.00000      0.00000      0.00000         0.000000     -0.000000     -0.000000
 -----------------------------------------------------------------------------------
    total drift:                                0.000000      0.000000      0.000000


--------------------------------------------------------------------------------------------------------



  FREE ENERGIE OF THE ION-ELECTRON SYSTEM (eV)
  ---------------------------------------------------
  free  energy   TOTEN  =        -4.99509231 eV

  energy  without entropy=       -4.99277030  energy(sigma->0) =       -4.99431831
 


--------------------------------------------------------------------------------------------------------


    POTLOK:  cpu time    0.0061: real time    0.0061


--------------------------------------------------------------------------------------------------------


 writing wavefunctions
     LOOP+:  cpu time    3.5706: real time    3.6909
    4ORBIT:  cpu time    0.0000: real time    0.0000

 total amount of memory used by VASP MPI-rank0    33133. kBytes
=======================================================================

   base      :      30000. kBytes
   nonl-proj :       1458. kBytes
   fftplans  :        142. kBytes
   grid      :        320. kBytes
   one-center:         31. kBytes
   wavefun   :       1182. kBytes
 
  
  
 General timing and accounting informations for this job:
 ========================================================
  
                  Total CPU time used (sec):        4.051
                            User time (sec):        3.494
                          System time (sec):        0.557
                         Elapsed time (sec):        4.949
  
                   Maximum memory used (kb):       61656.
                   Average memory used (kb):           0.
  
                          Minor page faults:        38780
                          Major page faults:           68
                 Voluntary context switches:         4687
