<?xml version="1.0" encoding="ISO-8859-1"?>
<modeling>
 <generator>
  <i name="program" type="string">vasp </i>
  <i name="version" type="string">5.4.4.18Apr17-6-g9f103f2a35  </i>
  <i name="subversion" type="string">(build Jul 01 2019 03:25:34) complex            parallel </i>
  <i name="platform" type="string">LinuxIFC </i>
  <i name="date" type="string">2020 07 09 </i>
  <i name="time" type="string">19:35:14 </i>
 </generator>
 <incar>
  <i type="string" name="SYSTEM"> fcc Ni</i>
  <i type="string" name="PREC">normal</i>
  <i type="int" name="ISPIN">     2</i>
  <i name="EDIFF">      0.00010000</i>
  <i name="ENCUT">    270.00000000</i>
  <v name="MAGMOM">      3.00000000</v>
  <v type="int" name="KPOINT_BSE">    -1     0     0     0</v>
 </incar>
 <structure name="primitive_cell" >
  <crystal>
   <varray name="basis" >
    <v>       0.00000000       1.62500000       1.62500000 </v>
    <v>       1.62500000       0.00000000       1.62500000 </v>
    <v>       1.62500000       1.62500000       0.00000000 </v>
   </varray>
   <i name="volume">      8.58203125 </i>
   <varray name="rec_basis" >
    <v>      -0.30769231       0.30769231       0.30769231 </v>
    <v>       0.30769231      -0.30769231       0.30769231 </v>
    <v>       0.30769231       0.30769231      -0.30769231 </v>
   </varray>
  </crystal>
  <varray name="positions" >
   <v>       0.00000000       0.00000000       0.00000000 </v>
  </varray>
 </structure>
 <varray name="primitive_index" >
  <v type="int" >        1 </v>
 </varray>
 <kpoints>
  <generation param="Monkhorst-Pack">
   <v type="int" name="divisions">      10       10       10 </v>
   <v name="usershift">      0.00000000       0.00000000       0.00000000 </v>
   <v name="genvec1">      0.10000000       0.00000000       0.00000000 </v>
   <v name="genvec2">      0.00000000       0.10000000       0.00000000 </v>
   <v name="genvec3">      0.00000000       0.00000000       0.10000000 </v>
   <v name="shift">      0.50000000       0.50000000       0.50000000 </v>
  </generation>
  <varray name="kpointlist" >
   <v>       0.05000000       0.05000000       0.05000000 </v>
   <v>       0.15000000       0.05000000       0.05000000 </v>
   <v>       0.25000000       0.05000000       0.05000000 </v>
   <v>       0.35000000       0.05000000       0.05000000 </v>
   <v>       0.45000000       0.05000000       0.05000000 </v>
   <v>      -0.45000000       0.05000000       0.05000000 </v>
   <v>      -0.35000000       0.05000000       0.05000000 </v>
   <v>      -0.25000000       0.05000000       0.05000000 </v>
   <v>      -0.15000000       0.05000000       0.05000000 </v>
   <v>      -0.05000000       0.05000000       0.05000000 </v>
   <v>       0.15000000       0.15000000       0.05000000 </v>
   <v>       0.25000000       0.15000000       0.05000000 </v>
   <v>       0.35000000       0.15000000       0.05000000 </v>
   <v>       0.45000000       0.15000000       0.05000000 </v>
   <v>      -0.45000000       0.15000000       0.05000000 </v>
   <v>      -0.35000000       0.15000000       0.05000000 </v>
   <v>      -0.25000000       0.15000000       0.05000000 </v>
   <v>      -0.15000000       0.15000000       0.05000000 </v>
   <v>      -0.05000000       0.15000000       0.05000000 </v>
   <v>       0.25000000       0.25000000       0.05000000 </v>
   <v>       0.35000000       0.25000000       0.05000000 </v>
   <v>       0.45000000       0.25000000       0.05000000 </v>
   <v>      -0.45000000       0.25000000       0.05000000 </v>
   <v>      -0.35000000       0.25000000       0.05000000 </v>
   <v>      -0.25000000       0.25000000       0.05000000 </v>
   <v>      -0.15000000       0.25000000       0.05000000 </v>
   <v>      -0.05000000       0.25000000       0.05000000 </v>
   <v>       0.35000000       0.35000000       0.05000000 </v>
   <v>       0.45000000       0.35000000       0.05000000 </v>
   <v>      -0.45000000       0.35000000       0.05000000 </v>
   <v>      -0.35000000       0.35000000       0.05000000 </v>
   <v>      -0.25000000       0.35000000       0.05000000 </v>
   <v>      -0.15000000       0.35000000       0.05000000 </v>
   <v>      -0.05000000       0.35000000       0.05000000 </v>
   <v>       0.45000000       0.45000000       0.05000000 </v>
   <v>      -0.45000000       0.45000000       0.05000000 </v>
   <v>      -0.35000000       0.45000000       0.05000000 </v>
   <v>      -0.25000000       0.45000000       0.05000000 </v>
   <v>      -0.15000000       0.45000000       0.05000000 </v>
   <v>      -0.05000000       0.45000000       0.05000000 </v>
   <v>      -0.45000000      -0.45000000       0.05000000 </v>
   <v>      -0.35000000      -0.45000000       0.05000000 </v>
   <v>      -0.25000000      -0.45000000       0.05000000 </v>
   <v>      -0.15000000      -0.45000000       0.05000000 </v>
   <v>      -0.35000000      -0.35000000       0.05000000 </v>
   <v>      -0.25000000      -0.35000000       0.05000000 </v>
   <v>      -0.15000000      -0.35000000       0.05000000 </v>
   <v>      -0.25000000      -0.25000000       0.05000000 </v>
   <v>      -0.15000000      -0.25000000       0.05000000 </v>
   <v>      -0.15000000      -0.15000000       0.05000000 </v>
   <v>       0.15000000       0.15000000       0.15000000 </v>
   <v>       0.25000000       0.15000000       0.15000000 </v>
   <v>       0.35000000       0.15000000       0.15000000 </v>
   <v>       0.45000000       0.15000000       0.15000000 </v>
   <v>      -0.45000000       0.15000000       0.15000000 </v>
   <v>      -0.35000000       0.15000000       0.15000000 </v>
   <v>      -0.25000000       0.15000000       0.15000000 </v>
   <v>      -0.15000000       0.15000000       0.15000000 </v>
   <v>       0.25000000       0.25000000       0.15000000 </v>
   <v>       0.35000000       0.25000000       0.15000000 </v>
   <v>       0.45000000       0.25000000       0.15000000 </v>
   <v>      -0.45000000       0.25000000       0.15000000 </v>
   <v>      -0.35000000       0.25000000       0.15000000 </v>
   <v>      -0.25000000       0.25000000       0.15000000 </v>
   <v>      -0.15000000       0.25000000       0.15000000 </v>
   <v>       0.35000000       0.35000000       0.15000000 </v>
   <v>       0.45000000       0.35000000       0.15000000 </v>
   <v>      -0.45000000       0.35000000       0.15000000 </v>
   <v>      -0.35000000       0.35000000       0.15000000 </v>
   <v>      -0.25000000       0.35000000       0.15000000 </v>
   <v>      -0.15000000       0.35000000       0.15000000 </v>
   <v>       0.45000000       0.45000000       0.15000000 </v>
   <v>      -0.45000000       0.45000000       0.15000000 </v>
   <v>      -0.35000000       0.45000000       0.15000000 </v>
   <v>      -0.25000000       0.45000000       0.15000000 </v>
   <v>      -0.15000000       0.45000000       0.15000000 </v>
   <v>      -0.45000000      -0.45000000       0.15000000 </v>
   <v>      -0.35000000      -0.45000000       0.15000000 </v>
   <v>      -0.25000000      -0.45000000       0.15000000 </v>
   <v>      -0.35000000      -0.35000000       0.15000000 </v>
   <v>      -0.25000000      -0.35000000       0.15000000 </v>
   <v>      -0.25000000      -0.25000000       0.15000000 </v>
   <v>       0.25000000       0.25000000       0.25000000 </v>
   <v>       0.35000000       0.25000000       0.25000000 </v>
   <v>       0.45000000       0.25000000       0.25000000 </v>
   <v>      -0.45000000       0.25000000       0.25000000 </v>
   <v>      -0.35000000       0.25000000       0.25000000 </v>
   <v>      -0.25000000       0.25000000       0.25000000 </v>
   <v>       0.35000000       0.35000000       0.25000000 </v>
   <v>       0.45000000       0.35000000       0.25000000 </v>
   <v>      -0.45000000       0.35000000       0.25000000 </v>
   <v>      -0.35000000       0.35000000       0.25000000 </v>
   <v>      -0.25000000       0.35000000       0.25000000 </v>
   <v>       0.45000000       0.45000000       0.25000000 </v>
   <v>      -0.45000000       0.45000000       0.25000000 </v>
   <v>      -0.35000000       0.45000000       0.25000000 </v>
   <v>      -0.25000000       0.45000000       0.25000000 </v>
   <v>      -0.45000000      -0.45000000       0.25000000 </v>
   <v>      -0.35000000      -0.45000000       0.25000000 </v>
   <v>      -0.35000000      -0.35000000       0.25000000 </v>
   <v>       0.35000000       0.35000000       0.35000000 </v>
   <v>       0.45000000       0.35000000       0.35000000 </v>
   <v>      -0.45000000       0.35000000       0.35000000 </v>
   <v>      -0.35000000       0.35000000       0.35000000 </v>
   <v>       0.45000000       0.45000000       0.35000000 </v>
   <v>      -0.45000000       0.45000000       0.35000000 </v>
   <v>      -0.35000000       0.45000000       0.35000000 </v>
   <v>      -0.45000000      -0.45000000       0.35000000 </v>
   <v>       0.45000000       0.45000000       0.45000000 </v>
   <v>      -0.45000000       0.45000000       0.45000000 </v>
  </varray>
  <varray name="weights" >
   <v>       0.00200000 </v>
   <v>       0.00600000 </v>
   <v>       0.00600000 </v>
   <v>       0.00600000 </v>
   <v>       0.00600000 </v>
   <v>       0.00600000 </v>
   <v>       0.00600000 </v>
   <v>       0.00600000 </v>
   <v>       0.00600000 </v>
   <v>       0.00600000 </v>
   <v>       0.00600000 </v>
   <v>       0.01200000 </v>
   <v>       0.01200000 </v>
   <v>       0.01200000 </v>
   <v>       0.01200000 </v>
   <v>       0.01200000 </v>
   <v>       0.01200000 </v>
   <v>       0.01200000 </v>
   <v>       0.01200000 </v>
   <v>       0.00600000 </v>
   <v>       0.01200000 </v>
   <v>       0.01200000 </v>
   <v>       0.01200000 </v>
   <v>       0.01200000 </v>
   <v>       0.01200000 </v>
   <v>       0.01200000 </v>
   <v>       0.01200000 </v>
   <v>       0.00600000 </v>
   <v>       0.01200000 </v>
   <v>       0.01200000 </v>
   <v>       0.01200000 </v>
   <v>       0.01200000 </v>
   <v>       0.01200000 </v>
   <v>       0.01200000 </v>
   <v>       0.00600000 </v>
   <v>       0.01200000 </v>
   <v>       0.01200000 </v>
   <v>       0.01200000 </v>
   <v>       0.01200000 </v>
   <v>       0.01200000 </v>
   <v>       0.00600000 </v>
   <v>       0.01200000 </v>
   <v>       0.01200000 </v>
   <v>       0.01200000 </v>
   <v>       0.00600000 </v>
   <v>       0.01200000 </v>
   <v>       0.01200000 </v>
   <v>       0.00600000 </v>
   <v>       0.01200000 </v>
   <v>       0.00600000 </v>
   <v>       0.00200000 </v>
   <v>       0.00600000 </v>
   <v>       0.00600000 </v>
   <v>       0.00600000 </v>
   <v>       0.00600000 </v>
   <v>       0.00600000 </v>
   <v>       0.00600000 </v>
   <v>       0.00600000 </v>
   <v>       0.00600000 </v>
   <v>       0.01200000 </v>
   <v>       0.01200000 </v>
   <v>       0.01200000 </v>
   <v>       0.01200000 </v>
   <v>       0.01200000 </v>
   <v>       0.01200000 </v>
   <v>       0.00600000 </v>
   <v>       0.01200000 </v>
   <v>       0.01200000 </v>
   <v>       0.01200000 </v>
   <v>       0.01200000 </v>
   <v>       0.01200000 </v>
   <v>       0.00600000 </v>
   <v>       0.01200000 </v>
   <v>       0.01200000 </v>
   <v>       0.01200000 </v>
   <v>       0.01200000 </v>
   <v>       0.00600000 </v>
   <v>       0.01200000 </v>
   <v>       0.01200000 </v>
   <v>       0.00600000 </v>
   <v>       0.01200000 </v>
   <v>       0.00600000 </v>
   <v>       0.00200000 </v>
   <v>       0.00600000 </v>
   <v>       0.00600000 </v>
   <v>       0.00600000 </v>
   <v>       0.00600000 </v>
   <v>       0.00600000 </v>
   <v>       0.00600000 </v>
   <v>       0.01200000 </v>
   <v>       0.01200000 </v>
   <v>       0.01200000 </v>
   <v>       0.01200000 </v>
   <v>       0.00600000 </v>
   <v>       0.01200000 </v>
   <v>       0.01200000 </v>
   <v>       0.01200000 </v>
   <v>       0.00600000 </v>
   <v>       0.01200000 </v>
   <v>       0.00600000 </v>
   <v>       0.00200000 </v>
   <v>       0.00600000 </v>
   <v>       0.00600000 </v>
   <v>       0.00600000 </v>
   <v>       0.00600000 </v>
   <v>       0.01200000 </v>
   <v>       0.01200000 </v>
   <v>       0.00600000 </v>
   <v>       0.00200000 </v>
   <v>       0.00600000 </v>
  </varray>
 </kpoints>
 <parameters>
  <separator name="general" >
   <i type="string" name="SYSTEM">fcc Ni</i>
   <i type="logical" name="LCOMPAT"> F  </i>
  </separator>
  <separator name="electronic" >
   <i type="string" name="PREC">normal</i>
   <i name="ENMAX">    270.00000000</i>
   <i name="ENAUG">    544.56500000</i>
   <i name="EDIFF">      0.00010000</i>
   <i type="int" name="IALGO">    38</i>
   <i type="int" name="IWAVPR">    10</i>
   <i type="int" name="NBANDS">    12</i>
   <i name="NELECT">     10.00000000</i>
   <i type="int" name="TURBO">     0</i>
   <i type="int" name="IRESTART">     0</i>
   <i type="int" name="NREBOOT">     0</i>
   <i type="int" name="NMIN">     0</i>
   <i name="EREF">      0.00000000</i>
   <separator name="electronic smearing" >
    <i type="int" name="ISMEAR">     1</i>
    <i name="SIGMA">      0.20000000</i>
    <i name="KSPACING">      0.50000000</i>
    <i type="logical" name="KGAMMA"> T  </i>
   </separator>
   <separator name="electronic projectors" >
    <i type="logical" name="LREAL"> F  </i>
    <v name="ROPT">      0.00000000</v>
    <i type="int" name="LMAXPAW">  -100</i>
    <i type="int" name="LMAXMIX">     2</i>
    <i type="logical" name="NLSPLINE"> F  </i>
   </separator>
   <separator name="electronic startup" >
    <i type="int" name="ISTART">     0</i>
    <i type="int" name="ICHARG">     2</i>
    <i type="int" name="INIWAV">     1</i>
   </separator>
   <separator name="electronic spin" >
    <i type="int" name="ISPIN">     2</i>
    <i type="logical" name="LNONCOLLINEAR"> F  </i>
    <v name="MAGMOM">      3.00000000</v>
    <i name="NUPDOWN">     -1.00000000</i>
    <i type="logical" name="LSORBIT"> F  </i>
    <v name="SAXIS">      0.00000000      0.00000000      1.00000000</v>
    <i type="logical" name="LSPIRAL"> F  </i>
    <v name="QSPIRAL">      0.00000000      0.00000000      0.00000000</v>
    <i type="logical" name="LZEROZ"> F  </i>
   </separator>
   <separator name="electronic exchange-correlation" >
    <i type="logical" name="LASPH"> F  </i>
    <i type="logical" name="LMETAGGA"> F  </i>
   </separator>
   <separator name="electronic convergence" >
    <i type="int" name="NELM">    60</i>
    <i type="int" name="NELMDL">    -5</i>
    <i type="int" name="NELMIN">     2</i>
    <i name="ENINI">    270.00000000</i>
    <separator name="electronic convergence detail" >
     <i type="logical" name="LDIAG"> T  </i>
     <i type="logical" name="LSUBROT"> F  </i>
     <i name="WEIMIN">      0.00000000</i>
     <i name="EBREAK">      0.00000208</i>
     <i name="DEPER">      0.30000000</i>
     <i type="int" name="NRMM">     4</i>
     <i name="TIME">      0.40000000</i>
    </separator>
   </separator>
   <separator name="electronic mixer" >
    <i name="AMIX">      0.40000000</i>
    <i name="BMIX">      1.00000000</i>
    <i name="AMIN">      0.10000000</i>
    <i name="AMIX_MAG">      1.60000000</i>
    <i name="BMIX_MAG">      1.00000000</i>
    <separator name="electronic mixer details" >
     <i type="int" name="IMIX">     4</i>
     <i type="logical" name="MIXFIRST"> F  </i>
     <i type="int" name="MAXMIX">   -45</i>
     <i name="WC">    100.00000000</i>
     <i type="int" name="INIMIX">     1</i>
     <i type="int" name="MIXPRE">     1</i>
     <i type="int" name="MREMOVE">     5</i>
    </separator>
   </separator>
   <separator name="electronic dipolcorrection" >
    <i type="logical" name="LDIPOL"> F  </i>
    <i type="logical" name="LMONO"> F  </i>
    <i type="int" name="IDIPOL">     0</i>
    <i name="EPSILON">      1.00000000</i>
    <v name="DIPOL">   -100.00000000   -100.00000000   -100.00000000</v>
    <i name="EFIELD">      0.00000000</i>
   </separator>
  </separator>
  <separator name="grids" >
   <i type="int" name="NGX">    10</i>
   <i type="int" name="NGY">    10</i>
   <i type="int" name="NGZ">    10</i>
   <i type="int" name="NGXF">    20</i>
   <i type="int" name="NGYF">    20</i>
   <i type="int" name="NGZF">    20</i>
   <i type="logical" name="ADDGRID"> F  </i>
  </separator>
  <separator name="ionic" >
   <i type="int" name="NSW">     0</i>
   <i type="int" name="IBRION">    -1</i>
   <i type="int" name="MDALGO">     0</i>
   <i type="int" name="ISIF">     2</i>
   <i name="PSTRESS">      0.00000000</i>
   <i name="EDIFFG">      0.00100000</i>
   <i type="int" name="NFREE">     0</i>
   <i name="POTIM">      0.50000000</i>
   <i name="SMASS">     -3.00000000</i>
   <i name="SCALEE">      1.00000000</i>
  </separator>
  <separator name="ionic md" >
   <i name="TEBEG">      0.00010000</i>
   <i name="TEEND">      0.00010000</i>
   <i type="int" name="NBLOCK">     1</i>
   <i type="int" name="KBLOCK">     1</i>
   <i type="int" name="NPACO">   256</i>
   <i name="APACO">     16.00000000</i>
  </separator>
  <separator name="symmetry" >
   <i type="int" name="ISYM">     2</i>
   <i name="SYMPREC">      0.00001000</i>
  </separator>
  <separator name="dos" >
   <i type="int" name="LORBIT">     0</i>
   <v name="RWIGS">     -1.00000000</v>
   <i type="int" name="NEDOS">   301</i>
   <i name="EMIN">     10.00000000</i>
   <i name="EMAX">    -10.00000000</i>
   <i name="EFERMI">      0.00000000</i>
  </separator>
  <separator name="writing" >
   <i type="int" name="NWRITE">     2</i>
   <i type="logical" name="LWAVE"> T  </i>
   <i type="logical" name="LDOWNSAMPLE"> F  </i>
   <i type="logical" name="LCHARG"> T  </i>
   <i type="logical" name="LPARD"> F  </i>
   <i type="logical" name="LVTOT"> F  </i>
   <i type="logical" name="LVHAR"> F  </i>
   <i type="logical" name="LELF"> F  </i>
   <i type="logical" name="LOPTICS"> F  </i>
   <v name="STM">      0.00000000      0.00000000      0.00000000      0.00000000      0.00000000      0.00000000      0.00000000</v>
  </separator>
  <separator name="performance" >
   <i type="int" name="NPAR">     4</i>
   <i type="int" name="NSIM">     4</i>
   <i type="int" name="NBLK">    -1</i>
   <i type="logical" name="LPLANE"> T  </i>
   <i type="logical" name="LSCALAPACK"> T  </i>
   <i type="logical" name="LSCAAWARE"> F  </i>
   <i type="logical" name="LSCALU"> F  </i>
   <i type="logical" name="LASYNC"> F  </i>
   <i type="logical" name="LORBITALREAL"> F  </i>
  </separator>
  <separator name="miscellaneous" >
   <i type="int" name="IDIOT">     3</i>
   <i type="int" name="ISPECIAL">     0</i>
   <i type="logical" name="LMUSIC"> F  </i>
   <v name="POMASS">     58.69000000</v>
   <v name="DARWINR">      0.00000000</v>
   <v name="DARWINV">      1.00000000</v>
   <i type="logical" name="LCORR"> T  </i>
  </separator>
  <i type="logical" name="GGA_COMPAT"> T  </i>
  <i type="logical" name="LBERRY"> F  </i>
  <i type="int" name="ICORELEVEL">     0</i>
  <i type="logical" name="LDAU"> F  </i>
  <i type="int" name="I_CONSTRAINED_M">     0</i>
  <separator name="electronic exchange-correlation" >
   <i type="string" name="GGA">--</i>
   <i type="int" name="VOSKOWN">     0</i>
   <i type="logical" name="LHFCALC"> F  </i>
   <i type="string" name="PRECFOCK"></i>
   <i type="logical" name="LSYMGRAD"> F  </i>
   <i type="logical" name="LHFONE"> F  </i>
   <i type="logical" name="LRHFCALC"> F  </i>
   <i type="logical" name="LTHOMAS"> F  </i>
   <i type="logical" name="LMODELHF"> F  </i>
   <i name="ENCUT4O">     -1.00000000</i>
   <i type="int" name="EXXOEP">     0</i>
   <i type="int" name="FOURORBIT">     0</i>
   <i name="AEXX">      0.00000000</i>
   <i name="HFALPHA">      0.00000000</i>
   <i name="MCALPHA">      0.00000000</i>
   <i name="ALDAX">      1.00000000</i>
   <i name="AGGAX">      1.00000000</i>
   <i name="ALDAC">      1.00000000</i>
   <i name="AGGAC">      1.00000000</i>
   <i type="int" name="NKREDX">     1</i>
   <i type="int" name="NKREDY">     1</i>
   <i type="int" name="NKREDZ">     1</i>
   <i type="logical" name="SHIFTRED"> F  </i>
   <i type="logical" name="ODDONLY"> F  </i>
   <i type="logical" name="EVENONLY"> F  </i>
   <i type="int" name="LMAXFOCK">     0</i>
   <i type="int" name="NMAXFOCKAE">     0</i>
   <i type="logical" name="LFOCKAEDFT"> F  </i>
   <i name="HFSCREEN">      0.00000000</i>
   <i name="HFSCREENC">      0.00000000</i>
   <i type="int" name="NBANDSGWLOW">     0</i>
  </separator>
  <separator name="vdW DFT" >
   <i type="logical" name="LUSE_VDW"> F  </i>
   <i name="Zab_VDW">     -0.84910000</i>
   <i name="PARAM1">      0.12340000</i>
   <i name="PARAM2">      1.00000000</i>
   <i name="PARAM3">      0.00000000</i>
  </separator>
  <separator name="model GW" >
   <i type="int" name="MODEL_GW">     0</i>
   <i name="MODEL_EPS0">      5.14921875</i>
   <i name="MODEL_ALPHA">      1.00000000</i>
  </separator>
  <separator name="linear response parameters" >
   <i type="logical" name="LEPSILON"> F  </i>
   <i type="logical" name="LRPA"> F  </i>
   <i type="logical" name="LNABLA"> F  </i>
   <i type="logical" name="LVEL"> F  </i>
   <i type="int" name="KINTER">     0</i>
   <i name="CSHIFT">      0.10000000</i>
   <i name="OMEGAMAX">     -1.00000000</i>
   <i name="DEG_THRESHOLD">      0.00200000</i>
   <i name="RTIME">     -0.10000000</i>
   <i name="WPLASMAI">      0.00000000</i>
   <v name="DFIELD">      0.00000000      0.00000000      0.00000000</v>
   <v name="WPLASMA">      0.00000000      0.00000000      0.00000000      0.00000000      0.00000000      0.00000000      0.00000000      0.00000000      0.00000000</v>
  </separator>
  <separator name="orbital magnetization" >
   <i type="logical" name="NUCIND"> F  </i>
   <v name="MAGPOS">      0.00000000      0.00000000      0.00000000</v>
   <i type="logical" name="LNICSALL"> T  </i>
   <i type="logical" name="ORBITALMAG"> F  </i>
   <i type="logical" name="LMAGBLOCH"> F  </i>
   <i type="logical" name="LCHIMAG"> F  </i>
   <i type="logical" name="LGAUGE"> T  </i>
   <i type="int" name="MAGATOM">     0</i>
   <v name="MAGDIPOL">      0.00000000      0.00000000      0.00000000</v>
   <v name="AVECCONST">      0.00000000      0.00000000      0.00000000</v>
  </separator>
  <separator name="response functions" >
   <i type="logical" name="LADDER"> F  </i>
   <i type="logical" name="LRPAFORCE"> F  </i>
   <i type="logical" name="LFXC"> F  </i>
   <i type="logical" name="LHARTREE"> T  </i>
   <i type="int" name="IBSE">     0</i>
   <v type="int" name="KPOINT">    -1     0     0     0</v>
   <i type="logical" name="LTCTE"> F  </i>
   <i type="logical" name="LTETE"> F  </i>
   <i type="logical" name="LTRIPLET"> F  </i>
   <i type="logical" name="LFXCEPS"> F  </i>
   <i type="logical" name="LFXHEG"> F  </i>
   <i type="int" name="NATURALO">     2</i>
   <i type="logical" name="L2ORDER"> F  </i>
   <i type="logical" name="LMP2LT"> F  </i>
   <i type="logical" name="LUSEW"> F  </i>
   <i name="ENCUTGW">     -2.00000000</i>
   <i name="ENCUTGWSOFT">     -2.00000000</i>
   <i name="ENCUTLF">     -1.00000000</i>
   <i type="int" name="LMAXMP2">    -1</i>
   <i name="SCISSOR">      0.00000000</i>
   <i type="int" name="NOMEGA">     0</i>
   <i type="int" name="NOMEGAR">     0</i>
   <i type="int" name="NBANDSGW">    -1</i>
   <i type="int" name="NBANDSO">    -1</i>
   <i type="int" name="NBANDSV">    -1</i>
   <i type="int" name="NELM">     1</i>
   <i type="int" name="NELMHF">     1</i>
   <i type="int" name="DIM">     3</i>
   <i type="int" name="ANTIRES">     0</i>
   <i name="OMEGAMAX">    -30.00000000</i>
   <i name="OMEGAMIN">    -30.00000000</i>
   <i name="OMEGATL">   -200.00000000</i>
   <i type="int" name="OMEGAGRID">   140</i>
   <i name="CSHIFT">     -0.10000000</i>
   <i type="logical" name="SELFENERGY"> F  </i>
   <i type="logical" name="LSPECTRAL"> F  </i>
   <i type="logical" name="LSPECTRALGW"> F  </i>
   <i type="logical" name="LSINGLES"> F  </i>
   <i type="logical" name="LFERMIGW"> F  </i>
   <i type="logical" name="ODDONLYGW"> F  </i>
   <i type="logical" name="EVENONLYGW"> F  </i>
   <i type="int" name="NKREDLFX">     1</i>
   <i type="int" name="NKREDLFY">     1</i>
   <i type="int" name="NKREDLFZ">     1</i>
   <i type="int" name="MAXMEM">  2800</i>
   <i type="int" name="TELESCOPE">     0</i>
   <i type="int" name="TAUPAR">     1</i>
   <i type="int" name="OMEGAPAR">    -1</i>
   <i name="LAMBDA">      1.00000000</i>
  </separator>
  <separator name="External order field" >
   <i name="OFIELD_KAPPA">      0.00000000</i>
   <v name="OFIELD_K">      0.00000000      0.00000000      0.00000000</v>
   <i name="OFIELD_Q6_NEAR">      0.00000000</i>
   <i name="OFIELD_Q6_FAR">      0.00000000</i>
   <i name="OFIELD_A">      0.00000000</i>
  </separator>
 </parameters>
 <atominfo>
  <atoms>       1 </atoms>
  <types>       1 </types>
  <array name="atoms" >
   <dimension dim="1">ion</dimension>
   <field type="string">element</field>
   <field type="int">atomtype</field>
   <set>
    <rc><c>Ni</c><c>   1</c></rc>
   </set>
  </array>
  <array name="atomtypes" >
   <dimension dim="1">type</dimension>
   <field type="int">atomspertype</field>
   <field type="string">element</field>
   <field>mass</field>
   <field>valence</field>
   <field type="string">pseudopotential</field>
   <set>
    <rc><c>   1</c><c>Ni</c><c>     58.69000000</c><c>     10.00000000</c><c>  PAW_PBE Ni 02Aug2007                  </c></rc>
   </set>
  </array>
 </atominfo>
 <structure name="initialpos" >
  <crystal>
   <varray name="basis" >
    <v>       0.00000000       1.62500000       1.62500000 </v>
    <v>       1.62500000       0.00000000       1.62500000 </v>
    <v>       1.62500000       1.62500000       0.00000000 </v>
   </varray>
   <i name="volume">      8.58203125 </i>
   <varray name="rec_basis" >
    <v>      -0.30769231       0.30769231       0.30769231 </v>
    <v>       0.30769231      -0.30769231       0.30769231 </v>
    <v>       0.30769231       0.30769231      -0.30769231 </v>
   </varray>
  </crystal>
  <varray name="positions" >
   <v>       0.00000000       0.00000000       0.00000000 </v>
  </varray>
 </structure>
 <calculation>
  <scstep>
   <time name="dav">    0.33    0.35</time>
   <time name="total">    0.34    0.38</time>
   <energy>
    <i name="alphaZ">     59.42579270 </i>
    <i name="ewald">  -1015.70827765 </i>
    <i name="hartreedc">   -210.09173171 </i>
    <i name="XCdc">     33.56921601 </i>
    <i name="pawpsdc">    961.92645289 </i>
    <i name="pawaedc">  -1028.66799202 </i>
    <i name="eentropy">      0.00062631 </i>
    <i name="bandstr">    139.89929551 </i>
    <i name="atom">   1077.63607467 </i>
    <i name="e_fr_energy">     17.98945672 </i>
    <i name="e_wo_entrp">     17.98883041 </i>
    <i name="e_0_energy">     17.98924795 </i>
   </energy>
  </scstep>
  <scstep>
   <time name="dav">    0.29    0.30</time>
   <time name="total">    0.29    0.30</time>
   <energy>
    <i name="e_fr_energy">     -4.80248252 </i>
    <i name="e_wo_entrp">     -4.80140937 </i>
    <i name="e_0_energy">     -4.80212480 </i>
   </energy>
  </scstep>
  <scstep>
   <time name="dav">    0.31    0.31</time>
   <time name="total">    0.31    0.31</time>
   <energy>
    <i name="e_fr_energy">     -5.14611147 </i>
    <i name="e_wo_entrp">     -5.14531753 </i>
    <i name="e_0_energy">     -5.14584682 </i>
   </energy>
  </scstep>
  <scstep>
   <time name="dav">    0.30    0.31</time>
   <time name="total">    0.30    0.31</time>
   <energy>
    <i name="e_fr_energy">     -5.14754613 </i>
    <i name="e_wo_entrp">     -5.14675373 </i>
    <i name="e_0_energy">     -5.14728200 </i>
   </energy>
  </scstep>
  <scstep>
   <time name="dav">    0.29    0.30</time>
   <time name="total">    0.30    0.31</time>
   <energy>
    <i name="e_fr_energy">     -5.14756113 </i>
    <i name="e_wo_entrp">     -5.14676875 </i>
    <i name="e_0_energy">     -5.14729701 </i>
   </energy>
  </scstep>
  <scstep>
   <time name="dav">    0.33    0.34</time>
   <time name="total">    0.35    0.35</time>
   <energy>
    <i name="e_fr_energy">     -5.13781200 </i>
    <i name="e_wo_entrp">     -5.13415129 </i>
    <i name="e_0_energy">     -5.13659177 </i>
   </energy>
  </scstep>
  <scstep>
   <time name="dav">    0.32    0.33</time>
   <time name="total">    0.34    0.34</time>
   <energy>
    <i name="e_fr_energy">     -5.01991090 </i>
    <i name="e_wo_entrp">     -5.01804143 </i>
    <i name="e_0_energy">     -5.01928774 </i>
   </energy>
  </scstep>
  <scstep>
   <time name="dav">    0.32    0.32</time>
   <time name="total">    0.33    0.34</time>
   <energy>
    <i name="e_fr_energy">     -4.99914638 </i>
    <i name="e_wo_entrp">     -4.99727064 </i>
    <i name="e_0_energy">     -4.99852113 </i>
   </energy>
  </scstep>
  <scstep>
   <time name="dav">    0.35    0.36</time>
   <time name="total">    0.36    0.37</time>
   <energy>
    <i name="e_fr_energy">     -4.99529068 </i>
    <i name="e_wo_entrp">     -4.99296977 </i>
    <i name="e_0_energy">     -4.99451704 </i>
   </energy>
  </scstep>
  <scstep>
   <time name="dav">    0.26    0.26</time>
   <time name="total">    0.27    0.28</time>
   <energy>
    <i name="e_fr_energy">     -4.99509217 </i>
    <i name="e_wo_entrp">     -4.99277791 </i>
    <i name="e_0_energy">     -4.99432075 </i>
   </energy>
  </scstep>
  <scstep>
   <time name="dav">    0.21    0.21</time>
   <time name="total">    0.22    0.22</time>
   <energy>
    <i name="alphaZ">     59.42579270 </i>
    <i name="ewald">  -1015.70827765 </i>
    <i name="hartreedc">   -188.70676968 </i>
    <i name="XCdc">     31.43833529 </i>
    <i name="pawpsdc">   1317.07794725 </i>
    <i name="pawaedc">  -1387.64004576 </i>
    <i name="eentropy">     -0.00232202 </i>
    <i name="bandstr">    101.48417288 </i>
    <i name="atom">   1077.63607467 </i>
    <i name="e_fr_energy">     -4.99509231 </i>
    <i name="e_wo_entrp">     -4.99277030 </i>
    <i name="e_0_energy">     -4.99431831 </i>
   </energy>
  </scstep>
  <structure>
   <crystal>
    <varray name="basis" >
     <v>       0.00000000       1.62500000       1.62500000 </v>
     <v>       1.62500000       0.00000000       1.62500000 </v>
     <v>       1.62500000       1.62500000       0.00000000 </v>
    </varray>
    <i name="volume">      8.58203125 </i>
    <varray name="rec_basis" >
     <v>      -0.30769231       0.30769231       0.30769231 </v>
     <v>       0.30769231      -0.30769231       0.30769231 </v>
     <v>       0.30769231       0.30769231      -0.30769231 </v>
    </varray>
   </crystal>
   <varray name="positions" >
    <v>       0.00000000       0.00000000       0.00000000 </v>
   </varray>
  </structure>
  <varray name="forces" >
   <v>       0.00000000      -0.00000000      -0.00000000 </v>
  </varray>
  <varray name="stress" >
   <v>     780.33301735      -0.00000000      -0.00000000 </v>
   <v>       0.00000000     780.33301735      -0.00000000 </v>
   <v>       0.00000000      -0.00000000     780.33301735 </v>
  </varray>
  <energy>
   <i name="e_fr_energy">     -4.99509231 </i>
   <i name="e_wo_entrp">     -4.99431831 </i>
   <i name="e_0_energy">     -0.00232202 </i>
  </energy>
  <time name="totalsc">    3.57    3.69</time>
  <eigenvalues>
   <array>
    <dimension dim="1">band</dimension>
    <dimension dim="2">kpoint</dimension>
    <dimension dim="3">spin</dimension>
    <field>eigene</field>
    <field>occ</field>
    <set>
     <set comment="spin 1">
      <set comment="kpoint 1">
       <r>    2.5260    1.0000 </r>
       <r>   10.0401    1.0000 </r>
       <r>   10.1108    1.0000 </r>
       <r>   10.1108    1.0000 </r>
       <r>   11.6871    1.0000 </r>
       <r>   11.6871    1.0000 </r>
       <r>   38.8020    0.0000 </r>
       <r>   43.2458    0.0000 </r>
       <r>   44.5980    0.0000 </r>
       <r>   44.5980    0.0000 </r>
       <r>   49.6113    0.0000 </r>
       <r>   49.6117    0.0000 </r>
      </set>
      <set comment="kpoint 2">
       <r>    3.1379    1.0000 </r>
       <r>    9.8397    1.0000 </r>
       <r>   10.2524    1.0000 </r>
       <r>   10.2720    1.0000 </r>
       <r>   11.5343    1.0000 </r>
       <r>   11.7252    1.0000 </r>
       <r>   37.3712    0.0000 </r>
       <r>   40.0760    0.0000 </r>
       <r>   43.1853    0.0000 </r>
       <r>   45.4008    0.0000 </r>
       <r>   48.3021    0.0000 </r>
       <r>   49.6185    0.0000 </r>
      </set>
      <set comment="kpoint 3">
       <r>    4.5312    1.0000 </r>
       <r>    9.5657    1.0000 </r>
       <r>   10.3903    1.0000 </r>
       <r>   10.4361    1.0000 </r>
       <r>   11.5114    1.0000 </r>
       <r>   11.8927    1.0000 </r>
       <r>   32.2369    0.0000 </r>
       <r>   38.6993    0.0000 </r>
       <r>   42.5436    0.0000 </r>
       <r>   45.2920    0.0000 </r>
       <r>   47.7455    0.0000 </r>
       <r>   48.6539    0.0000 </r>
      </set>
      <set comment="kpoint 4">
       <r>    6.1275    1.0000 </r>
       <r>    9.7980    1.0000 </r>
       <r>   10.2525    1.0000 </r>
       <r>   10.3255    1.0000 </r>
       <r>   11.9324    1.0000 </r>
       <r>   12.3788    1.0000 </r>
       <r>   26.8968    0.0000 </r>
       <r>   37.7910    0.0000 </r>
       <r>   41.4307    0.0000 </r>
       <r>   44.7748    0.0000 </r>
       <r>   46.1449    0.0000 </r>
       <r>   47.9674    0.0000 </r>
      </set>
      <set comment="kpoint 5">
       <r>    6.8562    1.0000 </r>
       <r>   10.0547    1.0000 </r>
       <r>   10.1466    1.0000 </r>
       <r>   11.1296    1.0000 </r>
       <r>   12.4459    1.0000 </r>
       <r>   13.0391    0.9755 </r>
       <r>   22.4881    0.0000 </r>
       <r>   37.1183    0.0000 </r>
       <r>   40.8996    0.0000 </r>
       <r>   42.8206    0.0000 </r>
       <r>   45.7709    0.0000 </r>
       <r>   47.2083    0.0000 </r>
      </set>
      <set comment="kpoint 6">
       <r>    6.9434    1.0000 </r>
       <r>    9.9818    1.0000 </r>
       <r>   10.1020    1.0000 </r>
       <r>   11.6989    1.0000 </r>
       <r>   12.6855    1.0011 </r>
       <r>   13.4742   -0.0307 </r>
       <r>   20.9124    0.0000 </r>
       <r>   36.9872    0.0000 </r>
       <r>   41.3108    0.0000 </r>
       <r>   41.3926    0.0000 </r>
       <r>   46.4227    0.0000 </r>
       <r>   46.4812    0.0000 </r>
      </set>
      <set comment="kpoint 7">
       <r>    6.7250    1.0000 </r>
       <r>   10.0914    1.0000 </r>
       <r>   10.2175    1.0000 </r>
       <r>   10.6012    1.0000 </r>
       <r>   12.5227    1.0000 </r>
       <r>   12.5978    1.0001 </r>
       <r>   23.7836    0.0000 </r>
       <r>   37.5422    0.0000 </r>
       <r>   40.7787    0.0000 </r>
       <r>   42.9119    0.0000 </r>
       <r>   46.1945    0.0000 </r>
       <r>   47.8777    0.0000 </r>
      </set>
      <set comment="kpoint 8">
       <r>    5.6419    1.0000 </r>
       <r>    9.5909    1.0000 </r>
       <r>   10.3156    1.0000 </r>
       <r>   10.3917    1.0000 </r>
       <r>   11.8593    1.0000 </r>
       <r>   12.1032    1.0000 </r>
       <r>   28.6137    0.0000 </r>
       <r>   38.5774    0.0000 </r>
       <r>   41.0164    0.0000 </r>
       <r>   45.0155    0.0000 </r>
       <r>   46.2824    0.0000 </r>
       <r>   49.7516    0.0000 </r>
      </set>
      <set comment="kpoint 9">
       <r>    4.0005    1.0000 </r>
       <r>    9.6274    1.0000 </r>
       <r>   10.3884    1.0000 </r>
       <r>   10.4021    1.0000 </r>
       <r>   11.4815    1.0000 </r>
       <r>   11.7897    1.0000 </r>
       <r>   34.0745    0.0000 </r>
       <r>   39.6237    0.0000 </r>
       <r>   41.8221    0.0000 </r>
       <r>   45.3806    0.0000 </r>
       <r>   47.3956    0.0000 </r>
       <r>   51.2374    0.0000 </r>
      </set>
      <set comment="kpoint 10">
       <r>    2.8354    1.0000 </r>
       <r>    9.9135    1.0000 </r>
       <r>   10.2019    1.0000 </r>
       <r>   10.2064    1.0000 </r>
       <r>   11.5624    1.0000 </r>
       <r>   11.7386    1.0000 </r>
       <r>   38.3644    0.0000 </r>
       <r>   41.6010    0.0000 </r>
       <r>   43.1127    0.0000 </r>
       <r>   44.3497    0.0000 </r>
       <r>   49.4238    0.0000 </r>
       <r>   50.6770    0.0000 </r>
      </set>
      <set comment="kpoint 11">
       <r>    3.4357    1.0000 </r>
       <r>    9.6639    1.0000 </r>
       <r>   10.3921    1.0000 </r>
       <r>   10.3963    1.0000 </r>
       <r>   11.3431    1.0000 </r>
       <r>   11.8343    1.0000 </r>
       <r>   37.5858    0.0000 </r>
       <r>   39.9613    0.0000 </r>
       <r>   41.0771    0.0000 </r>
       <r>   42.7485    0.0000 </r>
       <r>   50.4826    0.0000 </r>
       <r>   52.1709    0.0000 </r>
      </set>
      <set comment="kpoint 12">
       <r>    4.5505    1.0000 </r>
       <r>    9.3375    1.0000 </r>
       <r>   10.4850    1.0000 </r>
       <r>   10.6742    1.0000 </r>
       <r>   11.2671    1.0000 </r>
       <r>   12.0197    1.0000 </r>
       <r>   34.4920    0.0000 </r>
       <r>   36.8644    0.0000 </r>
       <r>   40.8812    0.0000 </r>
       <r>   42.4542    0.0000 </r>
       <r>   49.2011    0.0000 </r>
       <r>   50.9638    0.0000 </r>
      </set>
      <set comment="kpoint 13">
       <r>    6.1169    1.0000 </r>
       <r>    9.1950    1.0000 </r>
       <r>   10.1717    1.0000 </r>
       <r>   10.6986    1.0000 </r>
       <r>   11.8523    1.0000 </r>
       <r>   12.5294    1.0000 </r>
       <r>   29.0012    0.0000 </r>
       <r>   35.9185    0.0000 </r>
       <r>   39.2443    0.0000 </r>
       <r>   42.5241    0.0000 </r>
       <r>   49.4288    0.0000 </r>
       <r>   49.8856    0.0000 </r>
      </set>
      <set comment="kpoint 14">
       <r>    7.1409    1.0000 </r>
       <r>    9.6267    1.0000 </r>
       <r>   10.0172    1.0000 </r>
       <r>   10.5330    1.0000 </r>
       <r>   12.4929    1.0000 </r>
       <r>   13.6686   -0.0018 </r>
       <r>   24.0865    0.0000 </r>
       <r>   35.3723    0.0000 </r>
       <r>   37.8691    0.0000 </r>
       <r>   41.3773    0.0000 </r>
       <r>   48.4681    0.0000 </r>
       <r>   50.9919    0.0000 </r>
      </set>
      <set comment="kpoint 15">
       <r>    7.3416    1.0000 </r>
       <r>    9.6038    1.0000 </r>
       <r>   10.4016    1.0000 </r>
       <r>   10.6322    1.0000 </r>
       <r>   12.6447    1.0004 </r>
       <r>   15.1940   -0.0000 </r>
       <r>   21.0007    0.0000 </r>
       <r>   34.8398    0.0000 </r>
       <r>   37.6088    0.0000 </r>
       <r>   40.9115    0.0000 </r>
       <r>   47.8717    0.0000 </r>
       <r>   50.6705    0.0000 </r>
      </set>
      <set comment="kpoint 16">
       <r>    7.2800    1.0000 </r>
       <r>    9.7135    1.0000 </r>
       <r>   10.2579    1.0000 </r>
       <r>   10.4595    1.0000 </r>
       <r>   12.3629    1.0000 </r>
       <r>   14.3680   -0.0000 </r>
       <r>   22.7475    0.0000 </r>
       <r>   34.3639    0.0000 </r>
       <r>   38.5408    0.0000 </r>
       <r>   41.8249    0.0000 </r>
       <r>   47.4378    0.0000 </r>
       <r>   50.2781    0.0000 </r>
      </set>
      <set comment="kpoint 17">
       <r>    6.6067    1.0000 </r>
       <r>    9.3855    1.0000 </r>
       <r>   10.0427    1.0000 </r>
       <r>   10.6221    1.0000 </r>
       <r>   11.7571    1.0000 </r>
       <r>   13.0637    0.9310 </r>
       <r>   27.2866    0.0000 </r>
       <r>   34.4057    0.0000 </r>
       <r>   40.2722    0.0000 </r>
       <r>   43.8642    0.0000 </r>
       <r>   47.1507    0.0000 </r>
       <r>   49.5412    0.0000 </r>
      </set>
      <set comment="kpoint 18">
       <r>    5.0647    1.0000 </r>
       <r>    9.3271    1.0000 </r>
       <r>   10.3548    1.0000 </r>
       <r>   10.7110    1.0000 </r>
       <r>   11.2568    1.0000 </r>
       <r>   12.2527    1.0000 </r>
       <r>   32.6273    0.0000 </r>
       <r>   35.0725    0.0000 </r>
       <r>   42.5383    0.0000 </r>
       <r>   44.1912    0.0000 </r>
       <r>   47.9594    0.0000 </r>
       <r>   49.6475    0.0000 </r>
      </set>
      <set comment="kpoint 19">
       <r>    3.7246    1.0000 </r>
       <r>    9.6371    1.0000 </r>
       <r>   10.3902    1.0000 </r>
       <r>   10.4158    1.0000 </r>
       <r>   11.3764    1.0000 </r>
       <r>   11.8345    1.0000 </r>
       <r>   35.9808    0.0000 </r>
       <r>   38.4455    0.0000 </r>
       <r>   42.3675    0.0000 </r>
       <r>   44.5919    0.0000 </r>
       <r>   48.5069    0.0000 </r>
       <r>   50.4862    0.0000 </r>
      </set>
      <set comment="kpoint 20">
       <r>    5.2790    1.0000 </r>
       <r>    8.9446    1.0000 </r>
       <r>   10.6835    1.0000 </r>
       <r>   11.0288    1.0000 </r>
       <r>   11.2481    1.0000 </r>
       <r>   12.1318    1.0000 </r>
       <r>   35.0237    0.0000 </r>
       <r>   36.9134    0.0000 </r>
       <r>   37.2230    0.0000 </r>
       <r>   38.9067    0.0000 </r>
       <r>   46.0457    0.0000 </r>
       <r>   55.1103    0.0000 </r>
      </set>
      <set comment="kpoint 21">
       <r>    6.4469    1.0000 </r>
       <r>    8.6267    1.0000 </r>
       <r>   10.3738    1.0000 </r>
       <r>   11.3759    1.0000 </r>
       <r>   11.9036    1.0000 </r>
       <r>   12.5575    1.0000 </r>
       <r>   31.6036    0.0000 </r>
       <r>   33.7433    0.0000 </r>
       <r>   35.9004    0.0000 </r>
       <r>   39.7261    0.0000 </r>
       <r>   45.6559    0.0000 </r>
       <r>   54.7536    0.0000 </r>
      </set>
      <set comment="kpoint 22">
       <r>    7.4577    1.0000 </r>
       <r>    8.6217    1.0000 </r>
       <r>   10.0250    1.0000 </r>
       <r>   11.2653    1.0000 </r>
       <r>   12.5762    1.0001 </r>
       <r>   14.1281   -0.0000 </r>
       <r>   26.4190    0.0000 </r>
       <r>   32.6272    0.0000 </r>
       <r>   34.1863    0.0000 </r>
       <r>   40.0170    0.0000 </r>
       <r>   48.8207    0.0000 </r>
       <r>   53.3935    0.0000 </r>
      </set>
      <set comment="kpoint 23">
       <r>    7.8918    1.0000 </r>
       <r>    8.8279    1.0000 </r>
       <r>    9.9675    1.0000 </r>
       <r>   11.0721    1.0000 </r>
       <r>   12.6699    1.0008 </r>
       <r>   16.7425   -0.0000 </r>
       <r>   22.1197    0.0000 </r>
       <r>   30.9832    0.0000 </r>
       <r>   34.4744    0.0000 </r>
       <r>   40.0111    0.0000 </r>
       <r>   51.0652    0.0000 </r>
       <r>   54.6863    0.0000 </r>
      </set>
      <set comment="kpoint 24">
       <r>    8.0810    1.0000 </r>
       <r>    9.0155    1.0000 </r>
       <r>    9.7884    1.0000 </r>
       <r>   10.9800    1.0000 </r>
       <r>   12.3194    1.0000 </r>
       <r>   16.9388   -0.0000 </r>
       <r>   22.1452    0.0000 </r>
       <r>   29.7567    0.0000 </r>
       <r>   35.9409    0.0000 </r>
       <r>   40.7258    0.0000 </r>
       <r>   50.0312    0.0000 </r>
       <r>   54.2453    0.0000 </r>
      </set>
      <set comment="kpoint 25">
       <r>    7.8312    1.0000 </r>
       <r>    9.1549    1.0000 </r>
       <r>    9.4832    1.0000 </r>
       <r>   11.0598    1.0000 </r>
       <r>   11.6957    1.0000 </r>
       <r>   14.7387   -0.0000 </r>
       <r>   26.4330    0.0000 </r>
       <r>   29.3650    0.0000 </r>
       <r>   38.0526    0.0000 </r>
       <r>   42.5220    0.0000 </r>
       <r>   48.2197    0.0000 </r>
       <r>   53.0267    0.0000 </r>
      </set>
      <set comment="kpoint 26">
       <r>    6.5862    1.0000 </r>
       <r>    9.1286    1.0000 </r>
       <r>   10.0046    1.0000 </r>
       <r>   10.9513    1.0000 </r>
       <r>   11.3439    1.0000 </r>
       <r>   13.1820    0.5282 </r>
       <r>   29.3973    0.0000 </r>
       <r>   31.9657    0.0000 </r>
       <r>   40.4672    0.0000 </r>
       <r>   44.8153    0.0000 </r>
       <r>   46.2060    0.0000 </r>
       <r>   51.0905    0.0000 </r>
      </set>
      <set comment="kpoint 27">
       <r>    5.2675    1.0000 </r>
       <r>    9.4169    1.0000 </r>
       <r>   10.3457    1.0000 </r>
       <r>   10.5282    1.0000 </r>
       <r>   11.5522    1.0000 </r>
       <r>   12.1704    1.0000 </r>
       <r>   30.5343    0.0000 </r>
       <r>   37.3310    0.0000 </r>
       <r>   41.3023    0.0000 </r>
       <r>   45.1051    0.0000 </r>
       <r>   47.1037    0.0000 </r>
       <r>   49.2572    0.0000 </r>
      </set>
      <set comment="kpoint 28">
       <r>    6.8278    1.0000 </r>
       <r>    8.2000    1.0000 </r>
       <r>   11.2329    1.0000 </r>
       <r>   11.8604    1.0000 </r>
       <r>   12.3398    1.0000 </r>
       <r>   12.4755    1.0000 </r>
       <r>   31.6806    0.0000 </r>
       <r>   32.6279    0.0000 </r>
       <r>   33.3868    0.0000 </r>
       <r>   37.4203    0.0000 </r>
       <r>   43.0734    0.0000 </r>
       <r>   60.0519    0.0000 </r>
      </set>
      <set comment="kpoint 29">
       <r>    7.2008    1.0000 </r>
       <r>    8.0151    1.0000 </r>
       <r>   11.1664    1.0000 </r>
       <r>   12.1579    1.0000 </r>
       <r>   12.5909    1.0001 </r>
       <r>   14.2545   -0.0000 </r>
       <r>   28.8830    0.0000 </r>
       <r>   29.8583    0.0000 </r>
       <r>   31.6593    0.0000 </r>
       <r>   38.6404    0.0000 </r>
       <r>   44.0052    0.0000 </r>
       <r>   58.2953    0.0000 </r>
      </set>
      <set comment="kpoint 30">
       <r>    7.6139    1.0000 </r>
       <r>    8.1518    1.0000 </r>
       <r>   10.6514    1.0000 </r>
       <r>   11.8965    1.0000 </r>
       <r>   12.7393    1.0033 </r>
       <r>   17.3108   -0.0000 </r>
       <r>   24.5787    0.0000 </r>
       <r>   27.4913    0.0000 </r>
       <r>   31.9554    0.0000 </r>
       <r>   39.2774    0.0000 </r>
       <r>   48.1288    0.0000 </r>
       <r>   56.1901    0.0000 </r>
      </set>
      <set comment="kpoint 31">
       <r>    8.1407    1.0000 </r>
       <r>    8.4625    1.0000 </r>
       <r>    9.9879    1.0000 </r>
       <r>   11.6128    1.0000 </r>
       <r>   12.4507    1.0000 </r>
       <r>   20.0738    0.0000 </r>
       <r>   21.3924    0.0000 </r>
       <r>   26.2737    0.0000 </r>
       <r>   33.4489    0.0000 </r>
       <r>   39.7665    0.0000 </r>
       <r>   53.4654    0.0000 </r>
       <r>   54.1889    0.0000 </r>
      </set>
      <set comment="kpoint 32">
       <r>    8.4157    1.0000 </r>
       <r>    8.8666    1.0000 </r>
       <r>    9.4431    1.0000 </r>
       <r>   11.2526    1.0000 </r>
       <r>   12.0951    1.0000 </r>
       <r>   17.1173   -0.0000 </r>
       <r>   23.7237    0.0000 </r>
       <r>   27.4488    0.0000 </r>
       <r>   35.6885    0.0000 </r>
       <r>   40.7776    0.0000 </r>
       <r>   50.8625    0.0000 </r>
       <r>   55.3673    0.0000 </r>
      </set>
      <set comment="kpoint 33">
       <r>    7.5696    1.0000 </r>
       <r>    9.4950    1.0000 </r>
       <r>    9.6803    1.0000 </r>
       <r>   10.7462    1.0000 </r>
       <r>   12.0316    1.0000 </r>
       <r>   14.6261   -0.0000 </r>
       <r>   24.4546    0.0000 </r>
       <r>   31.8153    0.0000 </r>
       <r>   38.1883    0.0000 </r>
       <r>   42.2286    0.0000 </r>
       <r>   47.9505    0.0000 </r>
       <r>   51.7414    0.0000 </r>
      </set>
      <set comment="kpoint 34">
       <r>    6.6487    1.0000 </r>
       <r>    9.8881    1.0000 </r>
       <r>   10.0942    1.0000 </r>
       <r>   10.3736    1.0000 </r>
       <r>   12.1651    1.0000 </r>
       <r>   12.8378    1.0162 </r>
       <r>   25.3896    0.0000 </r>
       <r>   36.6475    0.0000 </r>
       <r>   40.0916    0.0000 </r>
       <r>   43.2201    0.0000 </r>
       <r>   46.9291    0.0000 </r>
       <r>   48.9020    0.0000 </r>
      </set>
      <set comment="kpoint 35">
       <r>    6.9754    1.0000 </r>
       <r>    7.6956    1.0000 </r>
       <r>   12.4101    1.0000 </r>
       <r>   12.5315    1.0000 </r>
       <r>   12.7684    1.0057 </r>
       <r>   14.7999   -0.0000 </r>
       <r>   26.6887    0.0000 </r>
       <r>   30.2296    0.0000 </r>
       <r>   31.0932    0.0000 </r>
       <r>   36.9554    0.0000 </r>
       <r>   42.1461    0.0000 </r>
       <r>   62.5451    0.0000 </r>
      </set>
      <set comment="kpoint 36">
       <r>    7.0959    1.0000 </r>
       <r>    7.7149    1.0000 </r>
       <r>   11.9420    1.0000 </r>
       <r>   12.5049    1.0000 </r>
       <r>   12.8623    1.0216 </r>
       <r>   16.8951   -0.0000 </r>
       <r>   25.0358    0.0000 </r>
       <r>   28.2468    0.0000 </r>
       <r>   30.2717    0.0000 </r>
       <r>   38.2394    0.0000 </r>
       <r>   43.5095    0.0000 </r>
       <r>   60.4686    0.0000 </r>
      </set>
      <set comment="kpoint 37">
       <r>    7.5534    1.0000 </r>
       <r>    8.0612    1.0000 </r>
       <r>   10.8715    1.0000 </r>
       <r>   12.0843    1.0000 </r>
       <r>   12.7175    1.0022 </r>
       <r>   18.7929    0.0000 </r>
       <r>   23.8861    0.0000 </r>
       <r>   25.8383    0.0000 </r>
       <r>   31.5499    0.0000 </r>
       <r>   39.1648    0.0000 </r>
       <r>   47.9931    0.0000 </r>
       <r>   57.0890    0.0000 </r>
      </set>
      <set comment="kpoint 38">
       <r>    8.0901    1.0000 </r>
       <r>    8.5598    1.0000 </r>
       <r>    9.9726    1.0000 </r>
       <r>   11.3800    1.0000 </r>
       <r>   12.5744    1.0001 </r>
       <r>   18.6144   -0.0000 </r>
       <r>   21.5335    0.0000 </r>
       <r>   28.3206    0.0000 </r>
       <r>   33.7810    0.0000 </r>
       <r>   39.8385    0.0000 </r>
       <r>   52.3623    0.0000 </r>
       <r>   54.5412    0.0000 </r>
      </set>
      <set comment="kpoint 39">
       <r>    7.6922    1.0000 </r>
       <r>    9.2856    1.0000 </r>
       <r>   10.2070    1.0000 </r>
       <r>   10.6673    1.0000 </r>
       <r>   12.5342    1.0000 </r>
       <r>   16.3240   -0.0000 </r>
       <r>   21.1164    0.0000 </r>
       <r>   32.4318    0.0000 </r>
       <r>   36.4958    0.0000 </r>
       <r>   40.7296    0.0000 </r>
       <r>   48.9328    0.0000 </r>
       <r>   52.6096    0.0000 </r>
      </set>
      <set comment="kpoint 40">
       <r>    7.0599    1.0000 </r>
       <r>    9.8812    1.0000 </r>
       <r>   10.2209    1.0000 </r>
       <r>   11.0188    1.0000 </r>
       <r>   12.6035    1.0001 </r>
       <r>   13.9414   -0.0000 </r>
       <r>   21.5362    0.0000 </r>
       <r>   36.2984    0.0000 </r>
       <r>   39.5458    0.0000 </r>
       <r>   41.5167    0.0000 </r>
       <r>   46.8806    0.0000 </r>
       <r>   48.4957    0.0000 </r>
      </set>
      <set comment="kpoint 41">
       <r>    6.9206    1.0000 </r>
       <r>    7.5871    1.0000 </r>
       <r>   12.6443    1.0004 </r>
       <r>   12.6580    1.0006 </r>
       <r>   12.8733    1.0241 </r>
       <r>   15.9666   -0.0000 </r>
       <r>   25.0122    0.0000 </r>
       <r>   29.7528    0.0000 </r>
       <r>   30.5949    0.0000 </r>
       <r>   36.8746    0.0000 </r>
       <r>   41.9787    0.0000 </r>
       <r>   62.1100    0.0000 </r>
      </set>
      <set comment="kpoint 42">
       <r>    7.1574    1.0000 </r>
       <r>    7.8173    1.0000 </r>
       <r>   11.6540    1.0000 </r>
       <r>   12.4169    1.0000 </r>
       <r>   12.7514    1.0042 </r>
       <r>   15.6954   -0.0000 </r>
       <r>   26.7314    0.0000 </r>
       <r>   28.7119    0.0000 </r>
       <r>   30.7358    0.0000 </r>
       <r>   38.3655    0.0000 </r>
       <r>   43.6744    0.0000 </r>
       <r>   59.6513    0.0000 </r>
      </set>
      <set comment="kpoint 43">
       <r>    7.6413    1.0000 </r>
       <r>    8.3441    1.0000 </r>
       <r>   10.3076    1.0000 </r>
       <r>   11.5997    1.0000 </r>
       <r>   12.7106    1.0019 </r>
       <r>   15.5952   -0.0000 </r>
       <r>   25.4035    0.0000 </r>
       <r>   30.0359    0.0000 </r>
       <r>   32.7755    0.0000 </r>
       <r>   39.5267    0.0000 </r>
       <r>   48.3915    0.0000 </r>
       <r>   54.8743    0.0000 </r>
      </set>
      <set comment="kpoint 44">
       <r>    7.5643    1.0000 </r>
       <r>    9.2130    1.0000 </r>
       <r>    9.9859    1.0000 </r>
       <r>   10.7750    1.0000 </r>
       <r>   12.6576    1.0006 </r>
       <r>   15.0220   -0.0000 </r>
       <r>   22.9902    0.0000 </r>
       <r>   33.5745    0.0000 </r>
       <r>   35.7111    0.0000 </r>
       <r>   40.4500    0.0000 </r>
       <r>   49.7557    0.0000 </r>
       <r>   53.3568    0.0000 </r>
      </set>
      <set comment="kpoint 45">
       <r>    7.0057    1.0000 </r>
       <r>    7.9051    1.0000 </r>
       <r>   11.9295    1.0000 </r>
       <r>   12.2477    1.0000 </r>
       <r>   12.6294    1.0003 </r>
       <r>   13.3720   -0.0141 </r>
       <r>   29.1461    0.0000 </r>
       <r>   31.1511    0.0000 </r>
       <r>   32.0437    0.0000 </r>
       <r>   37.1309    0.0000 </r>
       <r>   42.4473    0.0000 </r>
       <r>   61.6846    0.0000 </r>
      </set>
      <set comment="kpoint 46">
       <r>    7.0365    1.0000 </r>
       <r>    8.2926    1.0000 </r>
       <r>   10.6405    1.0000 </r>
       <r>   11.7805    1.0000 </r>
       <r>   12.3416    1.0000 </r>
       <r>   13.1441    0.6837 </r>
       <r>   30.2848    0.0000 </r>
       <r>   32.0106    0.0000 </r>
       <r>   33.2678    0.0000 </r>
       <r>   39.0744    0.0000 </r>
       <r>   44.6128    0.0000 </r>
       <r>   56.6309    0.0000 </r>
      </set>
      <set comment="kpoint 47">
       <r>    6.9187    1.0000 </r>
       <r>    8.9226    1.0000 </r>
       <r>    9.9937    1.0000 </r>
       <r>   10.9512    1.0000 </r>
       <r>   12.2868    1.0000 </r>
       <r>   13.0968    0.8470 </r>
       <r>   27.6246    0.0000 </r>
       <r>   34.4516    0.0000 </r>
       <r>   36.6378    0.0000 </r>
       <r>   40.9049    0.0000 </r>
       <r>   49.3906    0.0000 </r>
       <r>   51.7169    0.0000 </r>
      </set>
      <set comment="kpoint 48">
       <r>    6.2257    1.0000 </r>
       <r>    8.5567    1.0000 </r>
       <r>   10.7494    1.0000 </r>
       <r>   11.4356    1.0000 </r>
       <r>   11.6992    1.0000 </r>
       <r>   12.3054    1.0000 </r>
       <r>   33.4717    0.0000 </r>
       <r>   35.0298    0.0000 </r>
       <r>   35.0327    0.0000 </r>
       <r>   37.9031    0.0000 </r>
       <r>   44.2040    0.0000 </r>
       <r>   57.5487    0.0000 </r>
      </set>
      <set comment="kpoint 49">
       <r>    5.5220    1.0000 </r>
       <r>    8.9864    1.0000 </r>
       <r>   10.4168    1.0000 </r>
       <r>   10.9980    1.0000 </r>
       <r>   11.4597    1.0000 </r>
       <r>   12.2514    1.0000 </r>
       <r>   33.0119    0.0000 </r>
       <r>   35.3046    0.0000 </r>
       <r>   38.6852    0.0000 </r>
       <r>   40.7355    0.0000 </r>
       <r>   47.2414    0.0000 </r>
       <r>   52.7476    0.0000 </r>
      </set>
      <set comment="kpoint 50">
       <r>    4.2822    1.0000 </r>
       <r>    9.3278    1.0000 </r>
       <r>   10.6305    1.0000 </r>
       <r>   10.6757    1.0000 </r>
       <r>   11.1291    1.0000 </r>
       <r>   11.9712    1.0000 </r>
       <r>   36.4568    0.0000 </r>
       <r>   38.5887    0.0000 </r>
       <r>   38.9657    0.0000 </r>
       <r>   40.7495    0.0000 </r>
       <r>   48.6540    0.0000 </r>
       <r>   52.8919    0.0000 </r>
      </set>
      <set comment="kpoint 51">
       <r>    3.4319    1.0000 </r>
       <r>    9.7869    1.0000 </r>
       <r>   10.2993    1.0000 </r>
       <r>   10.2993    1.0000 </r>
       <r>   11.6243    1.0000 </r>
       <r>   11.6243    1.0000 </r>
       <r>   35.8022    0.0000 </r>
       <r>   40.3484    0.0000 </r>
       <r>   43.8992    0.0000 </r>
       <r>   43.8992    0.0000 </r>
       <r>   49.2483    0.0000 </r>
       <r>   50.2776    0.0000 </r>
      </set>
      <set comment="kpoint 52">
       <r>    4.2829    1.0000 </r>
       <r>    9.5314    1.0000 </r>
       <r>   10.4003    1.0000 </r>
       <r>   10.5113    1.0000 </r>
       <r>   11.3147    1.0000 </r>
       <r>   11.9712    1.0000 </r>
       <r>   34.2634    0.0000 </r>
       <r>   36.7236    0.0000 </r>
       <r>   43.5011    0.0000 </r>
       <r>   46.0577    0.0000 </r>
       <r>   46.5082    0.0000 </r>
       <r>   49.3255    0.0000 </r>
      </set>
      <set comment="kpoint 53">
       <r>    5.7738    1.0000 </r>
       <r>    9.2619    1.0000 </r>
       <r>   10.2329    1.0000 </r>
       <r>   10.8047    1.0000 </r>
       <r>   11.1954    1.0000 </r>
       <r>   12.6576    1.0006 </r>
       <r>   30.9362    0.0000 </r>
       <r>   33.4455    0.0000 </r>
       <r>   42.9090    0.0000 </r>
       <r>   45.2845    0.0000 </r>
       <r>   45.8491    0.0000 </r>
       <r>   49.5807    0.0000 </r>
      </set>
      <set comment="kpoint 54">
       <r>    7.1127    1.0000 </r>
       <r>    9.5521    1.0000 </r>
       <r>    9.8738    1.0000 </r>
       <r>   10.6044    1.0000 </r>
       <r>   11.7994    1.0000 </r>
       <r>   13.7280   -0.0005 </r>
       <r>   25.7723    0.0000 </r>
       <r>   33.0239    0.0000 </r>
       <r>   40.6581    0.0000 </r>
       <r>   42.1977    0.0000 </r>
       <r>   48.2779    0.0000 </r>
       <r>   49.0444    0.0000 </r>
      </set>
      <set comment="kpoint 55">
       <r>    7.4594    1.0000 </r>
       <r>    9.5653    1.0000 </r>
       <r>   10.3734    1.0000 </r>
       <r>   10.4848    1.0000 </r>
       <r>   12.4096    1.0000 </r>
       <r>   15.2665   -0.0000 </r>
       <r>   21.7243    0.0000 </r>
       <r>   33.3372    0.0000 </r>
       <r>   39.4800    0.0000 </r>
       <r>   39.5416    0.0000 </r>
       <r>   49.4862    0.0000 </r>
       <r>   49.6774    0.0000 </r>
      </set>
      <set comment="kpoint 56">
       <r>    7.4206    1.0000 </r>
       <r>    9.4685    1.0000 </r>
       <r>   10.3352    1.0000 </r>
       <r>   10.5290    1.0000 </r>
       <r>   12.7127    1.0019 </r>
       <r>   15.1159   -0.0000 </r>
       <r>   21.6937    0.0000 </r>
       <r>   34.3308    0.0000 </r>
       <r>   37.8256    0.0000 </r>
       <r>   39.4000    0.0000 </r>
       <r>   50.2668    0.0000 </r>
       <r>   50.4681    0.0000 </r>
      </set>
      <set comment="kpoint 57">
       <r>    7.0226    1.0000 </r>
       <r>    9.2489    1.0000 </r>
       <r>    9.9834    1.0000 </r>
       <r>   10.6882    1.0000 </r>
       <r>   12.6004    1.0001 </r>
       <r>   13.1677    0.5884 </r>
       <r>   25.7219    0.0000 </r>
       <r>   35.7830    0.0000 </r>
       <r>   37.2139    0.0000 </r>
       <r>   40.2466    0.0000 </r>
       <r>   50.7871    0.0000 </r>
       <r>   52.0323    0.0000 </r>
      </set>
      <set comment="kpoint 58">
       <r>    5.7320    1.0000 </r>
       <r>    9.0554    1.0000 </r>
       <r>   10.3163    1.0000 </r>
       <r>   10.8088    1.0000 </r>
       <r>   11.7957    1.0000 </r>
       <r>   12.2376    1.0000 </r>
       <r>   30.9175    0.0000 </r>
       <r>   37.3270    0.0000 </r>
       <r>   37.6458    0.0000 </r>
       <r>   41.3137    0.0000 </r>
       <r>   48.5625    0.0000 </r>
       <r>   51.6927    0.0000 </r>
      </set>
      <set comment="kpoint 59">
       <r>    4.7982    1.0000 </r>
       <r>    9.3698    1.0000 </r>
       <r>   10.4346    1.0000 </r>
       <r>   10.5711    1.0000 </r>
       <r>   11.4703    1.0000 </r>
       <r>   12.0041    1.0000 </r>
       <r>   32.4365    0.0000 </r>
       <r>   38.6115    0.0000 </r>
       <r>   39.6838    0.0000 </r>
       <r>   43.8648    0.0000 </r>
       <r>   48.2855    0.0000 </r>
       <r>   51.2780    0.0000 </r>
      </set>
      <set comment="kpoint 60">
       <r>    5.9790    1.0000 </r>
       <r>    9.0562    1.0000 </r>
       <r>   10.1797    1.0000 </r>
       <r>   10.9859    1.0000 </r>
       <r>   11.4294    1.0000 </r>
       <r>   12.6314    1.0003 </r>
       <r>   31.1225    0.0000 </r>
       <r>   33.5664    0.0000 </r>
       <r>   39.6763    0.0000 </r>
       <r>   43.0624    0.0000 </r>
       <r>   48.2238    0.0000 </r>
       <r>   50.4797    0.0000 </r>
      </set>
      <set comment="kpoint 61">
       <r>    7.3557    1.0000 </r>
       <r>    8.9461    1.0000 </r>
       <r>    9.7046    1.0000 </r>
       <r>   11.2066    1.0000 </r>
       <r>   11.6784    1.0000 </r>
       <r>   13.8921   -0.0000 </r>
       <r>   28.0158    0.0000 </r>
       <r>   30.6736    0.0000 </r>
       <r>   37.1715    0.0000 </r>
       <r>   44.5749    0.0000 </r>
       <r>   46.4344    0.0000 </r>
       <r>   52.4170    0.0000 </r>
      </set>
      <set comment="kpoint 62">
       <r>    7.9593    1.0000 </r>
       <r>    9.1113    1.0000 </r>
       <r>    9.6390    1.0000 </r>
       <r>   10.9973    1.0000 </r>
       <r>   12.3055    1.0000 </r>
       <r>   15.8895   -0.0000 </r>
       <r>   23.3345    0.0000 </r>
       <r>   30.7917    0.0000 </r>
       <r>   34.9895    0.0000 </r>
       <r>   43.0582    0.0000 </r>
       <r>   47.6689    0.0000 </r>
       <r>   55.0187    0.0000 </r>
      </set>
      <set comment="kpoint 63">
       <r>    7.9763    1.0000 </r>
       <r>    8.9674    1.0000 </r>
       <r>    9.9235    1.0000 </r>
       <r>   10.9448    1.0000 </r>
       <r>   12.5751    1.0001 </r>
       <r>   17.2027   -0.0000 </r>
       <r>   21.2528    0.0000 </r>
       <r>   31.5605    0.0000 </r>
       <r>   33.6495    0.0000 </r>
       <r>   42.2100    0.0000 </r>
       <r>   48.3850    0.0000 </r>
       <r>   55.7098    0.0000 </r>
      </set>
      <set comment="kpoint 64">
       <r>    7.7390    1.0000 </r>
       <r>    8.9286    1.0000 </r>
       <r>    9.7086    1.0000 </r>
       <r>   11.1242    1.0000 </r>
       <r>   12.4146    1.0000 </r>
       <r>   14.9596   -0.0000 </r>
       <r>   24.7621    0.0000 </r>
       <r>   31.9119    0.0000 </r>
       <r>   34.2888    0.0000 </r>
       <r>   42.2298    0.0000 </r>
       <r>   48.6800    0.0000 </r>
       <r>   53.3008    0.0000 </r>
      </set>
      <set comment="kpoint 65">
       <r>    6.8516    1.0000 </r>
       <r>    8.7603    1.0000 </r>
       <r>    9.9957    1.0000 </r>
       <r>   11.3233    1.0000 </r>
       <r>   11.7964    1.0000 </r>
       <r>   13.1622    0.6108 </r>
       <r>   29.7468    0.0000 </r>
       <r>   32.1797    0.0000 </r>
       <r>   36.4908    0.0000 </r>
       <r>   42.1507    0.0000 </r>
       <r>   47.4155    0.0000 </r>
       <r>   51.8607    0.0000 </r>
      </set>
      <set comment="kpoint 66">
       <r>    6.6200    1.0000 </r>
       <r>    8.7211    1.0000 </r>
       <r>   10.2195    1.0000 </r>
       <r>   11.1076    1.0000 </r>
       <r>   12.4521    1.0000 </r>
       <r>   12.4609    1.0000 </r>
       <r>   29.5259    0.0000 </r>
       <r>   35.2950    0.0000 </r>
       <r>   35.7967    0.0000 </r>
       <r>   39.5557    0.0000 </r>
       <r>   47.3789    0.0000 </r>
       <r>   54.0830    0.0000 </r>
      </set>
      <set comment="kpoint 67">
       <r>    7.4151    1.0000 </r>
       <r>    8.4749    1.0000 </r>
       <r>   10.0448    1.0000 </r>
       <r>   11.6952    1.0000 </r>
       <r>   12.1773    1.0000 </r>
       <r>   14.0096   -0.0000 </r>
       <r>   28.5220    0.0000 </r>
       <r>   30.8883    0.0000 </r>
       <r>   33.3937    0.0000 </r>
       <r>   41.4592    0.0000 </r>
       <r>   46.7323    0.0000 </r>
       <r>   53.2904    0.0000 </r>
      </set>
      <set comment="kpoint 68">
       <r>    7.9919    1.0000 </r>
       <r>    8.5433    1.0000 </r>
       <r>    9.7034    1.0000 </r>
       <r>   11.7593    1.0000 </r>
       <r>   12.4036    1.0000 </r>
       <r>   16.3822   -0.0000 </r>
       <r>   25.8017    0.0000 </r>
       <r>   28.5776    0.0000 </r>
       <r>   30.9527    0.0000 </r>
       <r>   43.6045    0.0000 </r>
       <r>   47.8140    0.0000 </r>
       <r>   52.5587    0.0000 </r>
      </set>
      <set comment="kpoint 69">
       <r>    8.3331    1.0000 </r>
       <r>    8.6388    1.0000 </r>
       <r>    9.5243    1.0000 </r>
       <r>   11.4623    1.0000 </r>
       <r>   12.6194    1.0002 </r>
       <r>   19.3596    0.0000 </r>
       <r>   21.8442    0.0000 </r>
       <r>   28.3416    0.0000 </r>
       <r>   30.1526    0.0000 </r>
       <r>   44.2226    0.0000 </r>
       <r>   48.6793    0.0000 </r>
       <r>   54.8098    0.0000 </r>
      </set>
      <set comment="kpoint 70">
       <r>    8.3814    1.0000 </r>
       <r>    8.8431    1.0000 </r>
       <r>    9.2170    1.0000 </r>
       <r>   11.5085    1.0000 </r>
       <r>   12.3817    1.0000 </r>
       <r>   17.5357   -0.0000 </r>
       <r>   24.1798    0.0000 </r>
       <r>   27.6069    0.0000 </r>
       <r>   31.6043    0.0000 </r>
       <r>   45.2105    0.0000 </r>
       <r>   47.2031    0.0000 </r>
       <r>   54.3166    0.0000 </r>
      </set>
      <set comment="kpoint 71">
       <r>    7.8752    1.0000 </r>
       <r>    8.7385    1.0000 </r>
       <r>    9.5468    1.0000 </r>
       <r>   11.5173    1.0000 </r>
       <r>   12.0578    1.0000 </r>
       <r>   14.9327   -0.0000 </r>
       <r>   26.8084    0.0000 </r>
       <r>   29.5635    0.0000 </r>
       <r>   33.9222    0.0000 </r>
       <r>   44.0722    0.0000 </r>
       <r>   47.0698    0.0000 </r>
       <r>   52.4381    0.0000 </r>
      </set>
      <set comment="kpoint 72">
       <r>    7.3611    1.0000 </r>
       <r>    8.1251    1.0000 </r>
       <r>   10.8416    1.0000 </r>
       <r>   11.7960    1.0000 </r>
       <r>   12.7637    1.0052 </r>
       <r>   14.7727   -0.0000 </r>
       <r>   27.2062    0.0000 </r>
       <r>   29.7751    0.0000 </r>
       <r>   32.9184    0.0000 </r>
       <r>   38.3145    0.0000 </r>
       <r>   45.8637    0.0000 </r>
       <r>   58.0779    0.0000 </r>
      </set>
      <set comment="kpoint 73">
       <r>    7.4860    1.0000 </r>
       <r>    8.0585    1.0000 </r>
       <r>   10.7970    1.0000 </r>
       <r>   12.1853    1.0000 </r>
       <r>   12.7092    1.0018 </r>
       <r>   16.8648   -0.0000 </r>
       <r>   26.4538    0.0000 </r>
       <r>   27.4290    0.0000 </r>
       <r>   29.7468    0.0000 </r>
       <r>   40.6420    0.0000 </r>
       <r>   46.0670    0.0000 </r>
       <r>   55.9772    0.0000 </r>
      </set>
      <set comment="kpoint 74">
       <r>    7.7804    1.0000 </r>
       <r>    8.3454    1.0000 </r>
       <r>   10.2206    1.0000 </r>
       <r>   11.8704    1.0000 </r>
       <r>   12.8594    1.0209 </r>
       <r>   19.6983    0.0000 </r>
       <r>   24.4365    0.0000 </r>
       <r>   25.6588    0.0000 </r>
       <r>   28.3092    0.0000 </r>
       <r>   43.1192    0.0000 </r>
       <r>   48.8020    0.0000 </r>
       <r>   53.2365    0.0000 </r>
      </set>
      <set comment="kpoint 75">
       <r>    8.2106    1.0000 </r>
       <r>    8.7495    1.0000 </r>
       <r>    9.4887    1.0000 </r>
       <r>   11.5652    1.0000 </r>
       <r>   12.6791    1.0009 </r>
       <r>   20.6727    0.0000 </r>
       <r>   21.9410    0.0000 </r>
       <r>   26.3363    0.0000 </r>
       <r>   29.6698    0.0000 </r>
       <r>   44.3557    0.0000 </r>
       <r>   49.7523    0.0000 </r>
       <r>   53.8062    0.0000 </r>
      </set>
      <set comment="kpoint 76">
       <r>    8.2699    1.0000 </r>
       <r>    8.7427    1.0000 </r>
       <r>    9.5813    1.0000 </r>
       <r>   11.2602    1.0000 </r>
       <r>   12.5021    1.0000 </r>
       <r>   17.5259   -0.0000 </r>
       <r>   22.4329    0.0000 </r>
       <r>   29.8747    0.0000 </r>
       <r>   32.0128    0.0000 </r>
       <r>   43.8062    0.0000 </r>
       <r>   47.8530    0.0000 </r>
       <r>   55.7643    0.0000 </r>
      </set>
      <set comment="kpoint 77">
       <r>    7.2588    1.0000 </r>
       <r>    7.8327    1.0000 </r>
       <r>   11.5429    1.0000 </r>
       <r>   12.3355    1.0000 </r>
       <r>   12.7785    1.0068 </r>
       <r>   17.6307   -0.0000 </r>
       <r>   24.8784    0.0000 </r>
       <r>   26.5342    0.0000 </r>
       <r>   31.5657    0.0000 </r>
       <r>   38.0354    0.0000 </r>
       <r>   45.3653    0.0000 </r>
       <r>   59.9696    0.0000 </r>
      </set>
      <set comment="kpoint 78">
       <r>    7.4107    1.0000 </r>
       <r>    7.9690    1.0000 </r>
       <r>   11.0636    1.0000 </r>
       <r>   12.2209    1.0000 </r>
       <r>   12.8589    1.0208 </r>
       <r>   18.2132   -0.0000 </r>
       <r>   25.0364    0.0000 </r>
       <r>   26.6383    0.0000 </r>
       <r>   29.3004    0.0000 </r>
       <r>   40.4754    0.0000 </r>
       <r>   45.9699    0.0000 </r>
       <r>   56.9014    0.0000 </r>
      </set>
      <set comment="kpoint 79">
       <r>    7.8805    1.0000 </r>
       <r>    8.4113    1.0000 </r>
       <r>   10.0059    1.0000 </r>
       <r>   11.8617    1.0000 </r>
       <r>   12.6904    1.0012 </r>
       <r>   18.1237   -0.0000 </r>
       <r>   25.0289    0.0000 </r>
       <r>   27.2364    0.0000 </r>
       <r>   28.9258    0.0000 </r>
       <r>   43.2947    0.0000 </r>
       <r>   48.4552    0.0000 </r>
       <r>   52.8281    0.0000 </r>
      </set>
      <set comment="kpoint 80">
       <r>    7.3203    1.0000 </r>
       <r>    7.9317    1.0000 </r>
       <r>   11.2874    1.0000 </r>
       <r>   12.1162    1.0000 </r>
       <r>   12.8043    1.0102 </r>
       <r>   16.3364   -0.0000 </r>
       <r>   26.1708    0.0000 </r>
       <r>   27.4623    0.0000 </r>
       <r>   32.0280    0.0000 </r>
       <r>   38.1370    0.0000 </r>
       <r>   45.5363    0.0000 </r>
       <r>   59.2775    0.0000 </r>
      </set>
      <set comment="kpoint 81">
       <r>    7.5553    1.0000 </r>
       <r>    8.2317    1.0000 </r>
       <r>   10.3880    1.0000 </r>
       <r>   12.0166    1.0000 </r>
       <r>   12.4731    1.0000 </r>
       <r>   15.2914   -0.0000 </r>
       <r>   27.4746    0.0000 </r>
       <r>   29.4008    0.0000 </r>
       <r>   30.8997    0.0000 </r>
       <r>   40.9423    0.0000 </r>
       <r>   46.3086    0.0000 </r>
       <r>   54.7211    0.0000 </r>
      </set>
      <set comment="kpoint 82">
       <r>    7.1941    1.0000 </r>
       <r>    8.3999    1.0000 </r>
       <r>   10.3970    1.0000 </r>
       <r>   11.4489    1.0000 </r>
       <r>   12.6454    1.0004 </r>
       <r>   13.4383   -0.0354 </r>
       <r>   28.2860    0.0000 </r>
       <r>   32.5829    0.0000 </r>
       <r>   34.2040    0.0000 </r>
       <r>   38.7345    0.0000 </r>
       <r>   46.4683    0.0000 </r>
       <r>   56.5840    0.0000 </r>
      </set>
      <set comment="kpoint 83">
       <r>    5.0026    1.0000 </r>
       <r>    9.6035    1.0000 </r>
       <r>   10.3775    1.0000 </r>
       <r>   10.3775    1.0000 </r>
       <r>   11.7984    1.0000 </r>
       <r>   11.7984    1.0000 </r>
       <r>   30.3312    0.0000 </r>
       <r>   39.3341    0.0000 </r>
       <r>   43.1926    0.0000 </r>
       <r>   43.1926    0.0000 </r>
       <r>   48.9754    0.0000 </r>
       <r>   48.9754    0.0000 </r>
      </set>
      <set comment="kpoint 84">
       <r>    5.9015    1.0000 </r>
       <r>    9.4362    1.0000 </r>
       <r>   10.2475    1.0000 </r>
       <r>   10.5286    1.0000 </r>
       <r>   11.5603    1.0000 </r>
       <r>   12.5529    1.0000 </r>
       <r>   28.8199    0.0000 </r>
       <r>   35.8190    0.0000 </r>
       <r>   41.9191    0.0000 </r>
       <r>   45.5404    0.0000 </r>
       <r>   47.0534    0.0000 </r>
       <r>   47.1392    0.0000 </r>
      </set>
      <set comment="kpoint 85">
       <r>    7.2420    1.0000 </r>
       <r>    9.1701    1.0000 </r>
       <r>    9.8029    1.0000 </r>
       <r>   10.9204    1.0000 </r>
       <r>   11.4377    1.0000 </r>
       <r>   13.8602   -0.0000 </r>
       <r>   27.8356    0.0000 </r>
       <r>   30.5654    0.0000 </r>
       <r>   41.0030    0.0000 </r>
       <r>   41.9947    0.0000 </r>
       <r>   48.1047    0.0000 </r>
       <r>   50.9409    0.0000 </r>
      </set>
      <set comment="kpoint 86">
       <r>    8.1794    1.0000 </r>
       <r>    9.2124    1.0000 </r>
       <r>    9.3421    1.0000 </r>
       <r>   11.0708    1.0000 </r>
       <r>   11.8446    1.0000 </r>
       <r>   15.7803   -0.0000 </r>
       <r>   24.9984    0.0000 </r>
       <r>   28.2848    0.0000 </r>
       <r>   38.7311    0.0000 </r>
       <r>   39.6176    0.0000 </r>
       <r>   51.0202    0.0000 </r>
       <r>   52.4890    0.0000 </r>
      </set>
      <set comment="kpoint 87">
       <r>    8.1185    1.0000 </r>
       <r>    8.7996    1.0000 </r>
       <r>    9.8989    1.0000 </r>
       <r>   11.1302    1.0000 </r>
       <r>   12.4383    1.0000 </r>
       <r>   18.0343   -0.0000 </r>
       <r>   21.3441    0.0000 </r>
       <r>   28.9330    0.0000 </r>
       <r>   36.1521    0.0000 </r>
       <r>   38.8344    0.0000 </r>
       <r>   53.3318    0.0000 </r>
       <r>   53.4681    0.0000 </r>
      </set>
      <set comment="kpoint 88">
       <r>    7.7681    1.0000 </r>
       <r>    8.5679    1.0000 </r>
       <r>   10.1396    1.0000 </r>
       <r>   11.2772    1.0000 </r>
       <r>   12.7533    1.0043 </r>
       <r>   16.1302   -0.0000 </r>
       <r>   23.5649    0.0000 </r>
       <r>   30.4452    0.0000 </r>
       <r>   34.5642    0.0000 </r>
       <r>   38.6546    0.0000 </r>
       <r>   51.0757    0.0000 </r>
       <r>   54.8694    0.0000 </r>
      </set>
      <set comment="kpoint 89">
       <r>    6.3570    1.0000 </r>
       <r>    9.4844    1.0000 </r>
       <r>   10.1432    1.0000 </r>
       <r>   10.4949    1.0000 </r>
       <r>   12.2884    1.0000 </r>
       <r>   12.3822    1.0000 </r>
       <r>   27.0733    0.0000 </r>
       <r>   37.4705    0.0000 </r>
       <r>   38.9893    0.0000 </r>
       <r>   42.4986    0.0000 </r>
       <r>   48.3071    0.0000 </r>
       <r>   50.7744    0.0000 </r>
      </set>
      <set comment="kpoint 90">
       <r>    7.2596    1.0000 </r>
       <r>    9.2249    1.0000 </r>
       <r>    9.7946    1.0000 </r>
       <r>   10.8355    1.0000 </r>
       <r>   12.1096    1.0000 </r>
       <r>   13.8072   -0.0001 </r>
       <r>   25.9314    0.0000 </r>
       <r>   33.1169    0.0000 </r>
       <r>   37.3392    0.0000 </r>
       <r>   42.8522    0.0000 </r>
       <r>   47.8159    0.0000 </r>
       <r>   52.2494    0.0000 </r>
      </set>
      <set comment="kpoint 91">
       <r>    8.2652    1.0000 </r>
       <r>    9.0101    1.0000 </r>
       <r>    9.2248    1.0000 </r>
       <r>   11.3079    1.0000 </r>
       <r>   12.0342    1.0000 </r>
       <r>   15.9459   -0.0000 </r>
       <r>   25.2042    0.0000 </r>
       <r>   28.3841    0.0000 </r>
       <r>   34.7252    0.0000 </r>
       <r>   43.7861    0.0000 </r>
       <r>   47.6106    0.0000 </r>
       <r>   55.0082    0.0000 </r>
      </set>
      <set comment="kpoint 92">
       <r>    8.4992    1.0000 </r>
       <r>    8.6017    1.0000 </r>
       <r>    9.4865    1.0000 </r>
       <r>   11.4474    1.0000 </r>
       <r>   12.3958    1.0000 </r>
       <r>   18.7892    0.0000 </r>
       <r>   22.6573    0.0000 </r>
       <r>   26.8254    0.0000 </r>
       <r>   32.5363    0.0000 </r>
       <r>   42.4579    0.0000 </r>
       <r>   50.2431    0.0000 </r>
       <r>   56.4129    0.0000 </r>
      </set>
      <set comment="kpoint 93">
       <r>    7.9831    1.0000 </r>
       <r>    8.4347    1.0000 </r>
       <r>   10.0032    1.0000 </r>
       <r>   11.6599    1.0000 </r>
       <r>   12.6610    1.0006 </r>
       <r>   18.3963   -0.0000 </r>
       <r>   23.0282    0.0000 </r>
       <r>   27.8745    0.0000 </r>
       <r>   31.0323    0.0000 </r>
       <r>   41.6008    0.0000 </r>
       <r>   50.4386    0.0000 </r>
       <r>   53.2494    0.0000 </r>
      </set>
      <set comment="kpoint 94">
       <r>    7.5126    1.0000 </r>
       <r>    8.9041    1.0000 </r>
       <r>    9.9843    1.0000 </r>
       <r>   10.9579    1.0000 </r>
       <r>   12.7296    1.0027 </r>
       <r>   14.4700   -0.0000 </r>
       <r>   24.5452    0.0000 </r>
       <r>   33.2662    0.0000 </r>
       <r>   35.7275    0.0000 </r>
       <r>   39.1104    0.0000 </r>
       <r>   51.3822    0.0000 </r>
       <r>   53.4295    0.0000 </r>
      </set>
      <set comment="kpoint 95">
       <r>    7.9726    1.0000 </r>
       <r>    8.6197    1.0000 </r>
       <r>    9.8121    1.0000 </r>
       <r>   11.4227    1.0000 </r>
       <r>   12.5876    1.0001 </r>
       <r>   16.5396   -0.0000 </r>
       <r>   23.7918    0.0000 </r>
       <r>   30.2948    0.0000 </r>
       <r>   31.9801    0.0000 </r>
       <r>   41.8352    0.0000 </r>
       <r>   49.6171    0.0000 </r>
       <r>   53.2114    0.0000 </r>
      </set>
      <set comment="kpoint 96">
       <r>    8.1915    1.0000 </r>
       <r>    8.8488    1.0000 </r>
       <r>    9.3492    1.0000 </r>
       <r>   11.5969    1.0000 </r>
       <r>   12.6810    1.0010 </r>
       <r>   19.4214    0.0000 </r>
       <r>   23.4150    0.0000 </r>
       <r>   26.8646    0.0000 </r>
       <r>   28.9543    0.0000 </r>
       <r>   46.0706    0.0000 </r>
       <r>   47.7721    0.0000 </r>
       <r>   53.2118    0.0000 </r>
      </set>
      <set comment="kpoint 97">
       <r>    8.0529    1.0000 </r>
       <r>    8.8434    1.0000 </r>
       <r>    9.4763    1.0000 </r>
       <r>   11.6118    1.0000 </r>
       <r>   12.8608    1.0212 </r>
       <r>   21.2577    0.0000 </r>
       <r>   22.9431    0.0000 </r>
       <r>   25.6302    0.0000 </r>
       <r>   27.6825    0.0000 </r>
       <r>   46.1281    0.0000 </r>
       <r>   49.3364    0.0000 </r>
       <r>   51.8620    0.0000 </r>
      </set>
      <set comment="kpoint 98">
       <r>    7.8313    1.0000 </r>
       <r>    8.3382    1.0000 </r>
       <r>   10.3468    1.0000 </r>
       <r>   11.6063    1.0000 </r>
       <r>   12.6792    1.0009 </r>
       <r>   18.0118   -0.0000 </r>
       <r>   22.7831    0.0000 </r>
       <r>   27.8036    0.0000 </r>
       <r>   33.7733    0.0000 </r>
       <r>   38.4678    0.0000 </r>
       <r>   50.8630    0.0000 </r>
       <r>   56.2105    0.0000 </r>
      </set>
      <set comment="kpoint 99">
       <r>    7.9175    1.0000 </r>
       <r>    8.3752    1.0000 </r>
       <r>   10.1465    1.0000 </r>
       <r>   11.7818    1.0000 </r>
       <r>   12.6881    1.0011 </r>
       <r>   20.1396    0.0000 </r>
       <r>   22.4155    0.0000 </r>
       <r>   25.9555    0.0000 </r>
       <r>   30.6596    0.0000 </r>
       <r>   41.4991    0.0000 </r>
       <r>   50.8932    0.0000 </r>
       <r>   53.4676    0.0000 </r>
      </set>
      <set comment="kpoint 100">
       <r>    7.8092    1.0000 </r>
       <r>    8.2419    1.0000 </r>
       <r>   10.4866    1.0000 </r>
       <r>   11.8632    1.0000 </r>
       <r>   12.5599    1.0000 </r>
       <r>   19.7444    0.0000 </r>
       <r>   22.1247    0.0000 </r>
       <r>   25.9299    0.0000 </r>
       <r>   33.3765    0.0000 </r>
       <r>   38.4020    0.0000 </r>
       <r>   50.7480    0.0000 </r>
       <r>   57.0670    0.0000 </r>
      </set>
      <set comment="kpoint 101">
       <r>    6.4109    1.0000 </r>
       <r>   10.2187    1.0000 </r>
       <r>   10.2187    1.0000 </r>
       <r>   10.2886    1.0000 </r>
       <r>   12.2644    1.0000 </r>
       <r>   12.2644    1.0000 </r>
       <r>   25.2128    0.0000 </r>
       <r>   38.1614    0.0000 </r>
       <r>   42.6800    0.0000 </r>
       <r>   42.6800    0.0000 </r>
       <r>   46.8816    0.0000 </r>
       <r>   46.8816    0.0000 </r>
      </set>
      <set comment="kpoint 102">
       <r>    6.9582    1.0000 </r>
       <r>    9.9730    1.0000 </r>
       <r>   10.2325    1.0000 </r>
       <r>   10.3320    1.0000 </r>
       <r>   12.1577    1.0000 </r>
       <r>   13.4561   -0.0338 </r>
       <r>   23.9480    0.0000 </r>
       <r>   35.4828    0.0000 </r>
       <r>   40.3474    0.0000 </r>
[...]
       <r>    46.0810     0.2011    10.1317 </r>
       <r>    46.3017     0.2513    10.1871 </r>
       <r>    46.5224     0.1649    10.2235 </r>
       <r>    46.7432     0.0719    10.2394 </r>
       <r>    46.9639     0.1230    10.2665 </r>
       <r>    47.1847     0.2575    10.3234 </r>
       <r>    47.4054     0.2251    10.3731 </r>
       <r>    47.6262     0.1427    10.4046 </r>
       <r>    47.8469     0.3246    10.4762 </r>
       <r>    48.0677     0.3291    10.5489 </r>
       <r>    48.2884     0.2686    10.6082 </r>
       <r>    48.5092     0.3553    10.6866 </r>
       <r>    48.7299     0.2532    10.7425 </r>
       <r>    48.9507     0.2021    10.7871 </r>
       <r>    49.1714     0.1257    10.8148 </r>
       <r>    49.3921     0.2361    10.8670 </r>
       <r>    49.6129     0.3030    10.9338 </r>
       <r>    49.8336     0.2501    10.9890 </r>
       <r>    50.0544     0.0908    11.0091 </r>
       <r>    50.2751     0.0990    11.0309 </r>
       <r>    50.4959     0.2062    11.0765 </r>
       <r>    50.7166     0.1872    11.1178 </r>
       <r>    50.9374     0.2463    11.1721 </r>
       <r>    51.1581     0.2772    11.2333 </r>
       <r>    51.3789     0.0877    11.2527 </r>
       <r>    51.5996     0.0227    11.2577 </r>
       <r>    51.8204     0.1506    11.2909 </r>
       <r>    52.0411     0.1512    11.3243 </r>
       <r>    52.2618     0.0766    11.3412 </r>
       <r>    52.4826     0.1773    11.3804 </r>
       <r>    52.7033     0.1581    11.4153 </r>
       <r>    52.9241     0.1034    11.4381 </r>
       <r>    53.1448     0.1315    11.4671 </r>
       <r>    53.3656     0.3807    11.5511 </r>
       <r>    53.5863     0.2369    11.6034 </r>
       <r>    53.8071     0.0318    11.6104 </r>
       <r>    54.0278     0.0312    11.6173 </r>
       <r>    54.2486     0.0991    11.6392 </r>
       <r>    54.4693     0.1192    11.6655 </r>
       <r>    54.6900     0.1369    11.6958 </r>
       <r>    54.9108     0.2176    11.7438 </r>
       <r>    55.1315     0.1380    11.7742 </r>
       <r>    55.3523     0.0428    11.7837 </r>
       <r>    55.5730     0.0312    11.7906 </r>
       <r>    55.7938     0.0749    11.8071 </r>
       <r>    56.0145     0.0687    11.8223 </r>
       <r>    56.2353     0.0712    11.8380 </r>
       <r>    56.4560     0.0681    11.8530 </r>
       <r>    56.6768     0.0735    11.8693 </r>
       <r>    56.8975     0.0480    11.8799 </r>
       <r>    57.1183     0.0899    11.8997 </r>
       <r>    57.3390     0.0720    11.9156 </r>
       <r>    57.5597     0.0178    11.9195 </r>
       <r>    57.7805     0.0114    11.9220 </r>
       <r>    58.0012     0.0038    11.9229 </r>
       <r>    58.2220     0.0338    11.9303 </r>
       <r>    58.4427     0.0426    11.9397 </r>
       <r>    58.6635     0.0018    11.9402 </r>
       <r>    58.8842    -0.0009    11.9399 </r>
       <r>    59.1050     0.0001    11.9400 </r>
       <r>    59.3257     0.0179    11.9439 </r>
       <r>    59.5465     0.0165    11.9476 </r>
       <r>    59.7672     0.0409    11.9566 </r>
       <r>    59.9880     0.0297    11.9631 </r>
       <r>    60.2087     0.0298    11.9697 </r>
       <r>    60.4294     0.0200    11.9741 </r>
       <r>    60.6502     0.0363    11.9822 </r>
       <r>    60.8709    -0.0003    11.9821 </r>
       <r>    61.0917    -0.0004    11.9820 </r>
       <r>    61.3124    -0.0003    11.9819 </r>
       <r>    61.5332     0.0009    11.9821 </r>
       <r>    61.7539     0.0201    11.9866 </r>
       <r>    61.9747     0.0087    11.9885 </r>
       <r>    62.1954     0.0199    11.9929 </r>
       <r>    62.4162     0.0075    11.9945 </r>
       <r>    62.6369     0.0207    11.9991 </r>
       <r>    62.8576     0.0048    12.0001 </r>
       <r>    63.0784    -0.0007    12.0000 </r>
       <r>    63.2991    -0.0000    12.0000 </r>
       <r>    63.5199    -0.0000    12.0000 </r>
       <r>    63.7406    -0.0000    12.0000 </r>
       <r>    63.9614    -0.0000    12.0000 </r>
       <r>    64.1821     0.0000    12.0000 </r>
       <r>    64.4029     0.0000    12.0000 </r>
       <r>    64.6236     0.0000    12.0000 </r>
       <r>    64.8444     0.0000    12.0000 </r>
       <r>    65.0651     0.0000    12.0000 </r>
       <r>    65.2859     0.0000    12.0000 </r>
       <r>    65.5066     0.0000    12.0000 </r>
       <r>    65.7273     0.0000    12.0000 </r>
      </set>
      <set comment="spin 2">
       <r>    -0.4964     0.0000     0.0000 </r>
       <r>    -0.2757     0.0000     0.0000 </r>
       <r>    -0.0549     0.0000     0.0000 </r>
       <r>     0.1658     0.0000     0.0000 </r>
       <r>     0.3865     0.0000     0.0000 </r>
       <r>     0.6073     0.0000     0.0000 </r>
       <r>     0.8280    -0.0000    -0.0000 </r>
       <r>     1.0488    -0.0000    -0.0000 </r>
       <r>     1.2695    -0.0000    -0.0000 </r>
       <r>     1.4903    -0.0000    -0.0000 </r>
       <r>     1.7110    -0.0000    -0.0000 </r>
       <r>     1.9318    -0.0000    -0.0000 </r>
       <r>     2.1525    -0.0001    -0.0000 </r>
       <r>     2.3733     0.0004     0.0001 </r>
       <r>     2.5940     0.0061     0.0014 </r>
       <r>     2.8148     0.0148     0.0047 </r>
       <r>     3.0355     0.0197     0.0090 </r>
       <r>     3.2562     0.0208     0.0136 </r>
       <r>     3.4770     0.0260     0.0194 </r>
       <r>     3.6977     0.0352     0.0271 </r>
       <r>     3.9185     0.0371     0.0353 </r>
       <r>     4.1392     0.0221     0.0402 </r>
       <r>     4.3600     0.0422     0.0495 </r>
       <r>     4.5807     0.0643     0.0637 </r>
       <r>     4.8015     0.0423     0.0730 </r>
       <r>     5.0222     0.0316     0.0800 </r>
       <r>     5.2430     0.0682     0.0951 </r>
       <r>     5.4637     0.0676     0.1100 </r>
       <r>     5.6845     0.0611     0.1235 </r>
       <r>     5.9052     0.0733     0.1396 </r>
       <r>     6.1259     0.0863     0.1587 </r>
       <r>     6.3467     0.0857     0.1776 </r>
       <r>     6.5674     0.0847     0.1963 </r>
       <r>     6.7882     0.1455     0.2284 </r>
       <r>     7.0089     0.1441     0.2602 </r>
       <r>     7.2297     0.1967     0.3037 </r>
       <r>     7.4504     0.4192     0.3962 </r>
       <r>     7.6712     0.4252     0.4900 </r>
       <r>     7.8919     0.4187     0.5825 </r>
       <r>     8.1127     0.4698     0.6862 </r>
       <r>     8.3334     0.5862     0.8156 </r>
       <r>     8.5541     0.6819     0.9661 </r>
       <r>     8.7749     0.6690     1.1138 </r>
       <r>     8.9956     0.6755     1.2629 </r>
       <r>     9.2164     0.5967     1.3946 </r>
       <r>     9.4371     0.6089     1.5290 </r>
       <r>     9.6579     0.5544     1.6514 </r>
       <r>     9.8786     0.6510     1.7951 </r>
       <r>    10.0994     0.8444     1.9815 </r>
       <r>    10.3201     0.8078     2.1598 </r>
       <r>    10.5409     0.8984     2.3581 </r>
       <r>    10.7616     1.0438     2.5885 </r>
       <r>    10.9824     1.0648     2.8236 </r>
       <r>    11.2031     1.0266     3.0502 </r>
       <r>    11.4238     0.8119     3.2294 </r>
       <r>    11.6446     0.6881     3.3813 </r>
       <r>    11.8653     0.7508     3.5471 </r>
       <r>    12.0861     0.9351     3.7535 </r>
       <r>    12.3068     0.8829     3.9484 </r>
       <r>    12.5276     0.9006     4.1472 </r>
       <r>    12.7483     0.7029     4.3023 </r>
       <r>    12.9691     0.8358     4.4868 </r>
       <r>    13.1898     1.0372     4.7158 </r>
       <r>    13.4106     1.4067     5.0263 </r>
       <r>    13.6313     0.8901     5.2228 </r>
       <r>    13.8521     0.3855     5.3079 </r>
       <r>    14.0728     0.0945     5.3288 </r>
       <r>    14.2935     0.1012     5.3511 </r>
       <r>    14.5143     0.1951     5.3942 </r>
       <r>    14.7350     0.1533     5.4280 </r>
       <r>    14.9558     0.1069     5.4516 </r>
       <r>    15.1765     0.0939     5.4723 </r>
       <r>    15.3973     0.1463     5.5046 </r>
       <r>    15.6180     0.1888     5.5463 </r>
       <r>    15.8388     0.0732     5.5625 </r>
       <r>    16.0595     0.1419     5.5938 </r>
       <r>    16.2803     0.1266     5.6217 </r>
       <r>    16.5010     0.0972     5.6432 </r>
       <r>    16.7217     0.0964     5.6645 </r>
       <r>    16.9425     0.0983     5.6862 </r>
       <r>    17.1632     0.1573     5.7209 </r>
       <r>    17.3840     0.1036     5.7437 </r>
       <r>    17.6047     0.1127     5.7686 </r>
       <r>    17.8255     0.0947     5.7895 </r>
       <r>    18.0462     0.0827     5.8078 </r>
       <r>    18.2670     0.0202     5.8122 </r>
       <r>    18.4877     0.1138     5.8374 </r>
       <r>    18.7085     0.0988     5.8592 </r>
       <r>    18.9292     0.1139     5.8843 </r>
       <r>    19.1500     0.1021     5.9069 </r>
       <r>    19.3707     0.0138     5.9099 </r>
       <r>    19.5914     0.0262     5.9157 </r>
       <r>    19.8122     0.0842     5.9343 </r>
       <r>    20.0329     0.0645     5.9485 </r>
       <r>    20.2537     0.0352     5.9563 </r>
       <r>    20.4744     0.0811     5.9742 </r>
       <r>    20.6952     0.0084     5.9760 </r>
       <r>    20.9159     0.0273     5.9821 </r>
       <r>    21.1367     0.0233     5.9872 </r>
       <r>    21.3574     0.0707     6.0028 </r>
       <r>    21.5782     0.2068     6.0485 </r>
       <r>    21.7989     0.1772     6.0876 </r>
       <r>    22.0196     0.1425     6.1190 </r>
       <r>    22.2404     0.1626     6.1549 </r>
       <r>    22.4611     0.1161     6.1806 </r>
       <r>    22.6819     0.1183     6.2067 </r>
       <r>    22.9026     0.1236     6.2340 </r>
       <r>    23.1234     0.1383     6.2645 </r>
       <r>    23.3441     0.1292     6.2930 </r>
       <r>    23.5649     0.0747     6.3095 </r>
       <r>    23.7856     0.0847     6.3282 </r>
       <r>    24.0064     0.1016     6.3507 </r>
       <r>    24.2271     0.1283     6.3790 </r>
       <r>    24.4479     0.0894     6.3987 </r>
       <r>    24.6686     0.0973     6.4202 </r>
       <r>    24.8893     0.1199     6.4467 </r>
       <r>    25.1101     0.0728     6.4627 </r>
       <r>    25.3308     0.1861     6.5038 </r>
       <r>    25.5516     0.1306     6.5326 </r>
       <r>    25.7723     0.0987     6.5544 </r>
       <r>    25.9931     0.1667     6.5912 </r>
       <r>    26.2138     0.1917     6.6335 </r>
       <r>    26.4346     0.0836     6.6520 </r>
       <r>    26.6553     0.1952     6.6951 </r>
       <r>    26.8761     0.1733     6.7333 </r>
       <r>    27.0968     0.2150     6.7808 </r>
       <r>    27.3176     0.0790     6.7982 </r>
       <r>    27.5383     0.1477     6.8308 </r>
       <r>    27.7590     0.2650     6.8893 </r>
       <r>    27.9798     0.1597     6.9246 </r>
       <r>    28.2005     0.0934     6.9452 </r>
       <r>    28.4213     0.1571     6.9799 </r>
       <r>    28.6420     0.2292     7.0305 </r>
       <r>    28.8628     0.1372     7.0607 </r>
       <r>    29.0835     0.1794     7.1003 </r>
       <r>    29.3043     0.1884     7.1419 </r>
       <r>    29.5250     0.1361     7.1720 </r>
       <r>    29.7458     0.1865     7.2131 </r>
       <r>    29.9665     0.2622     7.2710 </r>
       <r>    30.1872     0.1520     7.3046 </r>
       <r>    30.4080     0.1787     7.3440 </r>
       <r>    30.6287     0.1431     7.3756 </r>
       <r>    30.8495     0.2268     7.4256 </r>
       <r>    31.0702     0.2715     7.4856 </r>
       <r>    31.2910     0.2312     7.5366 </r>
       <r>    31.5117     0.0317     7.5436 </r>
       <r>    31.7325     0.2066     7.5892 </r>
       <r>    31.9532     0.2162     7.6369 </r>
       <r>    32.1740     0.3033     7.7039 </r>
       <r>    32.3947     0.1294     7.7324 </r>
       <r>    32.6155     0.1109     7.7569 </r>
       <r>    32.8362     0.2040     7.8019 </r>
       <r>    33.0569     0.1358     7.8319 </r>
       <r>    33.2777     0.1410     7.8630 </r>
       <r>    33.4984     0.2403     7.9161 </r>
       <r>    33.7192     0.2427     7.9696 </r>
       <r>    33.9399     0.1719     8.0076 </r>
       <r>    34.1607     0.0766     8.0245 </r>
       <r>    34.3814     0.1676     8.0615 </r>
       <r>    34.6022     0.2646     8.1199 </r>
       <r>    34.8229     0.1201     8.1464 </r>
       <r>    35.0437     0.1069     8.1700 </r>
       <r>    35.2644     0.1528     8.2038 </r>
       <r>    35.4852     0.1178     8.2298 </r>
       <r>    35.7059     0.0794     8.2473 </r>
       <r>    35.9266     0.2917     8.3117 </r>
       <r>    36.1474     0.2223     8.3607 </r>
       <r>    36.3681     0.0805     8.3785 </r>
       <r>    36.5889     0.1235     8.4058 </r>
       <r>    36.8096     0.1724     8.4438 </r>
       <r>    37.0304     0.1438     8.4756 </r>
       <r>    37.2511     0.1575     8.5103 </r>
       <r>    37.4719     0.2446     8.5643 </r>
       <r>    37.6926     0.1266     8.5923 </r>
       <r>    37.9134     0.1075     8.6160 </r>
       <r>    38.1341     0.1233     8.6432 </r>
       <r>    38.3548     0.1733     8.6815 </r>
       <r>    38.5756     0.2679     8.7406 </r>
       <r>    38.7963     0.2565     8.7972 </r>
       <r>    39.0171     0.1697     8.8347 </r>
       <r>    39.2378     0.1997     8.8788 </r>
       <r>    39.4586     0.1846     8.9195 </r>
       <r>    39.6793     0.2427     8.9731 </r>
       <r>    39.9001     0.2516     9.0287 </r>
       <r>    40.1208     0.1974     9.0722 </r>
       <r>    40.3416     0.1502     9.1054 </r>
       <r>    40.5623     0.1744     9.1439 </r>
       <r>    40.7831     0.2696     9.2034 </r>
       <r>    41.0038     0.3544     9.2816 </r>
       <r>    41.2245     0.1389     9.3123 </r>
       <r>    41.4453     0.1545     9.3464 </r>
       <r>    41.6660     0.2577     9.4033 </r>
       <r>    41.8868     0.1347     9.4330 </r>
       <r>    42.1075     0.1633     9.4691 </r>
       <r>    42.3283     0.2591     9.5263 </r>
       <r>    42.5490     0.3430     9.6020 </r>
       <r>    42.7698     0.2320     9.6532 </r>
       <r>    42.9905     0.1308     9.6821 </r>
       <r>    43.2113     0.2264     9.7320 </r>
       <r>    43.4320     0.1706     9.7697 </r>
       <r>    43.6528     0.0823     9.7879 </r>
       <r>    43.8735     0.1993     9.8319 </r>
       <r>    44.0942     0.1715     9.8697 </r>
       <r>    44.3150     0.1732     9.9080 </r>
       <r>    44.5357     0.1346     9.9377 </r>
       <r>    44.7565     0.1264     9.9656 </r>
       <r>    44.9772     0.0941     9.9864 </r>
       <r>    45.1980     0.0877    10.0057 </r>
       <r>    45.4187     0.1416    10.0370 </r>
       <r>    45.6395     0.0923    10.0574 </r>
       <r>    45.8602     0.0969    10.0787 </r>
       <r>    46.0810     0.1510    10.1121 </r>
       <r>    46.3017     0.2863    10.1753 </r>
       <r>    46.5224     0.1825    10.2156 </r>
       <r>    46.7432     0.0789    10.2330 </r>
       <r>    46.9639     0.1164    10.2587 </r>
       <r>    47.1847     0.2357    10.3107 </r>
       <r>    47.4054     0.1944    10.3536 </r>
       <r>    47.6262     0.1971    10.3971 </r>
       <r>    47.8469     0.2936    10.4619 </r>
       <r>    48.0677     0.3471    10.5385 </r>
       <r>    48.2884     0.2501    10.5938 </r>
       <r>    48.5092     0.3356    10.6678 </r>
       <r>    48.7299     0.2634    10.7260 </r>
       <r>    48.9507     0.2127    10.7729 </r>
       <r>    49.1714     0.1549    10.8071 </r>
       <r>    49.3921     0.1954    10.8502 </r>
       <r>    49.6129     0.3115    10.9190 </r>
       <r>    49.8336     0.2785    10.9805 </r>
       <r>    50.0544     0.1209    11.0072 </r>
       <r>    50.2751     0.1006    11.0294 </r>
       <r>    50.4959     0.1669    11.0662 </r>
       <r>    50.7166     0.2128    11.1132 </r>
       <r>    50.9374     0.2134    11.1603 </r>
       <r>    51.1581     0.2950    11.2254 </r>
       <r>    51.3789     0.1082    11.2493 </r>
       <r>    51.5996     0.0353    11.2571 </r>
       <r>    51.8204     0.1198    11.2836 </r>
       <r>    52.0411     0.1661    11.3203 </r>
       <r>    52.2618     0.0876    11.3396 </r>
       <r>    52.4826     0.1077    11.3634 </r>
       <r>    52.7033     0.2069    11.4090 </r>
       <r>    52.9241     0.1273    11.4372 </r>
       <r>    53.1448     0.0970    11.4586 </r>
       <r>    53.3656     0.3128    11.5276 </r>
       <r>    53.5863     0.3334    11.6012 </r>
       <r>    53.8071     0.0246    11.6067 </r>
       <r>    54.0278     0.0441    11.6164 </r>
       <r>    54.2486     0.0799    11.6340 </r>
       <r>    54.4693     0.1061    11.6574 </r>
       <r>    54.6900     0.1233    11.6847 </r>
       <r>    54.9108     0.2193    11.7331 </r>
       <r>    55.1315     0.1573    11.7678 </r>
       <r>    55.3523     0.0751    11.7844 </r>
       <r>    55.5730     0.0304    11.7911 </r>
       <r>    55.7938     0.0439    11.8008 </r>
       <r>    56.0145     0.0805    11.8185 </r>
       <r>    56.2353     0.0811    11.8364 </r>
       <r>    56.4560     0.0559    11.8488 </r>
       <r>    56.6768     0.0890    11.8684 </r>
       <r>    56.8975     0.0543    11.8804 </r>
       <r>    57.1183     0.0804    11.8981 </r>
       <r>    57.3390     0.0685    11.9133 </r>
       <r>    57.5597     0.0330    11.9206 </r>
       <r>    57.7805     0.0068    11.9221 </r>
       <r>    58.0012     0.0028    11.9227 </r>
       <r>    58.2220     0.0289    11.9291 </r>
       <r>    58.4427     0.0452    11.9390 </r>
       <r>    58.6635     0.0054    11.9402 </r>
       <r>    58.8842    -0.0012    11.9400 </r>
       <r>    59.1050    -0.0002    11.9399 </r>
       <r>    59.3257     0.0173    11.9437 </r>
       <r>    59.5465     0.0131    11.9466 </r>
       <r>    59.7672     0.0395    11.9554 </r>
       <r>    59.9880     0.0405    11.9643 </r>
       <r>    60.2087     0.0258    11.9700 </r>
       <r>    60.4294     0.0162    11.9736 </r>
       <r>    60.6502     0.0383    11.9820 </r>
       <r>    60.8709     0.0004    11.9821 </r>
       <r>    61.0917    -0.0005    11.9820 </r>
       <r>    61.3124    -0.0003    11.9819 </r>
       <r>    61.5332     0.0005    11.9820 </r>
       <r>    61.7539     0.0198    11.9864 </r>
       <r>    61.9747     0.0080    11.9882 </r>
       <r>    62.1954    -0.0017    11.9878 </r>
       <r>    62.4162     0.0069    11.9893 </r>
       <r>    62.6369     0.0259    11.9951 </r>
       <r>    62.8576     0.0216    11.9998 </r>
       <r>    63.0784     0.0012    12.0001 </r>
       <r>    63.2991    -0.0004    12.0000 </r>
       <r>    63.5199    -0.0000    12.0000 </r>
       <r>    63.7406    -0.0000    12.0000 </r>
       <r>    63.9614    -0.0000    12.0000 </r>
       <r>    64.1821     0.0000    12.0000 </r>
       <r>    64.4029     0.0000    12.0000 </r>
       <r>    64.6236     0.0000    12.0000 </r>
       <r>    64.8444     0.0000    12.0000 </r>
       <r>    65.0651     0.0000    12.0000 </r>
       <r>    65.2859     0.0000    12.0000 </r>
       <r>    65.5066     0.0000    12.0000 </r>
       <r>    65.7273     0.0000    12.0000 </r>
      </set>
     </set>
    </array>
   </total>
  </dos>
 </calculation>
 <structure name="finalpos" >
  <crystal>
   <varray name="basis" >
    <v>       0.00000000       1.62500000       1.62500000 </v>
    <v>       1.62500000       0.00000000       1.62500000 </v>
    <v>       1.62500000       1.62500000       0.00000000 </v>
   </varray>
   <i name="volume">      8.58203125 </i>
   <varray name="rec_basis" >
    <v>      -0.30769231       0.30769231       0.30769231 </v>
    <v>       0.30769231      -0.30769231       0.30769231 </v>
    <v>       0.30769231       0.30769231      -0.30769231 </v>
   </varray>
  </crystal>
  <varray name="positions" >
   <v>       0.00000000       0.00000000       0.00000000 </v>
  </varray>
 </structure>
</modeling>
