FCC Au                                  
   4.06379000000000     
     0.000000    0.500000    0.500000
     0.500000    0.000000    0.500000
     0.500000    0.500000    0.000000
   Fe
     1
Direct
  0.000000  0.000000  0.000000
 
   24   24   24
  81.184      78.116      70.184      60.087      49.849      39.954      30.269      21.254      13.979      9.1728    
  6.5484      5.2026      4.7762      5.2026      6.5484      9.1728      13.979      21.254      30.269      39.954    
  49.849      60.087      70.184      78.116      78.116      72.640      63.753      53.840      44.046      34.410    
  25.087      16.961      11.036      7.5217      5.6768      4.8263      4.8263      5.6768      7.5215      11.036    
  16.961      25.089      34.413      44.047      53.837      63.745      72.632      78.112      70.184      63.753    
  55.284      46.244      37.075      27.931      19.501      12.845      8.5392      6.1889      4.9602      4.5738    
  4.9603      6.1888      8.5388      12.845      19.502      27.934      37.079      46.245      55.279      63.744    
  70.177      72.632      60.087      53.840      46.244      37.995      29.437      21.196      14.280      9.4579    
  6.6645      5.1363      4.4347      4.4348      5.1364      6.6644      9.4575      14.279      21.196      29.438    
  37.997      46.245      53.838      60.085      63.744      63.745      49.849      44.046      37.075      29.437    
  21.790      15.072      10.102      7.0396      5.3042      4.3758      4.0886      4.3759      5.3045      7.0400    
  10.102      15.071      21.788      29.436      37.075      44.047      49.851      53.838      55.279      53.837    
  39.954      34.410      27.931      21.196      15.072      10.334      7.2490      5.4219      4.3594      3.8839    
  3.8838      4.3594      5.4223      7.2500      10.335      15.072      21.195      27.929      34.408      39.953    
  44.047      46.245      46.245      44.047      30.269      25.087      19.501      14.280      10.102      7.2490    
  5.4639      4.3580      3.7798      3.6032      3.7795      4.3576      5.4639      7.2501      10.105      14.283    
  19.502      25.085      30.265      34.408      37.075      37.997      37.079      34.413      21.254      16.961    
  12.845      9.4579      7.0396      5.4219      4.3580      3.7483      3.4788      3.4787      3.7479      4.3569    
  5.4207      7.0395      9.4599      12.849      16.963      21.253      25.085      27.929      29.436      29.438    
  27.934      25.089      13.979      11.036      8.5392      6.6645      5.3042      4.3594      3.7798      3.4788    
  3.3871      3.4791      3.7798      4.3583      5.3019      6.6624      8.5392      11.039      13.983      16.963    
  19.502      21.195      21.788      21.196      19.502      16.961      9.1728      7.5217      6.1889      5.1363    
  4.3758      3.8839      3.6032      3.4787      3.4791      3.6043      3.8850      4.3758      5.1343      6.1856    
  7.5191      9.1728      11.039      12.849      14.283      15.072      15.071      14.279      12.845      11.036    
  6.5484      5.6768      4.9602      4.4347      4.0886      3.8838      3.7795      3.7479      3.7798      3.8850    
  4.0909      4.4367      4.9603      5.6743      6.5446      7.5191      8.5392      9.4599      10.105      10.335    
  10.102      9.4575      8.5388      7.5215      5.2026      4.8263      4.5738      4.4348      4.3759      4.3594    
  4.3576      4.3569      4.3583      4.3758      4.4367      4.5771      4.8289      5.2027      5.6743      6.1856    
  6.6624      7.0395      7.2501      7.2500      7.0400      6.6644      6.1888      5.6768      4.7762      4.8263    
  4.9603      5.1364      5.3045      5.4223      5.4639      5.4207      5.3019      5.1343      4.9603      4.8289    
  4.7800      4.8289      4.9603      5.1343      5.3019      5.4207      5.4639      5.4223      5.3045      5.1364    
  4.9603      4.8263      5.2026      5.6768      6.1888      6.6644      7.0400      7.2500      7.2501      7.0395    
  6.6624      6.1856      5.6743      5.2027      4.8289      4.5771      4.4367      4.3758      4.3583      4.3569    
  4.3576      4.3594      4.3759      4.4348      4.5738      4.8263      6.5484      7.5215      8.5388      9.4575    
  10.102      10.335      10.105      9.4599      8.5392      7.5191      6.5446      5.6743      4.9603      4.4367    
  4.0909      3.8850      3.7798      3.7479      3.7795      3.8838      4.0886      4.4347      4.9602      5.6768    
  9.1728      11.036      12.845      14.279      15.071      15.072      14.283      12.849      11.039      9.1728    
  7.5191      6.1856      5.1343      4.3758      3.8850      3.6043      3.4791      3.4787      3.6032      3.8839    
  4.3758      5.1363      6.1889      7.5217      13.979      16.961      19.502      21.196      21.788      21.195    
  19.502      16.963      13.983      11.039      8.5392      6.6624      5.3019      4.3583      3.7798      3.4791    
  3.3871      3.4788      3.7798      4.3594      5.3042      6.6645      8.5392      11.036      21.254      25.089    
  27.934      29.438      29.436      27.929      25.085      21.253      16.963      12.849      9.4599      7.0395    
  5.4207      4.3569      3.7479      3.4787      3.4788      3.7483      4.3580      5.4219      7.0396      9.4579    
  12.845      16.961      30.269      34.413      37.079      37.997      37.075      34.408      30.265      25.085    
  19.502      14.283      10.105      7.2501      5.4639      4.3576      3.7795      3.6032      3.7798      4.3580    
  5.4639      7.2490      10.102      14.280      19.501      25.087      39.954      44.047      46.245      46.245    
  44.047      39.953      34.408      27.929      21.195      15.072      10.335      7.2500      5.4223      4.3594    
  3.8838      3.8839      4.3594      5.4219      7.2490      10.334      15.072      21.196      27.931      34.410    
  49.849      53.837      55.279      53.838      49.851      44.047      37.075      29.436      21.788      15.071    
  10.102      7.0400      5.3045      4.3759      4.0886      4.3758      5.3042      7.0396      10.102      15.072    
  21.790      29.437      37.075      44.046      60.087      63.745      63.744      60.085      53.838      46.245    
  37.997      29.438      21.196      14.279      9.4575      6.6644      5.1364      4.4348      4.4347      5.1363    
  6.6645      9.4579      14.280      21.196      29.437      37.995      46.244      53.840      70.184      72.632    
  70.177      63.744      55.279      46.245      37.079      27.934      19.502      12.845      8.5388      6.1888    
  4.9603      4.5738      4.9602      6.1889      8.5392      12.845      19.501      27.931      37.075      46.244    
  55.284      63.753      78.116      78.112      72.632      63.745      53.837      44.047      34.413      25.089    
  16.961      11.036      7.5215      5.6768      4.8263      4.8263      5.6768      7.5217      11.036      16.961    
  25.087      34.410      44.046      53.840      63.753      72.640      78.116      72.640      63.753      53.840    
  44.046      34.410      25.087      16.961      11.036      7.5217      5.6768      4.8263      4.8263      5.6768    
  7.5215      11.036      16.961      25.089      34.413      44.047      53.837      63.745      72.632      78.112    
  72.640      65.724      56.731      47.314      37.930      28.635      20.039      13.200      8.7424      6.3091    
  5.0438      4.6448      5.0438      6.3089      8.7420      13.200      20.041      28.639      37.934      47.314    
  56.723      65.711      72.630      75.287      63.753      56.731      48.463      39.774      30.912      22.360    
  15.088      9.9388      6.9345      5.3135      4.5666      4.5666      5.3135      6.9342      9.9381      15.087    
  22.361      30.916      39.777      48.462      56.725      63.745      67.942      67.945      53.840      47.314    
  39.774      31.694      23.598      16.368      10.902      7.4843      5.5801      4.5628      4.2466      4.5629    
  5.5802      7.4841      10.901      16.366      23.598      31.695      39.776      47.316      53.840      58.487    
  60.200      58.487      44.046      37.930      30.912      23.598      16.820      11.439      7.8677      5.7900    
  4.5939      4.0545      4.0546      4.5941      5.7904      7.8681      11.439      16.818      23.596      30.911    
  37.931      44.049      48.710      51.282      51.281      48.707      34.410      28.635      22.360      16.368    
  11.439      8.0057      5.9045      4.6260      3.9522      3.7459      3.9521      4.6260      5.9050      8.0068    
  11.440      16.368      22.359      28.633      34.409      39.063      42.104      43.165      42.103      39.063    
  25.087      20.039      15.088      10.902      7.8677      5.9045      4.6388      3.9090      3.5858      3.5856    
  3.9085      4.6382      5.9044      7.8688      10.904      15.090      20.040      25.085      29.532      32.817    
  34.559      34.561      32.821      29.535      16.961      13.200      9.9388      7.4843      5.7900      4.6260    
  3.9090      3.5369      3.4235      3.5368      3.9083      4.6246      5.7885      7.4841      9.9407      13.204    
  16.963      20.686      23.805      25.864      26.582      25.866      23.807      20.686      11.036      8.7424    
  6.9345      5.5801      4.5939      3.9522      3.5858      3.4235      3.4238      3.5864      3.9522      4.5925    
  5.5775      6.9322      8.7422      11.039      13.602      16.045      17.951      18.992      18.992      17.950    
  16.042      13.598      7.5217      6.3091      5.3135      4.5628      4.0545      3.7459      3.5856      3.5368    
  3.5864      3.7473      4.0559      4.5628      5.3113      6.3055      7.5190      8.9526      10.476      11.844    
  12.795      13.134      12.792      11.840      10.473      8.9526      5.6768      5.0438      4.5666      4.2466    
  4.0546      3.9521      3.9085      3.9083      3.9522      4.0559      4.2491      4.5688      5.0438      5.6742    
  6.4163      7.2041      7.9697      8.5916      8.9417      8.9407      8.5899      7.9693      7.2064      6.4200    
  4.8263      4.6448      4.5666      4.5629      4.5941      4.6260      4.6382      4.6246      4.5925      4.5628    
  4.5688      4.6483      4.8289      5.1128      5.4698      5.8436      6.1688      6.3897      6.4686      6.3905    
  6.1707      5.8466      5.4721      5.1128      4.8263      5.0438      5.3135      5.5802      5.7904      5.9050    
  5.9044      5.7885      5.5775      5.3113      5.0438      4.8289      4.7033      4.6750      4.7228      4.8081    
  4.8907      4.9401      4.9409      4.8927      4.8100      4.7228      4.6726      4.6997      5.6768      6.3089    
  6.9342      7.4841      7.8681      8.0068      7.8688      7.4841      6.9322      6.3055      5.6742      5.1128    
  4.6750      4.3747      4.1930      4.0963      4.0524      4.0404      4.0529      4.0963      4.1914      4.3717    
  4.6726      5.1128      7.5215      8.7420      9.9381      10.901      11.439      11.440      10.904      9.9407    
  8.7422      7.5190      6.4163      5.4698      4.7228      4.1930      3.8534      3.6597      3.5734      3.5732    
  3.6587      3.8516      4.1914      4.7228      5.4722      6.4200      11.036      13.200      15.087      16.366    
  16.818      16.368      15.090      13.204      11.039      8.9526      7.2041      5.8436      4.8081      4.0963    
  3.6597      3.4315      3.3612      3.4308      3.6588      4.0963      4.8098      5.8466      7.2065      8.9526    
  16.961      20.041      22.361      23.598      23.596      22.359      20.040      16.963      13.602      10.476    
  7.9697      6.1688      4.8907      4.0524      3.5734      3.3612      3.3611      3.5734      4.0532      4.8924    
  6.1704      7.9696      10.473      13.598      25.089      28.639      30.916      31.695      30.911      28.633    
  25.085      20.686      16.045      11.844      8.5916      6.3897      4.9401      4.0404      3.5732      3.4308    
  3.5734      4.0411      4.9409      6.3898      8.5898      11.841      16.042      20.686      34.413      37.934    
  39.777      39.776      37.931      34.409      29.532      23.805      17.951      12.795      8.9417      6.4686    
  4.9409      4.0529      3.6587      3.6588      4.0532      4.9409      6.4678      8.9399      12.793      17.951    
  23.806      29.535      44.047      47.314      48.462      47.316      44.049      39.063      32.817      25.864    
  18.992      13.134      8.9407      6.3905      4.8927      4.0963      3.8516      4.0963      4.8924      6.3898    
  8.9399      13.134      18.993      25.866      32.819      39.063      53.837      56.723      56.725      53.840    
  48.710      42.104      34.559      26.582      18.992      12.792      8.5899      6.1707      4.8100      4.1914    
  4.1914      4.8098      6.1704      8.5898      12.793      18.993      26.584      34.560      42.102      48.707    
  63.745      65.711      63.745      58.487      51.282      43.165      34.561      25.866      17.950      11.840    
  7.9693      5.8466      4.7228      4.3717      4.7228      5.8466      7.9696      11.841      17.951      25.866    
  34.560      43.164      51.281      58.487      72.632      72.630      67.942      60.200      51.281      42.103    
  32.821      23.807      16.042      10.473      7.2064      5.4721      4.6726      4.6726      5.4722      7.2065    
  10.473      16.042      23.806      32.819      42.102      51.281      60.203      67.945      78.112      75.287    
  67.945      58.487      48.707      39.063      29.535      20.686      13.598      8.9526      6.4200      5.1128    
  4.6997      5.1128      6.4200      8.9526      13.598      20.686      29.535      39.063      48.707      58.487    
  67.945      75.287      70.184      63.753      55.284      46.244      37.075      27.931      19.501      12.845    
  8.5392      6.1889      4.9602      4.5738      4.9603      6.1888      8.5388      12.845      19.502      27.934    
  37.079      46.245      55.279      63.744      70.177      72.632      63.753      56.731      48.463      39.774    
  30.912      22.360      15.088      9.9388      6.9345      5.3135      4.5666      4.5666      5.3135      6.9342    
  9.9381      15.087      22.361      30.916      39.777      48.462      56.725      63.745      67.942      67.945    
  55.284      48.463      40.699      32.462      24.220      16.821      11.186      7.6430      5.6773      4.6287    
  4.3022      4.6288      5.6772      7.6425      11.185      16.820      24.220      32.464      40.701      48.465    
  55.284      60.202      62.029      60.203      46.244      39.774      32.462      24.862      17.760      12.048    
  8.2118      5.9897      4.7215      4.1470      4.1470      4.7216      5.9899      8.2115      12.046      17.758    
  24.860      32.463      39.778      46.251      51.288      54.114      54.111      51.281      37.075      30.912    
  24.220      17.760      12.355      8.5305      6.1990      4.8060      4.0673      3.8405      4.0673      4.8063    
  6.1996      8.5309      12.354      17.758      24.217      30.911      37.079      42.108      45.448      46.626    
  45.443      42.102      27.931      22.360      16.821      12.048      8.5305      6.2728      4.8548      4.0322    
  3.6671      3.6670      4.0320      4.8549      6.2735      8.5317      12.048      16.820      22.358      27.930    
  32.819      36.445      38.379      38.378      36.444      32.819      19.501      15.088      11.186      8.2118    
  6.1990      4.8548      4.0226      3.5903      3.4585      3.5901      4.0220      4.8542      6.1990      8.2130    
  11.188      15.089      19.501      23.804      27.377      29.726      30.545      29.728      27.379      23.806    
  12.845      9.9388      7.6430      5.9897      4.8060      4.0322      3.5903      3.3947      3.3948      3.5903    
  4.0315      4.8045      5.9881      7.6428      9.9405      12.848      16.044      19.044      21.359      22.616    
  22.616      21.360      19.044      16.042      8.5392      6.9345      5.6773      4.7215      4.0673      3.6671    
  3.4585      3.3948      3.4592      3.6679      4.0673      4.7200      5.6746      6.9321      8.5388      10.475    
  12.522      14.340      15.592      16.038      15.591      14.337      12.519      10.473      6.1889      5.3135    
  4.6287      4.1470      3.8405      3.6670      3.5901      3.5903      3.6679      3.8421      4.1485      4.6288    
  5.3113      6.1855      7.2039      8.3349      9.4552      10.367      10.880      10.878      10.364      9.4528    
  8.3349      7.2065      4.9602      4.5666      4.3022      4.1470      4.0673      4.0320      4.0220      4.0315    
  4.0673      4.1485      4.3048      4.5688      4.9602      5.4697      6.0509      6.6310      7.1415      7.4987    
  7.6272      7.4980      7.1415      6.6329      6.0541      5.4722      4.5738      4.5666      4.6288      4.7216    
  4.8063      4.8549      4.8542      4.8045      4.7200      4.6288      4.5688      4.5771      4.6749      4.8573    
  5.0922      5.3307      5.5223      5.6283      5.6288      5.5239      5.3331      5.0942      4.8573      4.6726    
  4.9603      5.3135      5.6772      5.9899      6.1996      6.2735      6.1990      5.9881      5.6746      5.3113    
  4.9602      4.6749      4.4851      4.3906      4.3674      4.3816      4.4031      4.4130      4.4044      4.3830    
  4.3674      4.3886      4.4819      4.6726      6.1888      6.9342      7.6425      8.2115      8.5309      8.5317    
  8.2130      7.6428      6.9321      6.1855      5.4697      4.8573      4.3906      4.0709      3.8725      3.7627    
  3.7148      3.7150      3.7625      3.8713      4.0685      4.3886      4.8573      5.4721      8.5388      9.9381    
  11.185      12.046      12.354      12.048      11.188      9.9405      8.5388      7.2039      6.0509      5.0922    
  4.3674      3.8725      3.5678      3.4071      3.3573      3.4065      3.5666      3.8713      4.3674      5.0942    
  6.0541      7.2064      12.845      15.087      16.820      17.758      17.758      16.820      15.089      12.848    
  10.475      8.3349      6.6310      5.3307      4.3816      3.7627      3.4071      3.2484      3.2481      3.4066    
  3.7627      4.3829      5.3330      6.6330      8.3349      10.473      19.502      22.361      24.220      24.860    
  24.217      22.358      19.501      16.044      12.522      9.4552      7.1415      5.5223      4.4031      3.7148    
  3.3573      3.2481      3.3574      3.7154      4.4044      5.5235      7.1415      9.4531      12.519      16.042    
  27.934      30.916      32.464      32.463      30.911      27.930      23.804      19.044      14.340      10.367    
  7.4987      5.6283      4.4130      3.7150      3.4065      3.4066      3.7154      4.4135      5.6283      7.4974    
  10.365      14.338      19.044      23.807      37.079      39.777      40.701      39.778      37.079      32.819    
  27.377      21.359      15.592      10.880      7.6272      5.6288      4.4044      3.7625      3.5666      3.7627    
  4.4044      5.6283      7.6260      10.878      15.592      21.361      27.379      32.821      46.245      48.462    
  48.465      46.251      42.108      36.445      29.726      22.616      16.038      10.878      7.4980      5.5239    
  4.3830      3.8713      3.8713      4.3829      5.5235      7.4974      10.878      16.039      22.619      29.729    
  36.444      42.103      55.279      56.725      55.284      51.288      45.448      38.379      30.545      22.616    
  15.591      10.364      7.1415      5.3331      4.3674      4.0685      4.3674      5.3330      7.1415      10.365    
  15.592      22.619      30.547      38.377      45.443      51.281      63.744      63.745      60.202      54.114    
  46.626      38.378      29.728      21.360      14.337      9.4528      6.6329      5.0942      4.3886      4.3886    
  5.0942      6.6330      9.4531      14.338      21.361      29.729      38.377      46.624      54.111      60.200    
  70.177      67.942      62.029      54.111      45.443      36.444      27.379      19.044      12.519      8.3349    
  6.0541      4.8573      4.4819      4.8573      6.0541      8.3349      12.519      19.044      27.379      36.444    
  45.443      54.111      62.029      67.942      72.632      67.945      60.203      51.281      42.102      32.819    
  23.806      16.042      10.473      7.2065      5.4722      4.6726      4.6726      5.4721      7.2064      10.473    
  16.042      23.807      32.821      42.103      51.281      60.200      67.942      72.630      60.087      53.840    
  46.244      37.995      29.437      21.196      14.280      9.4579      6.6645      5.1363      4.4347      4.4348    
  5.1364      6.6644      9.4575      14.279      21.196      29.438      37.997      46.245      53.838      60.085    
  63.744      63.745      53.840      47.314      39.774      31.694      23.598      16.368      10.902      7.4843    
  5.5801      4.5628      4.2466      4.5629      5.5802      7.4841      10.901      16.366      23.598      31.695    
  39.776      47.316      53.840      58.487      60.200      58.487      46.244      39.774      32.462      24.862    
  17.760      12.048      8.2118      5.9897      4.7215      4.1470      4.1470      4.7216      5.9899      8.2115    
  12.046      17.758      24.860      32.463      39.778      46.251      51.288      54.114      54.111      51.281    
  37.995      31.694      24.862      18.247      12.680      8.7186      6.3028      4.8695      4.1078      3.8737    
  4.1078      4.8699      6.3034      8.7186      12.679      18.244      24.859      31.694      38.001      43.173    
  46.631      47.854      46.624      43.164      29.437      23.598      17.760      12.680      8.9007      6.4737    
  4.9724      4.0991      3.7110      3.7109      4.0992      4.9730      6.4748      8.9015      12.679      17.757    
  23.595      29.436      34.563      38.383      40.429      40.427      38.377      34.560      21.196      16.368    
  12.048      8.7186      6.4737      5.0090      4.0998      3.6271      3.4829      3.6269      4.0996      5.0093    
  6.4749      8.7203      12.049      16.366      21.194      25.864      29.728      32.269      33.154      32.269    
  29.729      25.866      14.280      10.902      8.2118      6.3028      4.9724      4.0998      3.6015      3.3810    
  3.3809      3.6012      4.0991      4.9718      6.3031      8.2133      10.904      14.281      17.950      21.359    
  23.972      25.385      25.386      23.974      21.361      17.951      9.4579      7.4843      5.9897      4.8695    
  4.0991      3.6271      3.3810      3.3056      3.3812      3.6271      4.0983      4.8680      5.9884      7.4843    
  9.4594      11.843      14.339      16.535      18.037      18.570      18.037      16.535      14.338      11.841    
  6.6645      5.5801      4.7215      4.1078      3.7110      3.4829      3.3809      3.3812      3.4837      3.7118    
  4.1078      4.7201      5.5777      6.6625      7.9693      9.4547      10.928      12.121      12.789      12.788    
  12.119      10.925      9.4531      7.9696      5.1363      4.5628      4.1470      3.8737      3.7109      3.6269    
  3.6012      3.6271      3.7118      3.8754      4.1485      4.5629      5.1344      5.8436      6.6309      7.4370    
  8.1661      8.6813      8.8672      8.6797      8.1645      7.4370      6.6330      5.8466      4.4347      4.2466    
  4.1470      4.1078      4.0992      4.0996      4.0991      4.0983      4.1078      4.1485      4.2492      4.4367    
  4.7228      5.0922      5.5017      5.8890      6.1905      6.3568      6.3568      6.1909      5.8906      5.5042    
  5.0942      4.7228      4.4348      4.5629      4.7216      4.8699      4.9730      5.0093      4.9718      4.8680    
  4.7201      4.5629      4.4367      4.3746      4.3906      4.4747      4.5972      4.7200      4.8088      4.8414    
  4.8100      4.7219      4.5988      4.4747      4.3886      4.3717      5.1364      5.5802      5.9899      6.3034    
  6.4748      6.4749      6.3031      5.9884      5.5777      5.1344      4.7228      4.3906      4.1576      4.0165    
  3.9434      3.9115      3.9009      3.9014      3.9123      3.9434      4.0150      4.1550      4.3886      4.7228    
  6.6644      7.4841      8.2115      8.7186      8.9015      8.7203      8.2133      7.4843      6.6625      5.8436    
  5.0922      4.4747      4.0165      3.7063      3.5151      3.4135      3.3819      3.4133      3.5142      3.7047    
  4.0150      4.4747      5.0942      5.8466      9.4575      10.901      12.046      12.679      12.679      12.049    
  10.904      9.4594      7.9693      6.6309      5.5017      4.5972      3.9434      3.5151      3.2654      3.1522    
  3.1519      3.2646      3.5142      3.9434      4.5987      5.5042      6.6329      7.9693      14.279      16.366    
  17.758      18.244      17.757      16.366      14.281      11.843      9.4547      7.4370      5.8890      4.7200    
  3.9115      3.4135      3.1522      3.0717      3.1520      3.4135      3.9124      4.7217      5.8905      7.4370    
  9.4528      11.840      21.196      23.598      24.860      24.859      23.595      21.194      17.950      14.339    
  10.928      8.1661      6.1905      4.8088      3.9009      3.3819      3.1519      3.1520      3.3822      3.9017    
  4.8097      6.1905      8.1646      10.925      14.337      17.950      29.438      31.695      32.463      31.694    
  29.436      25.864      21.359      16.535      12.121      8.6813      6.3568      4.8414      3.9014      3.4133    
  3.2646      3.4135      3.9017      4.8413      6.3560      8.6797      12.119      16.535      21.360      25.866    
  37.997      39.776      39.778      38.001      34.563      29.728      23.972      18.037      12.789      8.8672    
  6.3568      4.8100      3.9123      3.5142      3.5142      3.9124      4.8097      6.3560      8.8664      12.789    
  18.039      23.974      29.728      34.561      46.245      47.316      46.251      43.173      38.383      32.269    
  25.385      18.570      12.788      8.6797      6.1909      4.7219      3.9434      3.7047      3.9434      4.7217    
  6.1905      8.6797      12.789      18.573      25.388      32.269      38.378      43.165      53.838      53.840    
  51.288      46.631      40.429      33.154      25.386      18.037      12.119      8.1645      5.8906      4.5988    
  4.0150      4.0150      4.5987      5.8905      8.1646      12.119      18.039      25.388      33.154      40.427    
  46.626      51.282      60.085      58.487      54.114      47.854      40.427      32.269      23.974      16.535    
  10.925      7.4370      5.5042      4.4747      4.1550      4.4747      5.5042      7.4370      10.925      16.535    
  23.974      32.269      40.427      47.854      54.114      58.487      63.744      60.200      54.111      46.624    
  38.377      29.729      21.361      14.338      9.4531      6.6330      5.0942      4.3886      4.3886      5.0942    
  6.6329      9.4528      14.337      21.360      29.728      38.378      46.626      54.114      60.202      63.745    
  63.745      58.487      51.281      43.164      34.560      25.866      17.951      11.841      7.9696      5.8466    
  4.7228      4.3717      4.7228      5.8466      7.9693      11.840      17.950      25.866      34.561      43.165    
  51.282      58.487      63.745      65.711      49.849      44.046      37.075      29.437      21.790      15.072    
  10.102      7.0396      5.3042      4.3758      4.0886      4.3759      5.3045      7.0400      10.102      15.071    
  21.788      29.436      37.075      44.047      49.851      53.838      55.279      53.837      44.046      37.930    
  30.912      23.598      16.820      11.439      7.8677      5.7900      4.5939      4.0545      4.0546      4.5941    
  5.7904      7.8681      11.439      16.818      23.596      30.911      37.931      44.049      48.710      51.282    
  51.281      48.707      37.075      30.912      24.220      17.760      12.355      8.5305      6.1990      4.8060    
  4.0673      3.8405      4.0673      4.8063      6.1996      8.5309      12.354      17.758      24.217      30.911    
  37.079      42.108      45.448      46.626      45.443      42.102      29.437      23.598      17.760      12.680    
  8.9007      6.4737      4.9724      4.0991      3.7110      3.7109      4.0992      4.9730      6.4748      8.9015    
  12.679      17.757      23.595      29.436      34.563      38.383      40.429      40.427      38.377      34.560    
  21.790      16.820      12.355      8.9007      6.5711      5.0633      4.1271      3.6401      3.4916      3.6400    
  4.1271      5.0640      6.5728      8.9023      12.355      16.817      21.786      26.582      30.547      33.155    
  34.064      33.154      30.547      26.584      15.072      11.439      8.5305      6.4737      5.0633      4.1378    
  3.6092      3.3754      3.3753      3.6089      4.1375      5.0637      6.4753      8.5329      11.440      15.071    
  18.990      22.614      25.385      26.881      26.882      25.388      22.619      18.993      10.102      7.8677    