FCC Au                                  
   4.06379000000000     
     0.000000    0.500000    0.500000
     0.500000    0.000000    0.500000
     0.500000    0.500000    0.000000
   Fe
     1
Direct
  0.000000  0.000000  0.000000
 
   24   24   24
 0.81184227858E+02 0.78115947902E+02 0.70184095521E+02 0.60087449828E+02 0.49849288045E+02
 0.39953985576E+02 0.30269132850E+02 0.21253771455E+02 0.13979166884E+02 0.91728378354E+01
 0.65483704650E+01 0.52026409005E+01 0.47762356643E+01 0.52026409005E+01 0.65483704650E+01
 0.91728378354E+01 0.13979166884E+02 0.21253771455E+02 0.30269132850E+02 0.39953985576E+02
 0.49849288045E+02 0.60087449828E+02 0.70184095521E+02 0.78115947902E+02 0.78115947902E+02
 0.72640225619E+02 0.63752827065E+02 0.53839679319E+02 0.44045641897E+02 0.34410431923E+02
 0.25087283863E+02 0.16960513234E+02 0.11036174065E+02 0.75216800497E+01 0.56768479400E+01
 0.48263143085E+01 0.48263234468E+01 0.56768195914E+01 0.75215309454E+01 0.11036082769E+02
 0.16961165875E+02 0.25089396931E+02 0.34413474039E+02 0.44047151999E+02 0.53836782648E+02
 0.63745280702E+02 0.72631870963E+02 0.78112294204E+02 0.70184095521E+02 0.63752827065E+02
 0.55283781486E+02 0.46244186570E+02 0.37075270213E+02 0.27931194913E+02 0.19501329296E+02
 0.12845273001E+02 0.85391716853E+01 0.61889198559E+01 0.49602395033E+01 0.45737732056E+01
 0.49602652625E+01 0.61888110369E+01 0.85387981293E+01 0.12845025349E+02 0.19502291670E+02
 0.27934083674E+02 0.37078731159E+02 0.46244777088E+02 0.55278871630E+02 0.63744022973E+02
 0.70177086408E+02 0.72631870963E+02 0.60087449828E+02 0.53839679319E+02 0.46244186570E+02
 0.37995020868E+02 0.29436682429E+02 0.21196189533E+02 0.14280139674E+02 0.94579134089E+01
 0.66644758349E+01 0.51362717810E+01 0.44347228436E+01 0.44347690464E+01 0.51363625314E+01
 0.66644106218E+01 0.94574523608E+01 0.14279474903E+02 0.21196126874E+02 0.29437855593E+02
 0.37996802814E+02 0.46244868306E+02 0.53838217136E+02 0.60084907785E+02 0.63744022973E+02
 0.63745280702E+02 0.49849288045E+02 0.44045641897E+02 0.37075270213E+02 0.29436682429E+02
 0.21789613697E+02 0.15072074030E+02 0.10102283421E+02 0.70396311507E+01 0.53042011176E+01
 0.43757836470E+01 0.40886474165E+01 0.43758805509E+01 0.53044823084E+01 0.70399837215E+01
 0.10102279991E+02 0.15071327779E+02 0.21788292756E+02 0.29435586871E+02 0.37075279211E+02
 0.44046982745E+02 0.49851268554E+02 0.53838217136E+02 0.55278871630E+02 0.53836782648E+02
 0.39953985576E+02 0.34410431923E+02 0.27931194913E+02 0.21196189533E+02 0.15072074030E+02
 0.10334284620E+02 0.72490474118E+01 0.54219128942E+01 0.43594396264E+01 0.38838645294E+01
 0.38838137555E+01 0.43594487452E+01 0.54223291788E+01 0.72500292940E+01 0.10335428201E+02
 0.15072491220E+02 0.21195201551E+02 0.27929065798E+02 0.34408283099E+02 0.39952818318E+02
 0.44046982745E+02 0.46244868306E+02 0.46244777088E+02 0.44047151999E+02 0.30269132850E+02
 0.25087283863E+02 0.19501329296E+02 0.14280139674E+02 0.10102283421E+02 0.72490474118E+01
 0.54638810612E+01 0.43579833653E+01 0.37797828832E+01 0.36031605412E+01 0.37794838207E+01
 0.43575700934E+01 0.54638717321E+01 0.72501056783E+01 0.10104535735E+02 0.14282615699E+02
 0.19502295505E+02 0.25085431243E+02 0.30264684531E+02 0.34408283099E+02 0.37075279211E+02
 0.37996802814E+02 0.37078731159E+02 0.34413474039E+02 0.21253771455E+02 0.16960513234E+02
 0.12845273001E+02 0.94579134089E+01 0.70396311507E+01 0.54219128942E+01 0.43579833653E+01
 0.37483254672E+01 0.34787932690E+01 0.34787049710E+01 0.37478685957E+01 0.43569450998E+01
 0.54207391624E+01 0.70395389744E+01 0.94599455512E+01 0.12848938726E+02 0.16963488065E+02
 0.21253484307E+02 0.25085431243E+02 0.27929065798E+02 0.29435586871E+02 0.29437855593E+02
 0.27934083674E+02 0.25089396931E+02 0.13979166884E+02 0.11036174065E+02 0.85391716853E+01
 0.66644758349E+01 0.53042011176E+01 0.43594396264E+01 0.37797828832E+01 0.34787932690E+01
 0.33870760193E+01 0.34791305449E+01 0.37797822166E+01 0.43583000328E+01 0.53019279037E+01
 0.66624068479E+01 0.85391690975E+01 0.11038829460E+02 0.13982885153E+02 0.16963488065E+02
 0.19502295505E+02 0.21195201551E+02 0.21788292756E+02 0.21196126874E+02 0.19502291670E+02
 0.16961165875E+02 0.91728378354E+01 0.75216800497E+01 0.61889198559E+01 0.51362717810E+01
 0.43757836470E+01 0.38838645294E+01 0.36031605412E+01 0.34787049710E+01 0.34791305449E+01
 0.36042864895E+01 0.38850280401E+01 0.43757833207E+01 0.51342613988E+01 0.61855626635E+01
 0.75190578759E+01 0.91728366039E+01 0.11038829460E+02 0.12848938726E+02 0.14282615699E+02
 0.15072491220E+02 0.15071327779E+02 0.14279474903E+02 0.12845025349E+02 0.11036082769E+02
 0.65483704650E+01 0.56768479400E+01 0.49602395033E+01 0.44347228436E+01 0.40886474165E+01
 0.38838137555E+01 0.37794838207E+01 0.37478685957E+01 0.37797822166E+01 0.38850280401E+01
 0.40908719237E+01 0.44367391036E+01 0.49602670665E+01 0.56742583631E+01 0.65445871410E+01
 0.75190578759E+01 0.85391690975E+01 0.94599455512E+01 0.10104535735E+02 0.10335428201E+02
 0.10102279991E+02 0.94574523608E+01 0.85387981293E+01 0.75215309454E+01 0.52026409005E+01
 0.48263143085E+01 0.45737732056E+01 0.44347690464E+01 0.43758805509E+01 0.43594487452E+01
 0.43575700934E+01 0.43569450998E+01 0.43583000328E+01 0.43757833207E+01 0.44367391036E+01
 0.45771317858E+01 0.48289401144E+01 0.52026561974E+01 0.56742583631E+01 0.61855626635E+01
 0.66624068479E+01 0.70395389744E+01 0.72501056783E+01 0.72500292940E+01 0.70399837215E+01
 0.66644106218E+01 0.61888110369E+01 0.56768195914E+01 0.47762356643E+01 0.48263234468E+01
 0.49602652625E+01 0.51363625314E+01 0.53044823084E+01 0.54223291788E+01 0.54638717321E+01
 0.54207391624E+01 0.53019279037E+01 0.51342613988E+01 0.49602670665E+01 0.48289401144E+01
 0.47800474547E+01 0.48289401144E+01 0.49602670665E+01 0.51342613988E+01 0.53019279037E+01
 0.54207391624E+01 0.54638717321E+01 0.54223291788E+01 0.53044823084E+01 0.51363625314E+01
 0.49602652625E+01 0.48263234468E+01 0.52026409005E+01 0.56768195914E+01 0.61888110369E+01
 0.66644106218E+01 0.70399837215E+01 0.72500292940E+01 0.72501056783E+01 0.70395389744E+01
 0.66624068479E+01 0.61855626635E+01 0.56742583631E+01 0.52026561974E+01 0.48289401144E+01
 0.45771317858E+01 0.44367391036E+01 0.43757833207E+01 0.43583000328E+01 0.43569450998E+01
 0.43575700934E+01 0.43594487452E+01 0.43758805509E+01 0.44347690464E+01 0.45737732056E+01
 0.48263143085E+01 0.65483704650E+01 0.75215309454E+01 0.85387981293E+01 0.94574523608E+01
 0.10102279991E+02 0.10335428201E+02 0.10104535735E+02 0.94599455512E+01 0.85391690975E+01
 0.75190578759E+01 0.65445871410E+01 0.56742583631E+01 0.49602670665E+01 0.44367391036E+01
 0.40908719237E+01 0.38850280401E+01 0.37797822166E+01 0.37478685957E+01 0.37794838207E+01
 0.38838137555E+01 0.40886474165E+01 0.44347228436E+01 0.49602395033E+01 0.56768479400E+01
 0.91728378354E+01 0.11036082769E+02 0.12845025349E+02 0.14279474903E+02 0.15071327779E+02
 0.15072491220E+02 0.14282615699E+02 0.12848938726E+02 0.11038829460E+02 0.91728366039E+01
 0.75190578759E+01 0.61855626635E+01 0.51342613988E+01 0.43757833207E+01 0.38850280401E+01
 0.36042864895E+01 0.34791305449E+01 0.34787049710E+01 0.36031605412E+01 0.38838645294E+01
 0.43757836470E+01 0.51362717810E+01 0.61889198559E+01 0.75216800497E+01 0.13979166884E+02
 0.16961165875E+02 0.19502291670E+02 0.21196126874E+02 0.21788292756E+02 0.21195201551E+02
 0.19502295505E+02 0.16963488065E+02 0.13982885153E+02 0.11038829460E+02 0.85391690975E+01
 0.66624068479E+01 0.53019279037E+01 0.43583000328E+01 0.37797822166E+01 0.34791305449E+01
 0.33870760193E+01 0.34787932690E+01 0.37797828832E+01 0.43594396264E+01 0.53042011176E+01
 0.66644758349E+01 0.85391716853E+01 0.11036174065E+02 0.21253771455E+02 0.25089396931E+02
 0.27934083674E+02 0.29437855593E+02 0.29435586871E+02 0.27929065798E+02 0.25085431243E+02
 0.21253484307E+02 0.16963488065E+02 0.12848938726E+02 0.94599455512E+01 0.70395389744E+01
 0.54207391624E+01 0.43569450998E+01 0.37478685957E+01 0.34787049710E+01 0.34787932690E+01
 0.37483254672E+01 0.43579833653E+01 0.54219128942E+01 0.70396311507E+01 0.94579134089E+01
 0.12845273001E+02 0.16960513234E+02 0.30269132850E+02 0.34413474039E+02 0.37078731159E+02
 0.37996802814E+02 0.37075279211E+02 0.34408283099E+02 0.30264684531E+02 0.25085431243E+02
 0.19502295505E+02 0.14282615699E+02 0.10104535735E+02 0.72501056783E+01 0.54638717321E+01
 0.43575700934E+01 0.37794838207E+01 0.36031605412E+01 0.37797828832E+01 0.43579833653E+01
 0.54638810612E+01 0.72490474118E+01 0.10102283421E+02 0.14280139674E+02 0.19501329296E+02
 0.25087283863E+02 0.39953985576E+02 0.44047151999E+02 0.46244777088E+02 0.46244868306E+02
 0.44046982745E+02 0.39952818318E+02 0.34408283099E+02 0.27929065798E+02 0.21195201551E+02
 0.15072491220E+02 0.10335428201E+02 0.72500292940E+01 0.54223291788E+01 0.43594487452E+01
 0.38838137555E+01 0.38838645294E+01 0.43594396264E+01 0.54219128942E+01 0.72490474118E+01
 0.10334284620E+02 0.15072074030E+02 0.21196189533E+02 0.27931194913E+02 0.34410431923E+02
 0.49849288045E+02 0.53836782648E+02 0.55278871630E+02 0.53838217136E+02 0.49851268554E+02
 0.44046982745E+02 0.37075279211E+02 0.29435586871E+02 0.21788292756E+02 0.15071327779E+02
 0.10102279991E+02 0.70399837215E+01 0.53044823084E+01 0.43758805509E+01 0.40886474165E+01
 0.43757836470E+01 0.53042011176E+01 0.70396311507E+01 0.10102283421E+02 0.15072074030E+02
 0.21789613697E+02 0.29436682429E+02 0.37075270213E+02 0.44045641897E+02 0.60087449828E+02
 0.63745280702E+02 0.63744022973E+02 0.60084907785E+02 0.53838217136E+02 0.46244868306E+02
 0.37996802814E+02 0.29437855593E+02 0.21196126874E+02 0.14279474903E+02 0.94574523608E+01
 0.66644106218E+01 0.51363625314E+01 0.44347690464E+01 0.44347228436E+01 0.51362717810E+01
 0.66644758349E+01 0.94579134089E+01 0.14280139674E+02 0.21196189533E+02 0.29436682429E+02
 0.37995020868E+02 0.46244186570E+02 0.53839679319E+02 0.70184095521E+02 0.72631870963E+02
 0.70177086408E+02 0.63744022973E+02 0.55278871630E+02 0.46244777088E+02 0.37078731159E+02
 0.27934083674E+02 0.19502291670E+02 0.12845025349E+02 0.85387981293E+01 0.61888110369E+01
 0.49602652625E+01 0.45737732056E+01 0.49602395033E+01 0.61889198559E+01 0.85391716853E+01
 0.12845273001E+02 0.19501329296E+02 0.27931194913E+02 0.37075270213E+02 0.46244186570E+02
 0.55283781486E+02 0.63752827065E+02 0.78115947902E+02 0.78112294204E+02 0.72631870963E+02
 0.63745280702E+02 0.53836782648E+02 0.44047151999E+02 0.34413474039E+02 0.25089396931E+02
 0.16961165875E+02 0.11036082769E+02 0.75215309454E+01 0.56768195914E+01 0.48263234468E+01
 0.48263143085E+01 0.56768479400E+01 0.75216800497E+01 0.11036174065E+02 0.16960513234E+02
 0.25087283863E+02 0.34410431923E+02 0.44045641897E+02 0.53839679319E+02 0.63752827065E+02
 0.72640225619E+02 0.78115947902E+02 0.72640225619E+02 0.63752827065E+02 0.53839679319E+02
 0.44045641897E+02 0.34410431923E+02 0.25087283863E+02 0.16960513234E+02 0.11036174065E+02
 0.75216800497E+01 0.56768479400E+01 0.48263143085E+01 0.48263234468E+01 0.56768195914E+01
 0.75215309454E+01 0.11036082769E+02 0.16961165875E+02 0.25089396931E+02 0.34413474039E+02
 0.44047151999E+02 0.53836782648E+02 0.63745280702E+02 0.72631870963E+02 0.78112294204E+02
 0.72640225619E+02 0.65723868867E+02 0.56731208755E+02 0.47314244971E+02 0.37929629611E+02
 0.28635138258E+02 0.20039157460E+02 0.13200135179E+02 0.87423943349E+01 0.63090683712E+01
 0.50437990765E+01 0.46448086703E+01 0.50438153823E+01 0.63089189521E+01 0.87420042883E+01
 0.13200130472E+02 0.20040926148E+02 0.28639336837E+02 0.37934087922E+02 0.47314244883E+02
 0.56723483140E+02 0.65711009252E+02 0.72630216733E+02 0.75286885082E+02 0.63752827065E+02
 0.56731208755E+02 0.48463020162E+02 0.39773743649E+02 0.30912067772E+02 0.22359936485E+02
 0.15087572698E+02 0.99387825890E+01 0.69344843777E+01 0.53134869278E+01 0.45666069260E+01
 0.45666444102E+01 0.53134930306E+01 0.69341789207E+01 0.99380873440E+01 0.15087255139E+02
 0.22361395490E+02 0.30915601482E+02 0.39776985561E+02 0.48462197937E+02 0.56725015163E+02
 0.63744870328E+02 0.67941528297E+02 0.67945177263E+02 0.53839679319E+02 0.47314244971E+02
 0.39773743649E+02 0.31694019062E+02 0.23598185681E+02 0.16367582910E+02 0.10901640172E+02
 0.74843397428E+01 0.55801002020E+01 0.45628287413E+01 0.42466153295E+01 0.45629237433E+01
 0.55802041202E+01 0.74841291207E+01 0.10900798539E+02 0.16366410308E+02 0.23597681687E+02
 0.31694973791E+02 0.39775775256E+02 0.47316072213E+02 0.53840439681E+02 0.58486665484E+02
 0.60200315208E+02 0.58486659948E+02 0.44045641897E+02 0.37929629611E+02 0.30912067772E+02
 0.23598185681E+02 0.16819540444E+02 0.11438903716E+02 0.78677093905E+01 0.57899939178E+01
 0.45939137186E+01 0.40545488110E+01 0.40545621415E+01 0.45940641542E+01 0.57903903330E+01
 0.78680748541E+01 0.11438586022E+02 0.16818123995E+02 0.23596205618E+02 0.30910990277E+02
 0.37930802715E+02 0.44048977009E+02 0.48710403980E+02 0.51282431417E+02 0.51280850644E+02
 0.48706751233E+02 0.34410431923E+02 0.28635138258E+02 0.22359936485E+02 0.16367582910E+02
 0.11438903716E+02 0.80057113227E+01 0.59045027345E+01 0.46259600177E+01 0.39522018660E+01
 0.37458556690E+01 0.39520539921E+01 0.46259609784E+01 0.59050386868E+01 0.80068178942E+01
 0.11439940912E+02 0.16367583399E+02 0.22358547861E+02 0.28633170450E+02 0.34409195973E+02
 0.39063109076E+02 0.42103847650E+02 0.43165269922E+02 0.42103341607E+02 0.39063102759E+02
 0.25087283863E+02 0.20039157460E+02 0.15087572698E+02 0.10901640172E+02 0.78677093905E+01
 0.59045027345E+01 0.46387561544E+01 0.39089537457E+01 0.35857949187E+01 0.35856320966E+01
 0.39084690453E+01 0.46381603141E+01 0.59044255723E+01 0.78688372541E+01 0.10903918869E+02
 0.15089838757E+02 0.20039787634E+02 0.25085430984E+02 0.29531861763E+02 0.32817428820E+02
 0.34559355118E+02 0.34560795967E+02 0.32820941990E+02 0.29535498710E+02 0.16960513234E+02
 0.13200135179E+02 0.99387825890E+01 0.74843397428E+01 0.57899939178E+01 0.46259600177E+01
 0.39089537457E+01 0.35369163432E+01 0.34234975541E+01 0.35368296126E+01 0.39083397610E+01
 0.46245931158E+01 0.57885235135E+01 0.74841282122E+01 0.99407454905E+01 0.13203545894E+02
 0.16963167231E+02 0.20685846894E+02 0.23804600907E+02 0.25863757597E+02 0.26582375500E+02
 0.25866094660E+02 0.23806963069E+02 0.20685841882E+02 0.11036174065E+02 0.87423943349E+01
 0.69344843777E+01 0.55801002020E+01 0.45939137186E+01 0.39522018660E+01 0.35857949187E+01
 0.34234975541E+01 0.34238141294E+01 0.35863982138E+01 0.39522100634E+01 0.45925163133E+01
 0.55774818097E+01 0.69321618405E+01 0.87421982274E+01 0.11038589546E+02 0.13602025561E+02
 0.16045098665E+02 0.17951265301E+02 0.18992099855E+02 0.18991775940E+02 0.17949866313E+02
 0.16042168345E+02 0.13598381753E+02 0.75216800497E+01 0.63090683712E+01 0.53134869278E+01
 0.45628287413E+01 0.40545488110E+01 0.37458556690E+01 0.35856320966E+01 0.35368296126E+01
 0.35863982138E+01 0.37472932629E+01 0.40559293575E+01 0.45628259228E+01 0.53112937942E+01
 0.63055211306E+01 0.75189653551E+01 0.89525515702E+01 0.10475908257E+02 0.11844402373E+02
 0.12795066816E+02 0.13134312864E+02 0.12792347445E+02 0.11840487489E+02 0.10473096017E+02
 0.89525519136E+01 0.56768479400E+01 0.50437990765E+01 0.45666069260E+01 0.42466153295E+01
 0.40545621415E+01 0.39520539921E+01 0.39084690453E+01 0.39083397610E+01 0.39522100634E+01
 0.40559293575E+01 0.42491475401E+01 0.45688054981E+01 0.50438130886E+01 0.56742280644E+01
 0.64163237946E+01 0.72041209098E+01 0.79696582119E+01 0.85915941142E+01 0.89416869544E+01
 0.89407402327E+01 0.85898562551E+01 0.79693430959E+01 0.72063506930E+01 0.64199632223E+01
 0.48263143085E+01 0.46448086703E+01 0.45666444102E+01 0.45629237433E+01 0.45940641542E+01
 0.46259609784E+01 0.46381603141E+01 0.46245931158E+01 0.45925163133E+01 0.45628259228E+01
 0.45688054981E+01 0.46482939462E+01 0.48289145131E+01 0.51128065580E+01 0.54697766946E+01
 0.58436314025E+01 0.61687504712E+01 0.63897493587E+01 0.64686399265E+01 0.63904689270E+01
 0.61706873124E+01 0.58465631644E+01 0.54721351370E+01 0.51128035177E+01 0.48263234468E+01
 0.50438153823E+01 0.53134930306E+01 0.55802041202E+01 0.57903903330E+01 0.59050386868E+01
 0.59044255723E+01 0.57885235135E+01 0.55774818097E+01 0.53112937942E+01 0.50438130886E+01
 0.48289145131E+01 0.47033486145E+01 0.46749759811E+01 0.47227754117E+01 0.48081492529E+01
 0.48906679807E+01 0.49400659476E+01 0.49409090761E+01 0.48926939849E+01 0.48099788151E+01
 0.47227999528E+01 0.46725735656E+01 0.46997056152E+01 0.56768195914E+01 0.63089189521E+01
 0.69341789207E+01 0.74841291207E+01 0.78680748541E+01 0.80068178942E+01 0.78688372541E+01
 0.74841282122E+01 0.69321618405E+01 0.63055211306E+01 0.56742280644E+01 0.51128065580E+01
 0.46749759811E+01 0.43746551645E+01 0.41930386137E+01 0.40962660996E+01 0.40523617442E+01
 0.40404203034E+01 0.40529404465E+01 0.40962681692E+01 0.41913949067E+01 0.43717111554E+01
 0.46725656186E+01 0.51128035177E+01 0.75215309454E+01 0.87420042883E+01 0.99380873440E+01
 0.10900798539E+02 0.11438586022E+02 0.11439940912E+02 0.10903918869E+02 0.99407454905E+01
 0.87421982274E+01 0.75189653551E+01 0.64163237946E+01 0.54697766946E+01 0.47227754117E+01
 0.41930386137E+01 0.38533907379E+01 0.36596903346E+01 0.35734087806E+01 0.35731522219E+01
 0.36587064281E+01 0.38516061122E+01 0.41913569625E+01 0.47227549594E+01 0.54721532198E+01
 0.64199632223E+01 0.11036082769E+02 0.13200130472E+02 0.15087255139E+02 0.16366410308E+02
 0.16818123995E+02 0.16367583399E+02 0.15089838757E+02 0.13203545894E+02 0.11038589546E+02
 0.89525515702E+01 0.72041209098E+01 0.58436314025E+01 0.48081492529E+01 0.40962660996E+01
 0.36596903346E+01 0.34315189320E+01 0.33612293402E+01 0.34308206860E+01 0.36588288465E+01
 0.40962583232E+01 0.48098225614E+01 0.58465645465E+01 0.72064938945E+01 0.89525519136E+01
 0.16961165875E+02 0.20040926148E+02 0.22361395490E+02 0.23597681687E+02 0.23596205618E+02
 0.22358547861E+02 0.20039787634E+02 0.16963167231E+02 0.13602025561E+02 0.10475908257E+02
 0.79696582119E+01 0.61687504712E+01 0.48906679807E+01 0.40523617442E+01 0.35734087806E+01
 0.33612293402E+01 0.33611300016E+01 0.35734435046E+01 0.40531859538E+01 0.48924263275E+01
 0.61704417751E+01 0.79696046474E+01 0.10473356093E+02 0.13598381753E+02 0.25089396931E+02
 0.28639336837E+02 0.30915601482E+02 0.31694973791E+02 0.30910990277E+02 0.28633170450E+02
 0.25085430984E+02 0.20685846894E+02 0.16045098665E+02 0.11844402373E+02 0.85915941142E+01
 0.63897493587E+01 0.49400659476E+01 0.40404203034E+01 0.35731522219E+01 0.34308206860E+01
 0.35734435046E+01 0.40411112785E+01 0.49408750356E+01 0.63897519195E+01 0.85898488527E+01
 0.11841126111E+02 0.16042190340E+02 0.20685841882E+02 0.34413474039E+02 0.37934087922E+02
 0.39776985561E+02 0.39775775256E+02 0.37930802715E+02 0.34409195973E+02 0.29531861763E+02
 0.23804600907E+02 0.17951265301E+02 0.12795066816E+02 0.89416869544E+01 0.64686399265E+01
 0.49409090761E+01 0.40529404465E+01 0.36587064281E+01 0.36588288465E+01 0.40531859538E+01
 0.49408750356E+01 0.64677802471E+01 0.89398641029E+01 0.12793070746E+02 0.17950541637E+02
 0.23806186796E+02 0.29535498710E+02 0.44047151999E+02 0.47314244883E+02 0.48462197937E+02
 0.47316072213E+02 0.44048977009E+02 0.39063109076E+02 0.32817428820E+02 0.25863757597E+02
 0.18992099855E+02 0.13134312864E+02 0.89407402327E+01 0.63904689270E+01 0.48926939849E+01
 0.40962681692E+01 0.38516061122E+01 0.40962583232E+01 0.48924263275E+01 0.63897519195E+01
 0.89398641029E+01 0.13134122405E+02 0.18993336073E+02 0.25866095313E+02 0.32819340996E+02
 0.39063102759E+02 0.53836782648E+02 0.56723483140E+02 0.56725015163E+02 0.53840439681E+02
 0.48710403980E+02 0.42103847650E+02 0.34559355118E+02 0.26582375500E+02 0.18991775940E+02
 0.12792347445E+02 0.85898562551E+01 0.61706873124E+01 0.48099788151E+01 0.41913949067E+01
 0.41913569625E+01 0.48098225614E+01 0.61704417751E+01 0.85898488527E+01 0.12793070746E+02
 0.18993336073E+02 0.26584029203E+02 0.34559752937E+02 0.42102020687E+02 0.48706751233E+02
 0.63745280702E+02 0.65711009252E+02 0.63744870328E+02 0.58486665484E+02 0.51282431417E+02
 0.43165269922E+02 0.34560795967E+02 0.25866094660E+02 0.17949866313E+02 0.11840487489E+02
 0.79693430959E+01 0.58465631644E+01 0.47227999528E+01 0.43717111554E+01 0.47227549594E+01
 0.58465645465E+01 0.79696046474E+01 0.11841126111E+02 0.17950541637E+02 0.25866095313E+02
 0.34559752937E+02 0.43163727905E+02 0.51281429981E+02 0.58486659948E+02 0.72631870963E+02
 0.72630216733E+02 0.67941528297E+02 0.60200315208E+02 0.51280850644E+02 0.42103341607E+02
 0.32820941990E+02 0.23806963069E+02 0.16042168345E+02 0.10473096017E+02 0.72063506930E+01
 0.54721351370E+01 0.46725735656E+01 0.46725656186E+01 0.54721532198E+01 0.72064938945E+01
 0.10473356093E+02 0.16042190340E+02 0.23806186796E+02 0.32819340996E+02 0.42102020687E+02
 0.51281429981E+02 0.60203264570E+02 0.67945177263E+02 0.78112294204E+02 0.75286885082E+02
 0.67945177263E+02 0.58486659948E+02 0.48706751233E+02 0.39063102759E+02 0.29535498710E+02
 0.20685841882E+02 0.13598381753E+02 0.89525519136E+01 0.64199632223E+01 0.51128035177E+01
 0.46997056152E+01 0.51128035177E+01 0.64199632223E+01 0.89525519136E+01 0.13598381753E+02
 0.20685841882E+02 0.29535498710E+02 0.39063102759E+02 0.48706751233E+02 0.58486659948E+02
 0.67945177263E+02 0.75286885082E+02 0.70184095521E+02 0.63752827065E+02 0.55283781486E+02
 0.46244186570E+02 0.37075270213E+02 0.27931194913E+02 0.19501329296E+02 0.12845273001E+02
 0.85391716853E+01 0.61889198559E+01 0.49602395033E+01 0.45737732056E+01 0.49602652625E+01
 0.61888110369E+01 0.85387981293E+01 0.12845025349E+02 0.19502291670E+02 0.27934083674E+02
 0.37078731159E+02 0.46244777088E+02 0.55278871630E+02 0.63744022973E+02 0.70177086408E+02
 0.72631870963E+02 0.63752827065E+02 0.56731208755E+02 0.48463020162E+02 0.39773743649E+02
 0.30912067772E+02 0.22359936485E+02 0.15087572698E+02 0.99387825890E+01 0.69344843777E+01
 0.53134869278E+01 0.45666069260E+01 0.45666444102E+01 0.53134930306E+01 0.69341789207E+01
 0.99380873440E+01 0.15087255139E+02 0.22361395490E+02 0.30915601482E+02 0.39776985561E+02
 0.48462197937E+02 0.56725015163E+02 0.63744870328E+02 0.67941528297E+02 0.67945177263E+02
 0.55283781486E+02 0.48463020162E+02 0.40698584943E+02 0.32462311842E+02 0.24220060618E+02
 0.16820959368E+02 0.11186045359E+02 0.76430085805E+01 0.56772507889E+01 0.46287261467E+01
 0.43021744274E+01 0.46288043699E+01 0.56772479156E+01 0.76425313528E+01 0.11184867301E+02
 0.16819705351E+02 0.24220060093E+02 0.32464262475E+02 0.40701469989E+02 0.48464888276E+02
 0.55283777759E+02 0.60202483484E+02 0.62029235781E+02 0.60203264570E+02 0.46244186570E+02
 0.39773743649E+02 0.32462311842E+02 0.24862328039E+02 0.17760328264E+02 0.12047739630E+02
 0.82117698386E+01 0.59896608747E+01 0.47214648134E+01 0.41469783963E+01 0.41470186232E+01
 0.47216347943E+01 0.59898677176E+01 0.82114712978E+01 0.12046256432E+02 0.17757746253E+02
 0.24860072246E+02 0.32462520377E+02 0.39777650034E+02 0.46250785313E+02 0.51287665644E+02
 0.54113549231E+02 0.54110995812E+02 0.51281429981E+02 0.37075270213E+02 0.30912067772E+02
 0.24220060618E+02 0.17760328264E+02 0.12355137405E+02 0.85305003015E+01 0.61989770611E+01
 0.48060016248E+01 0.40672820710E+01 0.38405339855E+01 0.40672928652E+01 0.48062808575E+01
 0.61996099833E+01 0.85309159771E+01 0.12354260269E+02 0.17757688999E+02 0.24216984695E+02
 0.30911318857E+02 0.37078728613E+02 0.42108358382E+02 0.45448280758E+02 0.46625584693E+02
 0.45443245698E+02 0.42102020687E+02 0.27931194913E+02 0.22359936485E+02 0.16820959368E+02
 0.12047739630E+02 0.85305003015E+01 0.62727502995E+01 0.48548286617E+01 0.40321955479E+01
 0.36671033793E+01 0.36669861969E+01 0.40319814199E+01 0.48549128616E+01 0.62735186119E+01
 0.85317447513E+01 0.12048454387E+02 0.16820176167E+02 0.22357936187E+02 0.27929536617E+02
 0.32819314685E+02 0.36445447440E+02 0.38378827304E+02 0.38378126348E+02 0.36444274121E+02
 0.32819340996E+02 0.19501329296E+02 0.15087572698E+02 0.11186045359E+02 0.82117698386E+01
 0.61989770611E+01 0.48548286617E+01 0.40225576254E+01 0.35903490110E+01 0.34585098093E+01
 0.35900796977E+01 0.40219504016E+01 0.48541639397E+01 0.61989807214E+01 0.82129877415E+01
 0.11188095521E+02 0.15089194164E+02 0.19501325229E+02 0.23804398407E+02 0.27376788998E+02
 0.29726430062E+02 0.30545245268E+02 0.29728226606E+02 0.27379334743E+02 0.23806186796E+02
 0.12845273001E+02 0.99387825890E+01 0.76430085805E+01 0.59896608747E+01 0.48060016248E+01
 0.40321955479E+01 0.35903490110E+01 0.33947220334E+01 0.33948156649E+01 0.35903232014E+01
 0.40314710636E+01 0.48044697151E+01 0.59881339143E+01 0.76427781120E+01 0.99404681030E+01
 0.12848031493E+02 0.16044266852E+02 0.19044408096E+02 0.21359315713E+02 0.22615621382E+02
 0.22616204782E+02 0.21360242097E+02 0.19044117173E+02 0.16042190340E+02 0.85391716853E+01
 0.69344843777E+01 0.56772507889E+01 0.47214648134E+01 0.40672820710E+01 0.36671033793E+01
 0.34585098093E+01 0.33948156649E+01 0.34591587876E+01 0.36678878092E+01 0.40672912554E+01
 0.47199789982E+01 0.56745875889E+01 0.69321472054E+01 0.85387985097E+01 0.10475356444E+02
 0.12521878589E+02 0.14340234873E+02 0.15592224440E+02 0.16037619022E+02 0.15590597563E+02
 0.14337276403E+02 0.12518601482E+02 0.10473356093E+02 0.61889198559E+01 0.53134869278E+01
 0.46287261467E+01 0.41469783963E+01 0.38405339855E+01 0.36669861969E+01 0.35900796977E+01
 0.35903232014E+01 0.36678878092E+01 0.38421363845E+01 0.41484896563E+01 0.46287624204E+01
 0.53113278415E+01 0.61854980237E+01 0.72039382064E+01 0.83348570774E+01 0.94551920450E+01
 0.10367140156E+02 0.10879567250E+02 0.10878242600E+02 0.10364142720E+02 0.94527565679E+01
 0.83348566322E+01 0.72064938945E+01 0.49602395033E+01 0.45666069260E+01 0.43021744274E+01
 0.41470186232E+01 0.40672928652E+01 0.40319814199E+01 0.40219504016E+01 0.40314710636E+01
 0.40672912554E+01 0.41484896563E+01 0.43048362948E+01 0.45688095690E+01 0.49602385812E+01
 0.54697270241E+01 0.60508989198E+01 0.66310306167E+01 0.71414815323E+01 0.74986839332E+01
 0.76272250156E+01 0.74979525847E+01 0.71414812143E+01 0.66329467174E+01 0.60541056681E+01
 0.54721532198E+01 0.45737732056E+01 0.45666444102E+01 0.46288043699E+01 0.47216347943E+01
 0.48062808575E+01 0.48549128616E+01 0.48541639397E+01 0.48044697151E+01 0.47199789982E+01
 0.46287624204E+01 0.45688095690E+01 0.45770836494E+01 0.46749228947E+01 0.48573053268E+01
 0.50922098915E+01 0.53306776651E+01 0.55222502203E+01 0.56282971844E+01 0.56288339733E+01
 0.55239083342E+01 0.53331336004E+01 0.50942172810E+01 0.48573177410E+01 0.46725656186E+01
 0.49602652625E+01 0.53134930306E+01 0.56772479156E+01 0.59898677176E+01 0.61996099833E+01
 0.62735186119E+01 0.61989807214E+01 0.59881339143E+01 0.56745875889E+01 0.53113278415E+01
 0.49602385812E+01 0.46749228947E+01 0.44851136703E+01 0.43905965333E+01 0.43673717525E+01
 0.43815970369E+01 0.44031492850E+01 0.44129576432E+01 0.44043688548E+01 0.43829631740E+01
 0.43674148454E+01 0.43885962064E+01 0.44819328098E+01 0.46725735656E+01 0.61888110369E+01
 0.69341789207E+01 0.76425313528E+01 0.82114712978E+01 0.85309159771E+01 0.85317447513E+01
 0.82129877415E+01 0.76427781120E+01 0.69321472054E+01 0.61854980237E+01 0.54697270241E+01
 0.48573053268E+01 0.43905965333E+01 0.40708622167E+01 0.38725394971E+01 0.37626610614E+01
 0.37148271174E+01 0.37149521503E+01 0.37625244627E+01 0.38712768843E+01 0.40685285728E+01
 0.43885903803E+01 0.48573177410E+01 0.54721351370E+01 0.85387981293E+01 0.99380873440E+01
 0.11184867301E+02 0.12046256432E+02 0.12354260269E+02 0.12048454387E+02 0.11188095521E+02
 0.99404681030E+01 0.85387985097E+01 0.72039382064E+01 0.60508989198E+01 0.50922098915E+01
 0.43673717525E+01 0.38725394971E+01 0.35678438835E+01 0.34071444219E+01 0.33572926204E+01
 0.34064782122E+01 0.35665580164E+01 0.38712805375E+01 0.43673720327E+01 0.50942124315E+01
 0.60541056681E+01 0.72063506930E+01 0.12845025349E+02 0.15087255139E+02 0.16819705351E+02
 0.17757746253E+02 0.17757688999E+02 0.16820176167E+02 0.15089194164E+02 0.12848031493E+02
 0.10475356444E+02 0.83348570774E+01 0.66310306167E+01 0.53306776651E+01 0.43815970369E+01
 0.37626610614E+01 0.34071444219E+01 0.32483570932E+01 0.32480783161E+01 0.34066096539E+01
 0.37626555025E+01 0.43828578088E+01 0.53330201853E+01 0.66330275899E+01 0.83348566322E+01
 0.10473096017E+02 0.19502291670E+02 0.22361395490E+02 0.24220060093E+02 0.24860072246E+02
 0.24216984695E+02 0.22357936187E+02 0.19501325229E+02 0.16044266852E+02 0.12521878589E+02
 0.94551920450E+01 0.71414815323E+01 0.55222502203E+01 0.44031492850E+01 0.37148271174E+01
 0.33572926204E+01 0.32480783161E+01 0.33573537797E+01 0.37153635895E+01 0.44043654578E+01
 0.55235070933E+01 0.71414683969E+01 0.94531000454E+01 0.12518601482E+02 0.16042168345E+02
 0.27934083674E+02 0.30915601482E+02 0.32464262475E+02 0.32462520377E+02 0.30911318857E+02
 0.27929536617E+02 0.23804398407E+02 0.19044408096E+02 0.14340234873E+02 0.10367140156E+02
 0.74986839332E+01 0.56282971844E+01 0.44129576432E+01 0.37149521503E+01 0.34064782122E+01
 0.34066096539E+01 0.37153635895E+01 0.44134686864E+01 0.56282716612E+01 0.74974134817E+01
 0.10364722504E+02 0.14337982049E+02 0.19044117173E+02 0.23806963069E+02 0.37078731159E+02
 0.39776985561E+02 0.40701469989E+02 0.39777650034E+02 0.37078728613E+02 0.32819314685E+02
 0.27376788998E+02 0.21359315713E+02 0.15592224440E+02 0.10879567250E+02 0.76272250156E+01
 0.56288339733E+01 0.44043688548E+01 0.37625244627E+01 0.35665580164E+01 0.37626555025E+01
 0.44043654578E+01 0.56282716612E+01 0.76259841740E+01 0.10878341149E+02 0.15592224555E+02
 0.21361074742E+02 0.27379334743E+02 0.32820941990E+02 0.46244777088E+02 0.48462197937E+02
 0.48464888276E+02 0.46250785313E+02 0.42108358382E+02 0.36445447440E+02 0.29726430062E+02
 0.22615621382E+02 0.16037619022E+02 0.10878242600E+02 0.74979525847E+01 0.55239083342E+01
 0.43829631740E+01 0.38712768843E+01 0.38712805375E+01 0.43828578088E+01 0.55235070933E+01
 0.74974134817E+01 0.10878341149E+02 0.16039244036E+02 0.22618533722E+02 0.29728588386E+02