   1   1   0   0
  0.1677775E+02  0.2873534E-09  0.2873534E-09  0.2873534E-09  0.5000000E-15
  1.000000000000000E-004
  CAR 
 FCC Au                                  
     37.63946222     -6.25155017  301      5.72614626      1.00000000
     -6.252  0.0000E+00  0.0000E+00
     -6.105  0.0000E+00  0.0000E+00
     -5.959 -0.1470E-32 -0.2150E-33
     -5.813 -0.2090E-27 -0.3058E-28
     -5.666 -0.1010E-22 -0.1478E-23
     -5.520 -0.1657E-18 -0.2425E-19
     -5.374 -0.8908E-15 -0.1304E-15
     -5.227 -0.1649E-11 -0.2414E-12
     -5.081 -0.1017E-08 -0.1490E-09
     -4.935 -0.2054E-06 -0.3020E-07
     -4.789 -0.1315E-04 -0.1954E-05
     -4.642 -0.2438E-03 -0.3763E-04
     -4.496 -0.8640E-03 -0.1640E-03
     -4.350  0.3133E-02  0.2944E-03
     -4.203  0.1520E-01  0.2518E-02
     -4.057  0.3536E-01  0.7691E-02
     -3.911  0.5280E-01  0.1542E-01
     -3.764  0.5347E-01  0.2324E-01
     -3.618  0.5938E-01  0.3193E-01
     -3.472  0.7971E-01  0.4359E-01
     -3.325  0.1063E+00  0.5913E-01
     -3.179  0.9025E-01  0.7234E-01
     -3.033  0.6577E-01  0.8196E-01
     -2.887  0.1177E+00  0.9918E-01
     -2.740  0.1722E+00  0.1244E+00
     -2.594  0.1371E+00  0.1444E+00
     -2.448  0.1081E+00  0.1602E+00
     -2.301  0.1807E+00  0.1867E+00
     -2.155  0.1943E+00  0.2151E+00
     -2.009  0.1958E+00  0.2438E+00
     -1.862  0.2886E+00  0.2860E+00
     -1.716  0.4582E+00  0.3530E+00
     -1.570  0.5837E+00  0.4384E+00
     -1.424  0.6680E+00  0.5361E+00
     -1.277  0.9964E+00  0.6819E+00
     -1.131  0.1250E+01  0.8648E+00
     -0.985  0.1574E+01  0.1095E+01
     -0.838  0.1777E+01  0.1355E+01
     -0.692  0.1790E+01  0.1617E+01
     -0.546  0.1706E+01  0.1867E+01
     -0.399  0.1498E+01  0.2086E+01
     -0.253  0.1535E+01  0.2310E+01
     -0.107  0.1228E+01  0.2490E+01
      0.039  0.1174E+01  0.2662E+01
      0.186  0.1627E+01  0.2900E+01
      0.332  0.1808E+01  0.3164E+01
      0.478  0.1855E+01  0.3436E+01
      0.625  0.1771E+01  0.3695E+01
      0.771  0.2050E+01  0.3995E+01
      0.917  0.2177E+01  0.4313E+01
      1.064  0.2182E+01  0.4632E+01
      1.210  0.2673E+01  0.5024E+01
      1.356  0.3182E+01  0.5489E+01
      1.503  0.2504E+01  0.5855E+01
      1.649  0.1718E+01  0.6107E+01
      1.795  0.1402E+01  0.6312E+01
      1.941  0.1566E+01  0.6541E+01
      2.088  0.1629E+01  0.6779E+01
      2.234  0.1922E+01  0.7061E+01
      2.380  0.2178E+01  0.7379E+01
      2.527  0.1825E+01  0.7646E+01
      2.673  0.1703E+01  0.7896E+01
      2.819  0.1987E+01  0.8186E+01
      2.966  0.1467E+01  0.8401E+01
      3.112  0.1397E+01  0.8605E+01
      3.258  0.1726E+01  0.8858E+01
      3.404  0.1588E+01  0.9090E+01
      3.551  0.2073E+01  0.9393E+01
      3.697  0.2575E+01  0.9770E+01
      3.843  0.2406E+01  0.1012E+02
      3.990  0.1703E+01  0.1037E+02
      4.136  0.1117E+01  0.1053E+02
      4.282  0.5760E+00  0.1062E+02
      4.429  0.1031E+00  0.1063E+02
      4.575  0.3831E-01  0.1064E+02
      4.721  0.2706E+00  0.1068E+02
      4.868  0.4788E+00  0.1075E+02
      5.014  0.3573E+00  0.1080E+02
      5.160  0.1898E+00  0.1083E+02
      5.306  0.1634E+00  0.1085E+02
      5.453  0.3599E+00  0.1091E+02
      5.599  0.4191E+00  0.1097E+02
      5.745  0.2477E+00  0.1100E+02
      5.892  0.1933E+00  0.1103E+02
      6.038  0.2092E+00  0.1106E+02
      6.184  0.1915E+00  0.1109E+02
      6.331  0.3905E+00  0.1115E+02
      6.477  0.3853E+00  0.1120E+02
      6.623  0.2891E+00  0.1125E+02
      6.769  0.3096E+00  0.1129E+02
      6.916  0.2269E+00  0.1132E+02
      7.062  0.1652E+00  0.1135E+02
      7.208  0.2022E+00  0.1138E+02
      7.355  0.2791E+00  0.1142E+02
      7.501  0.3742E+00  0.1147E+02
      7.647  0.3390E+00  0.1152E+02
      7.794  0.2287E+00  0.1156E+02
      7.940  0.1498E+00  0.1158E+02
      8.086  0.1734E+00  0.1160E+02
      8.232  0.3529E+00  0.1166E+02
      8.379  0.2839E+00  0.1170E+02
      8.525  0.2152E+00  0.1173E+02
      8.671  0.2021E+00  0.1176E+02
      8.818  0.1685E+00  0.1178E+02
      8.964  0.4490E+00  0.1185E+02
      9.110  0.6400E+00  0.1194E+02
      9.257  0.3763E+00  0.1200E+02
      9.403  0.1121E+00  0.1201E+02
      9.549  0.2099E+00  0.1204E+02
      9.696  0.4034E+00  0.1210E+02
      9.842  0.4010E+00  0.1216E+02
      9.988  0.3474E+00  0.1221E+02
     10.134  0.2713E+00  0.1225E+02
     10.281  0.1926E+00  0.1228E+02
     10.427  0.1449E+00  0.1230E+02
     10.573  0.2220E+00  0.1233E+02
     10.720  0.4486E+00  0.1240E+02
     10.866  0.4242E+00  0.1246E+02
     11.012  0.3146E+00  0.1251E+02
     11.159  0.2780E+00  0.1255E+02
     11.305  0.2932E+00  0.1259E+02
     11.451  0.3620E+00  0.1265E+02
     11.597  0.4676E+00  0.1271E+02
     11.744  0.3789E+00  0.1277E+02
     11.890  0.3471E+00  0.1282E+02
     12.036  0.3156E+00  0.1287E+02
     12.183  0.1763E+00  0.1289E+02
     12.329  0.1989E+00  0.1292E+02
     12.475  0.4371E+00  0.1298E+02
     12.622  0.4575E+00  0.1305E+02
     12.768  0.1460E+00  0.1307E+02
     12.914  0.4601E-01  0.1308E+02
     13.060  0.2459E+00  0.1312E+02
     13.207  0.4256E+00  0.1318E+02
     13.353  0.2870E+00  0.1322E+02
     13.499  0.3545E+00  0.1327E+02
     13.646  0.4928E+00  0.1334E+02
     13.792  0.4518E+00  0.1341E+02
     13.938  0.5778E+00  0.1349E+02
     14.085  0.4380E+00  0.1356E+02
     14.231  0.7271E-01  0.1357E+02
     14.377  0.2728E-02  0.1357E+02
     14.524  0.2773E+00  0.1361E+02
     14.670  0.5245E+00  0.1369E+02
     14.816  0.3672E+00  0.1374E+02
     14.962  0.2523E+00  0.1378E+02
     15.109  0.3624E+00  0.1383E+02
     15.255  0.5495E+00  0.1391E+02
     15.401  0.4493E+00  0.1398E+02
     15.548  0.3713E+00  0.1403E+02
     15.694  0.4562E+00  0.1410E+02
     15.840  0.4102E+00  0.1416E+02
     15.987  0.4137E+00  0.1422E+02
     16.133  0.4893E+00  0.1429E+02
     16.279  0.4266E+00  0.1435E+02
     16.425  0.4370E+00  0.1442E+02
     16.572  0.6973E+00  0.1452E+02
     16.718  0.6542E+00  0.1461E+02
     16.864  0.2222E+00  0.1465E+02
     17.011  0.2514E+00  0.1468E+02
     17.157  0.3877E+00  0.1474E+02
     17.303  0.5161E+00  0.1482E+02
     17.450  0.7022E+00  0.1492E+02
     17.596  0.7460E+00  0.1503E+02
     17.742  0.7557E+00  0.1514E+02
     17.889  0.4616E+00  0.1521E+02
     18.035  0.1744E+00  0.1523E+02
     18.181  0.2090E+00  0.1526E+02
     18.327  0.4448E+00  0.1533E+02
     18.474  0.5933E+00  0.1541E+02
     18.620  0.4617E+00  0.1548E+02
     18.766  0.4832E+00  0.1555E+02
     18.913  0.5298E+00  0.1563E+02
     19.059  0.4598E+00  0.1570E+02
     19.205  0.4449E+00  0.1576E+02
     19.352  0.6493E+00  0.1586E+02
     19.498  0.4839E+00  0.1593E+02
     19.644  0.3694E+00  0.1598E+02
     19.790  0.5132E+00  0.1606E+02
     19.937  0.5935E+00  0.1614E+02
     20.083  0.4482E+00  0.1621E+02
     20.229  0.4500E+00  0.1627E+02
     20.376  0.7204E+00  0.1638E+02
     20.522  0.5139E+00  0.1646E+02
     20.668  0.3188E+00  0.1650E+02
     20.815  0.4557E+00  0.1657E+02
     20.961  0.6888E+00  0.1667E+02
     21.107  0.6143E+00  0.1676E+02
     21.253  0.4929E+00  0.1683E+02
     21.400  0.6051E+00  0.1692E+02
     21.546  0.7829E+00  0.1703E+02
     21.692  0.6286E+00  0.1713E+02
     21.839  0.5117E+00  0.1720E+02
     21.985  0.4941E+00  0.1727E+02
     22.131  0.4480E+00  0.1734E+02
     22.278  0.4776E+00  0.1741E+02
     22.424  0.3784E+00  0.1746E+02
     22.570  0.2845E+00  0.1751E+02
     22.717  0.4026E+00  0.1756E+02
     22.863  0.5603E+00  0.1765E+02
     23.009  0.8033E+00  0.1776E+02
     23.155  0.1057E+01  0.1792E+02
     23.302  0.7514E+00  0.1803E+02
     23.448  0.5885E+00  0.1812E+02
     23.594  0.6399E+00  0.1821E+02
     23.741  0.6776E+00  0.1831E+02
     23.887  0.8854E+00  0.1844E+02
     24.033  0.9916E+00  0.1858E+02
     24.180  0.7790E+00  0.1870E+02
     24.326  0.7961E+00  0.1881E+02
     24.472  0.7768E+00  0.1893E+02
     24.618  0.4809E+00  0.1900E+02
     24.765  0.4297E+00  0.1906E+02
     24.911  0.5787E+00  0.1914E+02
     25.057  0.7921E+00  0.1926E+02
     25.204  0.8877E+00  0.1939E+02
     25.350  0.7579E+00  0.1950E+02
     25.496  0.5411E+00  0.1958E+02
     25.643  0.3338E+00  0.1963E+02
     25.789  0.3646E+00  0.1968E+02
     25.935  0.5763E+00  0.1977E+02
     26.081  0.5624E+00  0.1985E+02
     26.228  0.6867E+00  0.1995E+02
     26.374  0.5540E+00  0.2003E+02
     26.520  0.2869E+00  0.2007E+02
     26.667  0.2292E+00  0.2011E+02
     26.813  0.2412E+00  0.2014E+02
     26.959  0.4171E+00  0.2020E+02
     27.106  0.5362E+00  0.2028E+02
     27.252  0.4633E+00  0.2035E+02
     27.398  0.4707E+00  0.2042E+02
     27.545  0.3501E+00  0.2047E+02
     27.691  0.2207E+00  0.2050E+02
     27.837  0.3303E+00  0.2055E+02
     27.983  0.2533E+00  0.2059E+02
     28.130  0.3713E+00  0.2064E+02
     28.276  0.5543E+00  0.2072E+02
     28.422  0.3440E+00  0.2077E+02
     28.569  0.4948E+00  0.2084E+02
     28.715  0.8041E+00  0.2096E+02
     28.861  0.5077E+00  0.2104E+02
     29.008  0.3664E+00  0.2109E+02
     29.154  0.2027E+00  0.2112E+02
     29.300  0.5054E-01  0.2113E+02
     29.446  0.3706E+00  0.2118E+02
     29.593  0.6820E+00  0.2128E+02
     29.739  0.5851E+00  0.2137E+02
     29.885  0.4361E+00  0.2143E+02
     30.032  0.4781E+00  0.2150E+02
     30.178  0.5956E+00  0.2159E+02
     30.324  0.7930E+00  0.2170E+02
     30.471  0.9778E+00  0.2185E+02
     30.617  0.6950E+00  0.2195E+02
     30.763  0.6614E+00  0.2205E+02
     30.910  0.6555E+00  0.2214E+02
     31.056  0.5183E+00  0.2222E+02
     31.202  0.5195E+00  0.2229E+02
     31.348  0.6247E+00  0.2238E+02
     31.495  0.6707E+00  0.2248E+02
     31.641  0.7967E+00  0.2260E+02
     31.787  0.7121E+00  0.2270E+02
     31.934  0.6154E+00  0.2279E+02
     32.080  0.7970E+00  0.2291E+02
     32.226  0.9929E+00  0.2305E+02
     32.373  0.7777E+00  0.2317E+02
     32.519  0.5023E+00  0.2324E+02
     32.665  0.5244E+00  0.2332E+02
     32.811  0.5548E+00  0.2340E+02
     32.958  0.3741E+00  0.2345E+02
     33.104  0.3745E+00  0.2351E+02
     33.250  0.6374E+00  0.2360E+02
     33.397  0.6120E+00  0.2369E+02
     33.543  0.3188E+00  0.2374E+02
     33.689  0.2002E+00  0.2377E+02
     33.836  0.1421E+00  0.2379E+02
     33.982  0.1063E+00  0.2380E+02
     34.128  0.1637E+00  0.2383E+02
     34.274  0.2142E+00  0.2386E+02
     34.421  0.2067E+00  0.2389E+02
     34.567  0.1883E+00  0.2392E+02
     34.713  0.2318E+00  0.2395E+02
     34.860  0.9637E-01  0.2397E+02
     35.006 -0.8326E-02  0.2396E+02
     35.152 -0.5722E-02  0.2396E+02
     35.299  0.2513E-01  0.2397E+02
     35.445  0.5870E-01  0.2398E+02
     35.591  0.8460E-01  0.2399E+02
     35.738  0.7071E-01  0.2400E+02
     35.884  0.1313E-01  0.2400E+02
     36.030 -0.3571E-02  0.2400E+02
     36.176 -0.8458E-03  0.2400E+02
     36.323 -0.4233E-04  0.2400E+02
     36.469 -0.6377E-06  0.2400E+02
     36.615 -0.3101E-08  0.2400E+02
     36.762 -0.4988E-11  0.2400E+02
     36.908 -0.2695E-14  0.2400E+02
     37.054  0.0000E+00  0.2400E+02
     37.201  0.0000E+00  0.2400E+02
     37.347  0.0000E+00  0.2400E+02
     37.493  0.0000E+00  0.2400E+02
     37.639  0.0000E+00  0.2400E+02
