    1    1    1    1
  0.1677775E+02  0.2873533E-09  0.2873533E-09  0.2873533E-09  0.5000000E-15
  1.000000000000000E-004
  CAR 
 FCC Au                                  
     11    110     12
 
  0.5000000E-01  0.5000000E-01  0.5000000E-01  0.2000000E-02
    1       -4.251550   1.000000
    2        0.928793   1.000000
    3        0.990253   1.000000
    4        0.990253   1.000000
    5        2.529394   1.000000
    6        2.529394   1.000000
    7       21.186561   0.000000
    8       24.338884   0.000000
    9       25.113255   0.000000
   10       25.113255   0.000000
   11       29.968856   0.000000
   12       33.054801   0.000000
 
  0.1500000E+00  0.5000000E-01  0.5000000E-01  0.6000000E-02
    1       -3.791254   1.000000
    2        0.773525   1.000000
    3        1.132128   1.000000
    4        1.165823   1.000000
    5        2.378759   1.000000
    6        2.581792   1.000000
    7       21.525759   0.000000
    8       22.376725   0.000000
    9       24.750215   0.000000
   10       26.049901   0.000000
   11       29.428764   0.000000
   12       32.087844   0.000000
 
  0.2500000E+00  0.5000000E-01  0.5000000E-01  0.6000000E-02
    1       -2.795920   1.000000
    2        0.652090   1.000000
    3        1.287653   1.000000
    4        1.311893   1.000000
    5        2.386475   1.000000
    6        2.800640   1.000000
    7       18.490661   0.000000
    8       22.137434   0.000000
    9       24.941041   0.000000
   10       27.343619   0.000000
   11       27.403360   0.000000
   12       29.866679   0.000000
 
  0.3500000E+00  0.5000000E-01  0.5000000E-01  0.6000000E-02
    1       -1.908421   1.000000
    2        1.103115   1.000000
    3        1.191871   1.000000
    4        1.333151   1.000000
    5        2.885553   1.000000
    6        3.380240   1.000000
    7       14.446492   0.000000
    8       21.445933   0.000000
    9       23.976564   0.000000
   10       26.194696   0.000000
   11       28.584817   0.000000
   12       29.688879   0.000000
 
  0.4500000E+00  0.5000000E-01  0.5000000E-01  0.6000000E-02
    1       -1.689220   1.000000
    2        0.949755   1.000000
    3        1.020900   1.000000
    4        2.863436   1.000000
    5        3.499532   1.000000
    6        4.271481   1.000000
    7       10.645040  -0.000000
    8       20.672147   0.000000
    9       23.033335   0.000000
   10       24.150757   0.000000
   11       30.393276   0.000000
   12       30.677503   0.000000
 
 -0.4500000E+00  0.5000000E-01  0.5000000E-01  0.6000000E-02
    1       -1.685426   1.000000
    2        0.881795   1.000000
    3        0.979785   1.000000
    4        3.289728   1.000000
    5        3.787213   1.000000
    6        5.136022   1.000123
    7        8.974886  -0.000000
    8       20.458901   0.000000
    9       23.085682   0.000000
   10       23.203526   0.000000
   11       30.895591   0.000000
   12       30.980866   0.000000
 
 -0.3500000E+00  0.5000000E-01  0.5000000E-01  0.6000000E-02
    1       -1.715156   1.000000
    2        0.980275   1.000000
    3        1.093234   1.000000
    4        2.287014   1.000000
    5        3.579911   1.000000
    6        3.707491   1.000000
    7       11.824394   0.000000
    8       20.910643   0.000000
    9       23.508127   0.000000
   10       24.344676   0.000000
   11       30.339412   0.000000
   12       30.488624   0.000000
 
 -0.2500000E+00  0.5000000E-01  0.5000000E-01  0.6000000E-02
    1       -2.132020   1.000000
    2        0.907014   1.000000
    3        1.207138   1.000000
    4        1.269117   1.000000
    5        2.793521   1.000000
    6        3.064693   1.000000
    7       15.803418   0.000000
    8       21.827263   0.000000
    9       24.477364   0.000000
   10       26.328274   0.000000
   11       28.255794   0.000000
   12       30.076026   0.000000
 
 -0.1500000E+00  0.5000000E-01  0.5000000E-01  0.6000000E-02
    1       -3.161573   1.000000
    2        0.641490   1.000000
    3        1.279220   1.000000
    4        1.293236   1.000000
    5        2.340490   1.000000
    6        2.674337   1.000000
    7       19.778127   0.000000
    8       22.233849   0.000000
    9       24.948649   0.000000
   10       26.499198   0.000000
   11       28.132603   0.000000
   12       30.743855   0.000000
 
 -0.5000000E-01  0.5000000E-01  0.5000000E-01  0.6000000E-02
    1       -4.017425   1.000000
    2        0.819327   1.000000
    3        1.088068   1.000000
    4        1.093393   1.000000
    5        2.404299   1.000000
    6        2.588165   1.000000
    7       21.431709   0.000000
    8       23.419668   0.000000
    9       24.858406   0.000000
   10       25.238640   0.000000
   11       30.581842   0.000000
   12       32.282691   0.000000
 
  0.1500000E+00  0.1500000E+00  0.5000000E-01  0.6000000E-02
    1       -3.562790   1.000000
    2        0.599894   1.000000
    3        1.292930   1.000000
    4        1.297659   1.000000
    5        2.177149   1.000000
    6        2.702830   1.000000
    7       21.829557   0.000000
    8       22.551704   0.000000
    9       24.202746   0.000000
   10       24.832632   0.000000
   11       29.816434   0.000000
   12       31.526548   0.000000
 
  0.2500000E+00  0.1500000E+00  0.5000000E-01  0.1200000E-01
    1       -2.735505   1.000000
    2        0.347018   1.000000
    3        1.392045   1.000000
    4        1.580292   1.000000
    5        2.123501   1.000000
    6        2.927138   1.000000
    7       20.035401   0.000000
    8       21.845151   0.000000
    9       23.816410   0.000000
   10       25.071782   0.000000
   11       27.781953   0.000000
   12       30.687677   0.000000
 
  0.3500000E+00  0.1500000E+00  0.5000000E-01  0.1200000E-01
    1       -1.720972   1.000000
    2        0.433535   1.000000
    3        1.084411   1.000000
    4        1.589351   1.000000
    5        2.797655   1.000000
    6        3.518072   1.000000
    7       16.034984   0.000000
    8       21.300664   0.000000
    9       22.753430   0.000000
   10       24.939023   0.000000
   11       28.580160   0.000000
   12       30.389344   0.000000
 
  0.4500000E+00  0.1500000E+00  0.5000000E-01  0.1200000E-01
    1       -1.335073   1.000000
    2        0.776452   1.000000
    3        1.322781   1.000000
    4        1.484942   1.000000
    5        3.563277   1.000000
    6        4.716678   1.000000
    7       12.020451   0.000000
    8       20.794490   0.000000
    9       21.489468   0.000000
   10       23.635114   0.000000
   11       30.409997   0.000000
   12       31.529139   0.000000
 
 -0.4500000E+00  0.1500000E+00  0.5000000E-01  0.1200000E-01
    1       -1.314109   1.000000
    2        0.645405   1.000000
    3        1.284227   1.000000
    4        2.231020   1.000000
    5        3.740418   1.000000
    6        6.595754  -0.000000
    7        8.958006  -0.000000
    8       20.323964   0.000000
    9       21.144151   0.000000
   10       22.858753   0.000000
   11       30.886680   0.000000
   12       31.938178   0.000000
 
 -0.3500000E+00  0.1500000E+00  0.5000000E-01  0.1200000E-01
    1       -1.296806   1.000000
    2        0.727841   1.000000
    3        1.310589   1.000000
    4        1.895804   1.000000
    5        3.415921   1.000000
    6        5.425178   1.027435
    7       10.872817  -0.000000
    8       20.017936   0.000000
    9       21.577063   0.000000
   10       23.807753   0.000000
   11       30.049772   0.000000
   12       31.588920   0.000000
 
 -0.2500000E+00  0.1500000E+00  0.5000000E-01  0.1200000E-01
    1       -1.478149   1.000000
    2        0.719738   1.000000
    3        1.034315   1.000000
    4        1.502493   1.000000
    5        2.707572   1.000000
    6        4.069634   1.000000
    7       14.691547   0.000000
    8       20.281758   0.000000
    9       22.682701   0.000000
   10       25.808441   0.000000
   11       28.195606   0.000000
   12       30.686278   0.000000
 
 -0.1500000E+00  0.1500000E+00  0.5000000E-01  0.1200000E-01
    1       -2.377057   1.000000
    2        0.390758   1.000000
    3        1.284775   1.000000
    4        1.603239   1.000000
    5        2.118764   1.000000
    6        3.193204   1.000000
    7       18.631005   0.000000
    8       20.920454   0.000000
    9       24.387132   0.000000
   10       25.399527   0.000000
   11       28.886212   0.000000
   12       29.537963   0.000000
 
 -0.5000000E-01  0.1500000E+00  0.5000000E-01  0.1200000E-01
    1       -3.352474   1.000000
    2        0.603472   1.000000
    3        1.295505   1.000000
    4        1.305704   1.000000
    5        2.217955   1.000000
    6        2.710656   1.000000
    7       21.025229   0.000000
    8       21.990130   0.000000
    9       24.314993   0.000000
   10       26.141845   0.000000
   11       28.500677   0.000000
   12       31.523875   0.000000
 
  0.2500000E+00  0.2500000E+00  0.5000000E-01  0.6000000E-02
    1       -2.184211   1.000000
    2       -0.015853   1.000000
    3        1.547460   1.000000
    4        1.968858   1.000000
    5        2.165238   1.000000
    6        3.053185   1.000000
    7       20.501774   0.000000
    8       21.636871   0.000000
    9       22.728022   0.000000
   10       23.617366   0.000000
   11       24.826483   0.000000
   12       32.159810   0.000000
 
  0.3500000E+00  0.2500000E+00  0.5000000E-01  0.1200000E-01
    1       -1.382278   1.000000
    2       -0.244992   1.000000
    3        1.283623   1.000000
    4        2.324264   1.000000
    5        2.835423   1.000000
    6        3.541975   1.000000
    7       17.762964   0.000000
    8       19.725685   0.000000
    9       21.364229   0.000000
   10       24.066218   0.000000
   11       25.453149   0.000000
   12       32.228564   0.000000
 
  0.4500000E+00  0.2500000E+00  0.5000000E-01  0.1200000E-01
    1       -0.915494   1.000000
    2        0.017941   1.000000
    3        1.032879   1.000000
    4        2.188193   1.000000
    5        3.651759   1.000000
    6        4.990148   1.000001
    7       13.663872   0.000000
    8       19.037294   0.000000
    9       19.617110   0.000000
   10       23.679687   0.000000
   11       28.668136   0.000000
   12       32.186419   0.000000
 
 -0.4500000E+00  0.2500000E+00  0.5000000E-01  0.1200000E-01
    1       -0.795658   1.000000
    2        0.285783   1.000000
    3        1.239572   1.000000
    4        1.985474   1.000000
    5        3.777331   1.000000
    6        7.468163  -0.000000
    7       10.058248  -0.000000
    8       17.746162   0.000000
    9       19.688602   0.000000
   10       23.263248   0.000000
   11       31.275057   0.000000
   12       32.851449   0.000000
 
 -0.3500000E+00  0.2500000E+00  0.5000000E-01  0.1200000E-01
    1       -0.621344   1.000000
    2        0.352231   1.000000
    3        1.260528   1.000000
    4        1.879485   1.000000
    5        3.369939   1.000000
    6        7.306548  -0.000000
    7       10.597746  -0.000000
    8       16.654032   0.000000
    9       20.895562   0.000000
   10       23.442667   0.000000
   11       30.426748   0.000000
   12       32.799441   0.000000
 
 -0.2500000E+00  0.2500000E+00  0.5000000E-01  0.1200000E-01
    1       -0.538171   1.000000
    2        0.428986   1.000000
    3        0.690618   1.000000
    4        1.960755   1.000000
    5        2.665960   1.000000
    6        5.499583   1.033987
    7       14.002734   0.000000
    8       16.570830   0.000000
    9       22.138800   0.000000
   10       24.907967   0.000000
   11       28.220113   0.000000
   12       32.615682   0.000000
 
 -0.1500000E+00  0.2500000E+00  0.5000000E-01  0.1200000E-01
    1       -1.321377   1.000000
    2        0.310812   1.000000
    3        1.006021   1.000000
    4        1.835509   1.000000
    5        2.259486   1.000000
    6        4.160722   1.000000
    7       16.148912   0.000000
    8       18.826197   0.000000
    9       23.156031   0.000000
   10       26.227248   0.000000
   11       27.305880   0.000000
   12       31.220684   0.000000
 
 -0.5000000E-01  0.2500000E+00  0.5000000E-01  0.1200000E-01
    1       -2.292528   1.000000
    2        0.574393   1.000000
    3        1.257636   1.000000
    4        1.408950   1.000000
    5        2.450131   1.000000
    6        3.119132   1.000000
    7       17.248839   0.000000
    8       21.863153   0.000000
    9       23.966016   0.000000
   10       26.396339   0.000000
   11       28.166906   0.000000
   12       29.614300   0.000000
 
  0.3500000E+00  0.3500000E+00  0.5000000E-01  0.6000000E-02
    1       -1.241973   1.000000
    2       -0.630412   1.000000
    3        2.179831   1.000000
    4        2.865506   1.000000
    5        3.300629   1.000000
    6        3.476119   1.000000
    7       17.697490   0.000000
    8       18.705032   0.000000
    9       18.972824   0.000000
   10       22.928399   0.000000
   11       24.850520   0.000000
   12       34.651913   0.000000
 
  0.4500000E+00  0.3500000E+00  0.5000000E-01  0.1200000E-01
    1       -1.095873   1.000000
    2       -0.741031   1.000000
    3        2.229770   1.000000
    4        3.170846   1.000000
    5        3.667118   1.000000
    6        5.039304   1.000007
    7       14.863125   0.000000
    8       17.002028   0.000000
    9       17.627844   0.000000
   10       23.948238   0.000000
   11       25.857124   0.000000
   12       34.222663   0.000000
 
 -0.4500000E+00  0.3500000E+00  0.5000000E-01  0.1200000E-01
    1       -0.925922   1.000000
    2       -0.422524   1.000000
    3        1.867480   1.000000
    4        2.860226   1.000000
    5        3.879735   1.000000
    6        7.695449  -0.000000
    7       11.622901   0.000000
    8       15.259565   0.000000
    9       17.739617   0.000000
   10       24.161120   0.000000
   11       28.610633   0.000000
   12       33.213725   0.000000
 
 -0.3500000E+00  0.3500000E+00  0.5000000E-01  0.1200000E-01
    1       -0.628325   1.000000
    2        0.094409   1.000000
    3        1.311626   1.000000
    4        2.523250   1.000000
    5        3.545633   1.000000
    6        8.916430  -0.000000
    7       11.057038  -0.000000
    8       13.581280   0.000000
    9       19.088420   0.000000
   10       23.919417   0.000000
   11       31.783415   0.000000
   12       32.200383   0.000000
 
 -0.2500000E+00  0.3500000E+00  0.5000000E-01  0.1200000E-01
    1       -0.340145   1.000000
    2        0.395322   1.000000
    3        0.806775   1.000000
    4        2.157747   1.000000
    5        3.124288   1.000000
    6        7.131193  -0.000000
    7       12.465026   0.000000
    8       14.582668   0.000000
    9       20.896358   0.000000
   10       23.815786   0.000000
   11       30.094226   0.000000
   12       33.049176   0.000000
 
 -0.1500000E+00  0.3500000E+00  0.5000000E-01  0.1200000E-01
    1       -0.932815   1.000000
    2        0.625883   1.000000
    3        1.129008   1.000000
    4        1.650435   1.000000
    5        3.037067   1.000000
    6        5.480211   1.035454
    7       12.403768   0.000000
    8       18.318504   0.000000
    9       21.871093   0.000000
   10       24.383663   0.000000
   11       29.048989   0.000000
   12       32.070444   0.000000
 
 -0.5000000E-01  0.3500000E+00  0.5000000E-01  0.1200000E-01
    1       -1.636204   1.000000
    2        0.983539   1.000000
    3        1.237049   1.000000
    4        1.487304   1.000000
    5        3.170531   1.000000
    6        3.890145   1.000000
    7       13.187689   0.000000
    8       21.134978   0.000000
    9       22.772732   0.000000
   10       25.047073   0.000000
   11       29.439504   0.000000
   12       30.440192   0.000000
 
  0.4500000E+00  0.4500000E+00  0.5000000E-01  0.6000000E-02
    1       -1.362119   1.000000
    2       -1.035570   1.000000
    3        3.563494   1.000000
    4        3.567125   1.000000
    5        3.909828   1.000000
    6        5.523279   1.026552
    7       13.478363   0.000000
    8       16.266154   0.000000
    9       16.600206   0.000000
   10       23.261805   0.000000
   11       25.647892   0.000000
   12       35.543748   0.000000
 
 -0.4500000E+00  0.4500000E+00  0.5000000E-01  0.1200000E-01
    1       -1.287913   1.000000
    2       -0.984240   1.000000
    3        3.171862   1.000000
    4        3.516002   1.000000
    5        4.062997   1.000000
    6        7.563355  -0.000000
    7       11.596130   0.000000
    8       15.226657   0.000000
    9       16.195406   0.000000
   10       24.207696   0.000000
   11       26.210676   0.000000
   12       34.665413   0.000000
 
 -0.3500000E+00  0.4500000E+00  0.5000000E-01  0.1200000E-01
    1       -0.980936   1.000000
    2       -0.514864   1.000000
    3        2.161723   1.000000
    4        3.033720   1.000000
    5        3.876469   1.000000
    6        9.136630  -0.000000
    7       10.730432  -0.000000
    8       13.936109   0.000000
    9       17.387859   0.000000
   10       24.351955   0.000000
   11       28.617757   0.000000
   12       33.376917   0.000000
 
 -0.2500000E+00  0.4500000E+00  0.5000000E-01  0.1200000E-01
    1       -0.662933   1.000000
    2        0.142498   1.000000
    3        1.267641   1.000000
    4        2.296755   1.000000
    5        3.673352   1.000000
    6        9.006802  -0.000000
    7        9.556364  -0.000000
    8       15.593905   0.000000
    9       19.288486   0.000000
   10       23.642391   0.000000
   11       31.497334   0.000000
   12       32.563272   0.000000
 
 -0.1500000E+00  0.4500000E+00  0.5000000E-01  0.1200000E-01
    1       -0.988261   1.000000
    2        0.469283   1.000000
    3        1.556031   1.000000
    4        1.754721   1.000000
    5        3.613717   1.000000
    6        7.434397  -0.000000
    7        9.111234  -0.000000
    8       18.699278   0.000000
    9       20.907637   0.000000
   10       22.999378   0.000000
   11       30.782271   0.000000
   12       32.415696   0.000000
 
 -0.5000000E-01  0.4500000E+00  0.5000000E-01  0.1200000E-01
    1       -1.553639   1.000000
    2        0.820356   1.000000
    3        1.098742   1.000000
    4        2.658117   1.000000
    5        3.696802   1.000000
    6        5.302287   1.005336
    7        9.664645  -0.000000
    8       20.594138   0.000000
    9       22.216341   0.000000
   10       23.371942   0.000000
   11       30.733199   0.000000
   12       31.258720   0.000000
 
 -0.4500000E+00 -0.4500000E+00  0.5000000E-01  0.6000000E-02
    1       -1.438568   1.000000
    2       -1.121723   1.000000
    3        3.688701   1.000000
    4        3.860506   1.000000
    5        4.077047   1.000000
    6        6.744778  -0.000000
    7       11.833472   0.000000
    8       15.753834   0.000000
    9       16.121485   0.000000
   10       23.401608   0.000000
   11       25.818026   0.000000
   12       35.337509   0.000000
 
 -0.3500000E+00 -0.4500000E+00  0.5000000E-01  0.1200000E-01
    1       -1.208566   1.000000
    2       -0.901464   1.000000
    3        2.801262   1.000000
    4        3.448422   1.000000
    5        3.902788   1.000000
    6        6.325371  -0.000095
    7       13.115244   0.000000
    8       15.828256   0.000000
    9       16.666468   0.000000
   10       24.092349   0.000000
   11       26.087006   0.000000
   12       34.608597   0.000000
 
 -0.2500000E+00 -0.4500000E+00  0.5000000E-01  0.1200000E-01
    1       -0.867653   1.000000
    2       -0.235948   1.000000
    3        1.426613   1.000000
    4        2.548525   1.000000
    5        3.827562   1.000000
    6        6.240446  -0.000836
    7       12.579532   0.000000
    8       17.177233   0.000000
    9       18.437850   0.000000
   10       23.877402   0.000000
   11       28.622782   0.000000
   12       32.827312   0.000000
 
 -0.1500000E+00 -0.4500000E+00  0.5000000E-01  0.1200000E-01
    1       -1.037576   1.000000
    2        0.519511   1.000000
    3        1.270461   1.000000
    4        1.686856   1.000000
    5        3.760193   1.000000
    6        5.950324  -0.033552
    7       10.960845  -0.000000
    8       19.802881   0.000000
    9       20.250772   0.000000
   10       23.085171   0.000000
   11       30.971147   0.000000
   12       32.632140   0.000000
 
 -0.3500000E+00 -0.3500000E+00  0.5000000E-01  0.6000000E-02
    1       -1.254482   1.000000
    2       -0.868211   1.000000
    3        2.974800   1.000000
    4        3.283693   1.000000
    5        3.688990   1.000000
    6        4.222472   1.000000
    7       15.664565   0.000000
    8       17.274273   0.000000
    9       17.493657   0.000000
   10       23.065548   0.000000
   11       25.321117   0.000000
   12       35.639462   0.000000
 
 -0.2500000E+00 -0.3500000E+00  0.5000000E-01  0.1200000E-01
    1       -1.079407   1.000000
    2       -0.516092   1.000000
    3        1.621940   1.000000
    4        2.759459   1.000000
    5        3.333268   1.000000
    6        4.086198   1.000000
    7       16.407211   0.000000
    8       18.377776   0.000000
    9       19.289156   0.000000
   10       23.911275   0.000000
   11       25.571380   0.000000
   12       33.342588   0.000000
 
 -0.1500000E+00 -0.3500000E+00  0.5000000E-01  0.1200000E-01
    1       -1.206553   1.000000
    2        0.258309   1.000000
    3        0.918207   1.000000
    4        1.854938   1.000000
    5        3.296633   1.000000
    6        4.076230   1.000000
    7       14.833713   0.000000
    8       20.305244   0.000000
    9       21.379920   0.000000
   10       23.882757   0.000000
   11       28.704742   0.000000
   12       31.348345   0.000000
 
 -0.2500000E+00 -0.2500000E+00  0.5000000E-01  0.6000000E-02
    1       -1.540484   1.000000
    2       -0.338726   1.000000
    3        1.631807   1.000000
    4        2.405015   1.000000
    5        2.656462   1.000000
    6        3.262494   1.000000
    7       19.230559   0.000000
    8       20.125486   0.000000
    9       21.311613   0.000000
   10       23.063457   0.000000
   11       24.300457   0.000000
   12       33.275104   0.000000
 
 -0.1500000E+00 -0.2500000E+00  0.5000000E-01  0.1200000E-01
    1       -2.019200   1.000000
    2        0.051906   1.000000
    3        1.307662   1.000000
    4        1.923024   1.000000
    5        2.359343   1.000000
    6        3.199616   1.000000
    7       18.966639   0.000000
    8       20.998712   0.000000
    9       23.121069   0.000000
   10       24.222144   0.000000
   11       26.241465   0.000000
   12       31.196978   0.000000
 
 -0.1500000E+00 -0.1500000E+00  0.5000000E-01  0.6000000E-02
    1       -2.923269   1.000000
    2        0.308648   1.000000
    3        1.538128   1.000000
    4        1.592500   1.000000
    5        1.970740   1.000000
    6        2.861415   1.000000
    7       21.479619   0.000000
    8       22.582587   0.000000
    9       23.072519   0.000000
   10       24.054205   0.000000
   11       27.464713   0.000000
   12       31.511452   0.000000
 
  0.1500000E+00  0.1500000E+00  0.1500000E+00  0.2000000E-02
    1       -3.576577   1.000000
    2        0.756456   1.000000
    3        1.185394   1.000000
    4        1.185394   1.000000
    5        2.483990   1.000000
    6        2.483990   1.000000
    7       20.872441   0.000000
    8       22.111632   0.000000
    9       25.750020   0.000000
   10       25.750020   0.000000
   11       29.004919   0.000000
   12       31.440171   0.000000
 
  0.2500000E+00  0.1500000E+00  0.1500000E+00  0.6000000E-02
    1       -2.946065   1.000000
    2        0.546330   1.000000
    3        1.313480   1.000000
    4        1.394113   1.000000
    5        2.161428   1.000000
    6        2.873983   1.000000
    7       19.805180   0.000000
    8       21.600349   0.000000
    9       24.435788   0.000000
   10       26.659430   0.000000
   11       27.788248   0.000000
   12       30.896155   0.000000
 
  0.3500000E+00  0.1500000E+00  0.1500000E+00  0.6000000E-02
    1       -1.885026   1.000000
    2        0.386272   1.000000
    3        1.203491   1.000000
    4        1.683984   1.000000
    5        2.069259   1.000000
    6        3.628467   1.000000
    7       17.339749   0.000000
    8       19.915540   0.000000
    9       24.087211   0.000000
   10       25.845769   0.000000
   11       28.254414   0.000000
   12       30.236743   0.000000
 
  0.4500000E+00  0.1500000E+00  0.1500000E+00  0.6000000E-02
    1       -1.211544   1.000000
    2        0.776298   1.000000
    3        1.152167   1.000000
    4        1.475965   1.000000
    5        2.758514   1.000000
    6        4.706396   1.000000
    7       13.482905   0.000000
    8       19.273403   0.000000
    9       22.496728   0.000000
   10       25.334628   0.000000
   11       28.274114   0.000000
   12       31.377067   0.000000
 
 -0.4500000E+00  0.1500000E+00  0.1500000E+00  0.6000000E-02
    1       -1.181733   1.000000
    2        0.630960   1.000000
    3        1.362676   1.000000
    4        2.002216   1.000000
    5        3.463425   1.000000
    6        6.311623  -0.000139
    7        9.901353  -0.000000
    8       19.287144   0.000000
    9       21.841986   0.000000
   10       22.984579   0.000000
   11       30.579017   0.000000
   12       31.623763   0.000000
 
 -0.3500000E+00  0.1500000E+00  0.1500000E+00  0.6000000E-02
    1       -1.221566   1.000000
    2        0.603418   1.000000
    3        1.412418   1.000000
    4        1.828200   1.000000
    5        3.819936   1.000000
    6        6.279286  -0.000326
    7        9.728011  -0.000000
    8       20.023348   0.000000
    9       21.688749   0.000000
   10       22.086740   0.000000
   11       31.593737   0.000000
   12       31.812110   0.000000
 
 -0.2500000E+00  0.1500000E+00  0.1500000E+00  0.6000000E-02
    1       -1.300960   1.000000
    2        0.704309   1.000000
    3        0.939009   1.000000
    4        1.579103   1.000000
    5        3.666833   1.000000
    6        4.162980   1.000000
    7       13.348961   0.000000
    8       21.192733   0.000000
    9       21.534005   0.000000
   10       23.093980   0.000000
   11       30.513135   0.000000
   12       31.483970   0.000000
 
 -0.1500000E+00  0.1500000E+00  0.1500000E+00  0.6000000E-02
    1       -1.912432   1.000000
    2        0.183608   1.000000
    3        1.209351   1.000000
    4        1.715413   1.000000
    5        2.719838   1.000000
    6        3.201942   1.000000
    7       17.500146   0.000000
    8       22.149973   0.000000
    9       22.383571   0.000000
   10       24.284405   0.000000
   11       27.374316   0.000000
   12       31.449917   0.000000
 
  0.2500000E+00  0.2500000E+00  0.1500000E+00  0.6000000E-02
    1       -2.581437   1.000000
    2        0.433000   1.000000
    3        1.333264   1.000000
    4        1.467828   1.000000
    5        2.351035   1.000000
    6        2.925068   1.000000
    7       18.652137   0.000000
    8       22.394665   0.000000
    9       23.655221   0.000000
   10       25.860015   0.000000
   11       27.699883   0.000000
   12       30.829228   0.000000
 
  0.3500000E+00  0.2500000E+00  0.1500000E+00  0.1200000E-01
    1       -1.714114   1.000000
    2        0.173120   1.000000
    3        1.108450   1.000000
    4        1.893733   1.000000
    5        2.333698   1.000000
    6        3.607453   1.000000
    7       17.479603   0.000000
    8       19.943660   0.000000
    9       23.201711   0.000000
   10       25.197745   0.000000
   11       27.823311   0.000000
   12       30.205304   0.000000
 
  0.4500000E+00  0.2500000E+00  0.1500000E+00  0.1200000E-01
    1       -0.781237   1.000000
    2        0.196248   1.000000
    3        0.707425   1.000000
    4        2.124203   1.000000
    5        2.648752   1.000000
    6        4.801989   1.000000
    7       15.044757   0.000000
    8       17.693846   0.000000
    9       21.704512   0.000000
   10       25.939238   0.000000
   11       27.422301   0.000000
   12       31.799129   0.000000
 
 -0.4500000E+00  0.2500000E+00  0.1500000E+00  0.1200000E-01
    1       -0.647395   1.000000
    2        0.374378   1.000000
    3        1.020797   1.000000
    4        1.923529   1.000000
    5        3.360177   1.000000
    6        6.494204  -0.000000
    7       11.457206   0.000000
    8       17.443637   0.000000
    9       20.308450   0.000000
   10       24.448553   0.000000
   11       29.512109   0.000000
   12       33.161799   0.000000
 
 -0.3500000E+00  0.2500000E+00  0.1500000E+00  0.1200000E-01
    1       -0.718048   1.000000
    2        0.281694   1.000000
    3        1.362288   1.000000
    4        1.856031   1.000000
    5        3.658935   1.000000
    6        8.172754  -0.000000
    7        9.129133  -0.000000
    8       18.064800   0.000000
    9       19.270148   0.000000
   10       23.935028   0.000000
   11       30.413665   0.000000
   12       33.641413   0.000000
 
 -0.2500000E+00  0.2500000E+00  0.1500000E+00  0.1200000E-01
    1       -0.767657   1.000000
    2        0.375006   1.000000
    3        0.781685   1.000000
    4        2.053499   1.000000
    5        3.487005   1.000000
    6        5.736418   0.456598
    7       12.466909   0.000000
    8       18.317420   0.000000
    9       19.869025   0.000000
   10       24.413184   0.000000
   11       29.462390   0.000000
   12       32.227801   0.000000
 
 -0.1500000E+00  0.2500000E+00  0.1500000E+00  0.1200000E-01
    1       -1.101354   1.000000
    2       -0.060772   1.000000
    3        0.932649   1.000000
    4        2.253637   1.000000
    5        2.752212   1.000000
    6        4.133101   1.000000
    7       16.310313   0.000000
    8       18.787305   0.000000
    9       21.470110   0.000000
   10       25.190785   0.000000
   11       26.965721   0.000000