       N       E                     dE             d eps       ncg     rms          rms(c)
DAV:   1    -0.439243347136E+01   -0.43924E+01   -0.43912E-06  1356   0.229E-02    0.311E-03
DAV:   2    -0.439243319483E+01    0.27653E-06   -0.96122E-07  1356   0.106E-02
   1 F= -.43924332E+01 E0= -.43927322E+01  d E =0.897161E-03
