 vasp.5.4.4.18Apr17-6-g9f103f2a35 (build Jul 01 2019 03:25:34) complex          
  
 executed on             LinuxIFC date 2020.07.08  01:18:45
 running on    4 total cores
 distrk:  each k-point on    4 cores,    1 groups
 distr:  one band on NCORES_PER_BAND=   1 cores,    4 groups


--------------------------------------------------------------------------------------------------------


 INCAR:
 POTCAR:   PAW Au 04Feb1998                       
 POTCAR:   PAW Au 04Feb1998                       
   VRHFIN =Au: s1d10                                                            
   LEXCH  = CA                                                                  
   EATOM  =   929.4667 eV,   68.3139 Ry                                         
                                                                                
   TITEL  = PAW Au 04Feb1998                                                    
   LULTRA =        F    use ultrasoft PP ?                                      
   IUNSCR =        1    unscreen: 0-lin 1-nonlin 2-no                           
   RPACOR =    2.330    partial core radius                                     
   POMASS =  196.966; ZVAL   =   11.000    mass and valenz                      
   RCORE  =    2.500    outmost cutoff radius                                   
   RWIGS  =    2.840; RWIGS  =    1.503    wigner-seitz radius (au A)           
   ENMAX  =  229.869; ENMIN  =  172.402 eV                                      
   RCLOC  =    1.964    cutoff for local pot                                    
   LCOR   =        T    correct aug charges                                     
   LPAW   =        T    paw PP                                                  
   EAUG   =  356.670                                                            
   DEXC   =    -.020                                                            
   RMAX   =    3.041    core radius for proj-oper                               
   RDEP   =    2.598    core radius for depl-charge                             
   QCUT   =   -4.110; QGAM   =    8.221    optimization parameters              
                                                                                
   Description                                                                  
     l     E      TYP  RCUT    TYP  RCUT                                        
     2   .000     23  2.500                                                     
     2   .000     23  2.500                                                     
     0   .000     23  2.500                                                     
     0   .000     23  2.500                                                     
     1  -.200     23  2.500                                                     
     1   .000     23  2.500                                                     
     3   .000      7   .000                                                     
  local pseudopotential read in
  partial core-charges read in
  atomic valenz-charges read in
  non local Contribution for L=           2  read in
    real space projection operators read in
  non local Contribution for L=           2  read in
    real space projection operators read in
  non local Contribution for L=           0  read in
    real space projection operators read in
  non local Contribution for L=           0  read in
    real space projection operators read in
  non local Contribution for L=           1  read in
    real space projection operators read in
  non local Contribution for L=           1  read in
    real space projection operators read in
    PAW grid and wavefunctions read in
 
   number of l-projection  operators is LMAX  =           6
   number of lm-projection operators is LMMAX =          18
 
 PAW Au 04Feb1998                       :
 energy of atom  1       EATOM= -929.4667
 kinetic energy error for atom=    0.0704 (will be added to EATOM!!)
 
 
 POSCAR: Au bulk FCC                             
  positions in direct lattice
  No initial velocities read in
 exchange correlation table for  LEXCH =        2
   RHO(1)=    0.500       N(1)  =     2000
   RHO(2)=  100.500       N(2)  =     4000
 


--------------------------------------------------------------------------------------------------------


 ion  position               nearest neighbor table
   1  0.000  0.000  0.000-
 
  LATTYP: Found a face centered cubic cell.
 ALAT       =     4.0637900000
  
  Lattice vectors:
  
 A1 = (   0.0000000000,   2.0318950000,   2.0318950000)
 A2 = (   2.0318950000,   0.0000000000,   2.0318950000)
 A3 = (   2.0318950000,   2.0318950000,   0.0000000000)


Analysis of symmetry for initial positions (statically):
=====================================================================
 Subroutine PRICEL returns:
 Original cell was already a primitive cell.
 

 Routine SETGRP: Setting up the symmetry group for a 
 face centered cubic supercell.


 Subroutine GETGRP returns: Found 48 space group operations
 (whereof 48 operations were pure point group operations)
 out of a pool of 48 trial point group operations.


The static configuration has the point symmetry O_h .


Analysis of symmetry for dynamics (positions and initial velocities):
=====================================================================
 Subroutine PRICEL returns:
 Original cell was already a primitive cell.
 

 Routine SETGRP: Setting up the symmetry group for a 
 face centered cubic supercell.


 Subroutine GETGRP returns: Found 48 space group operations
 (whereof 48 operations were pure point group operations)
 out of a pool of 48 trial point group operations.


The dynamic configuration has the point symmetry O_h .


 Subroutine INISYM returns: Found 48 space group operations
 (whereof 48 operations are pure point group operations),
 and found     1 'primitive' translations

 
 
 KPOINTS: 10x10x10                                

Automatic generation of k-mesh.
Space group operators:
 irot       det(A)        alpha          n_x          n_y          n_z        tau_x        tau_y        tau_z
    1     1.000000     0.000000     1.000000     0.000000     0.000000     0.000000     0.000000     0.000000
    2    -1.000000     0.000000     1.000000     0.000000     0.000000     0.000000     0.000000     0.000000
    3     1.000000   120.000000    -0.577350    -0.577350    -0.577350     0.000000     0.000000     0.000000
    4    -1.000000   120.000000    -0.577350    -0.577350    -0.577350     0.000000     0.000000     0.000000
    5     1.000000   120.000000     0.577350     0.577350     0.577350     0.000000     0.000000     0.000000
    6    -1.000000   120.000000     0.577350     0.577350     0.577350     0.000000     0.000000     0.000000
    7     1.000000    90.000000     0.000000     0.000000    -1.000000     0.000000     0.000000     0.000000
    8    -1.000000    90.000000     0.000000     0.000000    -1.000000     0.000000     0.000000     0.000000
    9     1.000000   180.000000     0.000000     0.707107     0.707107     0.000000     0.000000     0.000000
   10    -1.000000   180.000000     0.000000     0.707107     0.707107     0.000000     0.000000     0.000000
   11     1.000000    90.000000     0.000000     1.000000     0.000000     0.000000     0.000000     0.000000
   12    -1.000000    90.000000     0.000000     1.000000     0.000000     0.000000     0.000000     0.000000
   13     1.000000   180.000000     0.000000     0.000000     1.000000     0.000000     0.000000     0.000000
   14    -1.000000   180.000000     0.000000     0.000000     1.000000     0.000000     0.000000     0.000000
   15     1.000000   120.000000    -0.577350     0.577350     0.577350     0.000000     0.000000     0.000000
   16    -1.000000   120.000000    -0.577350     0.577350     0.577350     0.000000     0.000000     0.000000
   17     1.000000   120.000000    -0.577350     0.577350    -0.577350     0.000000     0.000000     0.000000
   18    -1.000000   120.000000    -0.577350     0.577350    -0.577350     0.000000     0.000000     0.000000
   19     1.000000    90.000000     0.000000     0.000000     1.000000     0.000000     0.000000     0.000000
   20    -1.000000    90.000000     0.000000     0.000000     1.000000     0.000000     0.000000     0.000000
   21     1.000000    90.000000    -1.000000     0.000000     0.000000     0.000000     0.000000     0.000000
   22    -1.000000    90.000000    -1.000000     0.000000     0.000000     0.000000     0.000000     0.000000
   23     1.000000   180.000000     0.707107     0.000000     0.707107     0.000000     0.000000     0.000000
   24    -1.000000   180.000000     0.707107     0.000000     0.707107     0.000000     0.000000     0.000000
   25     1.000000   120.000000     0.577350    -0.577350     0.577350     0.000000     0.000000     0.000000
   26    -1.000000   120.000000     0.577350    -0.577350     0.577350     0.000000     0.000000     0.000000
   27     1.000000   120.000000    -0.577350    -0.577350     0.577350     0.000000     0.000000     0.000000
   28    -1.000000   120.000000    -0.577350    -0.577350     0.577350     0.000000     0.000000     0.000000
   29     1.000000   180.000000     1.000000     0.000000     0.000000     0.000000     0.000000     0.000000
   30    -1.000000   180.000000     1.000000     0.000000     0.000000     0.000000     0.000000     0.000000
   31     1.000000    90.000000     0.000000    -1.000000     0.000000     0.000000     0.000000     0.000000
   32    -1.000000    90.000000     0.000000    -1.000000     0.000000     0.000000     0.000000     0.000000
   33     1.000000   180.000000     0.707107     0.707107     0.000000     0.000000     0.000000     0.000000
   34    -1.000000   180.000000     0.707107     0.707107     0.000000     0.000000     0.000000     0.000000
   35     1.000000    90.000000     1.000000     0.000000     0.000000     0.000000     0.000000     0.000000
   36    -1.000000    90.000000     1.000000     0.000000     0.000000     0.000000     0.000000     0.000000
   37     1.000000   120.000000     0.577350    -0.577350    -0.577350     0.000000     0.000000     0.000000
   38    -1.000000   120.000000     0.577350    -0.577350    -0.577350     0.000000     0.000000     0.000000
   39     1.000000   180.000000     0.000000     1.000000     0.000000     0.000000     0.000000     0.000000
   40    -1.000000   180.000000     0.000000     1.000000     0.000000     0.000000     0.000000     0.000000
   41     1.000000   120.000000     0.577350     0.577350    -0.577350     0.000000     0.000000     0.000000
   42    -1.000000   120.000000     0.577350     0.577350    -0.577350     0.000000     0.000000     0.000000
   43     1.000000   180.000000     0.000000    -0.707107     0.707107     0.000000     0.000000     0.000000
   44    -1.000000   180.000000     0.000000    -0.707107     0.707107     0.000000     0.000000     0.000000
   45     1.000000   180.000000     0.707107    -0.707107     0.000000     0.000000     0.000000     0.000000
   46    -1.000000   180.000000     0.707107    -0.707107     0.000000     0.000000     0.000000     0.000000
   47     1.000000   180.000000     0.707107     0.000000    -0.707107     0.000000     0.000000     0.000000
   48    -1.000000   180.000000     0.707107     0.000000    -0.707107     0.000000     0.000000     0.000000
 
 Subroutine IBZKPT returns following result:
 ===========================================
 
 Found    110 irreducible k-points:
 
 Following reciprocal coordinates:
            Coordinates               Weight
  0.050000  0.050000  0.050000     96.000000
  0.150000  0.050000  0.050000    288.000000
  0.250000  0.050000  0.050000    288.000000
  0.350000  0.050000  0.050000    288.000000
  0.450000  0.050000  0.050000    288.000000
 -0.450000  0.050000  0.050000    288.000000
 -0.350000  0.050000  0.050000    288.000000
 -0.250000  0.050000  0.050000    288.000000
 -0.150000  0.050000  0.050000    288.000000
 -0.050000  0.050000  0.050000    288.000000
  0.150000  0.150000  0.050000    288.000000
  0.250000  0.150000  0.050000    576.000000
  0.350000  0.150000  0.050000    576.000000
  0.450000  0.150000  0.050000    576.000000
 -0.450000  0.150000  0.050000    576.000000
 -0.350000  0.150000  0.050000    576.000000
 -0.250000  0.150000  0.050000    576.000000
 -0.150000  0.150000  0.050000    576.000000
 -0.050000  0.150000  0.050000    576.000000
  0.250000  0.250000  0.050000    288.000000
  0.350000  0.250000  0.050000    576.000000
  0.450000  0.250000  0.050000    576.000000
 -0.450000  0.250000  0.050000    576.000000
 -0.350000  0.250000  0.050000    576.000000
 -0.250000  0.250000  0.050000    576.000000
 -0.150000  0.250000  0.050000    576.000000
 -0.050000  0.250000  0.050000    576.000000
  0.350000  0.350000  0.050000    288.000000
  0.450000  0.350000  0.050000    576.000000
 -0.450000  0.350000  0.050000    576.000000
 -0.350000  0.350000  0.050000    576.000000
 -0.250000  0.350000  0.050000    576.000000
 -0.150000  0.350000  0.050000    576.000000
 -0.050000  0.350000  0.050000    576.000000
  0.450000  0.450000  0.050000    288.000000
 -0.450000  0.450000  0.050000    576.000000
 -0.350000  0.450000  0.050000    576.000000
 -0.250000  0.450000  0.050000    576.000000
 -0.150000  0.450000  0.050000    576.000000
 -0.050000  0.450000  0.050000    576.000000
 -0.450000 -0.450000  0.050000    288.000000
 -0.350000 -0.450000  0.050000    576.000000
 -0.250000 -0.450000  0.050000    576.000000
 -0.150000 -0.450000  0.050000    576.000000
 -0.350000 -0.350000  0.050000    288.000000
 -0.250000 -0.350000  0.050000    576.000000
 -0.150000 -0.350000  0.050000    576.000000
 -0.250000 -0.250000  0.050000    288.000000
 -0.150000 -0.250000  0.050000    576.000000
 -0.150000 -0.150000  0.050000    288.000000
  0.150000  0.150000  0.150000     96.000000
  0.250000  0.150000  0.150000    288.000000
  0.350000  0.150000  0.150000    288.000000
  0.450000  0.150000  0.150000    288.000000
 -0.450000  0.150000  0.150000    288.000000
 -0.350000  0.150000  0.150000    288.000000
 -0.250000  0.150000  0.150000    288.000000
 -0.150000  0.150000  0.150000    288.000000
  0.250000  0.250000  0.150000    288.000000
  0.350000  0.250000  0.150000    576.000000
  0.450000  0.250000  0.150000    576.000000
 -0.450000  0.250000  0.150000    576.000000
 -0.350000  0.250000  0.150000    576.000000
 -0.250000  0.250000  0.150000    576.000000
 -0.150000  0.250000  0.150000    576.000000
  0.350000  0.350000  0.150000    288.000000
  0.450000  0.350000  0.150000    576.000000
 -0.450000  0.350000  0.150000    576.000000
 -0.350000  0.350000  0.150000    576.000000
 -0.250000  0.350000  0.150000    576.000000
 -0.150000  0.350000  0.150000    576.000000
  0.450000  0.450000  0.150000    288.000000
 -0.450000  0.450000  0.150000    576.000000
 -0.350000  0.450000  0.150000    576.000000
 -0.250000  0.450000  0.150000    576.000000
 -0.150000  0.450000  0.150000    576.000000
 -0.450000 -0.450000  0.150000    288.000000
 -0.350000 -0.450000  0.150000    576.000000
 -0.250000 -0.450000  0.150000    576.000000
 -0.350000 -0.350000  0.150000    288.000000
 -0.250000 -0.350000  0.150000    576.000000
 -0.250000 -0.250000  0.150000    288.000000
  0.250000  0.250000  0.250000     96.000000
  0.350000  0.250000  0.250000    288.000000
  0.450000  0.250000  0.250000    288.000000
 -0.450000  0.250000  0.250000    288.000000
 -0.350000  0.250000  0.250000    288.000000
 -0.250000  0.250000  0.250000    288.000000
  0.350000  0.350000  0.250000    288.000000
  0.450000  0.350000  0.250000    576.000000
 -0.450000  0.350000  0.250000    576.000000
 -0.350000  0.350000  0.250000    576.000000
 -0.250000  0.350000  0.250000    576.000000
  0.450000  0.450000  0.250000    288.000000
 -0.450000  0.450000  0.250000    576.000000
 -0.350000  0.450000  0.250000    576.000000
 -0.250000  0.450000  0.250000    576.000000
 -0.450000 -0.450000  0.250000    288.000000
 -0.350000 -0.450000  0.250000    576.000000
 -0.350000 -0.350000  0.250000    288.000000
  0.350000  0.350000  0.350000     96.000000
  0.450000  0.350000  0.350000    288.000000
 -0.450000  0.350000  0.350000    288.000000
 -0.350000  0.350000  0.350000    288.000000
  0.450000  0.450000  0.350000    288.000000
 -0.450000  0.450000  0.350000    576.000000
 -0.350000  0.450000  0.350000    576.000000
 -0.450000 -0.450000  0.350000    288.000000
  0.450000  0.450000  0.450000     96.000000
 -0.450000  0.450000  0.450000    288.000000
 
 Following cartesian coordinates:
            Coordinates               Weight
  0.050000  0.050000  0.050000     96.000000
 -0.050000  0.150000  0.150000    288.000000
 -0.150000  0.250000  0.250000    288.000000
 -0.250000  0.350000  0.350000    288.000000
 -0.350000  0.450000  0.450000    288.000000
  0.550000 -0.450000 -0.450000    288.000000
  0.450000 -0.350000 -0.350000    288.000000
  0.350000 -0.250000 -0.250000    288.000000
  0.250000 -0.150000 -0.150000    288.000000
  0.150000 -0.050000 -0.050000    288.000000
  0.050000  0.050000  0.250000    288.000000
 -0.050000  0.150000  0.350000    576.000000
 -0.150000  0.250000  0.450000    576.000000
 -0.250000  0.350000  0.550000    576.000000
  0.650000 -0.550000 -0.350000    576.000000
  0.550000 -0.450000 -0.250000    576.000000
  0.450000 -0.350000 -0.150000    576.000000
  0.350000 -0.250000 -0.050000    576.000000
  0.250000 -0.150000  0.050000    576.000000
  0.050000  0.050000  0.450000    288.000000
 -0.050000  0.150000  0.550000    576.000000
 -0.150000  0.250000  0.650000    576.000000
  0.750000 -0.650000 -0.250000    576.000000
  0.650000 -0.550000 -0.150000    576.000000
  0.550000 -0.450000 -0.050000    576.000000
  0.450000 -0.350000  0.050000    576.000000
  0.350000 -0.250000  0.150000    576.000000
  0.050000  0.050000  0.650000    288.000000
 -0.050000  0.150000  0.750000    576.000000
  0.850000 -0.750000 -0.150000    576.000000
  0.750000 -0.650000 -0.050000    576.000000
  0.650000 -0.550000  0.050000    576.000000
  0.550000 -0.450000  0.150000    576.000000
  0.450000 -0.350000  0.250000    576.000000
  0.050000  0.050000  0.850000    288.000000
  0.950000 -0.850000 -0.050000    576.000000
  0.850000 -0.750000  0.050000    576.000000
  0.750000 -0.650000  0.150000    576.000000
  0.650000 -0.550000  0.250000    576.000000
  0.550000 -0.450000  0.350000    576.000000
  0.050000  0.050000 -0.950000    288.000000
 -0.050000  0.150000 -0.850000    576.000000
 -0.150000  0.250000 -0.750000    576.000000
 -0.250000  0.350000 -0.650000    576.000000
  0.050000  0.050000 -0.750000    288.000000
 -0.050000  0.150000 -0.650000    576.000000
 -0.150000  0.250000 -0.550000    576.000000
  0.050000  0.050000 -0.550000    288.000000
 -0.050000  0.150000 -0.450000    576.000000
  0.050000  0.050000 -0.350000    288.000000
  0.150000  0.150000  0.150000     96.000000
  0.050000  0.250000  0.250000    288.000000
 -0.050000  0.350000  0.350000    288.000000
 -0.150000  0.450000  0.450000    288.000000
  0.750000 -0.450000 -0.450000    288.000000
  0.650000 -0.350000 -0.350000    288.000000
  0.550000 -0.250000 -0.250000    288.000000
  0.450000 -0.150000 -0.150000    288.000000
  0.150000  0.150000  0.350000    288.000000
  0.050000  0.250000  0.450000    576.000000
 -0.050000  0.350000  0.550000    576.000000
  0.850000 -0.550000 -0.350000    576.000000
  0.750000 -0.450000 -0.250000    576.000000
  0.650000 -0.350000 -0.150000    576.000000
  0.550000 -0.250000 -0.050000    576.000000
  0.150000  0.150000  0.550000    288.000000
  0.050000  0.250000  0.650000    576.000000
  0.950000 -0.650000 -0.250000    576.000000
  0.850000 -0.550000 -0.150000    576.000000
  0.750000 -0.450000 -0.050000    576.000000
  0.650000 -0.350000  0.050000    576.000000
  0.150000  0.150000  0.750000    288.000000
  1.050000 -0.750000 -0.150000    576.000000
  0.950000 -0.650000 -0.050000    576.000000
  0.850000 -0.550000  0.050000    576.000000
  0.750000 -0.450000  0.150000    576.000000
  0.150000  0.150000 -1.050000    288.000000
  0.050000  0.250000 -0.950000    576.000000
 -0.050000  0.350000 -0.850000    576.000000
  0.150000  0.150000 -0.850000    288.000000
  0.050000  0.250000 -0.750000    576.000000
  0.150000  0.150000 -0.650000    288.000000
  0.250000  0.250000  0.250000     96.000000
  0.150000  0.350000  0.350000    288.000000
  0.050000  0.450000  0.450000    288.000000
  0.950000 -0.450000 -0.450000    288.000000
  0.850000 -0.350000 -0.350000    288.000000
  0.750000 -0.250000 -0.250000    288.000000
  0.250000  0.250000  0.450000    288.000000
  0.150000  0.350000  0.550000    576.000000
  1.050000 -0.550000 -0.350000    576.000000
  0.950000 -0.450000 -0.250000    576.000000
  0.850000 -0.350000 -0.150000    576.000000
  0.250000  0.250000  0.650000    288.000000
  1.150000 -0.650000 -0.250000    576.000000
  1.050000 -0.550000 -0.150000    576.000000
  0.950000 -0.450000 -0.050000    576.000000
  0.250000  0.250000 -1.150000    288.000000
  0.150000  0.350000 -1.050000    576.000000
  0.250000  0.250000 -0.950000    288.000000
  0.350000  0.350000  0.350000     96.000000
  0.250000  0.450000  0.450000    288.000000
  1.150000 -0.450000 -0.450000    288.000000
  1.050000 -0.350000 -0.350000    288.000000
  0.350000  0.350000  0.550000    288.000000
  1.250000 -0.550000 -0.350000    576.000000
  1.150000 -0.450000 -0.250000    576.000000
  0.350000  0.350000 -1.250000    288.000000
  0.450000  0.450000  0.450000     96.000000
  1.350000 -0.450000 -0.450000    288.000000
 


--------------------------------------------------------------------------------------------------------




 Dimension of arrays:
   k-points           NKPTS =    110   k-points in BZ     NKDIM =    110   number of bands    NBANDS=     12
   number of dos      NEDOS =    301   number of ions     NIONS =      1
   non local maximal  LDIM  =      6   non local SUM 2l+1 LMDIM =     18
   total plane-waves  NPLWV =   1728
   max r-space proj   IRMAX =      1   max aug-charges    IRDMAX=   6497
   dimension x,y,z NGX =    12 NGY =   12 NGZ =   12
   dimension x,y,z NGXF=    24 NGYF=   24 NGZF=   24
   support grid    NGXF=    24 NGYF=   24 NGZF=   24
   ions per type =               1
   NGX,Y,Z   is equivalent  to a cutoff of   6.94,  6.94,  6.94 a.u.
   NGXF,Y,Z  is equivalent  to a cutoff of  13.89, 13.89, 13.89 a.u.

 SYSTEM =  FCC Au                                  
 POSCAR =  Au bulk FCC                             

 Startparameter for this run:
   NWRITE =      2    write-flag & timer
   PREC   = normal    normal or accurate (medium, high low for compatibility)
   ISTART =      1    job   : 0-new  1-cont  2-samecut
   ICHARG =      0    charge: 1-file 2-atom 10-const
   ISPIN  =      1    spin polarized calculation?
   LNONCOLLINEAR =      F non collinear calculations
   LSORBIT =      F    spin-orbit coupling
   INIWAV =      1    electr: 0-lowe 1-rand  2-diag
   LASPH  =      F    aspherical Exc in radial PAW
   METAGGA=      F    non-selfconsistent MetaGGA calc.

 Electronic Relaxation 1
   ENCUT  =  230.0 eV  16.90 Ry    4.11 a.u.   3.55  3.55  3.55*2*pi/ulx,y,z
   ENINI  =  230.0     initial cutoff
   ENAUG  =  356.7 eV  augmentation charge cutoff
   NELM   =     60;   NELMIN=  2; NELMDL=  0     # of ELM steps 
   EDIFF  = 0.1E-03   stopping-criterion for ELM
   LREAL  =      F    real-space projection
   NLSPLINE    = F    spline interpolate recip. space projectors
   LCOMPAT=      F    compatible to vasp.4.4
   GGA_COMPAT  = T    GGA compatible to vasp.4.4-vasp.4.6
   LMAXPAW     = -100 max onsite density
   LMAXMIX     =    2 max onsite mixed and CHGCAR
   VOSKOWN=      0    Vosko Wilk Nusair interpolation
   ROPT   =    0.00000
 Ionic relaxation
   EDIFFG = 0.1E-02   stopping-criterion for IOM
   NSW    =      0    number of steps for IOM
   NBLOCK =      1;   KBLOCK =      1    inner block; outer block 
   IBRION =     -1    ionic relax: 0-MD 1-quasi-New 2-CG
   NFREE  =      0    steps in history (QN), initial steepest desc. (CG)
   ISIF   =      2    stress and relaxation
   IWAVPR =     10    prediction:  0-non 1-charg 2-wave 3-comb
   ISYM   =      2    0-nonsym 1-usesym 2-fastsym
   LCORR  =      T    Harris-Foulkes like correction to forces

   POTIM  = 0.5000    time-step for ionic-motion
   TEIN   =    0.0    initial temperature
   TEBEG  =    0.0;   TEEND  =   0.0 temperature during run
   SMASS  =  -3.00    Nose mass-parameter (am)
   estimated Nose-frequenzy (Omega)   =  0.10E-29 period in steps =****** mass=  -0.189E-27a.u.
   SCALEE = 1.0000    scale energy and forces
   NPACO  =    256;   APACO  = 16.0  distance and # of slots for P.C.
   PSTRESS=    0.0 pullay stress

  Mass of Ions in am
   POMASS = 196.97
  Ionic Valenz
   ZVAL   =  11.00
  Atomic Wigner-Seitz radii
   RWIGS  =  -1.00
  virtual crystal weights 
   VCA    =   1.00
   NELECT =      11.0000    total number of electrons
   NUPDOWN=      -1.0000    fix difference up-down

 DOS related values:
   EMIN   =  10.00;   EMAX   =-10.00  energy-range for DOS
   EFERMI =   0.00
   ISMEAR =     1;   SIGMA  =   0.20  broadening in eV -4-tet -1-fermi 0-gaus

 Electronic relaxation 2 (details)
   IALGO  =     38    algorithm
   LDIAG  =      T    sub-space diagonalisation (order eigenvalues)
   LSUBROT=      F    optimize rotation matrix (better conditioning)
   TURBO    =      0    0=normal 1=particle mesh
   IRESTART =      0    0=no restart 2=restart with 2 vectors
   NREBOOT  =      0    no. of reboots
   NMIN     =      0    reboot dimension
   EREF     =   0.00    reference energy to select bands
   IMIX   =      4    mixing-type and parameters
     AMIX     =   0.40;   BMIX     =  1.00
     AMIX_MAG =   1.60;   BMIX_MAG =  1.00
     AMIN     =   0.10
     WC   =   100.;   INIMIX=   1;  MIXPRE=   1;  MAXMIX= -45

 Intra band minimization:
   WEIMIN = 0.0000     energy-eigenvalue tresh-hold
   EBREAK =  0.21E-05  absolut break condition
   DEPER  =   0.30     relativ break condition  

   TIME   =   0.40     timestep for ELM

  volume/ion in A,a.u.               =      16.78       113.22
  Fermi-wavevector in a.u.,A,eV,Ry     =   1.422202  2.687571 27.519921  2.022657
  Thomas-Fermi vector in A             =   2.542930
 
 Write flags
   LWAVE        =      T    write WAVECAR
   LDOWNSAMPLE  =      F    k-point downsampling of WAVECAR
   LCHARG       =      T    write CHGCAR
   LVTOT        =      F    write LOCPOT, total local potential
   LVHAR        =      F    write LOCPOT, Hartree potential only
   LELF         =      F    write electronic localiz. function (ELF)
   LORBIT       =      0    0 simple, 1 ext, 2 COOP (PROOUT), +10 PAW based schemes


 Dipole corrections
   LMONO  =      F    monopole corrections only (constant potential shift)
   LDIPOL =      F    correct potential (dipole corrections)
   IDIPOL =      0    1-x, 2-y, 3-z, 4-all directions 
   EPSILON=  1.0000000 bulk dielectric constant

 Exchange correlation treatment:
   GGA     =    --    GGA type
   LEXCH   =     2    internal setting for exchange type
   VOSKOWN=      0    Vosko Wilk Nusair interpolation
   LHFCALC =     F    Hartree Fock is set to
   LHFONE  =     F    Hartree Fock one center treatment
   AEXX    =    0.0000 exact exchange contribution

 Linear response parameters
   LEPSILON=     F    determine dielectric tensor
   LRPA    =     F    only Hartree local field effects (RPA)
   LNABLA  =     F    use nabla operator in PAW spheres
   LVEL    =     F    velocity operator in full k-point grid
   LINTERFAST=   F  fast interpolation
   KINTER  =     0    interpolate to denser k-point grid
   CSHIFT  =0.1000    complex shift for real part using Kramers Kronig
   OMEGAMAX=  -1.0    maximum frequency
   DEG_THRESHOLD= 0.2000000E-02 threshold for treating states as degnerate
   RTIME   =   -0.100 relaxation time in fs
  (WPLASMAI=    0.000 imaginary part of plasma frequency in eV, 0.658/RTIME)
   DFIELD  = 0.0000000 0.0000000 0.0000000 field for delta impulse in time
 
 Orbital magnetization related:
   ORBITALMAG=     F  switch on orbital magnetization
   LCHIMAG   =     F  perturbation theory with respect to B field
   DQ        =  0.001000  dq finite difference perturbation B field
   LLRAUG    =     F  two centre corrections for induced B field



--------------------------------------------------------------------------------------------------------


 Static calculation
 charge density and potential will be updated during run
 non-spin polarized calculation
 Variant of blocked Davidson
 Davidson routine will perform the subspace rotation
 perform sub-space diagonalisation
    after iterative eigenvector-optimisation
 modified Broyden-mixing scheme, WC =      100.0
 initial mixing is a Kerker type mixing with AMIX =  0.4000 and BMIX =      1.0000
 Hartree-type preconditioning will be used
 using additional bands            6
 reciprocal scheme for non local part
 use partial core corrections
 calculate Harris-corrections to forces 
   (improved forces if not selfconsistent)
 use of overlap-Matrix (Vanderbilt PP)
 Methfessel and Paxton  Order N= 1 SIGMA  =   0.20


--------------------------------------------------------------------------------------------------------


  energy-cutoff  :      230.00
  volume of cell :       16.78
      direct lattice vectors                 reciprocal lattice vectors
     0.000000000  2.031895000  2.031895000    -0.246075708  0.246075708  0.246075708
     2.031895000  0.000000000  2.031895000     0.246075708 -0.246075708  0.246075708
     2.031895000  2.031895000  0.000000000     0.246075708  0.246075708 -0.246075708

  length of vectors
     2.873533466  2.873533466  2.873533466     0.426215628  0.426215628  0.426215628


 
 old parameters found on file WAVECAR:
  energy-cutoff  :      230.00
  volume of cell :       16.78
      direct lattice vectors                 reciprocal lattice vectors
     0.000000000  2.031895000  2.031895000    -0.246075708  0.246075708  0.246075708
     2.031895000  0.000000000  2.031895000     0.246075708 -0.246075708  0.246075708
     2.031895000  2.031895000  0.000000000     0.246075708  0.246075708 -0.246075708

  length of vectors

 
 k-points in units of 2pi/SCALE and weight: 10x10x10                                
   0.05000000  0.05000000  0.05000000       0.002
  -0.05000000  0.15000000  0.15000000       0.006
  -0.15000000  0.25000000  0.25000000       0.006
  -0.25000000  0.35000000  0.35000000       0.006
  -0.35000000  0.45000000  0.45000000       0.006
   0.55000000 -0.45000000 -0.45000000       0.006
   0.45000000 -0.35000000 -0.35000000       0.006
   0.35000000 -0.25000000 -0.25000000       0.006
   0.25000000 -0.15000000 -0.15000000       0.006
   0.15000000 -0.05000000 -0.05000000       0.006
   0.05000000  0.05000000  0.25000000       0.006
  -0.05000000  0.15000000  0.35000000       0.012
  -0.15000000  0.25000000  0.45000000       0.012
  -0.25000000  0.35000000  0.55000000       0.012
   0.65000000 -0.55000000 -0.35000000       0.012
   0.55000000 -0.45000000 -0.25000000       0.012
   0.45000000 -0.35000000 -0.15000000       0.012
   0.35000000 -0.25000000 -0.05000000       0.012
   0.25000000 -0.15000000  0.05000000       0.012
   0.05000000  0.05000000  0.45000000       0.006
  -0.05000000  0.15000000  0.55000000       0.012
  -0.15000000  0.25000000  0.65000000       0.012
   0.75000000 -0.65000000 -0.25000000       0.012
   0.65000000 -0.55000000 -0.15000000       0.012
   0.55000000 -0.45000000 -0.05000000       0.012
   0.45000000 -0.35000000  0.05000000       0.012
   0.35000000 -0.25000000  0.15000000       0.012
   0.05000000  0.05000000  0.65000000       0.006
  -0.05000000  0.15000000  0.75000000       0.012
   0.85000000 -0.75000000 -0.15000000       0.012
   0.75000000 -0.65000000 -0.05000000       0.012
   0.65000000 -0.55000000  0.05000000       0.012
   0.55000000 -0.45000000  0.15000000       0.012
   0.45000000 -0.35000000  0.25000000       0.012
   0.05000000  0.05000000  0.85000000       0.006
   0.95000000 -0.85000000 -0.05000000       0.012
   0.85000000 -0.75000000  0.05000000       0.012
   0.75000000 -0.65000000  0.15000000       0.012
   0.65000000 -0.55000000  0.25000000       0.012
   0.55000000 -0.45000000  0.35000000       0.012
   0.05000000  0.05000000 -0.95000000       0.006
  -0.05000000  0.15000000 -0.85000000       0.012
  -0.15000000  0.25000000 -0.75000000       0.012
  -0.25000000  0.35000000 -0.65000000       0.012
   0.05000000  0.05000000 -0.75000000       0.006
  -0.05000000  0.15000000 -0.65000000       0.012
  -0.15000000  0.25000000 -0.55000000       0.012
   0.05000000  0.05000000 -0.55000000       0.006
  -0.05000000  0.15000000 -0.45000000       0.012
   0.05000000  0.05000000 -0.35000000       0.006
   0.15000000  0.15000000  0.15000000       0.002
   0.05000000  0.25000000  0.25000000       0.006
  -0.05000000  0.35000000  0.35000000       0.006
  -0.15000000  0.45000000  0.45000000       0.006
   0.75000000 -0.45000000 -0.45000000       0.006
   0.65000000 -0.35000000 -0.35000000       0.006
   0.55000000 -0.25000000 -0.25000000       0.006
   0.45000000 -0.15000000 -0.15000000       0.006
   0.15000000  0.15000000  0.35000000       0.006
   0.05000000  0.25000000  0.45000000       0.012
  -0.05000000  0.35000000  0.55000000       0.012
   0.85000000 -0.55000000 -0.35000000       0.012
   0.75000000 -0.45000000 -0.25000000       0.012
   0.65000000 -0.35000000 -0.15000000       0.012
   0.55000000 -0.25000000 -0.05000000       0.012
   0.15000000  0.15000000  0.55000000       0.006
   0.05000000  0.25000000  0.65000000       0.012
   0.95000000 -0.65000000 -0.25000000       0.012
   0.85000000 -0.55000000 -0.15000000       0.012
   0.75000000 -0.45000000 -0.05000000       0.012
   0.65000000 -0.35000000  0.05000000       0.012
   0.15000000  0.15000000  0.75000000       0.006
   1.05000000 -0.75000000 -0.15000000       0.012
   0.95000000 -0.65000000 -0.05000000       0.012
   0.85000000 -0.55000000  0.05000000       0.012
   0.75000000 -0.45000000  0.15000000       0.012
   0.15000000  0.15000000 -1.05000000       0.006
   0.05000000  0.25000000 -0.95000000       0.012
  -0.05000000  0.35000000 -0.85000000       0.012
   0.15000000  0.15000000 -0.85000000       0.006
   0.05000000  0.25000000 -0.75000000       0.012
   0.15000000  0.15000000 -0.65000000       0.006
   0.25000000  0.25000000  0.25000000       0.002
   0.15000000  0.35000000  0.35000000       0.006
   0.05000000  0.45000000  0.45000000       0.006
   0.95000000 -0.45000000 -0.45000000       0.006
   0.85000000 -0.35000000 -0.35000000       0.006
   0.75000000 -0.25000000 -0.25000000       0.006
   0.25000000  0.25000000  0.45000000       0.006
   0.15000000  0.35000000  0.55000000       0.012
   1.05000000 -0.55000000 -0.35000000       0.012
   0.95000000 -0.45000000 -0.25000000       0.012
   0.85000000 -0.35000000 -0.15000000       0.012
   0.25000000  0.25000000  0.65000000       0.006
   1.15000000 -0.65000000 -0.25000000       0.012
   1.05000000 -0.55000000 -0.15000000       0.012
   0.95000000 -0.45000000 -0.05000000       0.012
   0.25000000  0.25000000 -1.15000000       0.006
   0.15000000  0.35000000 -1.05000000       0.012
   0.25000000  0.25000000 -0.95000000       0.006
   0.35000000  0.35000000  0.35000000       0.002
   0.25000000  0.45000000  0.45000000       0.006
   1.15000000 -0.45000000 -0.45000000       0.006
   1.05000000 -0.35000000 -0.35000000       0.006
   0.35000000  0.35000000  0.55000000       0.006
   1.25000000 -0.55000000 -0.35000000       0.012
   1.15000000 -0.45000000 -0.25000000       0.012
   0.35000000  0.35000000 -1.25000000       0.006
   0.45000000  0.45000000  0.45000000       0.002
   1.35000000 -0.45000000 -0.45000000       0.006
 
 k-points in reciprocal lattice and weights: 10x10x10                                
   0.05000000  0.05000000  0.05000000       0.002
   0.15000000  0.05000000  0.05000000       0.006
   0.25000000  0.05000000  0.05000000       0.006
   0.35000000  0.05000000  0.05000000       0.006
   0.45000000  0.05000000  0.05000000       0.006
  -0.45000000  0.05000000  0.05000000       0.006
  -0.35000000  0.05000000  0.05000000       0.006
  -0.25000000  0.05000000  0.05000000       0.006
  -0.15000000  0.05000000  0.05000000       0.006
  -0.05000000  0.05000000  0.05000000       0.006
   0.15000000  0.15000000  0.05000000       0.006
   0.25000000  0.15000000  0.05000000       0.012
   0.35000000  0.15000000  0.05000000       0.012
   0.45000000  0.15000000  0.05000000       0.012
  -0.45000000  0.15000000  0.05000000       0.012
  -0.35000000  0.15000000  0.05000000       0.012
  -0.25000000  0.15000000  0.05000000       0.012
  -0.15000000  0.15000000  0.05000000       0.012
  -0.05000000  0.15000000  0.05000000       0.012
   0.25000000  0.25000000  0.05000000       0.006
   0.35000000  0.25000000  0.05000000       0.012
   0.45000000  0.25000000  0.05000000       0.012
  -0.45000000  0.25000000  0.05000000       0.012
  -0.35000000  0.25000000  0.05000000       0.012
  -0.25000000  0.25000000  0.05000000       0.012
  -0.15000000  0.25000000  0.05000000       0.012
  -0.05000000  0.25000000  0.05000000       0.012
   0.35000000  0.35000000  0.05000000       0.006
   0.45000000  0.35000000  0.05000000       0.012
  -0.45000000  0.35000000  0.05000000       0.012
  -0.35000000  0.35000000  0.05000000       0.012
  -0.25000000  0.35000000  0.05000000       0.012
  -0.15000000  0.35000000  0.05000000       0.012
  -0.05000000  0.35000000  0.05000000       0.012
   0.45000000  0.45000000  0.05000000       0.006
  -0.45000000  0.45000000  0.05000000       0.012
  -0.35000000  0.45000000  0.05000000       0.012
  -0.25000000  0.45000000  0.05000000       0.012
  -0.15000000  0.45000000  0.05000000       0.012
  -0.05000000  0.45000000  0.05000000       0.012
  -0.45000000 -0.45000000  0.05000000       0.006
  -0.35000000 -0.45000000  0.05000000       0.012
  -0.25000000 -0.45000000  0.05000000       0.012
  -0.15000000 -0.45000000  0.05000000       0.012
  -0.35000000 -0.35000000  0.05000000       0.006
  -0.25000000 -0.35000000  0.05000000       0.012
  -0.15000000 -0.35000000  0.05000000       0.012
  -0.25000000 -0.25000000  0.05000000       0.006
  -0.15000000 -0.25000000  0.05000000       0.012
  -0.15000000 -0.15000000  0.05000000       0.006
   0.15000000  0.15000000  0.15000000       0.002
   0.25000000  0.15000000  0.15000000       0.006
   0.35000000  0.15000000  0.15000000       0.006
   0.45000000  0.15000000  0.15000000       0.006
  -0.45000000  0.15000000  0.15000000       0.006
  -0.35000000  0.15000000  0.15000000       0.006
  -0.25000000  0.15000000  0.15000000       0.006
  -0.15000000  0.15000000  0.15000000       0.006
   0.25000000  0.25000000  0.15000000       0.006
   0.35000000  0.25000000  0.15000000       0.012
   0.45000000  0.25000000  0.15000000       0.012
  -0.45000000  0.25000000  0.15000000       0.012
  -0.35000000  0.25000000  0.15000000       0.012
  -0.25000000  0.25000000  0.15000000       0.012
  -0.15000000  0.25000000  0.15000000       0.012
   0.35000000  0.35000000  0.15000000       0.006
   0.45000000  0.35000000  0.15000000       0.012
  -0.45000000  0.35000000  0.15000000       0.012
  -0.35000000  0.35000000  0.15000000       0.012
  -0.25000000  0.35000000  0.15000000       0.012
  -0.15000000  0.35000000  0.15000000       0.012
   0.45000000  0.45000000  0.15000000       0.006
  -0.45000000  0.45000000  0.15000000       0.012
  -0.35000000  0.45000000  0.15000000       0.012
  -0.25000000  0.45000000  0.15000000       0.012
  -0.15000000  0.45000000  0.15000000       0.012
  -0.45000000 -0.45000000  0.15000000       0.006
  -0.35000000 -0.45000000  0.15000000       0.012
  -0.25000000 -0.45000000  0.15000000       0.012
  -0.35000000 -0.35000000  0.15000000       0.006
  -0.25000000 -0.35000000  0.15000000       0.012
  -0.25000000 -0.25000000  0.15000000       0.006
   0.25000000  0.25000000  0.25000000       0.002
   0.35000000  0.25000000  0.25000000       0.006
   0.45000000  0.25000000  0.25000000       0.006
  -0.45000000  0.25000000  0.25000000       0.006
  -0.35000000  0.25000000  0.25000000       0.006
  -0.25000000  0.25000000  0.25000000       0.006
   0.35000000  0.35000000  0.25000000       0.006
   0.45000000  0.35000000  0.25000000       0.012
  -0.45000000  0.35000000  0.25000000       0.012
  -0.35000000  0.35000000  0.25000000       0.012
  -0.25000000  0.35000000  0.25000000       0.012
   0.45000000  0.45000000  0.25000000       0.006
  -0.45000000  0.45000000  0.25000000       0.012
  -0.35000000  0.45000000  0.25000000       0.012
  -0.25000000  0.45000000  0.25000000       0.012
  -0.45000000 -0.45000000  0.25000000       0.006
  -0.35000000 -0.45000000  0.25000000       0.012
  -0.35000000 -0.35000000  0.25000000       0.006
   0.35000000  0.35000000  0.35000000       0.002
   0.45000000  0.35000000  0.35000000       0.006
  -0.45000000  0.35000000  0.35000000       0.006
  -0.35000000  0.35000000  0.35000000       0.006
   0.45000000  0.45000000  0.35000000       0.006
  -0.45000000  0.45000000  0.35000000       0.012
  -0.35000000  0.45000000  0.35000000       0.012
  -0.45000000 -0.45000000  0.35000000       0.006
   0.45000000  0.45000000  0.45000000       0.002
  -0.45000000  0.45000000  0.45000000       0.006
 
 position of ions in fractional coordinates (direct lattice) 
   0.00000000  0.00000000  0.00000000
 
 position of ions in cartesian coordinates  (Angst):
   0.00000000  0.00000000  0.00000000
 


--------------------------------------------------------------------------------------------------------


 k-point  1 :   0.0500 0.0500 0.0500  plane waves:     137
 k-point  2 :   0.1500 0.0500 0.0500  plane waves:     135
 k-point  3 :   0.2500 0.0500 0.0500  plane waves:     137
 k-point  4 :   0.3500 0.0500 0.0500  plane waves:     141
 k-point  5 :   0.4500 0.0500 0.0500  plane waves:     135
 k-point  6 :  -0.4500 0.0500 0.0500  plane waves:     135
 k-point  7 :  -0.3500 0.0500 0.0500  plane waves:     139
 k-point  8 :  -0.2500 0.0500 0.0500  plane waves:     141
 k-point  9 :  -0.1500 0.0500 0.0500  plane waves:     137
 k-point 10 :  -0.0500 0.0500 0.0500  plane waves:     136
 k-point 11 :   0.1500 0.1500 0.0500  plane waves:     134
 k-point 12 :   0.2500 0.1500 0.0500  plane waves:     136
 k-point 13 :   0.3500 0.1500 0.0500  plane waves:     138
 k-point 14 :   0.4500 0.1500 0.0500  plane waves:     134
 k-point 15 :  -0.4500 0.1500 0.0500  plane waves:     132
 k-point 16 :  -0.3500 0.1500 0.0500  plane waves:     134
 k-point 17 :  -0.2500 0.1500 0.0500  plane waves:     137
 k-point 18 :  -0.1500 0.1500 0.0500  plane waves:     137
 k-point 19 :  -0.0500 0.1500 0.0500  plane waves:     137
 k-point 20 :   0.2500 0.2500 0.0500  plane waves:     133
 k-point 21 :   0.3500 0.2500 0.0500  plane waves:     135
 k-point 22 :   0.4500 0.2500 0.0500  plane waves:     136
 k-point 23 :  -0.4500 0.2500 0.0500  plane waves:     131
 k-point 24 :  -0.3500 0.2500 0.0500  plane waves:     129
 k-point 25 :  -0.2500 0.2500 0.0500  plane waves:     134
 k-point 26 :  -0.1500 0.2500 0.0500  plane waves:     138
 k-point 27 :  -0.0500 0.2500 0.0500  plane waves:     137
 k-point 28 :   0.3500 0.3500 0.0500  plane waves:     129
 k-point 29 :   0.4500 0.3500 0.0500  plane waves:     131
 k-point 30 :  -0.4500 0.3500 0.0500  plane waves:     129
 k-point 31 :  -0.3500 0.3500 0.0500  plane waves:     131
 k-point 32 :  -0.2500 0.3500 0.0500  plane waves:     131
 k-point 33 :  -0.1500 0.3500 0.0500  plane waves:     133
 k-point 34 :  -0.0500 0.3500 0.0500  plane waves:     137
 k-point 35 :   0.4500 0.4500 0.0500  plane waves:     129
 k-point 36 :  -0.4500 0.4500 0.0500  plane waves:     128
 k-point 37 :  -0.3500 0.4500 0.0500  plane waves:     130
 k-point 38 :  -0.2500 0.4500 0.0500  plane waves:     131
 k-point 39 :  -0.1500 0.4500 0.0500  plane waves:     129
 k-point 40 :  -0.0500 0.4500 0.0500  plane waves:     133
 k-point 41 :  -0.4500-0.4500 0.0500  plane waves:     125
 k-point 42 :  -0.3500-0.4500 0.0500  plane waves:     129
 k-point 43 :  -0.2500-0.4500 0.0500  plane waves:     130
 k-point 44 :  -0.1500-0.4500 0.0500  plane waves:     133
 k-point 45 :  -0.3500-0.3500 0.0500  plane waves:     129
 k-point 46 :  -0.2500-0.3500 0.0500  plane waves:     132
 k-point 47 :  -0.1500-0.3500 0.0500  plane waves:     136
 k-point 48 :  -0.2500-0.2500 0.0500  plane waves:     133
 k-point 49 :  -0.1500-0.2500 0.0500  plane waves:     137
 k-point 50 :  -0.1500-0.1500 0.0500  plane waves:     134
 k-point 51 :   0.1500 0.1500 0.1500  plane waves:     132
 k-point 52 :   0.2500 0.1500 0.1500  plane waves:     139
 k-point 53 :   0.3500 0.1500 0.1500  plane waves:     137
 k-point 54 :   0.4500 0.1500 0.1500  plane waves:     135
 k-point 55 :  -0.4500 0.1500 0.1500  plane waves:     131
 k-point 56 :  -0.3500 0.1500 0.1500  plane waves:     134
 k-point 57 :  -0.2500 0.1500 0.1500  plane waves:     136
 k-point 58 :  -0.1500 0.1500 0.1500  plane waves:     138
 k-point 59 :   0.2500 0.2500 0.1500  plane waves:     138
 k-point 60 :   0.3500 0.2500 0.1500  plane waves:     136
 k-point 61 :   0.4500 0.2500 0.1500  plane waves:     138
 k-point 62 :  -0.4500 0.2500 0.1500  plane waves:     133
 k-point 63 :  -0.3500 0.2500 0.1500  plane waves:     131
 k-point 64 :  -0.2500 0.2500 0.1500  plane waves:     134
 k-point 65 :  -0.1500 0.2500 0.1500  plane waves:     135
 k-point 66 :   0.3500 0.3500 0.1500  plane waves:     136
 k-point 67 :   0.4500 0.3500 0.1500  plane waves:     133
 k-point 68 :  -0.4500 0.3500 0.1500  plane waves:     131
 k-point 69 :  -0.3500 0.3500 0.1500  plane waves:     131
 k-point 70 :  -0.2500 0.3500 0.1500  plane waves:     131
 k-point 71 :  -0.1500 0.3500 0.1500  plane waves:     132
 k-point 72 :   0.4500 0.4500 0.1500  plane waves:     131
 k-point 73 :  -0.4500 0.4500 0.1500  plane waves:     129
 k-point 74 :  -0.3500 0.4500 0.1500  plane waves:     130
 k-point 75 :  -0.2500 0.4500 0.1500  plane waves:     128
 k-point 76 :  -0.1500 0.4500 0.1500  plane waves:     133
 k-point 77 :  -0.4500-0.4500 0.1500  plane waves:     131
 k-point 78 :  -0.3500-0.4500 0.1500  plane waves:     130
 k-point 79 :  -0.2500-0.4500 0.1500  plane waves:     130
 k-point 80 :  -0.3500-0.3500 0.1500  plane waves:     129
 k-point 81 :  -0.2500-0.3500 0.1500  plane waves:     130
 k-point 82 :  -0.2500-0.2500 0.1500  plane waves:     134
 k-point 83 :   0.2500 0.2500 0.2500  plane waves:     138
 k-point 84 :   0.3500 0.2500 0.2500  plane waves:     138
 k-point 85 :   0.4500 0.2500 0.2500  plane waves:     137
 k-point 86 :  -0.4500 0.2500 0.2500  plane waves:     135
 k-point 87 :  -0.3500 0.2500 0.2500  plane waves:     129
 k-point 88 :  -0.2500 0.2500 0.2500  plane waves:     132
 k-point 89 :   0.3500 0.3500 0.2500  plane waves:     140
 k-point 90 :   0.4500 0.3500 0.2500  plane waves:     135
 k-point 91 :  -0.4500 0.3500 0.2500  plane waves:     132
 k-point 92 :  -0.3500 0.3500 0.2500  plane waves:     131
 k-point 93 :  -0.2500 0.3500 0.2500  plane waves:     130
 k-point 94 :   0.4500 0.4500 0.2500  plane waves:     134
 k-point 95 :  -0.4500 0.4500 0.2500  plane waves:     130
 k-point 96 :  -0.3500 0.4500 0.2500  plane waves:     132
 k-point 97 :  -0.2500 0.4500 0.2500  plane waves:     130
 k-point 98 :  -0.4500-0.4500 0.2500  plane waves:     130
 k-point 99 :  -0.3500-0.4500 0.2500  plane waves:     129
 k-point ** :  -0.3500-0.3500 0.2500  plane waves:     130
 k-point ** :   0.3500 0.3500 0.3500  plane waves:     138
 k-point ** :   0.4500 0.3500 0.3500  plane waves:     135
 k-point ** :  -0.4500 0.3500 0.3500  plane waves:     131
 k-point ** :  -0.3500 0.3500 0.3500  plane waves:     129
 k-point ** :   0.4500 0.4500 0.3500  plane waves:     132
 k-point ** :  -0.4500 0.4500 0.3500  plane waves:     132
 k-point ** :  -0.3500 0.4500 0.3500  plane waves:     129
 k-point ** :  -0.4500-0.4500 0.3500  plane waves:     129
 k-point ** :   0.4500 0.4500 0.4500  plane waves:     135
 k-point ** :  -0.4500 0.4500 0.4500  plane waves:     129

 maximum and minimum number of plane-waves per node :       141      125

 maximum number of plane-waves:       141
 maximum index in each direction: 
   IXMAX=    3   IYMAX=    3   IZMAX=    3
   IXMIN=   -4   IYMIN=   -3   IZMIN=   -3


 serial   3D FFT for wavefunctions
 parallel 3D FFT for charge:
    minimum data exchange during FFTs selected (reduces bandwidth)


 total amount of memory used by VASP MPI-rank0    33732. kBytes
=======================================================================

   base      :      30000. kBytes
   nonl-proj :       2283. kBytes
   fftplans  :        238. kBytes
   grid      :        331. kBytes
   one-center:         15. kBytes
   wavefun   :        865. kBytes
 
     INWAV:  cpu time    0.0262: real time    0.0517
 Broyden mixing: mesh for mixing (old mesh)
   NGX =  7   NGY =  7   NGZ =  7
  (NGX  = 24   NGY  = 24   NGZ  = 24)
  gives a total of    343 points

 charge density for first step will be calculated from the start-wavefunctions


--------------------------------------------------------------------------------------------------------


 Maximum index for augmentation-charges         1509 (set IRDMAX)


--------------------------------------------------------------------------------------------------------


 initial charge from wavefunction
 First call to EWALD:  gamma=   0.692
 Maximum number of real-space cells 3x 3x 3
 Maximum number of reciprocal cells 3x 3x 3

    FEWALD:  cpu time    0.0014: real time    0.0032


--------------------------------------- Iteration      1(   1)  ---------------------------------------


    POTLOK:  cpu time    0.0009: real time    0.0030
    SETDIJ:  cpu time    0.0007: real time    0.0043
     EDDAV:  cpu time    0.1678: real time    0.3359
       DOS:  cpu time    0.0015: real time    0.0032
    CHARGE:  cpu time    0.0036: real time    0.0077
    MIXING:  cpu time    0.0004: real time    0.0005
    --------------------------------------------
      LOOP:  cpu time    0.1750: real time    0.3547

 eigenvalue-minimisations  :  1356
 total energy-change (2. order) :-0.4392433E+01  (-0.4391245E-06)
 number of electron      11.0000047 magnetization 
 augmentation part        3.9948840 magnetization 

 Broyden mixing:
  rms(total) = 0.31080E-03    rms(broyden)= 0.31074E-03
  rms(prec ) = 0.11542E-02
  weight for this iteration     100.00

 Free energy of the ion-electron system (eV)
  ---------------------------------------------------
  alpha Z        PSCENC =       109.54264301
  Ewald energy   TEWEN  =      -982.89350627
  -Hartree energ DENC   =      -109.69793391
  -exchange      EXHF   =         0.00000000
  -V(xc)+E(xc)   XCENC  =        15.77833347
  PAW double counting   =       754.79542916     -736.98625952
  entropy T*S    EENTRO =         0.00089710
  eigenvalues    EBANDS =        15.67163142
  atomic energy  EATOM  =       929.39633208
  Solvation  Ediel_sol  =         0.00000000
  ---------------------------------------------------
  free energy    TOTEN  =        -4.39243347 eV

  energy without entropy =       -4.39333057  energy(sigma->0) =       -4.39273250


--------------------------------------------------------------------------------------------------------




--------------------------------------- Iteration      1(   2)  ---------------------------------------


    POTLOK:  cpu time    0.0014: real time    0.0019
    SETDIJ:  cpu time    0.0018: real time    0.0044
     EDDAV:  cpu time    0.1621: real time    0.3274
       DOS:  cpu time    0.0014: real time    0.0014
    --------------------------------------------
      LOOP:  cpu time    0.1667: real time    0.3352

 eigenvalue-minimisations  :  1356
 total energy-change (2. order) : 0.2765333E-06  (-0.9612226E-07)
 number of electron      11.0000047 magnetization 
 augmentation part        3.9948840 magnetization 

 Free energy of the ion-electron system (eV)
  ---------------------------------------------------
  alpha Z        PSCENC =       109.54264301
  Ewald energy   TEWEN  =      -982.89350627
  -Hartree energ DENC   =      -109.69126218
  -exchange      EXHF   =         0.00000000
  -V(xc)+E(xc)   XCENC  =        15.77801125
  PAW double counting   =       754.78402463     -736.97494658
  entropy T*S    EENTRO =         0.00089716
  eigenvalues    EBANDS =        15.66537371
  atomic energy  EATOM  =       929.39633208
  Solvation  Ediel_sol  =         0.00000000
  ---------------------------------------------------
  free energy    TOTEN  =        -4.39243319 eV

  energy without entropy =       -4.39333036  energy(sigma->0) =       -4.39273225


--------------------------------------------------------------------------------------------------------




 average (electrostatic) potential at core
  the test charge radii are     1.2098
  (the norm of the test charge is              1.0000)
       1 -45.6773
 
 
 
 E-fermi :   5.7261     XC(G=0): -13.0739     alpha+bet :-10.4532


 k-point     1 :       0.0500    0.0500    0.0500
  band No.  band energies     occupation 
      1      -4.2516      2.00000
      2       0.9288      2.00000
      3       0.9903      2.00000
      4       0.9903      2.00000
      5       2.5294      2.00000
      6       2.5294      2.00000
      7      21.1866      0.00000
      8      24.3389      0.00000
      9      25.1133      0.00000
     10      25.1133      0.00000
     11      29.9689      0.00000
     12      33.0548      0.00000

 k-point     2 :       0.1500    0.0500    0.0500
  band No.  band energies     occupation 
      1      -3.7913      2.00000
      2       0.7735      2.00000
      3       1.1321      2.00000
      4       1.1658      2.00000
      5       2.3788      2.00000
      6       2.5818      2.00000
      7      21.5258      0.00000
      8      22.3767      0.00000
      9      24.7502      0.00000
     10      26.0499      0.00000
     11      29.4288      0.00000
     12      32.0878      0.00000

 k-point     3 :       0.2500    0.0500    0.0500
  band No.  band energies     occupation 
      1      -2.7959      2.00000
      2       0.6521      2.00000
      3       1.2877      2.00000
      4       1.3119      2.00000
      5       2.3865      2.00000
      6       2.8006      2.00000
      7      18.4907      0.00000
      8      22.1374      0.00000
      9      24.9410      0.00000
     10      27.3436      0.00000
     11      27.4034      0.00000
     12      29.8667      0.00000

 k-point     4 :       0.3500    0.0500    0.0500
  band No.  band energies     occupation 
      1      -1.9084      2.00000
      2       1.1031      2.00000
      3       1.1919      2.00000
      4       1.3332      2.00000
      5       2.8856      2.00000
      6       3.3802      2.00000
      7      14.4465      0.00000
      8      21.4459      0.00000
      9      23.9766      0.00000
     10      26.1947      0.00000
     11      28.5848      0.00000
     12      29.6889      0.00000

 k-point     5 :       0.4500    0.0500    0.0500
  band No.  band energies     occupation 
      1      -1.6892      2.00000
      2       0.9498      2.00000
      3       1.0209      2.00000
      4       2.8634      2.00000
      5       3.4995      2.00000
      6       4.2715      2.00000
      7      10.6450     -0.00000
      8      20.6721      0.00000
      9      23.0333      0.00000
     10      24.1508      0.00000
     11      30.3933      0.00000
     12      30.6775      0.00000

 k-point     6 :      -0.4500    0.0500    0.0500
  band No.  band energies     occupation 
      1      -1.6854      2.00000
      2       0.8818      2.00000
      3       0.9798      2.00000
      4       3.2897      2.00000
      5       3.7872      2.00000
      6       5.1360      2.00025
      7       8.9749     -0.00000
      8      20.4589      0.00000
      9      23.0857      0.00000
     10      23.2035      0.00000
     11      30.8956      0.00000
     12      30.9809      0.00000

 k-point     7 :      -0.3500    0.0500    0.0500
  band No.  band energies     occupation 
      1      -1.7152      2.00000
      2       0.9803      2.00000
      3       1.0932      2.00000
      4       2.2870      2.00000
      5       3.5799      2.00000
      6       3.7075      2.00000
      7      11.8244      0.00000
      8      20.9106      0.00000
      9      23.5081      0.00000
     10      24.3447      0.00000
     11      30.3394      0.00000
     12      30.4886      0.00000

 k-point     8 :      -0.2500    0.0500    0.0500
  band No.  band energies     occupation 
      1      -2.1320      2.00000
      2       0.9070      2.00000
      3       1.2071      2.00000
      4       1.2691      2.00000
      5       2.7935      2.00000
      6       3.0647      2.00000
      7      15.8034      0.00000
      8      21.8273      0.00000
      9      24.4774      0.00000
     10      26.3283      0.00000
     11      28.2558      0.00000
     12      30.0760      0.00000

 k-point     9 :      -0.1500    0.0500    0.0500
  band No.  band energies     occupation 
      1      -3.1616      2.00000
      2       0.6415      2.00000
      3       1.2792      2.00000
      4       1.2932      2.00000
      5       2.3405      2.00000
      6       2.6743      2.00000
      7      19.7781      0.00000
      8      22.2338      0.00000
      9      24.9486      0.00000
     10      26.4992      0.00000
     11      28.1326      0.00000
     12      30.7439      0.00000

 k-point    10 :      -0.0500    0.0500    0.0500
  band No.  band energies     occupation 
      1      -4.0174      2.00000
      2       0.8193      2.00000
      3       1.0881      2.00000
      4       1.0934      2.00000
      5       2.4043      2.00000
      6       2.5882      2.00000
      7      21.4317      0.00000
      8      23.4197      0.00000
      9      24.8584      0.00000
     10      25.2386      0.00000
     11      30.5818      0.00000
     12      32.2827      0.00000

 k-point    11 :       0.1500    0.1500    0.0500
  band No.  band energies     occupation 
      1      -3.5628      2.00000
      2       0.5999      2.00000
      3       1.2929      2.00000
      4       1.2977      2.00000
      5       2.1771      2.00000
      6       2.7028      2.00000
      7      21.8296      0.00000
      8      22.5517      0.00000
      9      24.2027      0.00000
     10      24.8326      0.00000
     11      29.8164      0.00000
     12      31.5265      0.00000

 k-point    12 :       0.2500    0.1500    0.0500
  band No.  band energies     occupation 
      1      -2.7355      2.00000
      2       0.3470      2.00000
      3       1.3920      2.00000
      4       1.5803      2.00000
      5       2.1235      2.00000
      6       2.9271      2.00000
      7      20.0354      0.00000
      8      21.8452      0.00000
      9      23.8164      0.00000
     10      25.0718      0.00000
     11      27.7820      0.00000
     12      30.6877      0.00000

 k-point    13 :       0.3500    0.1500    0.0500
  band No.  band energies     occupation 
      1      -1.7210      2.00000
      2       0.4335      2.00000
      3       1.0844      2.00000
      4       1.5894      2.00000
      5       2.7977      2.00000
      6       3.5181      2.00000
      7      16.0350      0.00000
      8      21.3007      0.00000
      9      22.7534      0.00000
     10      24.9390      0.00000
     11      28.5802      0.00000
     12      30.3893      0.00000

 k-point    14 :       0.4500    0.1500    0.0500
  band No.  band energies     occupation 
      1      -1.3351      2.00000
      2       0.7765      2.00000
      3       1.3228      2.00000
      4       1.4849      2.00000
      5       3.5633      2.00000
      6       4.7167      2.00000
      7      12.0205      0.00000
      8      20.7945      0.00000
      9      21.4895      0.00000
     10      23.6351      0.00000
     11      30.4100      0.00000
     12      31.5291      0.00000

 k-point    15 :      -0.4500    0.1500    0.0500
  band No.  band energies     occupation 
      1      -1.3141      2.00000
      2       0.6454      2.00000
      3       1.2842      2.00000
      4       2.2310      2.00000
      5       3.7404      2.00000
      6       6.5958     -0.00000
      7       8.9580     -0.00000
      8      20.3240      0.00000
      9      21.1442      0.00000
     10      22.8588      0.00000
     11      30.8867      0.00000
     12      31.9382      0.00000

 k-point    16 :      -0.3500    0.1500    0.0500
  band No.  band energies     occupation 
      1      -1.2968      2.00000
      2       0.7278      2.00000
      3       1.3106      2.00000
      4       1.8958      2.00000
      5       3.4159      2.00000
      6       5.4252      2.05487
      7      10.8728     -0.00000
      8      20.0179      0.00000
      9      21.5771      0.00000
     10      23.8078      0.00000
     11      30.0498      0.00000
     12      31.5889      0.00000

 k-point    17 :      -0.2500    0.1500    0.0500
  band No.  band energies     occupation 
      1      -1.4781      2.00000
      2       0.7197      2.00000
      3       1.0343      2.00000
      4       1.5025      2.00000
      5       2.7076      2.00000
      6       4.0696      2.00000
      7      14.6915      0.00000
      8      20.2818      0.00000
      9      22.6827      0.00000
     10      25.8084      0.00000
     11      28.1956      0.00000
     12      30.6863      0.00000

 k-point    18 :      -0.1500    0.1500    0.0500
  band No.  band energies     occupation 
      1      -2.3771      2.00000
      2       0.3908      2.00000
      3       1.2848      2.00000
      4       1.6032      2.00000
      5       2.1188      2.00000
      6       3.1932      2.00000
      7      18.6310      0.00000
      8      20.9205      0.00000
      9      24.3871      0.00000
     10      25.3995      0.00000
     11      28.8862      0.00000
     12      29.5380      0.00000

 k-point    19 :      -0.0500    0.1500    0.0500
  band No.  band energies     occupation 
      1      -3.3525      2.00000
      2       0.6035      2.00000
      3       1.2955      2.00000
      4       1.3057      2.00000
      5       2.2180      2.00000
      6       2.7107      2.00000
      7      21.0252      0.00000
      8      21.9901      0.00000
      9      24.3150      0.00000
     10      26.1418      0.00000
     11      28.5007      0.00000
     12      31.5239      0.00000

 k-point    20 :       0.2500    0.2500    0.0500
  band No.  band energies     occupation 
      1      -2.1842      2.00000
      2      -0.0159      2.00000
      3       1.5475      2.00000
      4       1.9689      2.00000
      5       2.1652      2.00000
      6       3.0532      2.00000
      7      20.5018      0.00000
      8      21.6369      0.00000
      9      22.7280      0.00000
     10      23.6174      0.00000
     11      24.8265      0.00000
     12      32.1598      0.00000

 k-point    21 :       0.3500    0.2500    0.0500
  band No.  band energies     occupation 
      1      -1.3823      2.00000
      2      -0.2450      2.00000
      3       1.2836      2.00000
      4       2.3243      2.00000
      5       2.8354      2.00000
      6       3.5420      2.00000
      7      17.7630      0.00000
      8      19.7257      0.00000
      9      21.3642      0.00000
     10      24.0662      0.00000
     11      25.4531      0.00000
     12      32.2286      0.00000

 k-point    22 :       0.4500    0.2500    0.0500
  band No.  band energies     occupation 
      1      -0.9155      2.00000
      2       0.0179      2.00000
      3       1.0329      2.00000
      4       2.1882      2.00000
      5       3.6518      2.00000
      6       4.9901      2.00000
      7      13.6639      0.00000
      8      19.0373      0.00000
      9      19.6171      0.00000
     10      23.6797      0.00000
     11      28.6681      0.00000
     12      32.1864      0.00000

 k-point    23 :      -0.4500    0.2500    0.0500
  band No.  band energies     occupation 
      1      -0.7957      2.00000
      2       0.2858      2.00000
      3       1.2396      2.00000
      4       1.9855      2.00000
      5       3.7773      2.00000
      6       7.4682     -0.00000
      7      10.0582     -0.00000
      8      17.7462      0.00000
      9      19.6886      0.00000
     10      23.2632      0.00000
     11      31.2751      0.00000
     12      32.8514      0.00000

 k-point    24 :      -0.3500    0.2500    0.0500
  band No.  band energies     occupation 
      1      -0.6213      2.00000
      2       0.3522      2.00000
      3       1.2605      2.00000
      4       1.8795      2.00000
      5       3.3699      2.00000
      6       7.3065     -0.00000
      7      10.5977     -0.00000
      8      16.6540      0.00000
      9      20.8956      0.00000
     10      23.4427      0.00000
     11      30.4267      0.00000
     12      32.7994      0.00000

 k-point    25 :      -0.2500    0.2500    0.0500
  band No.  band energies     occupation 
      1      -0.5382      2.00000
      2       0.4290      2.00000
      3       0.6906      2.00000
      4       1.9608      2.00000
      5       2.6660      2.00000
      6       5.4996      2.06797
      7      14.0027      0.00000
      8      16.5708      0.00000
      9      22.1388      0.00000
     10      24.9080      0.00000
     11      28.2201      0.00000
     12      32.6157      0.00000

 k-point    26 :      -0.1500    0.2500    0.0500
  band No.  band energies     occupation 
      1      -1.3214      2.00000
      2       0.3108      2.00000
      3       1.0060      2.00000
      4       1.8355      2.00000
      5       2.2595      2.00000
      6       4.1607      2.00000
      7      16.1489      0.00000
      8      18.8262      0.00000
      9      23.1560      0.00000
     10      26.2272      0.00000
     11      27.3059      0.00000
     12      31.2207      0.00000

 k-point    27 :      -0.0500    0.2500    0.0500
  band No.  band energies     occupation 
      1      -2.2925      2.00000
      2       0.5744      2.00000
      3       1.2576      2.00000
      4       1.4090      2.00000
      5       2.4501      2.00000
      6       3.1191      2.00000
      7      17.2488      0.00000
      8      21.8632      0.00000
      9      23.9660      0.00000
     10      26.3963      0.00000
     11      28.1669      0.00000
     12      29.6143      0.00000

 k-point    28 :       0.3500    0.3500    0.0500
  band No.  band energies     occupation 
      1      -1.2420      2.00000
      2      -0.6304      2.00000
      3       2.1798      2.00000
      4       2.8655      2.00000
      5       3.3006      2.00000
      6       3.4761      2.00000
      7      17.6975      0.00000
      8      18.7050      0.00000
      9      18.9728      0.00000
     10      22.9284      0.00000
     11      24.8505      0.00000
     12      34.6519      0.00000

 k-point    29 :       0.4500    0.3500    0.0500
  band No.  band energies     occupation 
      1      -1.0959      2.00000
      2      -0.7410      2.00000
      3       2.2298      2.00000
      4       3.1708      2.00000
      5       3.6671      2.00000
      6       5.0393      2.00001
      7      14.8631      0.00000
      8      17.0020      0.00000
      9      17.6278      0.00000
     10      23.9482      0.00000
     11      25.8571      0.00000
     12      34.2227      0.00000

 k-point    30 :      -0.4500    0.3500    0.0500
  band No.  band energies     occupation 
      1      -0.9259      2.00000
      2      -0.4225      2.00000
      3       1.8675      2.00000
      4       2.8602      2.00000
      5       3.8797      2.00000
      6       7.6954     -0.00000
      7      11.6229      0.00000
      8      15.2596      0.00000
      9      17.7396      0.00000
     10      24.1611      0.00000
     11      28.6106      0.00000
     12      33.2137      0.00000

 k-point    31 :      -0.3500    0.3500    0.0500
  band No.  band energies     occupation 
      1      -0.6283      2.00000
      2       0.0944      2.00000
      3       1.3116      2.00000
      4       2.5232      2.00000
      5       3.5456      2.00000
      6       8.9164     -0.00000
      7      11.0570     -0.00000
      8      13.5813      0.00000
      9      19.0884      0.00000
     10      23.9194      0.00000
     11      31.7834      0.00000
     12      32.2004      0.00000

 k-point    32 :      -0.2500    0.3500    0.0500
  band No.  band energies     occupation 
      1      -0.3401      2.00000
      2       0.3953      2.00000
      3       0.8068      2.00000
      4       2.1577      2.00000
      5       3.1243      2.00000
      6       7.1312     -0.00000
      7      12.4650      0.00000
      8      14.5827      0.00000
      9      20.8964      0.00000
     10      23.8158      0.00000
     11      30.0942      0.00000
     12      33.0492      0.00000

 k-point    33 :      -0.1500    0.3500    0.0500
  band No.  band energies     occupation 
      1      -0.9328      2.00000
      2       0.6259      2.00000
      3       1.1290      2.00000
      4       1.6504      2.00000
      5       3.0371      2.00000
      6       5.4802      2.07091
      7      12.4038      0.00000
      8      18.3185      0.00000
      9      21.8711      0.00000
     10      24.3837      0.00000
     11      29.0490      0.00000
     12      32.0704      0.00000

 k-point    34 :      -0.0500    0.3500    0.0500
  band No.  band energies     occupation 
      1      -1.6362      2.00000
      2       0.9835      2.00000
      3       1.2370      2.00000
      4       1.4873      2.00000
      5       3.1705      2.00000
      6       3.8901      2.00000
      7      13.1877      0.00000
      8      21.1350      0.00000
      9      22.7727      0.00000
     10      25.0471      0.00000
     11      29.4395      0.00000
     12      30.4402      0.00000

 k-point    35 :       0.4500    0.4500    0.0500
  band No.  band energies     occupation 
      1      -1.3621      2.00000
      2      -1.0356      2.00000
      3       3.5635      2.00000
      4       3.5671      2.00000
      5       3.9098      2.00000
      6       5.5233      2.05310
      7      13.4784      0.00000
      8      16.2662      0.00000
      9      16.6002      0.00000
     10      23.2618      0.00000
     11      25.6479      0.00000
     12      35.5437      0.00000

 k-point    36 :      -0.4500    0.4500    0.0500
  band No.  band energies     occupation 
      1      -1.2879      2.00000
      2      -0.9842      2.00000
      3       3.1719      2.00000
      4       3.5160      2.00000
      5       4.0630      2.00000
      6       7.5634     -0.00000
      7      11.5961      0.00000
      8      15.2267      0.00000
      9      16.1954      0.00000
     10      24.2077      0.00000
     11      26.2107      0.00000
     12      34.6654      0.00000

 k-point    37 :      -0.3500    0.4500    0.0500
  band No.  band energies     occupation 
      1      -0.9809      2.00000
      2      -0.5149      2.00000
      3       2.1617      2.00000
      4       3.0337      2.00000
      5       3.8765      2.00000
      6       9.1366     -0.00000
      7      10.7304     -0.00000
      8      13.9361      0.00000
      9      17.3879      0.00000
     10      24.3520      0.00000
     11      28.6178      0.00000
     12      33.3769      0.00000

 k-point    38 :      -0.2500    0.4500    0.0500
  band No.  band energies     occupation 
      1      -0.6629      2.00000
      2       0.1425      2.00000
      3       1.2676      2.00000
      4       2.2968      2.00000
      5       3.6734      2.00000
      6       9.0068     -0.00000
      7       9.5564     -0.00000
      8      15.5939      0.00000
      9      19.2885      0.00000
     10      23.6424      0.00000
     11      31.4973      0.00000
     12      32.5633      0.00000

 k-point    39 :      -0.1500    0.4500    0.0500
  band No.  band energies     occupation 
      1      -0.9883      2.00000
      2       0.4693      2.00000
      3       1.5560      2.00000
      4       1.7547      2.00000
      5       3.6137      2.00000
      6       7.4344     -0.00000
      7       9.1112     -0.00000
      8      18.6993      0.00000
      9      20.9076      0.00000
     10      22.9994      0.00000
     11      30.7823      0.00000
     12      32.4157      0.00000

 k-point    40 :      -0.0500    0.4500    0.0500
  band No.  band energies     occupation 
      1      -1.5536      2.00000
      2       0.8204      2.00000
      3       1.0987      2.00000
      4       2.6581      2.00000
      5       3.6968      2.00000
      6       5.3023      2.01067
      7       9.6646     -0.00000
      8      20.5941      0.00000
      9      22.2163      0.00000
     10      23.3719      0.00000
     11      30.7332      0.00000
     12      31.2587      0.00000

 k-point    41 :      -0.4500   -0.4500    0.0500
  band No.  band energies     occupation 
      1      -1.4386      2.00000
      2      -1.1217      2.00000
      3       3.6887      2.00000
      4       3.8605      2.00000
      5       4.0770      2.00000
      6       6.7448     -0.00000
      7      11.8335      0.00000
      8      15.7538      0.00000
      9      16.1215      0.00000
     10      23.4016      0.00000
     11      25.8180      0.00000
     12      35.3375      0.00000

 k-point    42 :      -0.3500   -0.4500    0.0500
  band No.  band energies     occupation 
      1      -1.2086      2.00000
      2      -0.9015      2.00000
      3       2.8013      2.00000
      4       3.4484      2.00000
      5       3.9028      2.00000
      6       6.3254     -0.00019
      7      13.1152      0.00000
      8      15.8283      0.00000
      9      16.6665      0.00000
     10      24.0923      0.00000
     11      26.0870      0.00000
     12      34.6086      0.00000

 k-point    43 :      -0.2500   -0.4500    0.0500
  band No.  band energies     occupation 
      1      -0.8677      2.00000
      2      -0.2359      2.00000
      3       1.4266      2.00000
      4       2.5485      2.00000
      5       3.8276      2.00000
      6       6.2404     -0.00167
      7      12.5795      0.00000
      8      17.1772      0.00000
      9      18.4379      0.00000
     10      23.8774      0.00000
     11      28.6228      0.00000
     12      32.8273      0.00000

 k-point    44 :      -0.1500   -0.4500    0.0500
  band No.  band energies     occupation 
      1      -1.0376      2.00000
      2       0.5195      2.00000
      3       1.2705      2.00000
      4       1.6869      2.00000
      5       3.7602      2.00000
      6       5.9503     -0.06710
      7      10.9608     -0.00000
      8      19.8029      0.00000
      9      20.2508      0.00000
     10      23.0852      0.00000
     11      30.9711      0.00000
     12      32.6321      0.00000

 k-point    45 :      -0.3500   -0.3500    0.0500
  band No.  band energies     occupation 
      1      -1.2545      2.00000
      2      -0.8682      2.00000
      3       2.9748      2.00000
      4       3.2837      2.00000
      5       3.6890      2.00000
      6       4.2225      2.00000
      7      15.6646      0.00000
      8      17.2743      0.00000
      9      17.4937      0.00000
     10      23.0655      0.00000
     11      25.3211      0.00000
     12      35.6395      0.00000

 k-point    46 :      -0.2500   -0.3500    0.0500
  band No.  band energies     occupation 
      1      -1.0794      2.00000
      2      -0.5161      2.00000
      3       1.6219      2.00000
      4       2.7595      2.00000
      5       3.3333      2.00000
      6       4.0862      2.00000
      7      16.4072      0.00000
      8      18.3778      0.00000
      9      19.2892      0.00000
     10      23.9113      0.00000
     11      25.5714      0.00000
     12      33.3426      0.00000

 k-point    47 :      -0.1500   -0.3500    0.0500
  band No.  band energies     occupation 
      1      -1.2066      2.00000
      2       0.2583      2.00000
      3       0.9182      2.00000
      4       1.8549      2.00000
      5       3.2966      2.00000
      6       4.0762      2.00000
      7      14.8337      0.00000
      8      20.3052      0.00000
      9      21.3799      0.00000
     10      23.8828      0.00000
     11      28.7047      0.00000
     12      31.3483      0.00000

 k-point    48 :      -0.2500   -0.2500    0.0500
  band No.  band energies     occupation 
      1      -1.5405      2.00000
      2      -0.3387      2.00000
      3       1.6318      2.00000
      4       2.4050      2.00000
      5       2.6565      2.00000
      6       3.2625      2.00000
      7      19.2306      0.00000
      8      20.1255      0.00000
      9      21.3116      0.00000
     10      23.0635      0.00000
     11      24.3005      0.00000
     12      33.2751      0.00000

 k-point    49 :      -0.1500   -0.2500    0.0500
  band No.  band energies     occupation 
      1      -2.0192      2.00000
      2       0.0519      2.00000
      3       1.3077      2.00000
      4       1.9230      2.00000
      5       2.3593      2.00000
      6       3.1996      2.00000
      7      18.9666      0.00000
      8      20.9987      0.00000
      9      23.1211      0.00000
     10      24.2221      0.00000
     11      26.2415      0.00000
     12      31.1970      0.00000

 k-point    50 :      -0.1500   -0.1500    0.0500
  band No.  band energies     occupation 
      1      -2.9233      2.00000
      2       0.3086      2.00000
      3       1.5381      2.00000
      4       1.5925      2.00000
      5       1.9707      2.00000
      6       2.8614      2.00000
      7      21.4796      0.00000
      8      22.5826      0.00000
      9      23.0725      0.00000
     10      24.0542      0.00000
     11      27.4647      0.00000
     12      31.5115      0.00000

 k-point    51 :       0.1500    0.1500    0.1500
  band No.  band energies     occupation 
      1      -3.5766      2.00000
      2       0.7565      2.00000
      3       1.1854      2.00000
      4       1.1854      2.00000
      5       2.4840      2.00000
      6       2.4840      2.00000
      7      20.8724      0.00000
      8      22.1116      0.00000
      9      25.7500      0.00000
     10      25.7500      0.00000
     11      29.0049      0.00000
     12      31.4402      0.00000

 k-point    52 :       0.2500    0.1500    0.1500
  band No.  band energies     occupation 
      1      -2.9461      2.00000
      2       0.5463      2.00000
      3       1.3135      2.00000
      4       1.3941      2.00000
      5       2.1614      2.00000
      6       2.8740      2.00000
      7      19.8052      0.00000
      8      21.6003      0.00000
      9      24.4358      0.00000
     10      26.6594      0.00000
     11      27.7882      0.00000
     12      30.8962      0.00000

 k-point    53 :       0.3500    0.1500    0.1500
  band No.  band energies     occupation 
      1      -1.8850      2.00000
      2       0.3863      2.00000
      3       1.2035      2.00000
      4       1.6840      2.00000
      5       2.0693      2.00000
      6       3.6285      2.00000
      7      17.3397      0.00000
      8      19.9155      0.00000
      9      24.0872      0.00000
     10      25.8458      0.00000
     11      28.2544      0.00000
     12      30.2367      0.00000

 k-point    54 :       0.4500    0.1500    0.1500
  band No.  band energies     occupation 
      1      -1.2115      2.00000
      2       0.7763      2.00000
      3       1.1522      2.00000
      4       1.4760      2.00000
      5       2.7585      2.00000
      6       4.7064      2.00000
      7      13.4829      0.00000
[...]
      6       6.3853     -0.00003
      7      13.1650      0.00000
      8      15.5375      0.00000
      9      20.3372      0.00000
     10      25.2945      0.00000
     11      28.6519      0.00000
     12      33.5552      0.00000

 k-point    92 :      -0.3500    0.3500    0.2500
  band No.  band energies     occupation 
      1      -0.2907      2.00000
      2       0.2134      2.00000
      3       0.8173      2.00000
      4       2.3502      2.00000
      5       3.4846      2.00000
      6       8.2104     -0.00000
      7      11.8484      0.00000
      8      13.9038      0.00000
      9      18.8187      0.00000
     10      25.0477      0.00000
     11      30.1696      0.00000
     12      34.0478      0.00000

 k-point    93 :      -0.2500    0.3500    0.2500
  band No.  band energies     occupation 
      1      -0.6278      2.00000
      2      -0.0842      2.00000
      3       1.2416      2.00000
      4       2.6038      2.00000
      5       3.7868      2.00000
      6       8.4959     -0.00000
      7      10.8620     -0.00000
      8      15.2083      0.00000
      9      17.5886      0.00000
     10      25.0299      0.00000
     11      30.0482      0.00000
     12      32.0316      0.00000

 k-point    94 :       0.4500    0.4500    0.2500
  band No.  band energies     occupation 
      1      -1.0045      2.00000
      2       0.3677      2.00000
      3       1.0557      2.00000
      4       1.8563      2.00000
      5       3.8353      2.00000
      6       5.3608      2.02684
      7      12.2195      0.00000
      8      19.5849      0.00000
      9      20.3800      0.00000
     10      22.7611      0.00000
     11      30.6531      0.00000
     12      32.2339      0.00000

 k-point    95 :      -0.4500    0.4500    0.2500
  band No.  band energies     occupation 
      1      -0.6271      2.00000
      2       0.0917      2.00000
      3       0.9715      2.00000
      4       2.3747      2.00000
      5       3.6905      2.00000
      6       7.0210     -0.00000
      7      11.5461      0.00000
      8      17.0217      0.00000
      9      18.3591      0.00000
     10      24.6516      0.00000
     11      29.7678      0.00000
     12      32.2371      0.00000

 k-point    96 :      -0.3500    0.4500    0.2500
  band No.  band energies     occupation 
      1      -0.2438      2.00000
      2       0.1565      2.00000
      3       0.6215      2.00000
      4       2.4902      2.00000
      5       3.8335      2.00000
      6       8.8574     -0.00000
      7      11.9181      0.00000
      8      13.8077      0.00000
      9      16.6470      0.00000
     10      27.3106      0.00000
     11      28.9667      0.00000
     12      32.3498      0.00000

 k-point    97 :      -0.2500    0.4500    0.2500
  band No.  band energies     occupation 
      1      -0.3690      2.00000
      2       0.1638      2.00000
      3       0.7837      2.00000
      4       2.4462      2.00000
      5       4.0580      2.00000
      6      10.1357     -0.00000
      7      11.5858      0.00000
      8      12.9396      0.00000
      9      15.6620      0.00000
     10      28.0890      0.00000
     11      29.5915      0.00000
     12      31.0207      0.00000

 k-point    98 :      -0.4500   -0.4500    0.2500
  band No.  band energies     occupation 
      1      -0.8416      2.00000
      2      -0.1197      2.00000
      3       1.6046      2.00000
      4       2.5319      2.00000
      5       3.8026      2.00000
      6       8.3573     -0.00000
      7      10.4765     -0.00000
      8      15.3529      0.00000
      9      18.9109      0.00000
     10      23.4104      0.00000
     11      30.3301      0.00000
     12      33.2730      0.00000

 k-point    99 :      -0.3500   -0.4500    0.2500
  band No.  band energies     occupation 
      1      -0.6676      2.00000
      2      -0.1580      2.00000
      3       1.4507      2.00000
      4       2.6868      2.00000
      5       3.8425      2.00000
      6       9.7307     -0.00000
      7      10.6454     -0.00000
      8      13.5625      0.00000
      9      17.2699      0.00000
     10      25.2950      0.00000
     11      30.3211      0.00000
     12      31.7682      0.00000

 k-point   100 :      -0.3500   -0.3500    0.2500
  band No.  band energies     occupation 
      1      -0.8595      2.00000
      2      -0.2122      2.00000
      3       1.8051      2.00000
      4       2.7948      2.00000
      5       3.6775      2.00000
      6       9.5579     -0.00000
      7      10.3049     -0.00000
      8      13.6183      0.00000
      9      18.6181      0.00000
     10      23.6490      0.00000
     11      30.2809      0.00000
     12      33.4654      0.00000

 k-point   101 :       0.3500    0.3500    0.3500
  band No.  band energies     occupation 
      1      -1.8505      2.00000
      2       1.0905      2.00000
      3       1.0905      2.00000
      4       1.9750      2.00000
      5       3.2706      2.00000
      6       3.2706      2.00000
      7      13.0731      0.00000
      8      21.1347      0.00000
      9      24.7766      0.00000
     10      24.7766      0.00000
     11      29.9787      0.00000
     12      30.0233      0.00000

 k-point   102 :       0.4500    0.3500    0.3500
  band No.  band energies     occupation 
      1      -1.5014      2.00000
      2       0.9019      2.00000
      3       1.2037      2.00000
      4       1.8981      2.00000
      5       3.1598      2.00000
      6       4.5420      2.00000
      7      11.9630      0.00000
      8      20.5932      0.00000
      9      22.2173      0.00000
     10      24.7839      0.00000
     11      29.4260      0.00000
     12      30.8734      0.00000

 k-point   103 :      -0.4500    0.3500    0.3500
  band No.  band energies     occupation 
      1      -0.7876      2.00000
      2       0.5193      2.00000
      3       1.3415      2.00000
      4       1.6678      2.00000
      5       3.1389      2.00000
      6       6.2972     -0.00041
      7      11.4317      0.00000
      8      17.4109      0.00000
      9      22.3350      0.00000
     10      23.0360      0.00000
     11      29.9014      0.00000
     12      32.0805      0.00000

 k-point   104 :      -0.3500    0.3500    0.3500
  band No.  band energies     occupation 
      1      -0.5177      2.00000
      2       0.3390      2.00000
      3       1.0811      2.00000
      4       2.3043      2.00000
      5       3.2877      2.00000
      6       7.9607     -0.00000
      7      11.7822      0.00000
      8      13.9031      0.00000
      9      20.7033      0.00000
     10      23.0637      0.00000
     11      31.6285      0.00000
     12      32.7686      0.00000

 k-point   105 :       0.4500    0.4500    0.3500
  band No.  band energies     occupation 
      1      -1.5002      2.00000
      2       0.8110      2.00000
      3       1.2046      2.00000
      4       2.1070      2.00000
      5       3.7768      2.00000
      6       4.8390      2.00000
      7      10.7087     -0.00000
      8      20.7965      0.00000
      9      22.4712      0.00000
     10      22.9745      0.00000
     11      31.0363      0.00000
     12      31.3292      0.00000

 k-point   106 :      -0.4500    0.4500    0.3500
  band No.  band energies     occupation 
      1      -1.0286      2.00000
      2       0.5005      2.00000
      3       1.4979      2.00000
      4       1.7080      2.00000
      5       3.6250      2.00000
      6       6.6515     -0.00000
      7       9.9201     -0.00000
      8      19.4017      0.00000
      9      20.2910      0.00000
     10      23.5158      0.00000
     11      30.3688      0.00000
     12      32.6576      0.00000

 k-point   107 :      -0.3500    0.4500    0.3500
  band No.  band energies     occupation 
      1      -0.4270      2.00000
      2       0.1538      2.00000
      3       1.0770      2.00000
      4       2.1438      2.00000
      5       3.5810      2.00000
      6       8.5319     -0.00000
      7       9.9313     -0.00000
      8      16.0123      0.00000
      9      18.9513      0.00000
     10      24.5702      0.00000
     11      30.3089      0.00000
     12      34.3066      0.00000

 k-point   108 :      -0.4500   -0.4500    0.3500
  band No.  band energies     occupation 
      1      -0.9143      2.00000
      2       0.4136      2.00000
      3       1.5478      2.00000
      4       1.6997      2.00000
      5       3.7233      2.00000
      6       7.8952     -0.00000
      7       8.9601     -0.00000
      8      18.1649      0.00000
      9      21.1573      0.00000
     10      22.3009      0.00000
     11      31.8785      0.00000
     12      32.1193      0.00000

 k-point   109 :       0.4500    0.4500    0.4500
  band No.  band energies     occupation 
      1      -1.7523      2.00000
      2       0.9445      2.00000
      3       0.9445      2.00000
      4       3.7212      2.00000
      5       3.7212      2.00000
      6       4.1085      2.00000
      7       9.6161     -0.00000
      8      20.4712      0.00000
      9      23.5918      0.00000
     10      23.5918      0.00000
     11      30.7058      0.00000
     12      30.7058      0.00000

 k-point   110 :      -0.4500    0.4500    0.4500
  band No.  band energies     occupation 
      1      -1.4910      2.00000
      2       0.7670      2.00000
      3       1.1248      2.00000
      4       2.6726      2.00000
      5       3.6987      2.00000
      6       6.0072     -0.06315
      7       8.9808     -0.00000
      8      20.4343      0.00000
      9      22.0019      0.00000
     10      23.0159      0.00000
     11      31.0360      0.00000
     12      31.2205      0.00000


--------------------------------------------------------------------------------------------------------


 soft charge-density along one line, spin component           1
         0         1         2         3         4         5         6         7         8         9
 total charge-density along one line
 
 pseudopotential strength for first ion, spin component:           1
 -9.743   0.000  -0.000   0.000   0.000   0.000  -0.000   0.000  -0.000   0.000  -0.104   0.000   0.000   0.000  -0.000   0.000
 -0.000   0.000  -9.743   0.000  -0.000   0.000  -0.000   0.000   0.000   0.000   0.000   0.000  -0.104   0.000   0.000   0.000
  0.000   0.000  -0.000   0.000  -9.725   0.000  -0.000   0.000  -0.000   0.000  -0.000   0.000   0.000   0.000  -0.107   0.000
 -0.000   0.000  -0.000   0.000  -0.000   0.000  -9.743   0.000  -0.000   0.000   0.000   0.000   0.000   0.000   0.000   0.000
 -0.000   0.000   0.000   0.000  -0.000   0.000  -0.000   0.000  -9.725   0.000   0.000   0.000  -0.000   0.000   0.000   0.000
 -0.104   0.000   0.000   0.000  -0.000   0.000   0.000   0.000   0.000   0.000   0.285   0.000  -0.000   0.000   0.000   0.000
  0.000   0.000  -0.104   0.000   0.000   0.000   0.000   0.000  -0.000   0.000  -0.000   0.000   0.285   0.000  -0.000   0.000
 -0.000   0.000   0.000   0.000  -0.107   0.000   0.000   0.000   0.000   0.000   0.000   0.000  -0.000   0.000   0.285   0.000
  0.000   0.000   0.000   0.000   0.000   0.000  -0.104   0.000   0.000   0.000  -0.000   0.000  -0.000   0.000  -0.000   0.000
  0.000   0.000  -0.000   0.000   0.000   0.000   0.000   0.000  -0.107   0.000  -0.000   0.000   0.000   0.000  -0.000   0.000
  0.000   0.000   0.000   0.000   0.000   0.000   0.000   0.000  -0.000   0.000   0.000   0.000   0.000   0.000  -0.000   0.000
 -0.000   0.000  -0.000   0.000  -0.000   0.000  -0.000   0.000   0.000   0.000   0.000   0.000   0.000   0.000   0.000   0.000
  0.000   0.000   0.000   0.000  -0.000   0.000   0.000   0.000  -0.000   0.000  -0.000   0.000  -0.000   0.000  -0.000   0.000
  0.000   0.000  -0.000   0.000   0.000   0.000   0.000   0.000   0.000   0.000  -0.000   0.000   0.000   0.000  -0.000   0.000
 -0.000   0.000   0.000   0.000  -0.000   0.000   0.000   0.000  -0.000   0.000   0.000   0.000  -0.000   0.000   0.000   0.000
 -0.000   0.000  -0.000   0.000   0.000   0.000  -0.000   0.000   0.000   0.000   0.000   0.000   0.000   0.000  -0.000   0.000
 -0.000   0.000   0.000   0.000  -0.000   0.000  -0.000   0.000  -0.000   0.000   0.000   0.000  -0.000   0.000   0.000   0.000
  0.000   0.000  -0.000   0.000   0.000   0.000  -0.000   0.000   0.000   0.000  -0.000   0.000   0.000   0.000  -0.000   0.000
 total augmentation occupancy for first ion, spin component:           1
  1.903  -0.000   0.000   0.000   0.000  -0.031   0.000   0.000  -0.000  -0.000   0.000   0.000   0.000   0.000   0.000   0.000
 -0.000   1.903  -0.000   0.000  -0.000  -0.000  -0.031  -0.000   0.000  -0.000   0.000  -0.000   0.000   0.000   0.000   0.000
 -0.000   0.000   1.952   0.000   0.000   0.000  -0.000  -0.080  -0.000   0.000   0.000   0.000   0.000   0.000   0.000   0.000
  0.000   0.000  -0.000   1.903  -0.000   0.000  -0.000  -0.000  -0.031   0.000   0.000   0.000   0.000   0.000   0.000   0.000
  0.000   0.000   0.000   0.000   1.952  -0.000   0.000   0.000  -0.000  -0.080   0.000  -0.000   0.000   0.000   0.000   0.000
 -0.031  -0.000   0.000   0.000   0.000   0.218   0.000  -0.000  -0.000   0.000   0.000   0.000   0.000   0.000   0.000   0.000
 -0.000  -0.031   0.000  -0.000   0.000   0.000   0.218   0.000   0.000   0.000   0.000   0.000   0.000   0.000   0.000   0.000
  0.000   0.000  -0.080   0.000   0.000   0.000   0.000   0.174   0.000  -0.000  -0.000  -0.000   0.000   0.000   0.000   0.000
 -0.000   0.000  -0.000  -0.031  -0.000   0.000   0.000   0.000   0.218   0.000  -0.000   0.000   0.000   0.000   0.000   0.000
  0.000   0.000   0.000  -0.000  -0.080   0.000  -0.000  -0.000  -0.000   0.174   0.000   0.000   0.000   0.000   0.000   0.000
  0.000   0.000  -0.000   0.000   0.000   0.000   0.000  -0.000  -0.000   0.000   1.087  -0.397   0.000   0.000   0.000   0.000
  0.000   0.000   0.000   0.000  -0.000   0.000   0.000  -0.000   0.000   0.000  -0.397   0.266   0.000   0.000   0.000   0.000
  0.000   0.000   0.000   0.000   0.000   0.000   0.000   0.000   0.000   0.000   0.000   0.000   0.172   0.000   0.000  -0.013
  0.000   0.000   0.000   0.000   0.000   0.000   0.000   0.000   0.000   0.000   0.000   0.000   0.000   0.172   0.000  -0.000
  0.000   0.000   0.000   0.000   0.000   0.000   0.000   0.000   0.000   0.000   0.000   0.000  -0.000  -0.000   0.172   0.000
  0.000   0.000   0.000   0.000   0.000   0.000   0.000   0.000   0.000   0.000   0.000   0.000  -0.013   0.000   0.000   0.001
  0.000   0.000   0.000   0.000   0.000   0.000   0.000   0.000   0.000   0.000   0.000   0.000   0.000  -0.013   0.000  -0.000
  0.000   0.000   0.000   0.000   0.000   0.000   0.000   0.000   0.000   0.000   0.000   0.000   0.000   0.000  -0.013   0.000


------------------------ aborting loop because EDIFF is reached ----------------------------------------


    CHARGE:  cpu time    0.0036: real time    0.0066
    FORLOC:  cpu time    0.0001: real time    0.0001
    FORNL :  cpu time    0.0081: real time    0.0190
    STRESS:  cpu time    0.0480: real time    0.0898
    FORCOR:  cpu time    0.0019: real time    0.0128
    FORHAR:  cpu time    0.0008: real time    0.0010
    MIXING:  cpu time    0.0007: real time    0.0047
    OFIELD:  cpu time    0.0000: real time    0.0000

  FORCE on cell =-STRESS in cart. coord.  units (eV):
  Direction    XX          YY          ZZ          XY          YZ          ZX
  --------------------------------------------------------------------------------------
  Alpha Z   109.54264   109.54264   109.54264
  Ewald    -327.63118  -327.63118  -327.63118     0.00000     0.00000    -0.00000
  Hartree    36.56267    36.56267    36.56267    -0.00000    -0.00000    -0.00000
  E(xc)     -49.10911   -49.10911   -49.10911     0.00001     0.00001     0.00001
  Local      82.71544    82.71544    82.71544     0.00013     0.00013     0.00013
  n-local   -49.13008   -46.21657   -50.01468     0.60183    -0.66344     0.01100
  augment    42.44412    42.44412    42.44412    -0.00001    -0.00001    -0.00001
  Kinetic   153.53914   152.39205   154.59852    -0.40027     0.20495     0.01330
  Fock        0.00000     0.00000     0.00000     0.00000     0.00000     0.00000
  -------------------------------------------------------------------------------------
  Total      -0.41928    -0.41928    -0.41928     0.00000     0.00000    -0.00000
  in kB     -40.03927   -40.03927   -40.03927     0.00000     0.00000    -0.00000
  external pressure =      -40.04 kB  Pullay stress =        0.00 kB


 VOLUME and BASIS-vectors are now :
 -----------------------------------------------------------------------------
  energy-cutoff  :      230.00
  volume of cell :       16.78
      direct lattice vectors                 reciprocal lattice vectors
     0.000000000  2.031895000  2.031895000    -0.246075708  0.246075708  0.246075708
     2.031895000  0.000000000  2.031895000     0.246075708 -0.246075708  0.246075708
     2.031895000  2.031895000  0.000000000     0.246075708  0.246075708 -0.246075708

  length of vectors
     2.873533466  2.873533466  2.873533466     0.426215628  0.426215628  0.426215628


 FORCES acting on ions
    electron-ion (+dipol)            ewald-force                    non-local-force                 convergence-correction
 -----------------------------------------------------------------------------------------------
   -.270E-14 0.703E-14 0.428E-14   -.123E-14 0.876E-15 0.276E-14   -.517E-25 -.517E-25 -.775E-25   -.137E-14 0.194E-14 0.320E-14
 -----------------------------------------------------------------------------------------------
   -.270E-14 0.703E-14 0.428E-14   -.123E-14 0.876E-15 0.276E-14   -.517E-25 -.517E-25 -.775E-25   -.137E-14 0.194E-14 0.320E-14
 
 
 POSITION                                       TOTAL-FORCE (eV/Angst)
 -----------------------------------------------------------------------------------
      0.00000      0.00000      0.00000         0.000000      0.000000      0.000000
 -----------------------------------------------------------------------------------
    total drift:                               -0.000000      0.000000      0.000000


--------------------------------------------------------------------------------------------------------



  FREE ENERGIE OF THE ION-ELECTRON SYSTEM (eV)
  ---------------------------------------------------
  free  energy   TOTEN  =        -4.39243319 eV

  energy  without entropy=       -4.39333036  energy(sigma->0) =       -4.39273225
 


--------------------------------------------------------------------------------------------------------


    POTLOK:  cpu time    0.0026: real time    0.0070


--------------------------------------------------------------------------------------------------------


 writing wavefunctions
     LOOP+:  cpu time    0.5100: real time    1.0760
    4ORBIT:  cpu time    0.0008: real time    0.0000

 total amount of memory used by VASP MPI-rank0    33732. kBytes
=======================================================================

   base      :      30000. kBytes
   nonl-proj :       2283. kBytes
   fftplans  :        238. kBytes
   grid      :        331. kBytes
   one-center:         15. kBytes
   wavefun   :        865. kBytes
 
  
  
 General timing and accounting informations for this job:
 ========================================================
  
                  Total CPU time used (sec):        0.938
                            User time (sec):        0.746
                          System time (sec):        0.192
                         Elapsed time (sec):        1.895
  
                   Maximum memory used (kb):       54396.
                   Average memory used (kb):           0.
  
                          Minor page faults:        10973
                          Major page faults:            0
                 Voluntary context switches:         1193
