<?xml version="1.0" encoding="ISO-8859-1"?>
<modeling>
 <generator>
  <i name="program" type="string">vasp </i>
  <i name="version" type="string">5.4.4.18Apr17-6-g9f103f2a35  </i>
  <i name="subversion" type="string">(build Jul 01 2019 03:25:34) complex            parallel </i>
  <i name="platform" type="string">LinuxIFC </i>
  <i name="date" type="string">2020 07 08 </i>
  <i name="time" type="string">01:18:45 </i>
 </generator>
 <incar>
  <i type="string" name="SYSTEM"> FCC Au</i>
  <i type="string" name="PREC">normal</i>
  <i name="EDIFF">      0.00010000</i>
  <i name="ENCUT">    230.00000000</i>
  <v type="int" name="KPOINT_BSE">    -1     0     0     0</v>
 </incar>
 <structure name="primitive_cell" >
  <crystal>
   <varray name="basis" >
    <v>       0.00000000       2.03189500       2.03189500 </v>
    <v>       2.03189500       0.00000000       2.03189500 </v>
    <v>       2.03189500       2.03189500       0.00000000 </v>
   </varray>
   <i name="volume">     16.77775239 </i>
   <varray name="rec_basis" >
    <v>      -0.24607571       0.24607571       0.24607571 </v>
    <v>       0.24607571      -0.24607571       0.24607571 </v>
    <v>       0.24607571       0.24607571      -0.24607571 </v>
   </varray>
  </crystal>
  <varray name="positions" >
   <v>       0.00000000       0.00000000       0.00000000 </v>
  </varray>
 </structure>
 <varray name="primitive_index" >
  <v type="int" >        1 </v>
 </varray>
 <kpoints>
  <generation param="Monkhorst-Pack">
   <v type="int" name="divisions">      10       10       10 </v>
   <v name="usershift">      0.00000000       0.00000000       0.00000000 </v>
   <v name="genvec1">      0.10000000       0.00000000       0.00000000 </v>
   <v name="genvec2">      0.00000000       0.10000000       0.00000000 </v>
   <v name="genvec3">      0.00000000       0.00000000       0.10000000 </v>
   <v name="shift">      0.50000000       0.50000000       0.50000000 </v>
  </generation>
  <varray name="kpointlist" >
   <v>       0.05000000       0.05000000       0.05000000 </v>
   <v>       0.15000000       0.05000000       0.05000000 </v>
   <v>       0.25000000       0.05000000       0.05000000 </v>
   <v>       0.35000000       0.05000000       0.05000000 </v>
   <v>       0.45000000       0.05000000       0.05000000 </v>
   <v>      -0.45000000       0.05000000       0.05000000 </v>
   <v>      -0.35000000       0.05000000       0.05000000 </v>
   <v>      -0.25000000       0.05000000       0.05000000 </v>
   <v>      -0.15000000       0.05000000       0.05000000 </v>
   <v>      -0.05000000       0.05000000       0.05000000 </v>
   <v>       0.15000000       0.15000000       0.05000000 </v>
   <v>       0.25000000       0.15000000       0.05000000 </v>
   <v>       0.35000000       0.15000000       0.05000000 </v>
   <v>       0.45000000       0.15000000       0.05000000 </v>
   <v>      -0.45000000       0.15000000       0.05000000 </v>
   <v>      -0.35000000       0.15000000       0.05000000 </v>
   <v>      -0.25000000       0.15000000       0.05000000 </v>
   <v>      -0.15000000       0.15000000       0.05000000 </v>
   <v>      -0.05000000       0.15000000       0.05000000 </v>
   <v>       0.25000000       0.25000000       0.05000000 </v>
   <v>       0.35000000       0.25000000       0.05000000 </v>
   <v>       0.45000000       0.25000000       0.05000000 </v>
   <v>      -0.45000000       0.25000000       0.05000000 </v>
   <v>      -0.35000000       0.25000000       0.05000000 </v>
   <v>      -0.25000000       0.25000000       0.05000000 </v>
   <v>      -0.15000000       0.25000000       0.05000000 </v>
   <v>      -0.05000000       0.25000000       0.05000000 </v>
   <v>       0.35000000       0.35000000       0.05000000 </v>
   <v>       0.45000000       0.35000000       0.05000000 </v>
   <v>      -0.45000000       0.35000000       0.05000000 </v>
   <v>      -0.35000000       0.35000000       0.05000000 </v>
   <v>      -0.25000000       0.35000000       0.05000000 </v>
   <v>      -0.15000000       0.35000000       0.05000000 </v>
   <v>      -0.05000000       0.35000000       0.05000000 </v>
   <v>       0.45000000       0.45000000       0.05000000 </v>
   <v>      -0.45000000       0.45000000       0.05000000 </v>
   <v>      -0.35000000       0.45000000       0.05000000 </v>
   <v>      -0.25000000       0.45000000       0.05000000 </v>
   <v>      -0.15000000       0.45000000       0.05000000 </v>
   <v>      -0.05000000       0.45000000       0.05000000 </v>
   <v>      -0.45000000      -0.45000000       0.05000000 </v>
   <v>      -0.35000000      -0.45000000       0.05000000 </v>
   <v>      -0.25000000      -0.45000000       0.05000000 </v>
   <v>      -0.15000000      -0.45000000       0.05000000 </v>
   <v>      -0.35000000      -0.35000000       0.05000000 </v>
   <v>      -0.25000000      -0.35000000       0.05000000 </v>
   <v>      -0.15000000      -0.35000000       0.05000000 </v>
   <v>      -0.25000000      -0.25000000       0.05000000 </v>
   <v>      -0.15000000      -0.25000000       0.05000000 </v>
   <v>      -0.15000000      -0.15000000       0.05000000 </v>
   <v>       0.15000000       0.15000000       0.15000000 </v>
   <v>       0.25000000       0.15000000       0.15000000 </v>
   <v>       0.35000000       0.15000000       0.15000000 </v>
   <v>       0.45000000       0.15000000       0.15000000 </v>
   <v>      -0.45000000       0.15000000       0.15000000 </v>
   <v>      -0.35000000       0.15000000       0.15000000 </v>
   <v>      -0.25000000       0.15000000       0.15000000 </v>
   <v>      -0.15000000       0.15000000       0.15000000 </v>
   <v>       0.25000000       0.25000000       0.15000000 </v>
   <v>       0.35000000       0.25000000       0.15000000 </v>
   <v>       0.45000000       0.25000000       0.15000000 </v>
   <v>      -0.45000000       0.25000000       0.15000000 </v>
   <v>      -0.35000000       0.25000000       0.15000000 </v>
   <v>      -0.25000000       0.25000000       0.15000000 </v>
   <v>      -0.15000000       0.25000000       0.15000000 </v>
   <v>       0.35000000       0.35000000       0.15000000 </v>
   <v>       0.45000000       0.35000000       0.15000000 </v>
   <v>      -0.45000000       0.35000000       0.15000000 </v>
   <v>      -0.35000000       0.35000000       0.15000000 </v>
   <v>      -0.25000000       0.35000000       0.15000000 </v>
   <v>      -0.15000000       0.35000000       0.15000000 </v>
   <v>       0.45000000       0.45000000       0.15000000 </v>
   <v>      -0.45000000       0.45000000       0.15000000 </v>
   <v>      -0.35000000       0.45000000       0.15000000 </v>
   <v>      -0.25000000       0.45000000       0.15000000 </v>
   <v>      -0.15000000       0.45000000       0.15000000 </v>
   <v>      -0.45000000      -0.45000000       0.15000000 </v>
   <v>      -0.35000000      -0.45000000       0.15000000 </v>
   <v>      -0.25000000      -0.45000000       0.15000000 </v>
   <v>      -0.35000000      -0.35000000       0.15000000 </v>
   <v>      -0.25000000      -0.35000000       0.15000000 </v>
   <v>      -0.25000000      -0.25000000       0.15000000 </v>
   <v>       0.25000000       0.25000000       0.25000000 </v>
   <v>       0.35000000       0.25000000       0.25000000 </v>
   <v>       0.45000000       0.25000000       0.25000000 </v>
   <v>      -0.45000000       0.25000000       0.25000000 </v>
   <v>      -0.35000000       0.25000000       0.25000000 </v>
   <v>      -0.25000000       0.25000000       0.25000000 </v>
   <v>       0.35000000       0.35000000       0.25000000 </v>
   <v>       0.45000000       0.35000000       0.25000000 </v>
   <v>      -0.45000000       0.35000000       0.25000000 </v>
   <v>      -0.35000000       0.35000000       0.25000000 </v>
   <v>      -0.25000000       0.35000000       0.25000000 </v>
   <v>       0.45000000       0.45000000       0.25000000 </v>
   <v>      -0.45000000       0.45000000       0.25000000 </v>
   <v>      -0.35000000       0.45000000       0.25000000 </v>
   <v>      -0.25000000       0.45000000       0.25000000 </v>
   <v>      -0.45000000      -0.45000000       0.25000000 </v>
   <v>      -0.35000000      -0.45000000       0.25000000 </v>
   <v>      -0.35000000      -0.35000000       0.25000000 </v>
   <v>       0.35000000       0.35000000       0.35000000 </v>
   <v>       0.45000000       0.35000000       0.35000000 </v>
   <v>      -0.45000000       0.35000000       0.35000000 </v>
   <v>      -0.35000000       0.35000000       0.35000000 </v>
   <v>       0.45000000       0.45000000       0.35000000 </v>
   <v>      -0.45000000       0.45000000       0.35000000 </v>
   <v>      -0.35000000       0.45000000       0.35000000 </v>
   <v>      -0.45000000      -0.45000000       0.35000000 </v>
   <v>       0.45000000       0.45000000       0.45000000 </v>
   <v>      -0.45000000       0.45000000       0.45000000 </v>
  </varray>
  <varray name="weights" >
   <v>       0.00200000 </v>
   <v>       0.00600000 </v>
   <v>       0.00600000 </v>
   <v>       0.00600000 </v>
   <v>       0.00600000 </v>
   <v>       0.00600000 </v>
   <v>       0.00600000 </v>
   <v>       0.00600000 </v>
   <v>       0.00600000 </v>
   <v>       0.00600000 </v>
   <v>       0.00600000 </v>
   <v>       0.01200000 </v>
   <v>       0.01200000 </v>
   <v>       0.01200000 </v>
   <v>       0.01200000 </v>
   <v>       0.01200000 </v>
   <v>       0.01200000 </v>
   <v>       0.01200000 </v>
   <v>       0.01200000 </v>
   <v>       0.00600000 </v>
   <v>       0.01200000 </v>
   <v>       0.01200000 </v>
   <v>       0.01200000 </v>
   <v>       0.01200000 </v>
   <v>       0.01200000 </v>
   <v>       0.01200000 </v>
   <v>       0.01200000 </v>
   <v>       0.00600000 </v>
   <v>       0.01200000 </v>
   <v>       0.01200000 </v>
   <v>       0.01200000 </v>
   <v>       0.01200000 </v>
   <v>       0.01200000 </v>
   <v>       0.01200000 </v>
   <v>       0.00600000 </v>
   <v>       0.01200000 </v>
   <v>       0.01200000 </v>
   <v>       0.01200000 </v>
   <v>       0.01200000 </v>
   <v>       0.01200000 </v>
   <v>       0.00600000 </v>
   <v>       0.01200000 </v>
   <v>       0.01200000 </v>
   <v>       0.01200000 </v>
   <v>       0.00600000 </v>
   <v>       0.01200000 </v>
   <v>       0.01200000 </v>
   <v>       0.00600000 </v>
   <v>       0.01200000 </v>
   <v>       0.00600000 </v>
   <v>       0.00200000 </v>
   <v>       0.00600000 </v>
   <v>       0.00600000 </v>
   <v>       0.00600000 </v>
   <v>       0.00600000 </v>
   <v>       0.00600000 </v>
   <v>       0.00600000 </v>
   <v>       0.00600000 </v>
   <v>       0.00600000 </v>
   <v>       0.01200000 </v>
   <v>       0.01200000 </v>
   <v>       0.01200000 </v>
   <v>       0.01200000 </v>
   <v>       0.01200000 </v>
   <v>       0.01200000 </v>
   <v>       0.00600000 </v>
   <v>       0.01200000 </v>
   <v>       0.01200000 </v>
   <v>       0.01200000 </v>
   <v>       0.01200000 </v>
   <v>       0.01200000 </v>
   <v>       0.00600000 </v>
   <v>       0.01200000 </v>
   <v>       0.01200000 </v>
   <v>       0.01200000 </v>
   <v>       0.01200000 </v>
   <v>       0.00600000 </v>
   <v>       0.01200000 </v>
   <v>       0.01200000 </v>
   <v>       0.00600000 </v>
   <v>       0.01200000 </v>
   <v>       0.00600000 </v>
   <v>       0.00200000 </v>
   <v>       0.00600000 </v>
   <v>       0.00600000 </v>
   <v>       0.00600000 </v>
   <v>       0.00600000 </v>
   <v>       0.00600000 </v>
   <v>       0.00600000 </v>
   <v>       0.01200000 </v>
   <v>       0.01200000 </v>
   <v>       0.01200000 </v>
   <v>       0.01200000 </v>
   <v>       0.00600000 </v>
   <v>       0.01200000 </v>
   <v>       0.01200000 </v>
   <v>       0.01200000 </v>
   <v>       0.00600000 </v>
   <v>       0.01200000 </v>
   <v>       0.00600000 </v>
   <v>       0.00200000 </v>
   <v>       0.00600000 </v>
   <v>       0.00600000 </v>
   <v>       0.00600000 </v>
   <v>       0.00600000 </v>
   <v>       0.01200000 </v>
   <v>       0.01200000 </v>
   <v>       0.00600000 </v>
   <v>       0.00200000 </v>
   <v>       0.00600000 </v>
  </varray>
 </kpoints>
 <parameters>
  <separator name="general" >
   <i type="string" name="SYSTEM">FCC Au</i>
   <i type="logical" name="LCOMPAT"> F  </i>
  </separator>
  <separator name="electronic" >
   <i type="string" name="PREC">normal</i>
   <i name="ENMAX">    230.00000000</i>
   <i name="ENAUG">    356.67000000</i>
   <i name="EDIFF">      0.00010000</i>
   <i type="int" name="IALGO">    38</i>
   <i type="int" name="IWAVPR">    10</i>
   <i type="int" name="NBANDS">    12</i>
   <i name="NELECT">     11.00000000</i>
   <i type="int" name="TURBO">     0</i>
   <i type="int" name="IRESTART">     0</i>
   <i type="int" name="NREBOOT">     0</i>
   <i type="int" name="NMIN">     0</i>
   <i name="EREF">      0.00000000</i>
   <separator name="electronic smearing" >
    <i type="int" name="ISMEAR">     1</i>
    <i name="SIGMA">      0.20000000</i>
    <i name="KSPACING">      0.50000000</i>
    <i type="logical" name="KGAMMA"> T  </i>
   </separator>
   <separator name="electronic projectors" >
    <i type="logical" name="LREAL"> F  </i>
    <v name="ROPT">      0.00000000</v>
    <i type="int" name="LMAXPAW">  -100</i>
    <i type="int" name="LMAXMIX">     2</i>
    <i type="logical" name="NLSPLINE"> F  </i>
   </separator>
   <separator name="electronic startup" >
    <i type="int" name="ISTART">     1</i>
    <i type="int" name="ICHARG">     0</i>
    <i type="int" name="INIWAV">     1</i>
   </separator>
   <separator name="electronic spin" >
    <i type="int" name="ISPIN">     1</i>
    <i type="logical" name="LNONCOLLINEAR"> F  </i>
    <v name="MAGMOM">      1.00000000</v>
    <i name="NUPDOWN">     -1.00000000</i>
    <i type="logical" name="LSORBIT"> F  </i>
    <v name="SAXIS">      0.00000000      0.00000000      1.00000000</v>
    <i type="logical" name="LSPIRAL"> F  </i>
    <v name="QSPIRAL">      0.00000000      0.00000000      0.00000000</v>
    <i type="logical" name="LZEROZ"> F  </i>
   </separator>
   <separator name="electronic exchange-correlation" >
    <i type="logical" name="LASPH"> F  </i>
    <i type="logical" name="LMETAGGA"> F  </i>
   </separator>
   <separator name="electronic convergence" >
    <i type="int" name="NELM">    60</i>
    <i type="int" name="NELMDL">     0</i>
    <i type="int" name="NELMIN">     2</i>
    <i name="ENINI">    230.00000000</i>
    <separator name="electronic convergence detail" >
     <i type="logical" name="LDIAG"> T  </i>
     <i type="logical" name="LSUBROT"> F  </i>
     <i name="WEIMIN">      0.00000000</i>
     <i name="EBREAK">      0.00000208</i>
     <i name="DEPER">      0.30000000</i>
     <i type="int" name="NRMM">     4</i>
     <i name="TIME">      0.40000000</i>
    </separator>
   </separator>
   <separator name="electronic mixer" >
    <i name="AMIX">      0.40000000</i>
    <i name="BMIX">      1.00000000</i>
    <i name="AMIN">      0.10000000</i>
    <i name="AMIX_MAG">      1.60000000</i>
    <i name="BMIX_MAG">      1.00000000</i>
    <separator name="electronic mixer details" >
     <i type="int" name="IMIX">     4</i>
     <i type="logical" name="MIXFIRST"> F  </i>
     <i type="int" name="MAXMIX">   -45</i>
     <i name="WC">    100.00000000</i>
     <i type="int" name="INIMIX">     1</i>
     <i type="int" name="MIXPRE">     1</i>
     <i type="int" name="MREMOVE">     5</i>
    </separator>
   </separator>
   <separator name="electronic dipolcorrection" >
    <i type="logical" name="LDIPOL"> F  </i>
    <i type="logical" name="LMONO"> F  </i>
    <i type="int" name="IDIPOL">     0</i>
    <i name="EPSILON">      1.00000000</i>
    <v name="DIPOL">   -100.00000000   -100.00000000   -100.00000000</v>
    <i name="EFIELD">      0.00000000</i>
   </separator>
  </separator>
  <separator name="grids" >
   <i type="int" name="NGX">    12</i>
   <i type="int" name="NGY">    12</i>
   <i type="int" name="NGZ">    12</i>
   <i type="int" name="NGXF">    24</i>
   <i type="int" name="NGYF">    24</i>
   <i type="int" name="NGZF">    24</i>
   <i type="logical" name="ADDGRID"> F  </i>
  </separator>
  <separator name="ionic" >
   <i type="int" name="NSW">     0</i>
   <i type="int" name="IBRION">    -1</i>
   <i type="int" name="MDALGO">     0</i>
   <i type="int" name="ISIF">     2</i>
   <i name="PSTRESS">      0.00000000</i>
   <i name="EDIFFG">      0.00100000</i>
   <i type="int" name="NFREE">     0</i>
   <i name="POTIM">      0.50000000</i>
   <i name="SMASS">     -3.00000000</i>
   <i name="SCALEE">      1.00000000</i>
  </separator>
  <separator name="ionic md" >
   <i name="TEBEG">      0.00010000</i>
   <i name="TEEND">      0.00010000</i>
   <i type="int" name="NBLOCK">     1</i>
   <i type="int" name="KBLOCK">     1</i>
   <i type="int" name="NPACO">   256</i>
   <i name="APACO">     16.00000000</i>
  </separator>
  <separator name="symmetry" >
   <i type="int" name="ISYM">     2</i>
   <i name="SYMPREC">      0.00001000</i>
  </separator>
  <separator name="dos" >
   <i type="int" name="LORBIT">     0</i>
   <v name="RWIGS">     -1.00000000</v>
   <i type="int" name="NEDOS">   301</i>
   <i name="EMIN">     10.00000000</i>
   <i name="EMAX">    -10.00000000</i>
   <i name="EFERMI">      0.00000000</i>
  </separator>
  <separator name="writing" >
   <i type="int" name="NWRITE">     2</i>
   <i type="logical" name="LWAVE"> T  </i>
   <i type="logical" name="LDOWNSAMPLE"> F  </i>
   <i type="logical" name="LCHARG"> T  </i>
   <i type="logical" name="LPARD"> F  </i>
   <i type="logical" name="LVTOT"> F  </i>
   <i type="logical" name="LVHAR"> F  </i>
   <i type="logical" name="LELF"> F  </i>
   <i type="logical" name="LOPTICS"> F  </i>
   <v name="STM">      0.00000000      0.00000000      0.00000000      0.00000000      0.00000000      0.00000000      0.00000000</v>
  </separator>
  <separator name="performance" >
   <i type="int" name="NPAR">     4</i>
   <i type="int" name="NSIM">     4</i>
   <i type="int" name="NBLK">    -1</i>
   <i type="logical" name="LPLANE"> T  </i>
   <i type="logical" name="LSCALAPACK"> T  </i>
   <i type="logical" name="LSCAAWARE"> F  </i>
   <i type="logical" name="LSCALU"> F  </i>
   <i type="logical" name="LASYNC"> F  </i>
   <i type="logical" name="LORBITALREAL"> F  </i>
  </separator>
  <separator name="miscellaneous" >
   <i type="int" name="IDIOT">     3</i>
   <i type="int" name="ISPECIAL">     0</i>
   <i type="logical" name="LMUSIC"> F  </i>
   <v name="POMASS">    196.96600000</v>
   <v name="DARWINR">      0.00000000</v>
   <v name="DARWINV">      1.00000000</v>
   <i type="logical" name="LCORR"> T  </i>
  </separator>
  <i type="logical" name="GGA_COMPAT"> T  </i>
  <i type="logical" name="LBERRY"> F  </i>
  <i type="int" name="ICORELEVEL">     0</i>
  <i type="logical" name="LDAU"> F  </i>
  <i type="int" name="I_CONSTRAINED_M">     0</i>
  <separator name="electronic exchange-correlation" >
   <i type="string" name="GGA">--</i>
   <i type="int" name="VOSKOWN">     0</i>
   <i type="logical" name="LHFCALC"> F  </i>
   <i type="string" name="PRECFOCK"></i>
   <i type="logical" name="LSYMGRAD"> F  </i>
   <i type="logical" name="LHFONE"> F  </i>
   <i type="logical" name="LRHFCALC"> F  </i>
   <i type="logical" name="LTHOMAS"> F  </i>
   <i type="logical" name="LMODELHF"> F  </i>
   <i name="ENCUT4O">     -1.00000000</i>
   <i type="int" name="EXXOEP">     0</i>
   <i type="int" name="FOURORBIT">     0</i>
   <i name="AEXX">      0.00000000</i>
   <i name="HFALPHA">      0.00000000</i>
   <i name="MCALPHA">      0.00000000</i>
   <i name="ALDAX">      1.00000000</i>
   <i name="AGGAX">      1.00000000</i>
   <i name="ALDAC">      1.00000000</i>
   <i name="AGGAC">      1.00000000</i>
   <i type="int" name="NKREDX">     1</i>
   <i type="int" name="NKREDY">     1</i>
   <i type="int" name="NKREDZ">     1</i>
   <i type="logical" name="SHIFTRED"> F  </i>
   <i type="logical" name="ODDONLY"> F  </i>
   <i type="logical" name="EVENONLY"> F  </i>
   <i type="int" name="LMAXFOCK">     0</i>
   <i type="int" name="NMAXFOCKAE">     0</i>
   <i type="logical" name="LFOCKAEDFT"> F  </i>
   <i name="HFSCREEN">      0.00000000</i>
   <i name="HFSCREENC">      0.00000000</i>
   <i type="int" name="NBANDSGWLOW">     0</i>
  </separator>
  <separator name="vdW DFT" >
   <i type="logical" name="LUSE_VDW"> F  </i>
   <i name="Zab_VDW">     -0.84910000</i>
   <i name="PARAM1">      0.12340000</i>
   <i name="PARAM2">      1.00000000</i>
   <i name="PARAM3">      0.00000000</i>
  </separator>
  <separator name="model GW" >
   <i type="int" name="MODEL_GW">     0</i>
   <i name="MODEL_EPS0">     10.06665143</i>
   <i name="MODEL_ALPHA">      1.00000000</i>
  </separator>
  <separator name="linear response parameters" >
   <i type="logical" name="LEPSILON"> F  </i>
   <i type="logical" name="LRPA"> F  </i>
   <i type="logical" name="LNABLA"> F  </i>
   <i type="logical" name="LVEL"> F  </i>
   <i type="int" name="KINTER">     0</i>
   <i name="CSHIFT">      0.10000000</i>
   <i name="OMEGAMAX">     -1.00000000</i>
   <i name="DEG_THRESHOLD">      0.00200000</i>
   <i name="RTIME">     -0.10000000</i>
   <i name="WPLASMAI">      0.00000000</i>
   <v name="DFIELD">      0.00000000      0.00000000      0.00000000</v>
   <v name="WPLASMA">      0.00000000      0.00000000      0.00000000      0.00000000      0.00000000      0.00000000      0.00000000      0.00000000      0.00000000</v>
  </separator>
  <separator name="orbital magnetization" >
   <i type="logical" name="NUCIND"> F  </i>
   <v name="MAGPOS">      0.00000000      0.00000000      0.00000000</v>
   <i type="logical" name="LNICSALL"> T  </i>
   <i type="logical" name="ORBITALMAG"> F  </i>
   <i type="logical" name="LMAGBLOCH"> F  </i>
   <i type="logical" name="LCHIMAG"> F  </i>
   <i type="logical" name="LGAUGE"> T  </i>
   <i type="int" name="MAGATOM">     0</i>
   <v name="MAGDIPOL">      0.00000000      0.00000000      0.00000000</v>
   <v name="AVECCONST">      0.00000000      0.00000000      0.00000000</v>
  </separator>
  <separator name="response functions" >
   <i type="logical" name="LADDER"> F  </i>
   <i type="logical" name="LRPAFORCE"> F  </i>
   <i type="logical" name="LFXC"> F  </i>
   <i type="logical" name="LHARTREE"> T  </i>
   <i type="int" name="IBSE">     0</i>
   <v type="int" name="KPOINT">    -1     0     0     0</v>
   <i type="logical" name="LTCTE"> F  </i>
   <i type="logical" name="LTETE"> F  </i>
   <i type="logical" name="LTRIPLET"> F  </i>
   <i type="logical" name="LFXCEPS"> F  </i>
   <i type="logical" name="LFXHEG"> F  </i>
   <i type="int" name="NATURALO">     2</i>
   <i type="logical" name="L2ORDER"> F  </i>
   <i type="logical" name="LMP2LT"> F  </i>
   <i type="logical" name="LUSEW"> F  </i>
   <i name="ENCUTGW">     -2.00000000</i>
   <i name="ENCUTGWSOFT">     -2.00000000</i>
   <i name="ENCUTLF">     -1.00000000</i>
   <i type="int" name="LMAXMP2">    -1</i>
   <i name="SCISSOR">      0.00000000</i>
   <i type="int" name="NOMEGA">     0</i>
   <i type="int" name="NOMEGAR">     0</i>
   <i type="int" name="NBANDSGW">    -1</i>
   <i type="int" name="NBANDSO">    -1</i>
   <i type="int" name="NBANDSV">    -1</i>
   <i type="int" name="NELM">     1</i>
   <i type="int" name="NELMHF">     1</i>
   <i type="int" name="DIM">     3</i>
   <i type="int" name="ANTIRES">     0</i>
   <i name="OMEGAMAX">    -30.00000000</i>
   <i name="OMEGAMIN">    -30.00000000</i>
   <i name="OMEGATL">   -200.00000000</i>
   <i type="int" name="OMEGAGRID">   140</i>
   <i name="CSHIFT">     -0.10000000</i>
   <i type="logical" name="SELFENERGY"> F  </i>
   <i type="logical" name="LSPECTRAL"> F  </i>
   <i type="logical" name="LSPECTRALGW"> F  </i>
   <i type="logical" name="LSINGLES"> F  </i>
   <i type="logical" name="LFERMIGW"> F  </i>
   <i type="logical" name="ODDONLYGW"> F  </i>
   <i type="logical" name="EVENONLYGW"> F  </i>
   <i type="int" name="NKREDLFX">     1</i>
   <i type="int" name="NKREDLFY">     1</i>
   <i type="int" name="NKREDLFZ">     1</i>
   <i type="int" name="MAXMEM">  2800</i>
   <i type="int" name="TELESCOPE">     0</i>
   <i type="int" name="TAUPAR">     1</i>
   <i type="int" name="OMEGAPAR">    -1</i>
   <i name="LAMBDA">      1.00000000</i>
  </separator>
  <separator name="External order field" >
   <i name="OFIELD_KAPPA">      0.00000000</i>
   <v name="OFIELD_K">      0.00000000      0.00000000      0.00000000</v>
   <i name="OFIELD_Q6_NEAR">      0.00000000</i>
   <i name="OFIELD_Q6_FAR">      0.00000000</i>
   <i name="OFIELD_A">      0.00000000</i>
  </separator>
 </parameters>
 <atominfo>
  <atoms>       1 </atoms>
  <types>       1 </types>
  <array name="atoms" >
   <dimension dim="1">ion</dimension>
   <field type="string">element</field>
   <field type="int">atomtype</field>
   <set>
    <rc><c>Au</c><c>   1</c></rc>
   </set>
  </array>
  <array name="atomtypes" >
   <dimension dim="1">type</dimension>
   <field type="int">atomspertype</field>
   <field type="string">element</field>
   <field>mass</field>
   <field>valence</field>
   <field type="string">pseudopotential</field>
   <set>
    <rc><c>   1</c><c>Au</c><c>    196.96600000</c><c>     11.00000000</c><c> PAW Au 04Feb1998                       </c></rc>
   </set>
  </array>
 </atominfo>
 <structure name="initialpos" >
  <crystal>
   <varray name="basis" >
    <v>       0.00000000       2.03189500       2.03189500 </v>
    <v>       2.03189500       0.00000000       2.03189500 </v>
    <v>       2.03189500       2.03189500       0.00000000 </v>
   </varray>
   <i name="volume">     16.77775239 </i>
   <varray name="rec_basis" >
    <v>      -0.24607571       0.24607571       0.24607571 </v>
    <v>       0.24607571      -0.24607571       0.24607571 </v>
    <v>       0.24607571       0.24607571      -0.24607571 </v>
   </varray>
  </crystal>
  <varray name="positions" >
   <v>       0.00000000       0.00000000       0.00000000 </v>
  </varray>
 </structure>
 <calculation>
  <scstep>
   <time name="dav">    0.17    0.34</time>
   <time name="total">    0.17    0.35</time>
   <energy>
    <i name="alphaZ">    109.54264301 </i>
    <i name="ewald">   -982.89350627 </i>
    <i name="hartreedc">   -109.69793391 </i>
    <i name="XCdc">     15.77833347 </i>
    <i name="pawpsdc">    754.79542916 </i>
    <i name="pawaedc">   -736.98625952 </i>
    <i name="eentropy">      0.00089710 </i>
    <i name="bandstr">     15.67163142 </i>
    <i name="atom">    929.39633208 </i>
    <i name="e_fr_energy">     -4.39243347 </i>
    <i name="e_wo_entrp">     -4.39333057 </i>
    <i name="e_0_energy">     -4.39273250 </i>
   </energy>
  </scstep>
  <scstep>
   <time name="dav">    0.16    0.33</time>
   <time name="total">    0.17    0.34</time>
   <energy>
    <i name="alphaZ">    109.54264301 </i>
    <i name="ewald">   -982.89350627 </i>
    <i name="hartreedc">   -109.69126218 </i>
    <i name="XCdc">     15.77801125 </i>
    <i name="pawpsdc">    754.78402463 </i>
    <i name="pawaedc">   -736.97494658 </i>
    <i name="eentropy">      0.00089716 </i>
    <i name="bandstr">     15.66537371 </i>
    <i name="atom">    929.39633208 </i>
    <i name="e_fr_energy">     -4.39243319 </i>
    <i name="e_wo_entrp">     -4.39333036 </i>
    <i name="e_0_energy">     -4.39273225 </i>
   </energy>
  </scstep>
  <structure>
   <crystal>
    <varray name="basis" >
     <v>       0.00000000       2.03189500       2.03189500 </v>
     <v>       2.03189500       0.00000000       2.03189500 </v>
     <v>       2.03189500       2.03189500       0.00000000 </v>
    </varray>
    <i name="volume">     16.77775239 </i>
    <varray name="rec_basis" >
     <v>      -0.24607571       0.24607571       0.24607571 </v>
     <v>       0.24607571      -0.24607571       0.24607571 </v>
     <v>       0.24607571       0.24607571      -0.24607571 </v>
    </varray>
   </crystal>
   <varray name="positions" >
    <v>       0.00000000       0.00000000       0.00000000 </v>
   </varray>
  </structure>
  <varray name="forces" >
   <v>       0.00000000       0.00000000       0.00000000 </v>
  </varray>
  <varray name="stress" >
   <v>     -40.03926752       0.00000000      -0.00000000 </v>
   <v>       0.00000000     -40.03926752       0.00000000 </v>
   <v>      -0.00000000       0.00000000     -40.03926752 </v>
  </varray>
  <energy>
   <i name="e_fr_energy">     -4.39243319 </i>
   <i name="e_wo_entrp">     -4.39273225 </i>
   <i name="e_0_energy">      0.00089716 </i>
  </energy>
  <time name="totalsc">    0.51    1.08</time>
  <eigenvalues>
   <array>
    <dimension dim="1">band</dimension>
    <dimension dim="2">kpoint</dimension>
    <dimension dim="3">spin</dimension>
    <field>eigene</field>
    <field>occ</field>
    <set>
     <set comment="spin 1">
      <set comment="kpoint 1">
       <r>   -4.2516    1.0000 </r>
       <r>    0.9288    1.0000 </r>
       <r>    0.9903    1.0000 </r>
       <r>    0.9903    1.0000 </r>
       <r>    2.5294    1.0000 </r>
       <r>    2.5294    1.0000 </r>
       <r>   21.1866    0.0000 </r>
       <r>   24.3389    0.0000 </r>
       <r>   25.1133    0.0000 </r>
       <r>   25.1133    0.0000 </r>
       <r>   29.9689    0.0000 </r>
       <r>   33.0548    0.0000 </r>
      </set>
      <set comment="kpoint 2">
       <r>   -3.7913    1.0000 </r>
       <r>    0.7735    1.0000 </r>
       <r>    1.1321    1.0000 </r>
       <r>    1.1658    1.0000 </r>
       <r>    2.3788    1.0000 </r>
       <r>    2.5818    1.0000 </r>
       <r>   21.5258    0.0000 </r>
       <r>   22.3767    0.0000 </r>
       <r>   24.7502    0.0000 </r>
       <r>   26.0499    0.0000 </r>
       <r>   29.4288    0.0000 </r>
       <r>   32.0878    0.0000 </r>
      </set>
      <set comment="kpoint 3">
       <r>   -2.7959    1.0000 </r>
       <r>    0.6521    1.0000 </r>
       <r>    1.2877    1.0000 </r>
       <r>    1.3119    1.0000 </r>
       <r>    2.3865    1.0000 </r>
       <r>    2.8006    1.0000 </r>
       <r>   18.4907    0.0000 </r>
       <r>   22.1374    0.0000 </r>
       <r>   24.9410    0.0000 </r>
       <r>   27.3436    0.0000 </r>
       <r>   27.4034    0.0000 </r>
       <r>   29.8667    0.0000 </r>
      </set>
      <set comment="kpoint 4">
       <r>   -1.9084    1.0000 </r>
       <r>    1.1031    1.0000 </r>
       <r>    1.1919    1.0000 </r>
       <r>    1.3332    1.0000 </r>
       <r>    2.8856    1.0000 </r>
       <r>    3.3802    1.0000 </r>
       <r>   14.4465    0.0000 </r>
       <r>   21.4459    0.0000 </r>
       <r>   23.9766    0.0000 </r>
       <r>   26.1947    0.0000 </r>
       <r>   28.5848    0.0000 </r>
       <r>   29.6889    0.0000 </r>
      </set>
      <set comment="kpoint 5">
       <r>   -1.6892    1.0000 </r>
       <r>    0.9498    1.0000 </r>
       <r>    1.0209    1.0000 </r>
       <r>    2.8634    1.0000 </r>
       <r>    3.4995    1.0000 </r>
       <r>    4.2715    1.0000 </r>
       <r>   10.6450   -0.0000 </r>
       <r>   20.6721    0.0000 </r>
       <r>   23.0333    0.0000 </r>
       <r>   24.1508    0.0000 </r>
       <r>   30.3933    0.0000 </r>
       <r>   30.6775    0.0000 </r>
      </set>
      <set comment="kpoint 6">
       <r>   -1.6854    1.0000 </r>
       <r>    0.8818    1.0000 </r>
       <r>    0.9798    1.0000 </r>
       <r>    3.2897    1.0000 </r>
       <r>    3.7872    1.0000 </r>
       <r>    5.1360    1.0001 </r>
       <r>    8.9749   -0.0000 </r>
       <r>   20.4589    0.0000 </r>
       <r>   23.0857    0.0000 </r>
       <r>   23.2035    0.0000 </r>
       <r>   30.8956    0.0000 </r>
       <r>   30.9809    0.0000 </r>
      </set>
      <set comment="kpoint 7">
       <r>   -1.7152    1.0000 </r>
       <r>    0.9803    1.0000 </r>
       <r>    1.0932    1.0000 </r>
       <r>    2.2870    1.0000 </r>
       <r>    3.5799    1.0000 </r>
       <r>    3.7075    1.0000 </r>
       <r>   11.8244    0.0000 </r>
       <r>   20.9106    0.0000 </r>
       <r>   23.5081    0.0000 </r>
       <r>   24.3447    0.0000 </r>
       <r>   30.3394    0.0000 </r>
       <r>   30.4886    0.0000 </r>
      </set>
      <set comment="kpoint 8">
       <r>   -2.1320    1.0000 </r>
       <r>    0.9070    1.0000 </r>
       <r>    1.2071    1.0000 </r>
       <r>    1.2691    1.0000 </r>
       <r>    2.7935    1.0000 </r>
       <r>    3.0647    1.0000 </r>
       <r>   15.8034    0.0000 </r>
       <r>   21.8273    0.0000 </r>
       <r>   24.4774    0.0000 </r>
       <r>   26.3283    0.0000 </r>
       <r>   28.2558    0.0000 </r>
       <r>   30.0760    0.0000 </r>
      </set>
      <set comment="kpoint 9">
       <r>   -3.1616    1.0000 </r>
       <r>    0.6415    1.0000 </r>
       <r>    1.2792    1.0000 </r>
       <r>    1.2932    1.0000 </r>
       <r>    2.3405    1.0000 </r>
       <r>    2.6743    1.0000 </r>
       <r>   19.7781    0.0000 </r>
       <r>   22.2338    0.0000 </r>
       <r>   24.9486    0.0000 </r>
       <r>   26.4992    0.0000 </r>
       <r>   28.1326    0.0000 </r>
       <r>   30.7439    0.0000 </r>
      </set>
      <set comment="kpoint 10">
       <r>   -4.0174    1.0000 </r>
       <r>    0.8193    1.0000 </r>
       <r>    1.0881    1.0000 </r>
       <r>    1.0934    1.0000 </r>
       <r>    2.4043    1.0000 </r>
       <r>    2.5882    1.0000 </r>
       <r>   21.4317    0.0000 </r>
       <r>   23.4197    0.0000 </r>
       <r>   24.8584    0.0000 </r>
       <r>   25.2386    0.0000 </r>
       <r>   30.5818    0.0000 </r>
       <r>   32.2827    0.0000 </r>
      </set>
      <set comment="kpoint 11">
       <r>   -3.5628    1.0000 </r>
       <r>    0.5999    1.0000 </r>
       <r>    1.2929    1.0000 </r>
       <r>    1.2977    1.0000 </r>
       <r>    2.1771    1.0000 </r>
       <r>    2.7028    1.0000 </r>
       <r>   21.8296    0.0000 </r>
       <r>   22.5517    0.0000 </r>
       <r>   24.2027    0.0000 </r>
       <r>   24.8326    0.0000 </r>
       <r>   29.8164    0.0000 </r>
       <r>   31.5265    0.0000 </r>
      </set>
      <set comment="kpoint 12">
       <r>   -2.7355    1.0000 </r>
       <r>    0.3470    1.0000 </r>
       <r>    1.3920    1.0000 </r>
       <r>    1.5803    1.0000 </r>
       <r>    2.1235    1.0000 </r>
       <r>    2.9271    1.0000 </r>
       <r>   20.0354    0.0000 </r>
       <r>   21.8452    0.0000 </r>
       <r>   23.8164    0.0000 </r>
       <r>   25.0718    0.0000 </r>
       <r>   27.7820    0.0000 </r>
       <r>   30.6877    0.0000 </r>
      </set>
      <set comment="kpoint 13">
       <r>   -1.7210    1.0000 </r>
       <r>    0.4335    1.0000 </r>
       <r>    1.0844    1.0000 </r>
       <r>    1.5894    1.0000 </r>
       <r>    2.7977    1.0000 </r>
       <r>    3.5181    1.0000 </r>
       <r>   16.0350    0.0000 </r>
       <r>   21.3007    0.0000 </r>
       <r>   22.7534    0.0000 </r>
       <r>   24.9390    0.0000 </r>
       <r>   28.5802    0.0000 </r>
       <r>   30.3893    0.0000 </r>
      </set>
      <set comment="kpoint 14">
       <r>   -1.3351    1.0000 </r>
       <r>    0.7765    1.0000 </r>
       <r>    1.3228    1.0000 </r>
       <r>    1.4849    1.0000 </r>
       <r>    3.5633    1.0000 </r>
       <r>    4.7167    1.0000 </r>
       <r>   12.0205    0.0000 </r>
       <r>   20.7945    0.0000 </r>
       <r>   21.4895    0.0000 </r>
       <r>   23.6351    0.0000 </r>
       <r>   30.4100    0.0000 </r>
       <r>   31.5291    0.0000 </r>
      </set>
      <set comment="kpoint 15">
       <r>   -1.3141    1.0000 </r>
       <r>    0.6454    1.0000 </r>
       <r>    1.2842    1.0000 </r>
       <r>    2.2310    1.0000 </r>
       <r>    3.7404    1.0000 </r>
       <r>    6.5958   -0.0000 </r>
       <r>    8.9580   -0.0000 </r>
       <r>   20.3240    0.0000 </r>
       <r>   21.1442    0.0000 </r>
       <r>   22.8588    0.0000 </r>
       <r>   30.8867    0.0000 </r>
       <r>   31.9382    0.0000 </r>
      </set>
      <set comment="kpoint 16">
       <r>   -1.2968    1.0000 </r>
       <r>    0.7278    1.0000 </r>
       <r>    1.3106    1.0000 </r>
       <r>    1.8958    1.0000 </r>
       <r>    3.4159    1.0000 </r>
       <r>    5.4252    1.0274 </r>
       <r>   10.8728   -0.0000 </r>
       <r>   20.0179    0.0000 </r>
       <r>   21.5771    0.0000 </r>
       <r>   23.8078    0.0000 </r>
       <r>   30.0498    0.0000 </r>
       <r>   31.5889    0.0000 </r>
      </set>
      <set comment="kpoint 17">
       <r>   -1.4781    1.0000 </r>
       <r>    0.7197    1.0000 </r>
       <r>    1.0343    1.0000 </r>
       <r>    1.5025    1.0000 </r>
       <r>    2.7076    1.0000 </r>
       <r>    4.0696    1.0000 </r>
       <r>   14.6915    0.0000 </r>
       <r>   20.2818    0.0000 </r>
       <r>   22.6827    0.0000 </r>
       <r>   25.8084    0.0000 </r>
       <r>   28.1956    0.0000 </r>
       <r>   30.6863    0.0000 </r>
      </set>
      <set comment="kpoint 18">
       <r>   -2.3771    1.0000 </r>
       <r>    0.3908    1.0000 </r>
       <r>    1.2848    1.0000 </r>
       <r>    1.6032    1.0000 </r>
       <r>    2.1188    1.0000 </r>
       <r>    3.1932    1.0000 </r>
       <r>   18.6310    0.0000 </r>
       <r>   20.9205    0.0000 </r>
       <r>   24.3871    0.0000 </r>
       <r>   25.3995    0.0000 </r>
       <r>   28.8862    0.0000 </r>
       <r>   29.5380    0.0000 </r>
      </set>
      <set comment="kpoint 19">
       <r>   -3.3525    1.0000 </r>
       <r>    0.6035    1.0000 </r>
       <r>    1.2955    1.0000 </r>
       <r>    1.3057    1.0000 </r>
       <r>    2.2180    1.0000 </r>
       <r>    2.7107    1.0000 </r>
       <r>   21.0252    0.0000 </r>
       <r>   21.9901    0.0000 </r>
       <r>   24.3150    0.0000 </r>
       <r>   26.1418    0.0000 </r>
       <r>   28.5007    0.0000 </r>
       <r>   31.5239    0.0000 </r>
      </set>
      <set comment="kpoint 20">
       <r>   -2.1842    1.0000 </r>
       <r>   -0.0159    1.0000 </r>
       <r>    1.5475    1.0000 </r>
       <r>    1.9689    1.0000 </r>
       <r>    2.1652    1.0000 </r>
       <r>    3.0532    1.0000 </r>
       <r>   20.5018    0.0000 </r>
       <r>   21.6369    0.0000 </r>
       <r>   22.7280    0.0000 </r>
       <r>   23.6174    0.0000 </r>
       <r>   24.8265    0.0000 </r>
       <r>   32.1598    0.0000 </r>
      </set>
      <set comment="kpoint 21">
       <r>   -1.3823    1.0000 </r>
       <r>   -0.2450    1.0000 </r>
       <r>    1.2836    1.0000 </r>
       <r>    2.3243    1.0000 </r>
       <r>    2.8354    1.0000 </r>
       <r>    3.5420    1.0000 </r>
       <r>   17.7630    0.0000 </r>
       <r>   19.7257    0.0000 </r>
       <r>   21.3642    0.0000 </r>
       <r>   24.0662    0.0000 </r>
       <r>   25.4531    0.0000 </r>
       <r>   32.2286    0.0000 </r>
      </set>
      <set comment="kpoint 22">
       <r>   -0.9155    1.0000 </r>
       <r>    0.0179    1.0000 </r>
       <r>    1.0329    1.0000 </r>
       <r>    2.1882    1.0000 </r>
       <r>    3.6518    1.0000 </r>
       <r>    4.9901    1.0000 </r>
       <r>   13.6639    0.0000 </r>
       <r>   19.0373    0.0000 </r>
       <r>   19.6171    0.0000 </r>
       <r>   23.6797    0.0000 </r>
       <r>   28.6681    0.0000 </r>
       <r>   32.1864    0.0000 </r>
      </set>
      <set comment="kpoint 23">
       <r>   -0.7957    1.0000 </r>
       <r>    0.2858    1.0000 </r>
       <r>    1.2396    1.0000 </r>
       <r>    1.9855    1.0000 </r>
       <r>    3.7773    1.0000 </r>
       <r>    7.4682   -0.0000 </r>
       <r>   10.0582   -0.0000 </r>
       <r>   17.7462    0.0000 </r>
       <r>   19.6886    0.0000 </r>
       <r>   23.2632    0.0000 </r>
       <r>   31.2751    0.0000 </r>
       <r>   32.8514    0.0000 </r>
      </set>
      <set comment="kpoint 24">
       <r>   -0.6213    1.0000 </r>
       <r>    0.3522    1.0000 </r>
       <r>    1.2605    1.0000 </r>
       <r>    1.8795    1.0000 </r>
       <r>    3.3699    1.0000 </r>
       <r>    7.3065   -0.0000 </r>
       <r>   10.5977   -0.0000 </r>
       <r>   16.6540    0.0000 </r>
       <r>   20.8956    0.0000 </r>
       <r>   23.4427    0.0000 </r>
       <r>   30.4267    0.0000 </r>
       <r>   32.7994    0.0000 </r>
      </set>
      <set comment="kpoint 25">
       <r>   -0.5382    1.0000 </r>
       <r>    0.4290    1.0000 </r>
       <r>    0.6906    1.0000 </r>
       <r>    1.9608    1.0000 </r>
       <r>    2.6660    1.0000 </r>
       <r>    5.4996    1.0340 </r>
       <r>   14.0027    0.0000 </r>
       <r>   16.5708    0.0000 </r>
       <r>   22.1388    0.0000 </r>
       <r>   24.9080    0.0000 </r>
       <r>   28.2201    0.0000 </r>
       <r>   32.6157    0.0000 </r>
      </set>
      <set comment="kpoint 26">
       <r>   -1.3214    1.0000 </r>
       <r>    0.3108    1.0000 </r>
       <r>    1.0060    1.0000 </r>
       <r>    1.8355    1.0000 </r>
       <r>    2.2595    1.0000 </r>
       <r>    4.1607    1.0000 </r>
       <r>   16.1489    0.0000 </r>
       <r>   18.8262    0.0000 </r>
       <r>   23.1560    0.0000 </r>
       <r>   26.2272    0.0000 </r>
       <r>   27.3059    0.0000 </r>
       <r>   31.2207    0.0000 </r>
      </set>
      <set comment="kpoint 27">
       <r>   -2.2925    1.0000 </r>
       <r>    0.5744    1.0000 </r>
       <r>    1.2576    1.0000 </r>
       <r>    1.4090    1.0000 </r>
       <r>    2.4501    1.0000 </r>
       <r>    3.1191    1.0000 </r>
       <r>   17.2488    0.0000 </r>
       <r>   21.8632    0.0000 </r>
       <r>   23.9660    0.0000 </r>
       <r>   26.3963    0.0000 </r>
       <r>   28.1669    0.0000 </r>
       <r>   29.6143    0.0000 </r>
      </set>
      <set comment="kpoint 28">
       <r>   -1.2420    1.0000 </r>
       <r>   -0.6304    1.0000 </r>
       <r>    2.1798    1.0000 </r>
       <r>    2.8655    1.0000 </r>
       <r>    3.3006    1.0000 </r>
       <r>    3.4761    1.0000 </r>
       <r>   17.6975    0.0000 </r>
       <r>   18.7050    0.0000 </r>
       <r>   18.9728    0.0000 </r>
       <r>   22.9284    0.0000 </r>
       <r>   24.8505    0.0000 </r>
       <r>   34.6519    0.0000 </r>
      </set>
      <set comment="kpoint 29">
       <r>   -1.0959    1.0000 </r>
       <r>   -0.7410    1.0000 </r>
       <r>    2.2298    1.0000 </r>
       <r>    3.1708    1.0000 </r>
       <r>    3.6671    1.0000 </r>
       <r>    5.0393    1.0000 </r>
       <r>   14.8631    0.0000 </r>
       <r>   17.0020    0.0000 </r>
       <r>   17.6278    0.0000 </r>
       <r>   23.9482    0.0000 </r>
       <r>   25.8571    0.0000 </r>
       <r>   34.2227    0.0000 </r>
      </set>
      <set comment="kpoint 30">
       <r>   -0.9259    1.0000 </r>
       <r>   -0.4225    1.0000 </r>
       <r>    1.8675    1.0000 </r>
       <r>    2.8602    1.0000 </r>
       <r>    3.8797    1.0000 </r>
       <r>    7.6954   -0.0000 </r>
       <r>   11.6229    0.0000 </r>
       <r>   15.2596    0.0000 </r>
       <r>   17.7396    0.0000 </r>
       <r>   24.1611    0.0000 </r>
       <r>   28.6106    0.0000 </r>
       <r>   33.2137    0.0000 </r>
      </set>
      <set comment="kpoint 31">
       <r>   -0.6283    1.0000 </r>
       <r>    0.0944    1.0000 </r>
       <r>    1.3116    1.0000 </r>
       <r>    2.5232    1.0000 </r>
       <r>    3.5456    1.0000 </r>
       <r>    8.9164   -0.0000 </r>
       <r>   11.0570   -0.0000 </r>
       <r>   13.5813    0.0000 </r>
       <r>   19.0884    0.0000 </r>
       <r>   23.9194    0.0000 </r>
       <r>   31.7834    0.0000 </r>
       <r>   32.2004    0.0000 </r>
      </set>
      <set comment="kpoint 32">
       <r>   -0.3401    1.0000 </r>
       <r>    0.3953    1.0000 </r>
       <r>    0.8068    1.0000 </r>
       <r>    2.1577    1.0000 </r>
       <r>    3.1243    1.0000 </r>
       <r>    7.1312   -0.0000 </r>
       <r>   12.4650    0.0000 </r>
       <r>   14.5827    0.0000 </r>
       <r>   20.8964    0.0000 </r>
       <r>   23.8158    0.0000 </r>
       <r>   30.0942    0.0000 </r>
       <r>   33.0492    0.0000 </r>
      </set>
      <set comment="kpoint 33">
       <r>   -0.9328    1.0000 </r>
       <r>    0.6259    1.0000 </r>
       <r>    1.1290    1.0000 </r>
       <r>    1.6504    1.0000 </r>
       <r>    3.0371    1.0000 </r>
       <r>    5.4802    1.0355 </r>
       <r>   12.4038    0.0000 </r>
       <r>   18.3185    0.0000 </r>
       <r>   21.8711    0.0000 </r>
       <r>   24.3837    0.0000 </r>
       <r>   29.0490    0.0000 </r>
       <r>   32.0704    0.0000 </r>
      </set>
      <set comment="kpoint 34">
       <r>   -1.6362    1.0000 </r>
       <r>    0.9835    1.0000 </r>
       <r>    1.2370    1.0000 </r>
       <r>    1.4873    1.0000 </r>
       <r>    3.1705    1.0000 </r>
       <r>    3.8901    1.0000 </r>
       <r>   13.1877    0.0000 </r>
       <r>   21.1350    0.0000 </r>
       <r>   22.7727    0.0000 </r>
       <r>   25.0471    0.0000 </r>
       <r>   29.4395    0.0000 </r>
       <r>   30.4402    0.0000 </r>
      </set>
      <set comment="kpoint 35">
       <r>   -1.3621    1.0000 </r>
       <r>   -1.0356    1.0000 </r>
       <r>    3.5635    1.0000 </r>
       <r>    3.5671    1.0000 </r>
       <r>    3.9098    1.0000 </r>
       <r>    5.5233    1.0266 </r>
       <r>   13.4784    0.0000 </r>
       <r>   16.2662    0.0000 </r>
       <r>   16.6002    0.0000 </r>
       <r>   23.2618    0.0000 </r>
       <r>   25.6479    0.0000 </r>
       <r>   35.5437    0.0000 </r>
      </set>
      <set comment="kpoint 36">
       <r>   -1.2879    1.0000 </r>
       <r>   -0.9842    1.0000 </r>
       <r>    3.1719    1.0000 </r>
       <r>    3.5160    1.0000 </r>
       <r>    4.0630    1.0000 </r>
       <r>    7.5634   -0.0000 </r>
       <r>   11.5961    0.0000 </r>
       <r>   15.2267    0.0000 </r>
       <r>   16.1954    0.0000 </r>
       <r>   24.2077    0.0000 </r>
       <r>   26.2107    0.0000 </r>
       <r>   34.6654    0.0000 </r>
      </set>
      <set comment="kpoint 37">
       <r>   -0.9809    1.0000 </r>
       <r>   -0.5149    1.0000 </r>
       <r>    2.1617    1.0000 </r>
       <r>    3.0337    1.0000 </r>
       <r>    3.8765    1.0000 </r>
       <r>    9.1366   -0.0000 </r>
       <r>   10.7304   -0.0000 </r>
       <r>   13.9361    0.0000 </r>
       <r>   17.3879    0.0000 </r>
       <r>   24.3520    0.0000 </r>
       <r>   28.6178    0.0000 </r>
       <r>   33.3769    0.0000 </r>
      </set>
      <set comment="kpoint 38">
       <r>   -0.6629    1.0000 </r>
       <r>    0.1425    1.0000 </r>
       <r>    1.2676    1.0000 </r>
       <r>    2.2968    1.0000 </r>
       <r>    3.6734    1.0000 </r>
       <r>    9.0068   -0.0000 </r>
       <r>    9.5564   -0.0000 </r>
       <r>   15.5939    0.0000 </r>
       <r>   19.2885    0.0000 </r>
       <r>   23.6424    0.0000 </r>
       <r>   31.4973    0.0000 </r>
       <r>   32.5633    0.0000 </r>
      </set>
      <set comment="kpoint 39">
       <r>   -0.9883    1.0000 </r>
       <r>    0.4693    1.0000 </r>
       <r>    1.5560    1.0000 </r>
       <r>    1.7547    1.0000 </r>
       <r>    3.6137    1.0000 </r>
       <r>    7.4344   -0.0000 </r>
       <r>    9.1112   -0.0000 </r>
       <r>   18.6993    0.0000 </r>
       <r>   20.9076    0.0000 </r>
       <r>   22.9994    0.0000 </r>
       <r>   30.7823    0.0000 </r>
       <r>   32.4157    0.0000 </r>
      </set>
      <set comment="kpoint 40">
       <r>   -1.5536    1.0000 </r>
       <r>    0.8204    1.0000 </r>
       <r>    1.0987    1.0000 </r>
       <r>    2.6581    1.0000 </r>
       <r>    3.6968    1.0000 </r>
       <r>    5.3023    1.0053 </r>
       <r>    9.6646   -0.0000 </r>
       <r>   20.5941    0.0000 </r>
       <r>   22.2163    0.0000 </r>
       <r>   23.3719    0.0000 </r>
       <r>   30.7332    0.0000 </r>
       <r>   31.2587    0.0000 </r>
      </set>
      <set comment="kpoint 41">
       <r>   -1.4386    1.0000 </r>
       <r>   -1.1217    1.0000 </r>
       <r>    3.6887    1.0000 </r>
       <r>    3.8605    1.0000 </r>
       <r>    4.0770    1.0000 </r>
       <r>    6.7448   -0.0000 </r>
       <r>   11.8335    0.0000 </r>
       <r>   15.7538    0.0000 </r>
       <r>   16.1215    0.0000 </r>
       <r>   23.4016    0.0000 </r>
       <r>   25.8180    0.0000 </r>
       <r>   35.3375    0.0000 </r>
      </set>
      <set comment="kpoint 42">
       <r>   -1.2086    1.0000 </r>
       <r>   -0.9015    1.0000 </r>
       <r>    2.8013    1.0000 </r>
       <r>    3.4484    1.0000 </r>
       <r>    3.9028    1.0000 </r>
       <r>    6.3254   -0.0001 </r>
       <r>   13.1152    0.0000 </r>
       <r>   15.8283    0.0000 </r>
       <r>   16.6665    0.0000 </r>
       <r>   24.0923    0.0000 </r>
       <r>   26.0870    0.0000 </r>
       <r>   34.6086    0.0000 </r>
      </set>
      <set comment="kpoint 43">
       <r>   -0.8677    1.0000 </r>
       <r>   -0.2359    1.0000 </r>
       <r>    1.4266    1.0000 </r>
       <r>    2.5485    1.0000 </r>
       <r>    3.8276    1.0000 </r>
       <r>    6.2404   -0.0008 </r>
       <r>   12.5795    0.0000 </r>
       <r>   17.1772    0.0000 </r>
       <r>   18.4379    0.0000 </r>
       <r>   23.8774    0.0000 </r>
       <r>   28.6228    0.0000 </r>
       <r>   32.8273    0.0000 </r>
      </set>
      <set comment="kpoint 44">
       <r>   -1.0376    1.0000 </r>
       <r>    0.5195    1.0000 </r>
       <r>    1.2705    1.0000 </r>
       <r>    1.6869    1.0000 </r>
       <r>    3.7602    1.0000 </r>
       <r>    5.9503   -0.0336 </r>
       <r>   10.9608   -0.0000 </r>
       <r>   19.8029    0.0000 </r>
       <r>   20.2508    0.0000 </r>
       <r>   23.0852    0.0000 </r>
       <r>   30.9711    0.0000 </r>
       <r>   32.6321    0.0000 </r>
      </set>
      <set comment="kpoint 45">
       <r>   -1.2545    1.0000 </r>
       <r>   -0.8682    1.0000 </r>
       <r>    2.9748    1.0000 </r>
       <r>    3.2837    1.0000 </r>
       <r>    3.6890    1.0000 </r>
       <r>    4.2225    1.0000 </r>
       <r>   15.6646    0.0000 </r>
       <r>   17.2743    0.0000 </r>
       <r>   17.4937    0.0000 </r>
       <r>   23.0655    0.0000 </r>
       <r>   25.3211    0.0000 </r>
       <r>   35.6395    0.0000 </r>
      </set>
      <set comment="kpoint 46">
       <r>   -1.0794    1.0000 </r>
       <r>   -0.5161    1.0000 </r>
       <r>    1.6219    1.0000 </r>
       <r>    2.7595    1.0000 </r>
       <r>    3.3333    1.0000 </r>
       <r>    4.0862    1.0000 </r>
       <r>   16.4072    0.0000 </r>
       <r>   18.3778    0.0000 </r>
       <r>   19.2892    0.0000 </r>
       <r>   23.9113    0.0000 </r>
       <r>   25.5714    0.0000 </r>
       <r>   33.3426    0.0000 </r>
      </set>
      <set comment="kpoint 47">
       <r>   -1.2066    1.0000 </r>
       <r>    0.2583    1.0000 </r>
       <r>    0.9182    1.0000 </r>
       <r>    1.8549    1.0000 </r>
       <r>    3.2966    1.0000 </r>
       <r>    4.0762    1.0000 </r>
       <r>   14.8337    0.0000 </r>
       <r>   20.3052    0.0000 </r>
       <r>   21.3799    0.0000 </r>
       <r>   23.8828    0.0000 </r>
       <r>   28.7047    0.0000 </r>
       <r>   31.3483    0.0000 </r>
      </set>
      <set comment="kpoint 48">
       <r>   -1.5405    1.0000 </r>
       <r>   -0.3387    1.0000 </r>
       <r>    1.6318    1.0000 </r>
       <r>    2.4050    1.0000 </r>
       <r>    2.6565    1.0000 </r>
       <r>    3.2625    1.0000 </r>
       <r>   19.2306    0.0000 </r>
       <r>   20.1255    0.0000 </r>
       <r>   21.3116    0.0000 </r>
       <r>   23.0635    0.0000 </r>
       <r>   24.3005    0.0000 </r>
       <r>   33.2751    0.0000 </r>
      </set>
      <set comment="kpoint 49">
       <r>   -2.0192    1.0000 </r>
       <r>    0.0519    1.0000 </r>
       <r>    1.3077    1.0000 </r>
       <r>    1.9230    1.0000 </r>
       <r>    2.3593    1.0000 </r>
       <r>    3.1996    1.0000 </r>
       <r>   18.9666    0.0000 </r>
       <r>   20.9987    0.0000 </r>
       <r>   23.1211    0.0000 </r>
       <r>   24.2221    0.0000 </r>
       <r>   26.2415    0.0000 </r>
       <r>   31.1970    0.0000 </r>
      </set>
      <set comment="kpoint 50">
       <r>   -2.9233    1.0000 </r>
       <r>    0.3086    1.0000 </r>
       <r>    1.5381    1.0000 </r>
       <r>    1.5925    1.0000 </r>
       <r>    1.9707    1.0000 </r>
       <r>    2.8614    1.0000 </r>
       <r>   21.4796    0.0000 </r>
       <r>   22.5826    0.0000 </r>
       <r>   23.0725    0.0000 </r>
       <r>   24.0542    0.0000 </r>
       <r>   27.4647    0.0000 </r>
       <r>   31.5115    0.0000 </r>
      </set>
      <set comment="kpoint 51">
       <r>   -3.5766    1.0000 </r>
       <r>    0.7565    1.0000 </r>
       <r>    1.1854    1.0000 </r>
       <r>    1.1854    1.0000 </r>
       <r>    2.4840    1.0000 </r>
       <r>    2.4840    1.0000 </r>
       <r>   20.8724    0.0000 </r>
       <r>   22.1116    0.0000 </r>
       <r>   25.7500    0.0000 </r>
       <r>   25.7500    0.0000 </r>
       <r>   29.0049    0.0000 </r>
       <r>   31.4402    0.0000 </r>
      </set>
      <set comment="kpoint 52">
       <r>   -2.9461    1.0000 </r>
       <r>    0.5463    1.0000 </r>
       <r>    1.3135    1.0000 </r>
       <r>    1.3941    1.0000 </r>
       <r>    2.1614    1.0000 </r>
       <r>    2.8740    1.0000 </r>
       <r>   19.8052    0.0000 </r>
       <r>   21.6003    0.0000 </r>
       <r>   24.4358    0.0000 </r>
       <r>   26.6594    0.0000 </r>
       <r>   27.7882    0.0000 </r>
       <r>   30.8962    0.0000 </r>
      </set>
      <set comment="kpoint 53">
       <r>   -1.8850    1.0000 </r>
       <r>    0.3863    1.0000 </r>
       <r>    1.2035    1.0000 </r>
       <r>    1.6840    1.0000 </r>
       <r>    2.0693    1.0000 </r>
       <r>    3.6285    1.0000 </r>
       <r>   17.3397    0.0000 </r>
       <r>   19.9155    0.0000 </r>
       <r>   24.0872    0.0000 </r>
       <r>   25.8458    0.0000 </r>
       <r>   28.2544    0.0000 </r>
       <r>   30.2367    0.0000 </r>
      </set>
      <set comment="kpoint 54">
       <r>   -1.2115    1.0000 </r>
       <r>    0.7763    1.0000 </r>
       <r>    1.1522    1.0000 </r>
       <r>    1.4760    1.0000 </r>
       <r>    2.7585    1.0000 </r>
       <r>    4.7064    1.0000 </r>
       <r>   13.4829    0.0000 </r>
       <r>   19.2734    0.0000 </r>
       <r>   22.4967    0.0000 </r>
       <r>   25.3346    0.0000 </r>
       <r>   28.2741    0.0000 </r>
       <r>   31.3771    0.0000 </r>
      </set>
      <set comment="kpoint 55">
       <r>   -1.1817    1.0000 </r>
       <r>    0.6310    1.0000 </r>
       <r>    1.3627    1.0000 </r>
       <r>    2.0022    1.0000 </r>
       <r>    3.4634    1.0000 </r>
       <r>    6.3116   -0.0001 </r>
       <r>    9.9014   -0.0000 </r>
       <r>   19.2871    0.0000 </r>
       <r>   21.8420    0.0000 </r>
       <r>   22.9846    0.0000 </r>
       <r>   30.5790    0.0000 </r>
       <r>   31.6238    0.0000 </r>
      </set>
      <set comment="kpoint 56">
       <r>   -1.2216    1.0000 </r>
       <r>    0.6034    1.0000 </r>
       <r>    1.4124    1.0000 </r>
       <r>    1.8282    1.0000 </r>
       <r>    3.8199    1.0000 </r>
       <r>    6.2793   -0.0003 </r>
       <r>    9.7280   -0.0000 </r>
       <r>   20.0233    0.0000 </r>
       <r>   21.6887    0.0000 </r>
       <r>   22.0867    0.0000 </r>
       <r>   31.5937    0.0000 </r>
       <r>   31.8121    0.0000 </r>
      </set>
      <set comment="kpoint 57">
       <r>   -1.3010    1.0000 </r>
       <r>    0.7043    1.0000 </r>
       <r>    0.9390    1.0000 </r>
       <r>    1.5791    1.0000 </r>
       <r>    3.6668    1.0000 </r>
       <r>    4.1630    1.0000 </r>
       <r>   13.3490    0.0000 </r>
       <r>   21.1927    0.0000 </r>
       <r>   21.5340    0.0000 </r>
       <r>   23.0940    0.0000 </r>
       <r>   30.5131    0.0000 </r>
       <r>   31.4840    0.0000 </r>
      </set>
      <set comment="kpoint 58">
       <r>   -1.9124    1.0000 </r>
       <r>    0.1836    1.0000 </r>
       <r>    1.2094    1.0000 </r>
       <r>    1.7154    1.0000 </r>
       <r>    2.7198    1.0000 </r>
       <r>    3.2019    1.0000 </r>
       <r>   17.5001    0.0000 </r>
       <r>   22.1500    0.0000 </r>
       <r>   22.3836    0.0000 </r>
       <r>   24.2844    0.0000 </r>
       <r>   27.3743    0.0000 </r>
       <r>   31.4499    0.0000 </r>
      </set>
      <set comment="kpoint 59">
       <r>   -2.5814    1.0000 </r>
       <r>    0.4330    1.0000 </r>
       <r>    1.3333    1.0000 </r>
       <r>    1.4678    1.0000 </r>
       <r>    2.3510    1.0000 </r>
       <r>    2.9251    1.0000 </r>
       <r>   18.6521    0.0000 </r>
       <r>   22.3947    0.0000 </r>
       <r>   23.6552    0.0000 </r>
       <r>   25.8600    0.0000 </r>
       <r>   27.6999    0.0000 </r>
       <r>   30.8292    0.0000 </r>
      </set>
      <set comment="kpoint 60">
       <r>   -1.7141    1.0000 </r>
       <r>    0.1731    1.0000 </r>
       <r>    1.1085    1.0000 </r>
       <r>    1.8937    1.0000 </r>
       <r>    2.3337    1.0000 </r>
       <r>    3.6075    1.0000 </r>
       <r>   17.4796    0.0000 </r>
       <r>   19.9437    0.0000 </r>
       <r>   23.2017    0.0000 </r>
       <r>   25.1977    0.0000 </r>
       <r>   27.8233    0.0000 </r>
       <r>   30.2053    0.0000 </r>
      </set>
      <set comment="kpoint 61">
       <r>   -0.7812    1.0000 </r>
       <r>    0.1962    1.0000 </r>
       <r>    0.7074    1.0000 </r>
       <r>    2.1242    1.0000 </r>
       <r>    2.6488    1.0000 </r>
       <r>    4.8020    1.0000 </r>
       <r>   15.0448    0.0000 </r>
       <r>   17.6938    0.0000 </r>
       <r>   21.7045    0.0000 </r>
       <r>   25.9392    0.0000 </r>
       <r>   27.4223    0.0000 </r>
       <r>   31.7991    0.0000 </r>
      </set>
      <set comment="kpoint 62">
       <r>   -0.6474    1.0000 </r>
       <r>    0.3744    1.0000 </r>
       <r>    1.0208    1.0000 </r>
       <r>    1.9235    1.0000 </r>
       <r>    3.3602    1.0000 </r>
       <r>    6.4942   -0.0000 </r>
       <r>   11.4572    0.0000 </r>
       <r>   17.4436    0.0000 </r>
       <r>   20.3084    0.0000 </r>
       <r>   24.4486    0.0000 </r>
       <r>   29.5121    0.0000 </r>
       <r>   33.1618    0.0000 </r>
      </set>
      <set comment="kpoint 63">
       <r>   -0.7180    1.0000 </r>
       <r>    0.2817    1.0000 </r>
       <r>    1.3623    1.0000 </r>
       <r>    1.8560    1.0000 </r>
       <r>    3.6589    1.0000 </r>
       <r>    8.1728   -0.0000 </r>
       <r>    9.1291   -0.0000 </r>
       <r>   18.0648    0.0000 </r>
       <r>   19.2701    0.0000 </r>
       <r>   23.9350    0.0000 </r>
       <r>   30.4137    0.0000 </r>
       <r>   33.6414    0.0000 </r>
      </set>
      <set comment="kpoint 64">
       <r>   -0.7677    1.0000 </r>
       <r>    0.3750    1.0000 </r>
       <r>    0.7817    1.0000 </r>
       <r>    2.0535    1.0000 </r>
       <r>    3.4870    1.0000 </r>
       <r>    5.7364    0.4566 </r>
       <r>   12.4669    0.0000 </r>
       <r>   18.3174    0.0000 </r>
       <r>   19.8690    0.0000 </r>
       <r>   24.4132    0.0000 </r>
       <r>   29.4624    0.0000 </r>
       <r>   32.2278    0.0000 </r>
      </set>
      <set comment="kpoint 65">
       <r>   -1.1014    1.0000 </r>
       <r>   -0.0608    1.0000 </r>
       <r>    0.9326    1.0000 </r>
       <r>    2.2536    1.0000 </r>
       <r>    2.7522    1.0000 </r>
       <r>    4.1331    1.0000 </r>
       <r>   16.3103    0.0000 </r>
       <r>   18.7873    0.0000 </r>
       <r>   21.4701    0.0000 </r>
       <r>   25.1908    0.0000 </r>
       <r>   26.9657    0.0000 </r>
       <r>   31.1967    0.0000 </r>
      </set>
      <set comment="kpoint 66">
       <r>   -1.3178    1.0000 </r>
       <r>   -0.0725    1.0000 </r>
       <r>    1.1346    1.0000 </r>
       <r>    2.0254    1.0000 </r>
       <r>    3.3960    1.0000 </r>
       <r>    3.4770    1.0000 </r>
       <r>   16.2882    0.0000 </r>
       <r>   20.6548    0.0000 </r>
       <r>   21.3529    0.0000 </r>
       <r>   23.3166    0.0000 </r>
       <r>   27.1011    0.0000 </r>
       <r>   32.3555    0.0000 </r>
      </set>
      <set comment="kpoint 67">
       <r>   -0.7854    1.0000 </r>
       <r>   -0.2845    1.0000 </r>
       <r>    1.0420    1.0000 </r>
       <r>    2.6597    1.0000 </r>
       <r>    3.1986    1.0000 </r>
       <r>    4.8707    1.0000 </r>
       <r>   15.1203    0.0000 </r>
       <r>   17.5885    0.0000 </r>
       <r>   19.5366    0.0000 </r>
       <r>   25.1215    0.0000 </r>
       <r>   26.8125    0.0000 </r>
       <r>   32.0502    0.0000 </r>
      </set>
      <set comment="kpoint 68">
       <r>   -0.4275    1.0000 </r>
       <r>   -0.1277    1.0000 </r>
       <r>    0.8205    1.0000 </r>
       <r>    2.7412    1.0000 </r>
       <r>    3.4956    1.0000 </r>
       <r>    6.7645   -0.0000 </r>
       <r>   13.1000    0.0000 </r>
       <r>   15.5562    0.0000 </r>
       <r>   17.9888    0.0000 </r>
       <r>   26.2216    0.0000 </r>
       <r>   28.0133    0.0000 </r>
       <r>   32.0465    0.0000 </r>
      </set>
      <set comment="kpoint 69">
       <r>   -0.2559    1.0000 </r>
       <r>    0.0411    1.0000 </r>
       <r>    0.8467    1.0000 </r>
       <r>    2.3698    1.0000 </r>
       <r>    3.7356    1.0000 </r>
       <r>    9.1131   -0.0000 </r>
       <r>   10.3094   -0.0000 </r>
       <r>   15.2100    0.0000 </r>
       <r>   17.3534    0.0000 </r>
       <r>   25.9167    0.0000 </r>
       <r>   29.8472    0.0000 </r>
       <r>   33.1160    0.0000 </r>
      </set>
      <set comment="kpoint 70">
       <r>   -0.0314    1.0000 </r>
       <r>    0.0813    1.0000 </r>
       <r>    0.4724    1.0000 </r>
       <r>    2.4509    1.0000 </r>
       <r>    3.4719    1.0000 </r>
       <r>    7.5185   -0.0000 </r>
       <r>   12.4657    0.0000 </r>
       <r>   14.6349    0.0000 </r>
       <r>   18.3608    0.0000 </r>
       <r>   26.1969    0.0000 </r>
       <r>   28.8170    0.0000 </r>
       <r>   33.2959    0.0000 </r>
      </set>
      <set comment="kpoint 71">
       <r>   -0.4361    1.0000 </r>
       <r>    0.0624    1.0000 </r>
       <r>    0.5608    1.0000 </r>
       <r>    2.4771    1.0000 </r>
       <r>    3.0898    1.0000 </r>
       <r>    5.6444    0.8159 </r>
       <r>   14.0280    0.0000 </r>
       <r>   16.5896    0.0000 </r>
       <r>   19.8617    0.0000 </r>
       <r>   25.9088    0.0000 </r>
       <r>   27.7420    0.0000 </r>
       <r>   32.0396    0.0000 </r>
      </set>
      <set comment="kpoint 72">
       <r>   -1.0262    1.0000 </r>
       <r>   -0.5540    1.0000 </r>
       <r>    1.9444    1.0000 </r>
       <r>    2.7535    1.0000 </r>
       <r>    3.8780    1.0000 </r>
       <r>    5.5097    1.0317 </r>
       <r>   13.7640    0.0000 </r>
       <r>   17.1501    0.0000 </r>
       <r>   18.2098    0.0000 </r>
       <r>   23.5911    0.0000 </r>
       <r>   27.0689    0.0000 </r>
       <r>   34.0349    0.0000 </r>
      </set>
      <set comment="kpoint 73">
       <r>   -0.9249    1.0000 </r>
       <r>   -0.6363    1.0000 </r>
       <r>    1.9732    1.0000 </r>
       <r>    3.1835    1.0000 </r>
       <r>    3.8649    1.0000 </r>
       <r>    7.2723   -0.0000 </r>
       <r>   12.6151    0.0000 </r>
       <r>   15.2963    0.0000 </r>
       <r>   16.5518    0.0000 </r>
       <r>   25.3786    0.0000 </r>
       <r>   27.0277    0.0000 </r>
       <r>   33.0962    0.0000 </r>
      </set>
      <set comment="kpoint 74">
       <r>   -0.6583    1.0000 </r>
       <r>   -0.3243    1.0000 </r>
       <r>    1.5081    1.0000 </r>
       <r>    2.7620    1.0000 </r>
       <r>    4.0577    1.0000 </r>
       <r>    9.6603   -0.0000 </r>
       <r>   11.1439   -0.0000 </r>
       <r>   13.8164    0.0000 </r>
       <r>   15.7930    0.0000 </r>
       <r>   26.8592    0.0000 </r>
       <r>   28.6234    0.0000 </r>
       <r>   31.6476    0.0000 </r>
      </set>
      <set comment="kpoint 75">
       <r>   -0.3119    1.0000 </r>
       <r>    0.1410    1.0000 </r>
       <r>    0.8044    1.0000 </r>
       <r>    2.4351    1.0000 </r>
       <r>    3.8325    1.0000 </r>
       <r>    9.3972   -0.0000 </r>
       <r>   11.4058    0.0000 </r>
       <r>   13.4303    0.0000 </r>
       <r>   16.9388    0.0000 </r>
       <r>   26.5139    0.0000 </r>
       <r>   30.0313    0.0000 </r>
       <r>   32.4063    0.0000 </r>
      </set>
      <set comment="kpoint 76">
       <r>   -0.3794    1.0000 </r>
       <r>    0.1236    1.0000 </r>
       <r>    0.9218    1.0000 </r>
       <r>    2.1909    1.0000 </r>
       <r>    3.5855    1.0000 </r>
       <r>    7.7812   -0.0000 </r>
       <r>   10.6809   -0.0000 </r>
       <r>   16.5540    0.0000 </r>
       <r>   18.5273    0.0000 </r>
       <r>   25.1020    0.0000 </r>
       <r>   29.6993    0.0000 </r>
       <r>   33.7857    0.0000 </r>
      </set>
      <set comment="kpoint 77">
       <r>   -1.1892    1.0000 </r>
       <r>   -0.8147    1.0000 </r>
       <r>    2.8137    1.0000 </r>
       <r>    3.3173    1.0000 </r>
       <r>    3.9492    1.0000 </r>
       <r>    8.2049   -0.0000 </r>
       <r>   11.2394    0.0000 </r>
       <r>   14.4719    0.0000 </r>
       <r>   17.0163    0.0000 </r>
       <r>   24.0204    0.0000 </r>
       <r>   27.1834    0.0000 </r>
       <r>   34.4481    0.0000 </r>
      </set>
      <set comment="kpoint 78">
       <r>   -1.0097    1.0000 </r>
       <r>   -0.7128    1.0000 </r>
       <r>    2.3250    1.0000 </r>
       <r>    3.1754    1.0000 </r>
       <r>    4.0586    1.0000 </r>
       <r>    8.6442   -0.0000 </r>
       <r>   11.2790    0.0000 </r>
       <r>   14.5992    0.0000 </r>
       <r>   16.0183    0.0000 </r>
       <r>   25.5197    0.0000 </r>
       <r>   27.1021    0.0000 </r>
       <r>   33.2569    0.0000 </r>
      </set>
      <set comment="kpoint 79">
       <r>   -0.5605    1.0000 </r>
       <r>   -0.2627    1.0000 </r>
       <r>    1.2164    1.0000 </r>
       <r>    2.8146    1.0000 </r>
       <r>    3.8443    1.0000 </r>
       <r>    8.1483   -0.0000 </r>
       <r>   12.2099    0.0000 </r>
       <r>   14.5743    0.0000 </r>
       <r>   16.5111    0.0000 </r>
       <r>   26.6182    0.0000 </r>
       <r>   28.3224    0.0000 </r>
       <r>   31.8780    0.0000 </r>
      </set>
      <set comment="kpoint 80">
       <r>   -1.1196    1.0000 </r>
       <r>   -0.7260    1.0000 </r>
       <r>    2.4885    1.0000 </r>
       <r>    3.0914    1.0000 </r>
       <r>    3.9530    1.0000 </r>
       <r>    6.8915   -0.0000 </r>
       <r>   12.4740    0.0000 </r>
       <r>   15.4243    0.0000 </r>
       <r>   17.4254    0.0000 </r>
       <r>   23.8542    0.0000 </r>
       <r>   27.1378    0.0000 </r>
       <r>   34.3687    0.0000 </r>
      </set>
      <set comment="kpoint 81">
       <r>   -0.8042    1.0000 </r>
       <r>   -0.4866    1.0000 </r>
       <r>    1.4774    1.0000 </r>
       <r>    3.0136    1.0000 </r>
       <r>    3.5653    1.0000 </r>
       <r>    5.9285   -0.0263 </r>
       <r>   13.9112    0.0000 </r>
       <r>   16.4128    0.0000 </r>
       <r>   17.7504    0.0000 </r>
       <r>   25.1961    0.0000 </r>
       <r>   26.9097    0.0000 </r>
       <r>   32.7009    0.0000 </r>
      </set>
      <set comment="kpoint 82">
       <r>   -1.0266    1.0000 </r>
       <r>   -0.3229    1.0000 </r>
       <r>    1.3951    1.0000 </r>
       <r>    2.3820    1.0000 </r>
       <r>    3.7123    1.0000 </r>
       <r>    4.3280    1.0000 </r>
       <r>   15.0305    0.0000 </r>
       <r>   19.2608    0.0000 </r>
       <r>   19.3108    0.0000 </r>
       <r>   23.3465    0.0000 </r>
       <r>   27.0309    0.0000 </r>
       <r>   33.3104    0.0000 </r>
      </set>
      <set comment="kpoint 83">
       <r>   -2.5131    1.0000 </r>
       <r>    0.8145    1.0000 </r>
       <r>    1.2525    1.0000 </r>
       <r>    1.2525    1.0000 </r>
       <r>    2.7118    1.0000 </r>
       <r>    2.7118    1.0000 </r>
       <r>   17.1171    0.0000 </r>
       <r>   22.0596    0.0000 </r>
       <r>   26.0799    0.0000 </r>
       <r>   26.0799    0.0000 </r>
       <r>   28.2222    0.0000 </r>
       <r>   29.6772    0.0000 </r>
      </set>
      <set comment="kpoint 84">
       <r>   -1.9069    1.0000 </r>
       <r>    0.6904    1.0000 </r>
       <r>    1.2043    1.0000 </r>
       <r>    1.3960    1.0000 </r>
       <r>    2.4708    1.0000 </r>
       <r>    3.5388    1.0000 </r>
       <r>   15.9272    0.0000 </r>
       <r>   21.1271    0.0000 </r>
       <r>   23.4956    0.0000 </r>
       <r>   27.1225    0.0000 </r>
       <r>   27.5441    0.0000 </r>
       <r>   29.6610    0.0000 </r>
      </set>
      <set comment="kpoint 85">
       <r>   -0.9120    1.0000 </r>
       <r>    0.4083    1.0000 </r>
       <r>    0.9205    1.0000 </r>
       <r>    1.7909    1.0000 </r>
       <r>    2.3682    1.0000 </r>
       <r>    4.7830    1.0000 </r>
       <r>   14.9928    0.0000 </r>
       <r>   17.6869    0.0000 </r>
       <r>   23.0182    0.0000 </r>
       <r>   25.6503    0.0000 </r>
       <r>   27.4206    0.0000 </r>
       <r>   32.2014    0.0000 </r>
      </set>
      <set comment="kpoint 86">
       <r>   -0.4131    1.0000 </r>
       <r>    0.4989    1.0000 </r>
       <r>    0.7826    1.0000 </r>
       <r>    1.9556    1.0000 </r>
       <r>    2.8295    1.0000 </r>
       <r>    6.2466   -0.0007 </r>
       <r>   13.1621    0.0000 </r>
       <r>   15.4994    0.0000 </r>
       <r>   22.7441    0.0000 </r>
       <r>   23.0850    0.0000 </r>
       <r>   29.3911    0.0000 </r>
       <r>   32.4294    0.0000 </r>
      </set>
      <set comment="kpoint 87">
       <r>   -0.6513    1.0000 </r>
       <r>    0.3141    1.0000 </r>
       <r>    1.2828    1.0000 </r>
       <r>    2.0291    1.0000 </r>
       <r>    3.5102    1.0000 </r>
       <r>    8.2517   -0.0000 </r>
       <r>    9.8395   -0.0000 </r>
       <r>   16.0369    0.0000 </r>
       <r>   20.8451    0.0000 </r>
       <r>   22.7467    0.0000 </r>
       <r>   31.7508    0.0000 </r>
       <r>   32.5366    0.0000 </r>
      </set>
      <set comment="kpoint 88">
       <r>   -0.8636    1.0000 </r>
       <r>    0.0768    1.0000 </r>
       <r>    1.3078    1.0000 </r>
       <r>    2.1886    1.0000 </r>
       <r>    3.8768    1.0000 </r>
       <r>    6.7917   -0.0000 </r>
       <r>   11.2237    0.0000 </r>
       <r>   17.4680    0.0000 </r>
       <r>   19.4998    0.0000 </r>
       <r>   23.0454    0.0000 </r>
       <r>   30.4635    0.0000 </r>
       <r>   32.8573    0.0000 </r>
      </set>
      <set comment="kpoint 89">
       <r>   -1.7045    1.0000 </r>
       <r>    0.8957    1.0000 </r>
       <r>    1.0444    1.0000 </r>
       <r>    1.3780    1.0000 </r>
       <r>    3.2758    1.0000 </r>
       <r>    3.3971    1.0000 </r>
       <r>   14.5508    0.0000 </r>
       <r>   21.6382    0.0000 </r>
       <r>   22.9173    0.0000 </r>
       <r>   24.6649    0.0000 </r>
       <r>   29.4905    0.0000 </r>
       <r>   30.7254    0.0000 </r>
      </set>
      <set comment="kpoint 90">
       <r>   -1.0724    1.0000 </r>
       <r>    0.6979    1.0000 </r>
       <r>    0.7393    1.0000 </r>
       <r>    1.7404    1.0000 </r>
       <r>    3.1263    1.0000 </r>
       <r>    4.7591    1.0000 </r>
       <r>   13.5328    0.0000 </r>
       <r>   19.3296    0.0000 </r>
       <r>   21.5314    0.0000 </r>
       <r>   24.6838    0.0000 </r>
       <r>   28.9746    0.0000 </r>
       <r>   31.6793    0.0000 </r>
      </set>
      <set comment="kpoint 91">
       <r>   -0.2122    1.0000 </r>
       <r>    0.3025    1.0000 </r>
       <r>    0.4715    1.0000 </r>
       <r>    2.2491    1.0000 </r>
       <r>    3.0614    1.0000 </r>
       <r>    6.3853   -0.0000 </r>
       <r>   13.1650    0.0000 </r>
       <r>   15.5375    0.0000 </r>
       <r>   20.3372    0.0000 </r>
       <r>   25.2945    0.0000 </r>
       <r>   28.6519    0.0000 </r>
       <r>   33.5552    0.0000 </r>
      </set>
      <set comment="kpoint 92">
       <r>   -0.2907    1.0000 </r>
       <r>    0.2134    1.0000 </r>
       <r>    0.8173    1.0000 </r>
       <r>    2.3502    1.0000 </r>
       <r>    3.4846    1.0000 </r>
       <r>    8.2104   -0.0000 </r>
       <r>   11.8484    0.0000 </r>
       <r>   13.9038    0.0000 </r>
       <r>   18.8187    0.0000 </r>
       <r>   25.0477    0.0000 </r>
       <r>   30.1696    0.0000 </r>
       <r>   34.0478    0.0000 </r>
      </set>
      <set comment="kpoint 93">
       <r>   -0.6278    1.0000 </r>
       <r>   -0.0842    1.0000 </r>
       <r>    1.2416    1.0000 </r>
       <r>    2.6038    1.0000 </r>
       <r>    3.7868    1.0000 </r>
       <r>    8.4959   -0.0000 </r>
       <r>   10.8620   -0.0000 </r>
       <r>   15.2083    0.0000 </r>
       <r>   17.5886    0.0000 </r>
       <r>   25.0299    0.0000 </r>
       <r>   30.0482    0.0000 </r>
       <r>   32.0316    0.0000 </r>
      </set>
      <set comment="kpoint 94">
       <r>   -1.0045    1.0000 </r>
       <r>    0.3677    1.0000 </r>
       <r>    1.0557    1.0000 </r>
       <r>    1.8563    1.0000 </r>
       <r>    3.8353    1.0000 </r>
       <r>    5.3608    1.0134 </r>
       <r>   12.2195    0.0000 </r>
       <r>   19.5849    0.0000 </r>
       <r>   20.3800    0.0000 </r>
       <r>   22.7611    0.0000 </r>
       <r>   30.6531    0.0000 </r>
       <r>   32.2339    0.0000 </r>
      </set>
      <set comment="kpoint 95">
       <r>   -0.6271    1.0000 </r>
       <r>    0.0917    1.0000 </r>
       <r>    0.9715    1.0000 </r>
       <r>    2.3747    1.0000 </r>
       <r>    3.6905    1.0000 </r>
       <r>    7.0210   -0.0000 </r>
       <r>   11.5461    0.0000 </r>
       <r>   17.0217    0.0000 </r>
       <r>   18.3591    0.0000 </r>
       <r>   24.6516    0.0000 </r>
       <r>   29.7678    0.0000 </r>
       <r>   32.2371    0.0000 </r>
      </set>
      <set comment="kpoint 96">
       <r>   -0.2438    1.0000 </r>
       <r>    0.1565    1.0000 </r>
       <r>    0.6215    1.0000 </r>
       <r>    2.4902    1.0000 </r>
       <r>    3.8335    1.0000 </r>
       <r>    8.8574   -0.0000 </r>
       <r>   11.9181    0.0000 </r>
       <r>   13.8077    0.0000 </r>
       <r>   16.6470    0.0000 </r>
       <r>   27.3106    0.0000 </r>
       <r>   28.9667    0.0000 </r>
       <r>   32.3498    0.0000 </r>
      </set>
      <set comment="kpoint 97">
       <r>   -0.3690    1.0000 </r>
       <r>    0.1638    1.0000 </r>
       <r>    0.7837    1.0000 </r>
       <r>    2.4462    1.0000 </r>
       <r>    4.0580    1.0000 </r>
       <r>   10.1357   -0.0000 </r>
       <r>   11.5858    0.0000 </r>
       <r>   12.9396    0.0000 </r>
       <r>   15.6620    0.0000 </r>
       <r>   28.0890    0.0000 </r>
       <r>   29.5915    0.0000 </r>
       <r>   31.0207    0.0000 </r>
      </set>
      <set comment="kpoint 98">
       <r>   -0.8416    1.0000 </r>
       <r>   -0.1197    1.0000 </r>
       <r>    1.6046    1.0000 </r>
       <r>    2.5319    1.0000 </r>
       <r>    3.8026    1.0000 </r>
       <r>    8.3573   -0.0000 </r>
       <r>   10.4765   -0.0000 </r>
       <r>   15.3529    0.0000 </r>
       <r>   18.9109    0.0000 </r>
       <r>   23.4104    0.0000 </r>
       <r>   30.3301    0.0000 </r>
       <r>   33.2730    0.0000 </r>
      </set>
      <set comment="kpoint 99">
       <r>   -0.6676    1.0000 </r>
       <r>   -0.1580    1.0000 </r>
       <r>    1.4507    1.0000 </r>
       <r>    2.6868    1.0000 </r>
       <r>    3.8425    1.0000 </r>
       <r>    9.7307   -0.0000 </r>
       <r>   10.6454   -0.0000 </r>
       <r>   13.5625    0.0000 </r>
       <r>   17.2699    0.0000 </r>
       <r>   25.2950    0.0000 </r>
       <r>   30.3211    0.0000 </r>
       <r>   31.7682    0.0000 </r>
      </set>
      <set comment="kpoint 100">
       <r>   -0.8595    1.0000 </r>
       <r>   -0.2122    1.0000 </r>
       <r>    1.8051    1.0000 </r>
       <r>    2.7948    1.0000 </r>
       <r>    3.6775    1.0000 </r>
       <r>    9.5579   -0.0000 </r>
       <r>   10.3049   -0.0000 </r>
       <r>   13.6183    0.0000 </r>
       <r>   18.6181    0.0000 </r>
       <r>   23.6490    0.0000 </r>
       <r>   30.2809    0.0000 </r>
       <r>   33.4654    0.0000 </r>
      </set>
      <set comment="kpoint 101">
       <r>   -1.8505    1.0000 </r>
       <r>    1.0905    1.0000 </r>
       <r>    1.0905    1.0000 </r>
       <r>    1.9750    1.0000 </r>
       <r>    3.2706    1.0000 </r>
       <r>    3.2706    1.0000 </r>
       <r>   13.0731    0.0000 </r>
       <r>   21.1347    0.0000 </r>
       <r>   24.7766    0.0000 </r>
       <r>   24.7766    0.0000 </r>
       <r>   29.9787    0.0000 </r>
       <r>   30.0233    0.0000 </r>
      </set>
      <set comment="kpoint 102">
       <r>   -1.5014    1.0000 </r>
       <r>    0.9019    1.0000 </r>
       <r>    1.2037    1.0000 </r>
       <r>    1.8981    1.0000 </r>
       <r>    3.1598    1.0000 </r>
       <r>    4.5420    1.0000 </r>
       <r>   11.9630    0.0000 </r>
       <r>   20.5932    0.0000 </r>
       <r>   22.2173    0.0000 </r>
       <r>   24.7839    0.0000 </r>
       <r>   29.4260    0.0000 </r>
       <r>   30.8734    0.0000 </r>
      </set>
      <set comment="kpoint 103">
       <r>   -0.7876    1.0000 </r>
       <r>    0.5193    1.0000 </r>
       <r>    1.3415    1.0000 </r>
       <r>    1.6678    1.0000 </r>
       <r>    3.1389    1.0000 </r>
       <r>    6.2972   -0.0002 </r>
       <r>   11.4317    0.0000 </r>
       <r>   17.4109    0.0000 </r>
       <r>   22.3350    0.0000 </r>
       <r>   23.0360    0.0000 </r>
       <r>   29.9014    0.0000 </r>
       <r>   32.0805    0.0000 </r>
      </set>
      <set comment="kpoint 104">
       <r>   -0.5177    1.0000 </r>
       <r>    0.3390    1.0000 </r>
       <r>    1.0811    1.0000 </r>
       <r>    2.3043    1.0000 </r>
       <r>    3.2877    1.0000 </r>
       <r>    7.9607   -0.0000 </r>
       <r>   11.7822    0.0000 </r>
       <r>   13.9031    0.0000 </r>
       <r>   20.7033    0.0000 </r>
       <r>   23.0637    0.0000 </r>
       <r>   31.6285    0.0000 </r>
       <r>   32.7686    0.0000 </r>
      </set>
      <set comment="kpoint 105">
       <r>   -1.5002    1.0000 </r>
       <r>    0.8110    1.0000 </r>
       <r>    1.2046    1.0000 </r>
       <r>    2.1070    1.0000 </r>
       <r>    3.7768    1.0000 </r>
       <r>    4.8390    1.0000 </r>
       <r>   10.7087   -0.0000 </r>
       <r>   20.7965    0.0000 </r>
       <r>   22.4712    0.0000 </r>
       <r>   22.9745    0.0000 </r>
       <r>   31.0363    0.0000 </r>
       <r>   31.3292    0.0000 </r>
      </set>
      <set comment="kpoint 106">
       <r>   -1.0286    1.0000 </r>
       <r>    0.5005    1.0000 </r>
       <r>    1.4979    1.0000 </r>
       <r>    1.7080    1.0000 </r>
       <r>    3.6250    1.0000 </r>
       <r>    6.6515   -0.0000 </r>
       <r>    9.9201   -0.0000 </r>
       <r>   19.4017    0.0000 </r>
       <r>   20.2910    0.0000 </r>
       <r>   23.5158    0.0000 </r>
       <r>   30.3688    0.0000 </r>
       <r>   32.6576    0.0000 </r>
      </set>
      <set comment="kpoint 107">
       <r>   -0.4270    1.0000 </r>
       <r>    0.1538    1.0000 </r>
       <r>    1.0770    1.0000 </r>
       <r>    2.1438    1.0000 </r>
       <r>    3.5810    1.0000 </r>
       <r>    8.5319   -0.0000 </r>
       <r>    9.9313   -0.0000 </r>
       <r>   16.0123    0.0000 </r>
       <r>   18.9513    0.0000 </r>
       <r>   24.5702    0.0000 </r>
       <r>   30.3089    0.0000 </r>
       <r>   34.3066    0.0000 </r>
      </set>
      <set comment="kpoint 108">
       <r>   -0.9143    1.0000 </r>
       <r>    0.4136    1.0000 </r>
       <r>    1.5478    1.0000 </r>
       <r>    1.6997    1.0000 </r>
       <r>    3.7233    1.0000 </r>
       <r>    7.8952   -0.0000 </r>
       <r>    8.9601   -0.0000 </r>
       <r>   18.1649    0.0000 </r>
       <r>   21.1573    0.0000 </r>
       <r>   22.3009    0.0000 </r>
       <r>   31.8785    0.0000 </r>
       <r>   32.1193    0.0000 </r>
      </set>
      <set comment="kpoint 109">
       <r>   -1.7523    1.0000 </r>
       <r>    0.9445    1.0000 </r>
       <r>    0.9445    1.0000 </r>
       <r>    3.7212    1.0000 </r>
       <r>    3.7212    1.0000 </r>
       <r>    4.1085    1.0000 </r>
       <r>    9.6161   -0.0000 </r>
       <r>   20.4712    0.0000 </r>
       <r>   23.5918    0.0000 </r>
       <r>   23.5918    0.0000 </r>
       <r>   30.7058    0.0000 </r>
       <r>   30.7058    0.0000 </r>
      </set>
      <set comment="kpoint 110">
       <r>   -1.4910    1.0000 </r>
       <r>    0.7670    1.0000 </r>
       <r>    1.1248    1.0000 </r>
       <r>    2.6726    1.0000 </r>
       <r>    3.6987    1.0000 </r>
       <r>    6.0072   -0.0316 </r>
       <r>    8.9808   -0.0000 </r>
       <r>   20.4343    0.0000 </r>
       <r>   22.0019    0.0000 </r>
       <r>   23.0159    0.0000 </r>
       <r>   31.0360    0.0000 </r>
       <r>   31.2205    0.0000 </r>
      </set>
     </set>
    </set>
   </array>
  </eigenvalues>
  <separator name="orbital magnetization" >
   <v name="MAGDIPOLOUT">      0.00000000      0.00000000      0.00000000</v>
  </separator>
  <dos>
   <i name="efermi">      5.72614626 </i>
   <total>
    <array>
     <dimension dim="1">gridpoints</dimension>
     <dimension dim="2">spin</dimension>
     <field>energy</field>
     <field>total</field>
     <field>integrated</field>
     <set>
      <set comment="spin 1">
       <r>    -6.2516     0.0000     0.0000 </r>
       <r>    -6.1052     0.0000     0.0000 </r>
       <r>    -5.9589    -0.0000    -0.0000 </r>
       <r>    -5.8126    -0.0000    -0.0000 </r>
       <r>    -5.6663    -0.0000    -0.0000 </r>
       <r>    -5.5200    -0.0000    -0.0000 </r>
       <r>    -5.3737    -0.0000    -0.0000 </r>
       <r>    -5.2274    -0.0000    -0.0000 </r>
       <r>    -5.0811    -0.0000    -0.0000 </r>
       <r>    -4.9348    -0.0000    -0.0000 </r>
       <r>    -4.7885    -0.0000    -0.0000 </r>
       <r>    -4.6422    -0.0002    -0.0000 </r>
       <r>    -4.4959    -0.0009    -0.0002 </r>
       <r>    -4.3496     0.0031     0.0003 </r>
       <r>    -4.2033     0.0152     0.0025 </r>
       <r>    -4.0570     0.0354     0.0077 </r>
       <r>    -3.9107     0.0528     0.0154 </r>
       <r>    -3.7644     0.0535     0.0232 </r>
       <r>    -3.6181     0.0594     0.0319 </r>
       <r>    -3.4718     0.0797     0.0436 </r>
       <r>    -3.3255     0.1063     0.0591 </r>
       <r>    -3.1792     0.0903     0.0723 </r>
       <r>    -3.0329     0.0658     0.0820 </r>
       <r>    -2.8866     0.1177     0.0992 </r>
       <r>    -2.7403     0.1722     0.1244 </r>
       <r>    -2.5940     0.1371     0.1444 </r>
       <r>    -2.4477     0.1081     0.1602 </r>
       <r>    -2.3014     0.1807     0.1867 </r>
       <r>    -2.1551     0.1943     0.2151 </r>
       <r>    -2.0088     0.1958     0.2438 </r>
       <r>    -1.8624     0.2886     0.2860 </r>
       <r>    -1.7161     0.4582     0.3530 </r>
       <r>    -1.5698     0.5837     0.4384 </r>
       <r>    -1.4235     0.6680     0.5361 </r>
       <r>    -1.2772     0.9964     0.6819 </r>
       <r>    -1.1309     1.2500     0.8648 </r>
       <r>    -0.9846     1.5737     1.0950 </r>
       <r>    -0.8383     1.7771     1.3550 </r>
       <r>    -0.6920     1.7897     1.6169 </r>
       <r>    -0.5457     1.7064     1.8665 </r>
       <r>    -0.3994     1.4976     2.0856 </r>
       <r>    -0.2531     1.5352     2.3102 </r>
       <r>    -0.1068     1.2282     2.4899 </r>
       <r>     0.0395     1.1737     2.6616 </r>
       <r>     0.1858     1.6269     2.8997 </r>
       <r>     0.3321     1.8083     3.1642 </r>
       <r>     0.4784     1.8551     3.4356 </r>
       <r>     0.6247     1.7710     3.6947 </r>
       <r>     0.7710     2.0500     3.9946 </r>
       <r>     0.9173     2.1772     4.3132 </r>
       <r>     1.0636     2.1825     4.6325 </r>
       <r>     1.2099     2.6735     5.0236 </r>
       <r>     1.3562     3.1816     5.4891 </r>
       <r>     1.5025     2.5041     5.8555 </r>
       <r>     1.6488     1.7180     6.1068 </r>
       <r>     1.7951     1.4023     6.3120 </r>
       <r>     1.9414     1.5659     6.5411 </r>
       <r>     2.0877     1.6292     6.7794 </r>
       <r>     2.2340     1.9224     7.0607 </r>
       <r>     2.3803     2.1783     7.3794 </r>
       <r>     2.5267     1.8246     7.6463 </r>
       <r>     2.6730     1.7034     7.8955 </r>
       <r>     2.8193     1.9870     8.1862 </r>
       <r>     2.9656     1.4671     8.4009 </r>
       <r>     3.1119     1.3973     8.6053 </r>
       <r>     3.2582     1.7258     8.8578 </r>
       <r>     3.4045     1.5881     9.0901 </r>
       <r>     3.5508     2.0735     9.3935 </r>
       <r>     3.6971     2.5749     9.7702 </r>
       <r>     3.8434     2.4061    10.1222 </r>
       <r>     3.9897     1.7032    10.3714 </r>
       <r>     4.1360     1.1172    10.5349 </r>
       <r>     4.2823     0.5760    10.6191 </r>
       <r>     4.4286     0.1031    10.6342 </r>
       <r>     4.5749     0.0383    10.6398 </r>
       <r>     4.7212     0.2706    10.6794 </r>
       <r>     4.8675     0.4788    10.7495 </r>
       <r>     5.0138     0.3573    10.8018 </r>
       <r>     5.1601     0.1898    10.8295 </r>
       <r>     5.3064     0.1634    10.8534 </r>
       <r>     5.4527     0.3599    10.9061 </r>
       <r>     5.5990     0.4191    10.9674 </r>
       <r>     5.7453     0.2477    11.0036 </r>
       <r>     5.8916     0.1933    11.0319 </r>
       <r>     6.0379     0.2092    11.0625 </r>
       <r>     6.1842     0.1915    11.0905 </r>
       <r>     6.3305     0.3905    11.1477 </r>
       <r>     6.4768     0.3853    11.2040 </r>
       <r>     6.6231     0.2891    11.2463 </r>
       <r>     6.7695     0.3096    11.2916 </r>
       <r>     6.9158     0.2269    11.3248 </r>
       <r>     7.0621     0.1652    11.3490 </r>
       <r>     7.2084     0.2022    11.3786 </r>
       <r>     7.3547     0.2791    11.4194 </r>
       <r>     7.5010     0.3742    11.4741 </r>
       <r>     7.6473     0.3390    11.5237 </r>
       <r>     7.7936     0.2287    11.5572 </r>
       <r>     7.9399     0.1498    11.5791 </r>
       <r>     8.0862     0.1734    11.6045 </r>
       <r>     8.2325     0.3529    11.6561 </r>
       <r>     8.3788     0.2839    11.6976 </r>
       <r>     8.5251     0.2152    11.7291 </r>
       <r>     8.6714     0.2021    11.7587 </r>
       <r>     8.8177     0.1685    11.7833 </r>
       <r>     8.9640     0.4490    11.8490 </r>
       <r>     9.1103     0.6400    11.9427 </r>
       <r>     9.2566     0.3763    11.9977 </r>
       <r>     9.4029     0.1121    12.0141 </r>
       <r>     9.5492     0.2099    12.0448 </r>
       <r>     9.6955     0.4034    12.1038 </r>
       <r>     9.8418     0.4010    12.1625 </r>
       <r>     9.9881     0.3474    12.2133 </r>
       <r>    10.1344     0.2713    12.2530 </r>
       <r>    10.2807     0.1926    12.2812 </r>
       <r>    10.4270     0.1449    12.3024 </r>
       <r>    10.5733     0.2220    12.3349 </r>
       <r>    10.7196     0.4486    12.4005 </r>
       <r>    10.8659     0.4242    12.4626 </r>
       <r>    11.0122     0.3146    12.5086 </r>
       <r>    11.1586     0.2780    12.5493 </r>
       <r>    11.3049     0.2932    12.5922 </r>
       <r>    11.4512     0.3620    12.6451 </r>
       <r>    11.5975     0.4676    12.7135 </r>
       <r>    11.7438     0.3789    12.7690 </r>
       <r>    11.8901     0.3471    12.8198 </r>
       <r>    12.0364     0.3156    12.8659 </r>
       <r>    12.1827     0.1763    12.8917 </r>
       <r>    12.3290     0.1989    12.9208 </r>
       <r>    12.4753     0.4371    12.9848 </r>
       <r>    12.6216     0.4575    13.0517 </r>
       <r>    12.7679     0.1460    13.0731 </r>
       <r>    12.9142     0.0460    13.0798 </r>
       <r>    13.0605     0.2459    13.1158 </r>
       <r>    13.2068     0.4256    13.1780 </r>
       <r>    13.3531     0.2870    13.2200 </r>
       <r>    13.4994     0.3545    13.2719 </r>
       <r>    13.6457     0.4928    13.3440 </r>
       <r>    13.7920     0.4518    13.4101 </r>
       <r>    13.9383     0.5778    13.4946 </r>
       <r>    14.0846     0.4380    13.5587 </r>
       <r>    14.2309     0.0727    13.5693 </r>
       <r>    14.3772     0.0027    13.5697 </r>
       <r>    14.5235     0.2773    13.6103 </r>
       <r>    14.6698     0.5245    13.6871 </r>
       <r>    14.8161     0.3672    13.7408 </r>
       <r>    14.9624     0.2523    13.7777 </r>
       <r>    15.1087     0.3624    13.8307 </r>
       <r>    15.2550     0.5495    13.9111 </r>
       <r>    15.4013     0.4493    13.9768 </r>
       <r>    15.5477     0.3713    14.0312 </r>
       <r>    15.6940     0.4562    14.0979 </r>
       <r>    15.8403     0.4102    14.1579 </r>
       <r>    15.9866     0.4137    14.2184 </r>
       <r>    16.1329     0.4893    14.2900 </r>
       <r>    16.2792     0.4266    14.3524 </r>
       <r>    16.4255     0.4370    14.4164 </r>
       <r>    16.5718     0.6973    14.5184 </r>
       <r>    16.7181     0.6542    14.6141 </r>
       <r>    16.8644     0.2222    14.6466 </r>
       <r>    17.0107     0.2514    14.6834 </r>
       <r>    17.1570     0.3877    14.7401 </r>
       <r>    17.3033     0.5161    14.8156 </r>
       <r>    17.4496     0.7022    14.9184 </r>
       <r>    17.5959     0.7460    15.0275 </r>
       <r>    17.7422     0.7557    15.1381 </r>
       <r>    17.8885     0.4616    15.2056 </r>
       <r>    18.0348     0.1744    15.2311 </r>
       <r>    18.1811     0.2090    15.2617 </r>
       <r>    18.3274     0.4448    15.3268 </r>
       <r>    18.4737     0.5933    15.4136 </r>
       <r>    18.6200     0.4617    15.4811 </r>
       <r>    18.7663     0.4832    15.5518 </r>
       <r>    18.9126     0.5298    15.6293 </r>
       <r>    19.0589     0.4598    15.6966 </r>
       <r>    19.2052     0.4449    15.7617 </r>
       <r>    19.3515     0.6493    15.8567 </r>
       <r>    19.4978     0.4839    15.9275 </r>
       <r>    19.6441     0.3694    15.9815 </r>
       <r>    19.7905     0.5132    16.0566 </r>
       <r>    19.9368     0.5935    16.1434 </r>
       <r>    20.0831     0.4482    16.2090 </r>
       <r>    20.2294     0.4500    16.2748 </r>
       <r>    20.3757     0.7204    16.3802 </r>
       <r>    20.5220     0.5139    16.4554 </r>
       <r>    20.6683     0.3188    16.5020 </r>
       <r>    20.8146     0.4557    16.5687 </r>
       <r>    20.9609     0.6888    16.6695 </r>
       <r>    21.1072     0.6143    16.7594 </r>
       <r>    21.2535     0.4929    16.8315 </r>
       <r>    21.3998     0.6051    16.9200 </r>
       <r>    21.5461     0.7829    17.0345 </r>
       <r>    21.6924     0.6286    17.1265 </r>
       <r>    21.8387     0.5117    17.2014 </r>
       <r>    21.9850     0.4941    17.2737 </r>
       <r>    22.1313     0.4480    17.3392 </r>
       <r>    22.2776     0.4776    17.4091 </r>
       <r>    22.4239     0.3784    17.4645 </r>
       <r>    22.5702     0.2845    17.5061 </r>
       <r>    22.7165     0.4026    17.5650 </r>
       <r>    22.8628     0.5603    17.6470 </r>
       <r>    23.0091     0.8033    17.7645 </r>
       <r>    23.1554     1.0566    17.9191 </r>
       <r>    23.3017     0.7514    18.0290 </r>
       <r>    23.4480     0.5885    18.1151 </r>
       <r>    23.5943     0.6399    18.2087 </r>
       <r>    23.7406     0.6776    18.3079 </r>
       <r>    23.8869     0.8854    18.4374 </r>
       <r>    24.0332     0.9916    18.5825 </r>
       <r>    24.1796     0.7790    18.6964 </r>
       <r>    24.3259     0.7961    18.8129 </r>
       <r>    24.4722     0.7768    18.9266 </r>
       <r>    24.6185     0.4809    18.9969 </r>
       <r>    24.7648     0.4297    19.0598 </r>
       <r>    24.9111     0.5787    19.1445 </r>
       <r>    25.0574     0.7921    19.2603 </r>
       <r>    25.2037     0.8877    19.3902 </r>
       <r>    25.3500     0.7579    19.5011 </r>
       <r>    25.4963     0.5411    19.5803 </r>
       <r>    25.6426     0.3338    19.6291 </r>
       <r>    25.7889     0.3646    19.6824 </r>
       <r>    25.9352     0.5763    19.7667 </r>
       <r>    26.0815     0.5624    19.8490 </r>
       <r>    26.2278     0.6867    19.9495 </r>
       <r>    26.3741     0.5540    20.0305 </r>
       <r>    26.5204     0.2869    20.0725 </r>
       <r>    26.6667     0.2292    20.1060 </r>
       <r>    26.8130     0.2412    20.1413 </r>
       <r>    26.9593     0.4171    20.2024 </r>
       <r>    27.1056     0.5362    20.2808 </r>
       <r>    27.2519     0.4633    20.3486 </r>
       <r>    27.3982     0.4707    20.4175 </r>
       <r>    27.5445     0.3501    20.4687 </r>
       <r>    27.6908     0.2207    20.5010 </r>
       <r>    27.8371     0.3303    20.5493 </r>
       <r>    27.9834     0.2533    20.5863 </r>
       <r>    28.1297     0.3713    20.6407 </r>
       <r>    28.2760     0.5543    20.7218 </r>
       <r>    28.4223     0.3440    20.7721 </r>
       <r>    28.5687     0.4948    20.8445 </r>
       <r>    28.7150     0.8041    20.9621 </r>
       <r>    28.8613     0.5077    21.0364 </r>
       <r>    29.0076     0.3664    21.0900 </r>
       <r>    29.1539     0.2027    21.1196 </r>
       <r>    29.3002     0.0505    21.1270 </r>
       <r>    29.4465     0.3706    21.1813 </r>
       <r>    29.5928     0.6820    21.2810 </r>
       <r>    29.7391     0.5851    21.3667 </r>
       <r>    29.8854     0.4361    21.4305 </r>
       <r>    30.0317     0.4781    21.5004 </r>
       <r>    30.1780     0.5956    21.5875 </r>
       <r>    30.3243     0.7930    21.7036 </r>
       <r>    30.4706     0.9778    21.8466 </r>
       <r>    30.6169     0.6950    21.9483 </r>
       <r>    30.7632     0.6614    22.0450 </r>
       <r>    30.9095     0.6555    22.1409 </r>
       <r>    31.0558     0.5183    22.2168 </r>
       <r>    31.2021     0.5195    22.2928 </r>
       <r>    31.3484     0.6247    22.3842 </r>
       <r>    31.4947     0.6707    22.4823 </r>
       <r>    31.6410     0.7967    22.5989 </r>
       <r>    31.7873     0.7121    22.7030 </r>
       <r>    31.9336     0.6154    22.7931 </r>
       <r>    32.0799     0.7970    22.9097 </r>
       <r>    32.2262     0.9929    23.0550 </r>
       <r>    32.3725     0.7777    23.1687 </r>
       <r>    32.5188     0.5023    23.2422 </r>
       <r>    32.6651     0.5244    23.3190 </r>
       <r>    32.8115     0.5548    23.4001 </r>
       <r>    32.9578     0.3741    23.4548 </r>
       <r>    33.1041     0.3745    23.5096 </r>
       <r>    33.2504     0.6374    23.6029 </r>
       <r>    33.3967     0.6120    23.6924 </r>
       <r>    33.5430     0.3188    23.7391 </r>
       <r>    33.6893     0.2002    23.7684 </r>
       <r>    33.8356     0.1421    23.7891 </r>
       <r>    33.9819     0.1063    23.8047 </r>
       <r>    34.1282     0.1637    23.8286 </r>
       <r>    34.2745     0.2142    23.8600 </r>
       <r>    34.4208     0.2067    23.8902 </r>
       <r>    34.5671     0.1883    23.9178 </r>
       <r>    34.7134     0.2318    23.9517 </r>
       <r>    34.8597     0.0964    23.9658 </r>
       <r>    35.0060    -0.0083    23.9646 </r>
       <r>    35.1523    -0.0057    23.9637 </r>
       <r>    35.2986     0.0251    23.9674 </r>
       <r>    35.4449     0.0587    23.9760 </r>
       <r>    35.5912     0.0846    23.9884 </r>
       <r>    35.7375     0.0707    23.9987 </r>
       <r>    35.8838     0.0131    24.0007 </r>
       <r>    36.0301    -0.0036    24.0001 </r>
       <r>    36.1764    -0.0008    24.0000 </r>
       <r>    36.3227    -0.0000    24.0000 </r>
       <r>    36.4690    -0.0000    24.0000 </r>
       <r>    36.6153    -0.0000    24.0000 </r>
       <r>    36.7616    -0.0000    24.0000 </r>
       <r>    36.9079    -0.0000    24.0000 </r>
       <r>    37.0542     0.0000    24.0000 </r>
       <r>    37.2006     0.0000    24.0000 </r>
       <r>    37.3469     0.0000    24.0000 </r>
       <r>    37.4932     0.0000    24.0000 </r>
       <r>    37.6395     0.0000    24.0000 </r>
      </set>
     </set>
    </array>
   </total>
  </dos>
 </calculation>
 <structure name="finalpos" >
  <crystal>
   <varray name="basis" >
    <v>       0.00000000       2.03189500       2.03189500 </v>
    <v>       2.03189500       0.00000000       2.03189500 </v>
    <v>       2.03189500       2.03189500       0.00000000 </v>
   </varray>
   <i name="volume">     16.77775239 </i>
   <varray name="rec_basis" >
    <v>      -0.24607571       0.24607571       0.24607571 </v>
    <v>       0.24607571      -0.24607571       0.24607571 </v>
    <v>       0.24607571       0.24607571      -0.24607571 </v>
   </varray>
  </crystal>
  <varray name="positions" >
   <v>       0.00000000       0.00000000       0.00000000 </v>
  </varray>
 </structure>
</modeling>
