BCC W                                   
   3.12720000000000     
    -0.500000    0.500000    0.500000
     0.500000   -0.500000    0.500000
     0.500000    0.500000   -0.500000
   W 
     1
Direct
  0.000000  0.000000  0.000000
 
   20   20   20
  13.379      12.790      11.605      10.836      10.711      10.520      9.6193      8.2107      6.9828      6.2807    
  6.0493      6.2807      6.9828      8.2107      9.6193      10.520      10.711      10.836      11.605      12.790    
  12.790      12.564      11.518      10.602      10.344      10.287      9.6847      8.4545      7.1830      6.3564    
  5.9891      6.0633      6.5799      7.5828      8.9317      10.023      10.422      10.484      10.963      11.994    
  11.605      11.518      10.643      9.6910      9.2998      9.3007      9.0225      8.1597      7.0719      6.2514    
  5.8146      5.7594      6.0924      6.8192      7.9343      9.0769      9.7598      9.9880      10.284      10.963    
  10.836      10.602      9.6910      8.6235      8.0225      7.9400      7.8717      7.4033      6.6429      5.9658    
  5.5460      5.4216      5.6041      6.1061      6.9304      7.9786      8.9143      9.5323      9.9880      10.484    
  10.711      10.344      9.2998      8.0225      7.1083      6.7672      6.6911      6.4696      6.0214      5.5520    
  5.2196      5.0916      5.1809      5.5106      6.0955      6.9367      7.9394      8.9143      9.7598      10.422    
  10.520      10.287      9.3007      7.9400      6.7672      6.1048      5.8403      5.6572      5.3905      5.0998    
  4.8821      4.7976      4.8516      5.0589      5.4653      6.0853      6.9367      7.9786      9.0769      10.023    
  9.6193      9.6847      9.0225      7.8717      6.6911      5.8403      5.3671      5.0973      4.8804      4.6952    
  4.5774      4.5525      4.6115      4.7550      5.0226      5.4653      6.0955      6.9304      7.9343      8.9317    
  8.2107      8.4545      8.1597      7.4033      6.4696      5.6572      5.0973      4.7483      4.5254      4.3886    
  4.3347      4.3573      4.4366      4.5623      4.7550      5.0589      5.5106      6.1061      6.8192      7.5828    
  6.9828      7.1830      7.0719      6.6429      6.0214      5.3905      4.8804      4.5254      4.3042      4.1904    
  4.1646      4.2092      4.3043      4.4366      4.6115      4.8516      5.1809      5.6041      6.0924      6.5799    
  6.2807      6.3564      6.2514      5.9658      5.5520      5.0998      4.6952      4.3886      4.1904      4.0883    
  4.0658      4.1095      4.2092      4.3573      4.5525      4.7976      5.0916      5.4216      5.7594      6.0633    
  6.0493      5.9891      5.8146      5.5460      5.2196      4.8821      4.5774      4.3347      4.1646      4.0658    
  4.0335      4.0658      4.1646      4.3347      4.5774      4.8821      5.2196      5.5460      5.8146      5.9891    
  6.2807      6.0633      5.7594      5.4216      5.0916      4.7976      4.5525      4.3573      4.2092      4.1095    
  4.0658      4.0883      4.1904      4.3886      4.6952      5.0998      5.5520      5.9658      6.2514      6.3564    
  6.9828      6.5799      6.0924      5.6041      5.1809      4.8516      4.6115      4.4366      4.3043      4.2092    
  4.1646      4.1904      4.3042      4.5254      4.8804      5.3905      6.0214      6.6429      7.0719      7.1830    
  8.2107      7.5828      6.8192      6.1061      5.5106      5.0589      4.7550      4.5623      4.4366      4.3573    
  4.3347      4.3886      4.5254      4.7483      5.0973      5.6572      6.4696      7.4033      8.1597      8.4545    
  9.6193      8.9317      7.9343      6.9304      6.0955      5.4653      5.0226      4.7550      4.6115      4.5525    
  4.5774      4.6952      4.8804      5.0973      5.3671      5.8403      6.6911      7.8717      9.0225      9.6847    
  10.520      10.023      9.0769      7.9786      6.9367      6.0853      5.4653      5.0589      4.8516      4.7976    
  4.8821      5.0998      5.3905      5.6572      5.8403      6.1048      6.7672      7.9400      9.3007      10.287    
  10.711      10.422      9.7598      8.9143      7.9394      6.9367      6.0955      5.5106      5.1809      5.0916    
  5.2196      5.5520      6.0214      6.4696      6.6911      6.7672      7.1083      8.0225      9.2998      10.344    
  10.836      10.484      9.9880      9.5323      8.9143      7.9786      6.9304      6.1061      5.6041      5.4216    
  5.5460      5.9658      6.6429      7.4033      7.8717      7.9400      8.0225      8.6235      9.6910      10.602    
  11.605      10.963      10.284      9.9880      9.7598      9.0769      7.9343      6.8192      6.0924      5.7594    
  5.8146      6.2514      7.0719      8.1597      9.0225      9.3007      9.2998      9.6910      10.643      11.518    
  12.790      11.994      10.963      10.484      10.422      10.023      8.9317      7.5828      6.5799      6.0633    
  5.9891      6.3564      7.1830      8.4545      9.6847      10.287      10.344      10.602      11.518      12.564    
  12.790      12.564      11.518      10.602      10.344      10.287      9.6847      8.4545      7.1830      6.3564    
  5.9891      6.0633      6.5799      7.5828      8.9317      10.023      10.422      10.484      10.963      11.994    
  12.564      12.781      11.980      10.952      10.479      10.421      10.022      8.9317      7.5840      6.5816    
  6.0637      5.9878      6.3550      7.1831      8.4558      9.6861      10.289      10.350      10.611      11.526    
  11.518      11.980      11.512      10.576      9.9682      9.8486      9.6384      8.8399      7.6449      6.6150    
  6.0097      5.8073      6.0096      6.6149      7.6448      8.8398      9.6392      9.8518      9.9746      10.584    
  10.602      10.952      10.576      9.6924      8.9660      8.7266      8.6299      8.1655      7.2939      6.4129    
  5.8206      5.5522      5.6197      6.0276      6.7736      7.7975      8.7378      9.2725      9.5455      9.9703    
  10.344      10.479      9.9682      8.9660      8.0250      7.5504      7.4082      7.1677      6.6357      6.0046    
  5.5181      5.2562      5.2461      5.4956      6.0180      6.8057      7.7511      8.6067      9.2715      9.8480    
  10.287      10.421      9.8486      8.7266      7.5504      6.7690      6.4219      6.2120      5.8943      5.4948    
  5.1536      4.9537      4.9253      5.0706      5.4240      5.9986      6.7955      7.7518      8.7377      9.6374    
  9.6847      10.022      9.6384      8.6299      7.4082      6.4219      5.8407      5.5235      5.2649      5.0056    
  4.7916      4.6753      4.6697      4.7674      4.9949      5.4012      5.9995      6.8068      7.7976      8.8387    
  8.4545      8.9317      8.8399      8.1655      7.1677      6.2120      5.5235      5.0966      4.8173      4.6156    
  4.4858      4.4413      4.4728      4.5635      4.7233      4.9955      5.4249      6.0183      6.7727      7.6432    
  7.1830      7.5840      7.6449      7.2939      6.6357      5.8943      5.2649      4.8173      4.5252      4.3473    
  4.2634      4.2611      4.3210      4.4226      4.5637      4.7677      5.0705      5.4947      6.0261      6.6138    
  6.3564      6.5816      6.6150      6.4129      6.0046      5.4948      5.0056      4.6156      4.3473      4.1907    
  4.1266      4.1374      4.2071      4.3209      4.4727      4.6693      4.9246      5.2453      5.6193      6.0102    
  5.9891      6.0637      6.0097      5.8206      5.5181      5.1536      4.7916      4.4858      4.2634      4.1266    
  4.0658      4.0713      4.1373      4.2609      4.4409      4.6749      4.9536      5.2565      5.5533      5.8088    
  6.0633      5.9878      5.8073      5.5522      5.2562      4.9537      4.6753      4.4413      4.2611      4.1374    
  4.0713      4.0656      4.1263      4.2631      4.4858      4.7919      5.1544      5.5193      5.8216      6.0102    
  6.5799      6.3550      6.0096      5.6197      5.2461      4.9253      4.6697      4.4728      4.3210      4.2071    
  4.1373      4.1263      4.1905      4.3474      4.6162      5.0066      5.4957      6.0052      6.4126      6.6138    
  7.5828      7.1831      6.6149      6.0276      5.4956      5.0706      4.7674      4.5635      4.4226      4.3209    
  4.2609      4.2631      4.3474      4.5260      4.8183      5.2657      5.8943      6.6348      7.2923      7.6432    
  8.9317      8.4558      7.6448      6.7736      6.0180      5.4240      4.9949      4.7233      4.5637      4.4727    
  4.4409      4.4858      4.6162      4.8183      5.0973      5.5232      6.2107      7.1658      8.1636      8.8387    
  10.023      9.6861      8.8398      7.7975      6.8057      5.9986      5.4012      4.9955      4.7677      4.6693    
  4.6749      4.7919      5.0066      5.2657      5.5232      5.8393      6.4196      7.4057      8.6277      9.6374    
  10.422      10.289      9.6392      8.7378      7.7511      6.7955      5.9995      5.4249      5.0705      4.9246    
  4.9536      5.1544      5.4957      5.8943      6.2107      6.4196      6.7662      7.5474      8.7242      9.8480    
  10.484      10.350      9.8518      9.2725      8.6067      7.7518      6.8068      6.0183      5.4947      5.2453    
  5.2565      5.5193      6.0052      6.6348      7.1658      7.4057      7.5474      8.0219      8.9646      9.9703    
  10.963      10.611      9.9746      9.5455      9.2715      8.7377      7.7976      6.7727      6.0261      5.6193    
  5.5533      5.8216      6.4126      7.2923      8.1636      8.6277      8.7242      8.9646      9.6947      10.584    
  11.994      11.526      10.584      9.9703      9.8480      9.6374      8.8387      7.6432      6.6138      6.0102    
  5.8088      6.0102      6.6138      7.6432      8.8387      9.6374      9.8480      9.9703      10.584      11.526    
  11.605      11.518      10.643      9.6910      9.2998      9.3007      9.0225      8.1597      7.0719      6.2514    
  5.8146      5.7594      6.0924      6.8192      7.9343      9.0769      9.7598      9.9880      10.284      10.963    
  11.518      11.980      11.512      10.576      9.9682      9.8486      9.6384      8.8399      7.6449      6.6150    
  6.0097      5.8073      6.0096      6.6149      7.6448      8.8398      9.6392      9.8518      9.9746      10.584    
  10.643      11.512      11.595      10.953      10.278      9.9862      9.7604      9.0779      7.9348      6.8194    
  6.0926      5.7595      5.8145      6.2514      7.0721      8.1600      9.0236      9.3035      9.3041      9.6947    
  9.6910      10.576      10.953      10.604      9.9719      9.5465      9.2739      8.7396      7.7985      6.7729    
  6.0263      5.6193      5.5532      5.8217      6.4127      7.2925      8.1642      8.6291      8.7258      8.9646    
  9.2998      9.9682      10.278      9.9719      9.3054      8.7295      8.3628      7.9430      7.2617      6.4570    
  5.8045      5.4001      5.2673      5.4001      5.8046      6.4569      7.2611      7.9412      8.3592      8.7242    
  9.3007      9.8486      9.9862      9.5465      8.7295      7.9442      7.4092      7.0034      6.5213      5.9584    
  5.4651      5.1287      4.9896      5.0415      5.2979      5.7690      6.4304      7.2001      7.9408      8.6277    
  9.0225      9.6384      9.7604      9.2739      8.3628      7.4092      6.6920      6.2108      5.8123      5.4208    
  5.0802      4.8430      4.7425      4.7672      4.9225      5.2465      5.7503      6.4304      7.2609      8.1636    
  8.1597      8.8399      9.0779      8.7396      7.9430      7.0034      6.2108      5.6555      5.2642      4.9587    
  4.7247      4.5815      4.5367      4.5705      4.6767      4.8867      5.2465      5.7690      6.4568      7.2923    
  7.0719      7.6449      7.9348      7.7985      7.2617      6.5213      5.8123      5.2642      4.8798      4.6159    
  4.4476      4.3711      4.3732      4.4292      4.5252      4.6766      4.9225      5.2978      5.8045      6.4126    
  6.2514      6.6150      6.8194      6.7729      6.4570      5.9584      5.4208      4.9587      4.6159      4.3891    
  4.2635      4.2232      4.2501      4.3235      4.4292      4.5705      4.7672      5.0415      5.4001      5.8216    
  5.8146      6.0097      6.0926      6.0263      5.8045      5.4651      5.0802      4.7247      4.4476      4.2635    
  4.1647      4.1374      4.1691      4.2501      4.3732      4.5367      4.7425      4.9896      5.2674      5.5533    
  5.7594      5.8073      5.7595      5.6193      5.4001      5.1287      4.8430      4.5815      4.3711      4.2232    
  4.1374      4.1094      4.1373      4.2232      4.3711      4.5815      4.8431      5.1288      5.4001      5.6193    
  6.0924      6.0096      5.8145      5.5532      5.2673      4.9896      4.7425      4.5367      4.3732      4.2501    
  4.1691      4.1373      4.1647      4.2635      4.4477      4.7248      5.0804      5.4652      5.8045      6.0261    
  6.8192      6.6149      6.2514      5.8217      5.4001      5.0415      4.7672      4.5705      4.4292      4.3235    
  4.2501      4.2232      4.2635      4.3892      4.6162      4.9592      5.4213      5.9586      6.4568      6.7727    
  7.9343      7.6448      7.0721      6.4127      5.8046      5.2979      4.9225      4.6767      4.5252      4.4292    
  4.3732      4.3711      4.4477      4.6162      4.8804      5.2650      5.8127      6.5211      7.2609      7.7976    
  9.0769      8.8398      8.1600      7.2925      6.4569      5.7690      5.2465      4.8867      4.6766      4.5705    
  4.5367      4.5815      4.7248      4.9592      5.2650      5.6560      6.2105      7.0019      7.9408      8.7377    
  9.7598      9.6392      9.0236      8.1642      7.2611      6.4304      5.7503      5.2465      4.9225      4.7672    
  4.7425      4.8431      5.0804      5.4213      5.8127      6.2105      6.6901      7.4058      8.3592      9.2715    
  9.9880      9.8518      9.3035      8.6291      7.9412      7.2001      6.4304      5.7690      5.2978      5.0415    
  4.9896      5.1288      5.4652      5.9586      6.5211      7.0019      7.4058      7.9397      8.7258      9.5455    
  10.284      9.9746      9.3041      8.7258      8.3592      7.9408      7.2609      6.4568      5.8045      5.4001    
  5.2674      5.4001      5.8045      6.4568      7.2609      7.9408      8.3592      8.7258      9.3041      9.9746    
  10.963      10.584      9.6947      8.9646      8.7242      8.6277      8.1636      7.2923      6.4126      5.8216    
  5.5533      5.6193      6.0261      6.7727      7.7976      8.7377      9.2715      9.5455      9.9746      10.611    
  10.836      10.602      9.6910      8.6235      8.0225      7.9400      7.8717      7.4033      6.6429      5.9658    
  5.5460      5.4216      5.6041      6.1061      6.9304      7.9786      8.9143      9.5323      9.9880      10.484    
  10.602      10.952      10.576      9.6924      8.9660      8.7266      8.6299      8.1655      7.2939      6.4129    
  5.8206      5.5522      5.6197      6.0276      6.7736      7.7975      8.7378      9.2725      9.5455      9.9703    
  9.6910      10.576      10.953      10.604      9.9719      9.5465      9.2739      8.7396      7.7985      6.7729    
  6.0263      5.6193      5.5532      5.8217      6.4127      7.2925      8.1642      8.6291      8.7258      8.9646    
  8.6235      9.6924      10.604      10.838      10.485      9.9897      9.5345      8.9163      7.9789      6.9292    
  6.1050      5.6044      5.4227      5.5464      5.9649      6.6416      7.4027      7.8717      7.9397      8.0219    
  8.0225      8.9660      9.9719      10.485      10.352      9.8546      9.2754      8.6081      7.7511      6.8054    
  6.0178      5.4955      5.2461      5.2562      5.5181      6.0045      6.6351      7.1665      7.4058      7.5474    
  7.9400      8.7266      9.5465      9.9897      9.8546      9.3067      8.6314      7.9412      7.1984      6.4290    
  5.7690      5.2987      5.0418      4.9889      5.1280      5.4655      5.9595      6.5218      7.0019      7.4057    
  7.8717      8.6299      9.2739      9.5345      9.2754      8.6314      7.8720      7.1647      6.5195      5.9219    
  5.4174      5.0442      4.8304      4.7654      4.8305      5.0443      5.4178      5.9230      6.5211      7.1658    
  7.4033      8.1655      8.7396      8.9163      8.6081      7.9412      7.1647      6.4664      5.8923      5.4208    
  5.0467      4.7784      4.6328      4.5907      4.6281      4.7564      5.0137      5.4170      5.9586      6.6348    
  6.6429      7.2939      7.7985      7.9789      7.7511      7.1984      6.5195      5.8923      5.3892      5.0061    
  4.7248      4.5454      4.4651      4.4585      4.4992      4.5876      4.7558      5.0436      5.4652      6.0052    
  5.9658      6.4129      6.7729      6.9292      6.8054      6.4290      5.9219      5.4208      5.0061      4.6959    
  4.4862      4.3710      4.3364      4.3587      4.4150      4.4991      4.6278      4.8306      5.1288      5.5193    
  5.5460      5.8206      6.0263      6.1050      6.0178      5.7690      5.4174      5.0467      4.7248      4.4862    
  4.3350      4.2610      4.2501      4.2871      4.3587      4.4586      4.5910      4.7659      4.9896      5.2565    
  5.4216      5.5522      5.6193      5.6044      5.4955      5.2987      5.0442      4.7784      4.5454      4.3710    
  4.2610      4.2091      4.2071      4.2502      4.3366      4.4653      4.6331      4.8306      5.0415      5.2453    
  5.6041      5.6197      5.5532      5.4227      5.2461      5.0418      4.8304      4.6328      4.4651      4.3364    
  4.2501      4.2071      4.2092      4.2611      4.3711      4.5453      4.7781      5.0436      5.2978      5.4947    
  6.1061      6.0276      5.8217      5.5464      5.2562      4.9889      4.7654      4.5907      4.4585      4.3587    
  4.2871      4.2502      4.2611      4.3349      4.4858      4.7242      5.0462      5.4170      5.7690      6.0183    
  6.9304      6.7736      6.4127      5.9649      5.5181      5.1280      4.8305      4.6281      4.4992      4.4150    
  4.3587      4.3366      4.3711      4.4858      4.6952      5.0057      5.4212      5.9230      6.4304      6.8068    
  7.9786      7.7975      7.2925      6.6416      6.0045      5.4655      5.0443      4.7564      4.5876      4.4991    
  4.4586      4.4653      4.5453      4.7242      5.0057      5.3899      5.8942      6.5218      7.2001      7.7518    
  8.9143      8.7378      8.1642      7.4027      6.6351      5.9595      5.4178      5.0137      4.7558      4.6278    
  4.5910      4.6331      4.7781      5.0462      5.4212      5.8942      6.4690      7.1665      7.9412      8.6067    
  9.5323      9.2725      8.6291      7.8717      7.1665      6.5218      5.9230      5.4170      5.0436      4.8306    
  4.7659      4.8306      5.0436      5.4170      5.9230      6.5218      7.1665      7.8717      8.6291      9.2725    
  9.9880      9.5455      8.7258      7.9397      7.4058      7.0019      6.5211      5.9586      5.4652      5.1288    
  4.9896      5.0415      5.2978      5.7690      6.4304      7.2001      7.9412      8.6291      9.3035      9.8518    
  10.484      9.9703      8.9646      8.0219      7.5474      7.4057      7.1658      6.6348      6.0052      5.5193    
  5.2565      5.2453      5.4947      6.0183      6.8068      7.7518      8.6067      9.2725      9.8518      10.350    
  10.711      10.344      9.2998      8.0225      7.1083      6.7672      6.6911      6.4696      6.0214      5.5520    
  5.2196      5.0916      5.1809      5.5106      6.0955      6.9367      7.9394      8.9143      9.7598      10.422    
  10.344      10.479      9.9682      8.9660      8.0250      7.5504      7.4082      7.1677      6.6357      6.0046    
  5.5181      5.2562      5.2461      5.4956      6.0180      6.8057      7.7511      8.6067      9.2715      9.8480    
  9.2998      9.9682      10.278      9.9719      9.3054      8.7295      8.3628      7.9430      7.2617      6.4570    
  5.8045      5.4001      5.2673      5.4001      5.8046      6.4569      7.2611      7.9412      8.3592      8.7242    
  8.0225      8.9660      9.9719      10.485      10.352      9.8546      9.2754      8.6081      7.7511      6.8054    
  6.0178      5.4955      5.2461      5.2562      5.5181      6.0045      6.6351      7.1665      7.4058      7.5474    
  7.1083      8.0250      9.3054      10.352      10.719      10.428      9.7621      8.9141      7.9381      6.9355    
  6.0949      5.5104      5.1808      5.0915      5.2196      5.5519      6.0211      6.4690      6.6901      6.7662    
  6.7672      7.5504      8.7295      9.8546      10.428      10.292      9.6388      8.7354      7.7485      6.7937    
  5.9987      5.4246      5.0704      4.9246      4.9535      5.1543      5.4956      5.8942      6.2105      6.4196    
  6.6911      7.4082      8.3628      9.2754      9.7621      9.6388      9.0207      8.1603      7.2578      6.4286    
  5.7496      5.2464      4.9225      4.7672      4.7425      4.8431      5.0803      5.4212      5.8127      6.2107    
  6.4696      7.1677      7.9430      8.6081      8.9141      8.7354      8.1603      7.3988      6.6325      5.9585    
  5.4178      5.0139      4.7560      4.6279      4.5910      4.6331      4.7781      5.0462      5.4213      5.8943    
  6.0214      6.6357      7.2617      7.7511      7.9381      7.7485      7.2578      6.6325      6.0198      5.4956    
  5.0809      4.7786      4.5963      4.5122      4.4900      4.5121      4.5961      4.7781      5.0804      5.4957    
  5.5520      6.0046      6.4570      6.8054      6.9355      6.7937      6.4286      5.9585      5.4956      5.1009    
  4.7924      4.5815      4.4651      4.4222      4.4236      4.4513      4.5121      4.6331      4.8431      5.1544    
  5.2196      5.5181      5.8045      6.0178      6.0949      5.9987      5.7496      5.4178      5.0809      4.7924    
  4.5781      4.4412      4.3732      4.3587      4.3798      4.4236      4.4899      4.5910      4.7425      4.9536    
  5.0916      5.2562      5.4001      5.4955      5.5104      5.4246      5.2464      5.0139      4.7786      4.5815    
  4.4412      4.3572      4.3209      4.3235      4.3587      4.4222      4.5121      4.6278      4.7672      4.9246    
  5.1809      5.2461      5.2673      5.2461      5.1808      5.0704      4.9225      4.7560      4.5963      4.4651    
  4.3732      4.3209      4.3042      4.3209      4.3731      4.4650      4.5961      4.7558      4.9225      5.0705    
  5.5106      5.4956      5.4001      5.2562      5.0915      4.9246      4.7672      4.6279      4.5122      4.4222    
  4.3587      4.3235      4.3209      4.3571      4.4409      4.5810      4.7781      5.0137      5.2465      5.4249    
  6.0955      6.0180      5.8046      5.5181      5.2196      4.9535      4.7425      4.5910      4.4900      4.4236    
  4.3798      4.3587      4.3731      4.4409      4.5774      4.7916      5.0803      5.4178      5.7503      5.9995    
  6.9367      6.8057      6.4569      6.0045      5.5519      5.1543      4.8431      4.6331      4.5121      4.4513    
  4.4236      4.4222      4.4650      4.5810      4.7916      5.1002      5.4956      5.9595      6.4304      6.7955    
  7.9394      7.7511      7.2611      6.6351      6.0211      5.4956      5.0803      4.7781      4.5961      4.5121    
  4.4899      4.5121      4.5961      4.7781      5.0803      5.4956      6.0211      6.6351      7.2611      7.7511    
  8.9143      8.6067      7.9412      7.1665      6.4690      5.8942      5.4212      5.0462      4.7781      4.6331    
  4.5910      4.6278      4.7558      5.0137      5.4178      5.9595      6.6351      7.4027      8.1642      8.7378    
  9.7598      9.2715      8.3592      7.4058      6.6901      6.2105      5.8127      5.4213      5.0804      4.8431    
  4.7425      4.7672      4.9225      5.2465      5.7503      6.4304      7.2611      8.1642      9.0236      9.6392    
  10.422      9.8480      8.7242      7.5474      6.7662      6.4196      6.2107      5.8943      5.4957      5.1544    
  4.9536      4.9246      5.0705      5.4249      5.9995      6.7955      7.7511      8.7378      9.6392      10.289    
  10.520      10.287      9.3007      7.9400      6.7672      6.1048      5.8403      5.6572      5.3905      5.0998    
  4.8821      4.7976      4.8516      5.0589      5.4653      6.0853      6.9367      7.9786      9.0769      10.023    
  10.287      10.421      9.8486      8.7266      7.5504      6.7690      6.4219      6.2120      5.8943      5.4948    
  5.1536      4.9537      4.9253      5.0706      5.4240      5.9986      6.7955      7.7518      8.7377      9.6374    
  9.3007      9.8486      9.9862      9.5465      8.7295      7.9442      7.4092      7.0034      6.5213      5.9584    
  5.4651      5.1287      4.9896      5.0415      5.2979      5.7690      6.4304      7.2001      7.9408      8.6277    
  7.9400      8.7266      9.5465      9.9897      9.8546      9.3067      8.6314      7.9412      7.1984      6.4290    
  5.7690      5.2987      5.0418      4.9889      5.1280      5.4655      5.9595      6.5218      7.0019      7.4057    
  6.7672      7.5504      8.7295      9.8546      10.428      10.292      9.6388      8.7354      7.7485      6.7937    
  5.9987      5.4246      5.0704      4.9246      4.9535      5.1543      5.4956      5.8942      6.2105      6.4196    
  6.1048      6.7690      7.9442      9.3067      10.292      10.522      10.020      9.0716      7.9742      6.9350    
  6.0856      5.4657      5.0585      4.8511      4.7978      4.8829      5.1002      5.3899      5.6560      5.8393    
  5.8403      6.4219      7.4092      8.6314      9.6388      10.020      9.6800      8.8333      7.7937      6.8051    
  5.9994      5.4015      4.9951      4.7675      4.6698      4.6754      4.7916      5.0057      5.2650      5.5232    
  5.6572      6.2120      7.0034      7.9412      8.7354      9.0716      8.8333      8.1552      7.2911      6.4579    
  5.7703      5.2469      4.8866      4.6767      4.5708      4.5367      4.5810      4.7242      4.9592      5.2657    
  5.3905      5.8943      6.5213      7.1984      7.7485      7.9742      7.7937      7.2911      6.6426      6.0066    
  5.4670      5.0448      4.7563      4.5878      4.4993      4.4585      4.4650      4.5453      4.7248      5.0066    
  5.0998      5.4948      5.9584      6.4290      6.7937      6.9350      6.8051      6.4579      6.0066      5.5540    
  5.1554      4.8433      4.6330      4.5122      4.4514      4.4235      4.4222      4.4653      4.5815      4.7919    
  4.8821      5.1536      5.4651      5.7690      5.9987      6.0856      5.9994      5.7703      5.4670      5.1554    
  4.8832      4.6753      4.5366      4.4585      4.4235      4.4143      4.4236      4.4586      4.5367      4.6749    
  4.7976      4.9537      5.1287      5.2987      5.4246      5.4657      5.4015      5.2469      5.0448      4.8433    
  4.6753      4.5524      4.4725      4.4291      4.4149      4.4235      4.4513      4.4991      4.5705      4.6693    
  4.8516      4.9253      4.9896      5.0418      5.0704      5.0585      4.9951      4.8866      4.7563      4.6330    
  4.5366      4.4725      4.4364      4.4225      4.4292      4.4585      4.5121      4.5876      4.6766      4.7677    
  5.0589      5.0706      5.0415      4.9889      4.9246      4.8511      4.7675      4.6767      4.5878      4.5122    
  4.4585      4.4291      4.4225      4.4365      4.4727      4.5367      4.6331      4.7564      4.8867      4.9955    
  5.4653      5.4240      5.2979      5.1280      4.9535      4.7978      4.6698      4.5708      4.4993      4.4514    
  4.4235      4.4149      4.4292      4.4727      4.5526      4.6754      4.8431      5.0443      5.2465      5.4012    
  6.0853      5.9986      5.7690      5.4655      5.1543      4.8829      4.6754      4.5367      4.4585      4.4235    
  4.4143      4.4235      4.4585      4.5367      4.6754      4.8829      5.1543      5.4655      5.7690      5.9986    
  6.9367      6.7955      6.4304      5.9595      5.4956      5.1002      4.7916      4.5810      4.4650      4.4222    
  4.4236      4.4513      4.5121      4.6331      4.8431      5.1543      5.5519      6.0045      6.4569      6.8057    
  7.9786      7.7518      7.2001      6.5218      5.8942      5.3899      5.0057      4.7242      4.5453      4.4653    
  4.4586      4.4991      4.5876      4.7564      5.0443      5.4655      6.0045      6.6416      7.2925      7.7975    
  9.0769      8.7377      7.9408      7.0019      6.2105      5.6560      5.2650      4.9592      4.7248      4.5815    
  4.5367      4.5705      4.6766      4.8867      5.2465      5.7690      6.4569      7.2925      8.1600      8.8398    
  10.023      9.6374      8.6277      7.4057      6.4196      5.8393      5.5232      5.2657      5.0066      4.7919    
  4.6749      4.6693      4.7677      4.9955      5.4012      5.9986      6.8057      7.7975      8.8398      9.6861    
  9.6193      9.6847      9.0225      7.8717      6.6911      5.8403      5.3671      5.0973      4.8804      4.6952    
  4.5774      4.5525      4.6115      4.7550      5.0226      5.4653      6.0955      6.9304      7.9343      8.9317    
  9.6847      10.022      9.6384      8.6299      7.4082      6.4219      5.8407      5.5235      5.2649      5.0056    
  4.7916      4.6753      4.6697      4.7674      4.9949      5.4012      5.9995      6.8068      7.7976      8.8387    
  9.0225      9.6384      9.7604      9.2739      8.3628      7.4092      6.6920      6.2108      5.8123      5.4208    