BCC W                                   
   3.12720000000000     
    -0.500000    0.500000    0.500000
     0.500000   -0.500000    0.500000
     0.500000    0.500000   -0.500000
   W 
     1
Direct
  0.000000  0.000000  0.000000
 
   20   20   20
 0.13378969427E+02 0.12790376234E+02 0.11604693046E+02 0.10835825561E+02 0.10710966892E+02
 0.10519902101E+02 0.96192753302E+01 0.82106817929E+01 0.69828489342E+01 0.62806848880E+01
 0.60492525047E+01 0.62806848880E+01 0.69828489342E+01 0.82106817929E+01 0.96192753302E+01
 0.10519902101E+02 0.10710966892E+02 0.10835825561E+02 0.11604693046E+02 0.12790376234E+02
 0.12790376234E+02 0.12563580905E+02 0.11517908103E+02 0.10602081970E+02 0.10343890960E+02
 0.10286718069E+02 0.96846949161E+01 0.84545432984E+01 0.71830206549E+01 0.63564276237E+01
 0.59890638710E+01 0.60632696319E+01 0.65799195595E+01 0.75828483772E+01 0.89317245205E+01
 0.10022583427E+02 0.10422374414E+02 0.10483922265E+02 0.10962583329E+02 0.11993936045E+02
 0.11604693046E+02 0.11517908103E+02 0.10642724368E+02 0.96909814175E+01 0.92998121828E+01
 0.93007349099E+01 0.90225463372E+01 0.81596866914E+01 0.70719486892E+01 0.62513658878E+01
 0.58145666654E+01 0.57594307705E+01 0.60924409930E+01 0.68191816074E+01 0.79342898468E+01
 0.90769118602E+01 0.97597890006E+01 0.99880236259E+01 0.10283967974E+02 0.10962583329E+02
 0.10835825561E+02 0.10602081970E+02 0.96909814175E+01 0.86235487939E+01 0.80225392239E+01
 0.79399829958E+01 0.78717364046E+01 0.74033009611E+01 0.66429143999E+01 0.59658384406E+01
 0.55459989905E+01 0.54215828208E+01 0.56040538247E+01 0.61060579385E+01 0.69303832785E+01
 0.79786420862E+01 0.89143454673E+01 0.95322500953E+01 0.99880236259E+01 0.10483922265E+02
 0.10710966892E+02 0.10343890960E+02 0.92998121828E+01 0.80225392239E+01 0.71083268598E+01
 0.67672288296E+01 0.66911162198E+01 0.64695828646E+01 0.60213695354E+01 0.55520007864E+01
 0.52195979383E+01 0.50915657294E+01 0.51808806939E+01 0.55106339160E+01 0.60955141540E+01
 0.69366568720E+01 0.79393834489E+01 0.89143454673E+01 0.97597890006E+01 0.10422374414E+02
 0.10519902101E+02 0.10286718069E+02 0.93007349099E+01 0.79399829958E+01 0.67672288296E+01
 0.61048498089E+01 0.58402832243E+01 0.56572059005E+01 0.53904982933E+01 0.50998154422E+01
 0.48820649291E+01 0.47975535017E+01 0.48516018893E+01 0.50589294037E+01 0.54653258322E+01
 0.60852535796E+01 0.69366568720E+01 0.79786420862E+01 0.90769118602E+01 0.10022583427E+02
 0.96192753302E+01 0.96846949161E+01 0.90225463372E+01 0.78717364046E+01 0.66911162198E+01
 0.58402832243E+01 0.53670651831E+01 0.50973467012E+01 0.48803958244E+01 0.46951839089E+01
 0.45774324958E+01 0.45525187654E+01 0.46114706248E+01 0.47549738995E+01 0.50226029315E+01
 0.54653258322E+01 0.60955141540E+01 0.69303832785E+01 0.79342898468E+01 0.89317245205E+01
 0.82106817929E+01 0.84545432984E+01 0.81596866914E+01 0.74033009611E+01 0.64695828646E+01
 0.56572059005E+01 0.50973467012E+01 0.47483162467E+01 0.45253957902E+01 0.43885644325E+01
 0.43346933726E+01 0.43573143309E+01 0.44366400950E+01 0.45623304189E+01 0.47549738995E+01
 0.50589294037E+01 0.55106339160E+01 0.61060579385E+01 0.68191816074E+01 0.75828483772E+01
 0.69828489342E+01 0.71830206549E+01 0.70719486892E+01 0.66429143999E+01 0.60213695354E+01
 0.53904982933E+01 0.48803958244E+01 0.45253957902E+01 0.43042473015E+01 0.41904425677E+01
 0.41645914635E+01 0.42091576552E+01 0.43042954779E+01 0.44366400950E+01 0.46114706248E+01
 0.48516018893E+01 0.51808806939E+01 0.56040538247E+01 0.60924409930E+01 0.65799195595E+01
 0.62806848880E+01 0.63564276237E+01 0.62513658878E+01 0.59658384406E+01 0.55520007864E+01
 0.50998154422E+01 0.46951839089E+01 0.43885644325E+01 0.41904425677E+01 0.40883315974E+01
 0.40657532395E+01 0.41095351477E+01 0.42091576552E+01 0.43573143309E+01 0.45525187654E+01
 0.47975535017E+01 0.50915657294E+01 0.54215828208E+01 0.57594307705E+01 0.60632696319E+01
 0.60492525047E+01 0.59890638710E+01 0.58145666654E+01 0.55459989905E+01 0.52195979383E+01
 0.48820649291E+01 0.45774324958E+01 0.43346933726E+01 0.41645914635E+01 0.40657532395E+01
 0.40335191746E+01 0.40657532395E+01 0.41645914635E+01 0.43346933726E+01 0.45774324958E+01
 0.48820649291E+01 0.52195979383E+01 0.55459989905E+01 0.58145666654E+01 0.59890638710E+01
 0.62806848880E+01 0.60632696319E+01 0.57594307705E+01 0.54215828208E+01 0.50915657294E+01
 0.47975535017E+01 0.45525187654E+01 0.43573143309E+01 0.42091576552E+01 0.41095351477E+01
 0.40657532395E+01 0.40883315974E+01 0.41904425677E+01 0.43885644325E+01 0.46951839089E+01
 0.50998154422E+01 0.55520007864E+01 0.59658384406E+01 0.62513658878E+01 0.63564276237E+01
 0.69828489342E+01 0.65799195595E+01 0.60924409930E+01 0.56040538247E+01 0.51808806939E+01
 0.48516018893E+01 0.46114706248E+01 0.44366400950E+01 0.43042954779E+01 0.42091576552E+01
 0.41645914635E+01 0.41904425677E+01 0.43042473015E+01 0.45253957902E+01 0.48803958244E+01
 0.53904982933E+01 0.60213695354E+01 0.66429143999E+01 0.70719486892E+01 0.71830206549E+01
 0.82106817929E+01 0.75828483772E+01 0.68191816074E+01 0.61060579385E+01 0.55106339160E+01
 0.50589294037E+01 0.47549738995E+01 0.45623304189E+01 0.44366400950E+01 0.43573143309E+01
 0.43346933726E+01 0.43885644325E+01 0.45253957902E+01 0.47483162467E+01 0.50973467012E+01
 0.56572059005E+01 0.64695828646E+01 0.74033009611E+01 0.81596866914E+01 0.84545432984E+01
 0.96192753302E+01 0.89317245205E+01 0.79342898468E+01 0.69303832785E+01 0.60955141540E+01
 0.54653258322E+01 0.50226029315E+01 0.47549738995E+01 0.46114706248E+01 0.45525187654E+01
 0.45774324958E+01 0.46951839089E+01 0.48803958244E+01 0.50973467012E+01 0.53670651831E+01
 0.58402832243E+01 0.66911162198E+01 0.78717364046E+01 0.90225463372E+01 0.96846949161E+01
 0.10519902101E+02 0.10022583427E+02 0.90769118602E+01 0.79786420862E+01 0.69366568720E+01
 0.60852535796E+01 0.54653258322E+01 0.50589294037E+01 0.48516018893E+01 0.47975535017E+01
 0.48820649291E+01 0.50998154422E+01 0.53904982933E+01 0.56572059005E+01 0.58402832243E+01
 0.61048498089E+01 0.67672288296E+01 0.79399829958E+01 0.93007349099E+01 0.10286718069E+02
 0.10710966892E+02 0.10422374414E+02 0.97597890006E+01 0.89143454673E+01 0.79393834489E+01
 0.69366568720E+01 0.60955141540E+01 0.55106339160E+01 0.51808806939E+01 0.50915657294E+01
 0.52195979383E+01 0.55520007864E+01 0.60213695354E+01 0.64695828646E+01 0.66911162198E+01
 0.67672288296E+01 0.71083268598E+01 0.80225392239E+01 0.92998121828E+01 0.10343890960E+02
 0.10835825561E+02 0.10483922265E+02 0.99880236259E+01 0.95322500953E+01 0.89143454673E+01
 0.79786420862E+01 0.69303832785E+01 0.61060579385E+01 0.56040538247E+01 0.54215828208E+01
 0.55459989905E+01 0.59658384406E+01 0.66429143999E+01 0.74033009611E+01 0.78717364046E+01
 0.79399829958E+01 0.80225392239E+01 0.86235487939E+01 0.96909814175E+01 0.10602081970E+02
 0.11604693046E+02 0.10962583329E+02 0.10283967974E+02 0.99880236259E+01 0.97597890006E+01
 0.90769118602E+01 0.79342898468E+01 0.68191816074E+01 0.60924409930E+01 0.57594307705E+01
 0.58145666654E+01 0.62513658878E+01 0.70719486892E+01 0.81596866914E+01 0.90225463372E+01
 0.93007349099E+01 0.92998121828E+01 0.96909814175E+01 0.10642724368E+02 0.11517908103E+02
 0.12790376234E+02 0.11993936045E+02 0.10962583329E+02 0.10483922265E+02 0.10422374414E+02
 0.10022583427E+02 0.89317245205E+01 0.75828483772E+01 0.65799195595E+01 0.60632696319E+01
 0.59890638710E+01 0.63564276237E+01 0.71830206549E+01 0.84545432984E+01 0.96846949161E+01
 0.10286718069E+02 0.10343890960E+02 0.10602081970E+02 0.11517908103E+02 0.12563580905E+02
 0.12790376234E+02 0.12563580905E+02 0.11517908103E+02 0.10602081970E+02 0.10343890960E+02
 0.10286718069E+02 0.96846949161E+01 0.84545432984E+01 0.71830206549E+01 0.63564276237E+01
 0.59890638710E+01 0.60632696319E+01 0.65799195595E+01 0.75828483772E+01 0.89317245205E+01
 0.10022583427E+02 0.10422374414E+02 0.10483922265E+02 0.10962583329E+02 0.11993936045E+02
 0.12563580905E+02 0.12781055207E+02 0.11980288014E+02 0.10951549448E+02 0.10478534567E+02
 0.10420826411E+02 0.10022097567E+02 0.89317140373E+01 0.75839748190E+01 0.65815999068E+01
 0.60637495035E+01 0.59878094396E+01 0.63550180031E+01 0.71830681554E+01 0.84557642873E+01
 0.96861444491E+01 0.10289329193E+02 0.10349972397E+02 0.10611455233E+02 0.11525697591E+02
 0.11517908103E+02 0.11980288014E+02 0.11512415483E+02 0.10576008668E+02 0.99682140858E+01
 0.98486017923E+01 0.96383991440E+01 0.88399151034E+01 0.76449153657E+01 0.66150097739E+01
 0.60096976477E+01 0.58073297933E+01 0.60096264673E+01 0.66149308140E+01 0.76447819850E+01
 0.88398247924E+01 0.96392138135E+01 0.98518396493E+01 0.99745835856E+01 0.10583814296E+02
 0.10602081970E+02 0.10951549448E+02 0.10576008668E+02 0.96923503141E+01 0.89659976253E+01
 0.87265539506E+01 0.86298522733E+01 0.81655293824E+01 0.72939092619E+01 0.64128965693E+01
 0.58205554571E+01 0.55522418835E+01 0.56196828447E+01 0.60275750274E+01 0.67735681204E+01
 0.77975338563E+01 0.87378477210E+01 0.92725076221E+01 0.95454592482E+01 0.99702808453E+01
 0.10343890960E+02 0.10478534567E+02 0.99682140858E+01 0.89659976253E+01 0.80249692578E+01
 0.75504446888E+01 0.74081642214E+01 0.71677412530E+01 0.66356734869E+01 0.60046488463E+01
 0.55181326591E+01 0.52561780078E+01 0.52461424892E+01 0.54956247339E+01 0.60180280801E+01
 0.68057048945E+01 0.77511065607E+01 0.86066632489E+01 0.92714543007E+01 0.98479744931E+01
 0.10286718069E+02 0.10420826411E+02 0.98486017923E+01 0.87265539506E+01 0.75504446888E+01
 0.67690365086E+01 0.64218548316E+01 0.62119844609E+01 0.58942820116E+01 0.54947825348E+01
 0.51535904685E+01 0.49537483444E+01 0.49253271670E+01 0.50706292289E+01 0.54240232076E+01
 0.59985949054E+01 0.67954797301E+01 0.77517500173E+01 0.87377005401E+01 0.96374017989E+01
 0.96846949161E+01 0.10022097567E+02 0.96383991440E+01 0.86298522733E+01 0.74081642214E+01
 0.64218548316E+01 0.58407166477E+01 0.55234610122E+01 0.52649222234E+01 0.50056112138E+01
 0.47915823537E+01 0.46753238098E+01 0.46696690258E+01 0.47673563709E+01 0.49948666181E+01
 0.54012212179E+01 0.59995379241E+01 0.68067864138E+01 0.77976118556E+01 0.88386608322E+01
 0.84545432984E+01 0.89317140373E+01 0.88399151034E+01 0.81655293824E+01 0.71677412530E+01
 0.62119844609E+01 0.55234610122E+01 0.50965938151E+01 0.48173117804E+01 0.46156158429E+01
 0.44858481594E+01 0.44413185837E+01 0.44727917808E+01 0.45634779885E+01 0.47233259188E+01
 0.49954824394E+01 0.54248913425E+01 0.60182584702E+01 0.67726513418E+01 0.76431755194E+01
 0.71830206549E+01 0.75839748190E+01 0.76449153657E+01 0.72939092619E+01 0.66356734869E+01
 0.58942820116E+01 0.52649222234E+01 0.48173117804E+01 0.45252311463E+01 0.43472527585E+01
 0.42634338375E+01 0.42611441688E+01 0.43209694122E+01 0.44226454050E+01 0.45636920637E+01
 0.47676684711E+01 0.50705202644E+01 0.54947113559E+01 0.60261348771E+01 0.66138081599E+01
 0.63564276237E+01 0.65815999068E+01 0.66150097739E+01 0.64128965693E+01 0.60046488463E+01
 0.54947825348E+01 0.50056112138E+01 0.46156158429E+01 0.43472527585E+01 0.41907245438E+01
 0.41265838991E+01 0.41374409637E+01 0.42071015376E+01 0.43209171636E+01 0.44726887433E+01
 0.46693291842E+01 0.49246171910E+01 0.52452956491E+01 0.56192776525E+01 0.60101533899E+01
 0.59890638710E+01 0.60637495035E+01 0.60096976477E+01 0.58205554571E+01 0.55181326591E+01
 0.51535904685E+01 0.47915823537E+01 0.44858481594E+01 0.42634338375E+01 0.41265838991E+01
 0.40658020627E+01 0.40713469142E+01 0.41372791376E+01 0.42608625338E+01 0.44409428461E+01
 0.46749300854E+01 0.49535615823E+01 0.52565176631E+01 0.55532623834E+01 0.58087736972E+01
 0.60632696319E+01 0.59878094396E+01 0.58073297933E+01 0.55522418835E+01 0.52561780078E+01
 0.49537483444E+01 0.46753238098E+01 0.44413185837E+01 0.42611441688E+01 0.41374409637E+01
 0.40713469142E+01 0.40656193309E+01 0.41262785972E+01 0.42631486087E+01 0.44857667336E+01
 0.47918817307E+01 0.51543612749E+01 0.55192513467E+01 0.58216146903E+01 0.60101533899E+01
 0.65799195595E+01 0.63550180031E+01 0.60096264673E+01 0.56196828447E+01 0.52461424892E+01
 0.49253271670E+01 0.46696690258E+01 0.44727917808E+01 0.43209694122E+01 0.42071015376E+01
 0.41372791376E+01 0.41262785972E+01 0.41905017647E+01 0.43473879564E+01 0.46162235497E+01
 0.50065607194E+01 0.54957374059E+01 0.60051641234E+01 0.64125885864E+01 0.66138081599E+01
 0.75828483772E+01 0.71830681554E+01 0.66149308140E+01 0.60275750274E+01 0.54956247339E+01
 0.50706292289E+01 0.47673563709E+01 0.45634779885E+01 0.44226454050E+01 0.43209171636E+01
 0.42608625338E+01 0.42631486087E+01 0.43473879564E+01 0.45259540941E+01 0.48183319908E+01
 0.52656916833E+01 0.58943303252E+01 0.66348167634E+01 0.72923305853E+01 0.76431755194E+01
 0.89317245205E+01 0.84557642873E+01 0.76447819850E+01 0.67735681204E+01 0.60180280801E+01
 0.54240232076E+01 0.49948666181E+01 0.47233259188E+01 0.45636920637E+01 0.44726887433E+01
 0.44409428461E+01 0.44857667336E+01 0.46162235497E+01 0.48183319908E+01 0.50972903145E+01
 0.55232359709E+01 0.62107386565E+01 0.71658273068E+01 0.81635740268E+01 0.88386608322E+01
 0.10022583427E+02 0.96861444491E+01 0.88398247924E+01 0.77975338563E+01 0.68057048945E+01
 0.59985949054E+01 0.54012212179E+01 0.49954824394E+01 0.47676684711E+01 0.46693291842E+01
 0.46749300854E+01 0.47918817307E+01 0.50065607194E+01 0.52656916833E+01 0.55232359709E+01
 0.58393098773E+01 0.64196219775E+01 0.74056611499E+01 0.86277401312E+01 0.96374017989E+01
 0.10422374414E+02 0.10289329193E+02 0.96392138135E+01 0.87378477210E+01 0.77511065607E+01
 0.67954797301E+01 0.59995379241E+01 0.54248913425E+01 0.50705202644E+01 0.49246171910E+01
 0.49535615823E+01 0.51543612749E+01 0.54957374059E+01 0.58943303252E+01 0.62107386565E+01
 0.64196219775E+01 0.67662120052E+01 0.75474212188E+01 0.87241574939E+01 0.98479744931E+01
 0.10483922265E+02 0.10349972397E+02 0.98518396493E+01 0.92725076221E+01 0.86066632489E+01
 0.77517500173E+01 0.68067864138E+01 0.60182584702E+01 0.54947113559E+01 0.52452956491E+01
 0.52565176631E+01 0.55192513467E+01 0.60051641234E+01 0.66348167634E+01 0.71658273068E+01
 0.74056611499E+01 0.75474212188E+01 0.80219141019E+01 0.89645913747E+01 0.99702808453E+01
 0.10962583329E+02 0.10611455233E+02 0.99745835856E+01 0.95454592482E+01 0.92714543007E+01
 0.87377005401E+01 0.77976118556E+01 0.67726513418E+01 0.60261348771E+01 0.56192776525E+01
 0.55532623834E+01 0.58216146903E+01 0.64125885864E+01 0.72923305853E+01 0.81635740268E+01
 0.86277401312E+01 0.87241574939E+01 0.89645913747E+01 0.96947403635E+01 0.10583814296E+02
 0.11993936045E+02 0.11525697591E+02 0.10583814296E+02 0.99702808453E+01 0.98479744931E+01
 0.96374017989E+01 0.88386608322E+01 0.76431755194E+01 0.66138081599E+01 0.60101533899E+01
 0.58087736972E+01 0.60101533899E+01 0.66138081599E+01 0.76431755194E+01 0.88386608322E+01
 0.96374017989E+01 0.98479744931E+01 0.99702808453E+01 0.10583814296E+02 0.11525697591E+02
 0.11604693046E+02 0.11517908103E+02 0.10642724368E+02 0.96909814175E+01 0.92998121828E+01
 0.93007349099E+01 0.90225463372E+01 0.81596866914E+01 0.70719486892E+01 0.62513658878E+01
 0.58145666654E+01 0.57594307705E+01 0.60924409930E+01 0.68191816074E+01 0.79342898468E+01
 0.90769118602E+01 0.97597890006E+01 0.99880236259E+01 0.10283967974E+02 0.10962583329E+02
 0.11517908103E+02 0.11980288014E+02 0.11512415483E+02 0.10576008668E+02 0.99682140858E+01
 0.98486017923E+01 0.96383991440E+01 0.88399151034E+01 0.76449153657E+01 0.66150097739E+01
 0.60096976477E+01 0.58073297933E+01 0.60096264673E+01 0.66149308140E+01 0.76447819850E+01
 0.88398247924E+01 0.96392138135E+01 0.98518396493E+01 0.99745835856E+01 0.10583814296E+02
 0.10642724368E+02 0.11512415483E+02 0.11595283834E+02 0.10953222272E+02 0.10278053275E+02
 0.99862014833E+01 0.97603627885E+01 0.90778989738E+01 0.79348453139E+01 0.68194112450E+01
 0.60925594222E+01 0.57594568060E+01 0.58145375851E+01 0.62513903306E+01 0.70720509725E+01
 0.81599757124E+01 0.90236347262E+01 0.93034956424E+01 0.93041269261E+01 0.96947403635E+01
 0.96909814175E+01 0.10576008668E+02 0.10953222272E+02 0.10604284506E+02 0.99718518066E+01
 0.95465336157E+01 0.92739365933E+01 0.87396134699E+01 0.77984815916E+01 0.67729407806E+01
 0.60262520883E+01 0.56193055634E+01 0.55532440893E+01 0.58216548411E+01 0.64127059929E+01
 0.72925486469E+01 0.81642015113E+01 0.86291300074E+01 0.87257898197E+01 0.89645913747E+01
 0.92998121828E+01 0.99682140858E+01 0.10278053275E+02 0.99718518066E+01 0.93054081806E+01
 0.87295029032E+01 0.83628387252E+01 0.79429851419E+01 0.72616514594E+01 0.64569615438E+01
 0.58045262569E+01 0.54001056493E+01 0.52673303838E+01 0.54001249434E+01 0.58045517815E+01
 0.64568722161E+01 0.72610514191E+01 0.79411688321E+01 0.83591729570E+01 0.87241574939E+01
 0.93007349099E+01 0.98486017923E+01 0.99862014833E+01 0.95465336157E+01 0.87295029032E+01
 0.79442028367E+01 0.74091644926E+01 0.70033538635E+01 0.65212755162E+01 0.59584032192E+01
 0.54651447589E+01 0.51287126721E+01 0.49895916205E+01 0.50415198730E+01 0.52978728451E+01
 0.57689809085E+01 0.64304137302E+01 0.72000786291E+01 0.79408280315E+01 0.86277401312E+01
 0.90225463372E+01 0.96383991440E+01 0.97603627885E+01 0.92739365933E+01 0.83628387252E+01
 0.74091644926E+01 0.66919615414E+01 0.62107969802E+01 0.58122743302E+01 0.54208115654E+01
 0.50801509505E+01 0.48430441837E+01 0.47424797072E+01 0.47671690908E+01 0.49224860345E+01
 0.52464834039E+01 0.57502539494E+01 0.64304213877E+01 0.72608978127E+01 0.81635740268E+01
 0.81596866914E+01 0.88399151034E+01 0.90778989738E+01 0.87396134699E+01 0.79429851419E+01
 0.70033538635E+01 0.62107969802E+01 0.56554549554E+01 0.52642130440E+01 0.49586819046E+01
 0.47246530344E+01 0.45814754102E+01 0.45366808732E+01 0.45704729556E+01 0.46766560402E+01
 0.48867457316E+01 0.52464714073E+01 0.57689805559E+01 0.64568191682E+01 0.72923305853E+01
 0.70719486892E+01 0.76449153657E+01 0.79348453139E+01 0.77984815916E+01 0.72616514594E+01
 0.65212755162E+01 0.58122743302E+01 0.52642130440E+01 0.48797710432E+01 0.46159090226E+01
 0.44476044415E+01 0.43711088205E+01 0.43731845021E+01 0.44292411039E+01 0.45252426240E+01
 0.46766401017E+01 0.49224554463E+01 0.52978404575E+01 0.58044936896E+01 0.64125885864E+01
 0.62513658878E+01 0.66150097739E+01 0.68194112450E+01 0.67729407806E+01 0.64569615438E+01
 0.59584032192E+01 0.54208115654E+01 0.49586819046E+01 0.46159090226E+01 0.43890954359E+01
 0.42635410745E+01 0.42232010522E+01 0.42500765196E+01 0.43235131057E+01 0.44292434628E+01
 0.45704794824E+01 0.47671759512E+01 0.50415227418E+01 0.54001099582E+01 0.58216146903E+01
 0.58145666654E+01 0.60096976477E+01 0.60925594222E+01 0.60262520883E+01 0.58045262569E+01
 0.54651447589E+01 0.50801509505E+01 0.47246530344E+01 0.44476044415E+01 0.42635410745E+01
 0.41647403252E+01 0.41373618416E+01 0.41691374553E+01 0.42500586135E+01 0.43731888302E+01
 0.45367189768E+01 0.47425354249E+01 0.49896420262E+01 0.52673623867E+01 0.55532623834E+01
 0.57594307705E+01 0.58073297933E+01 0.57594568060E+01 0.56193055634E+01 0.54001056493E+01
 0.51287126721E+01 0.48430441837E+01 0.45814754102E+01 0.43711088205E+01 0.42232010522E+01
 0.41373618416E+01 0.41094103660E+01 0.41373115678E+01 0.42231517074E+01 0.43711136692E+01
 0.45815413966E+01 0.48431296693E+01 0.51287673226E+01 0.54001099582E+01 0.56192776525E+01
 0.60924409930E+01 0.60096264673E+01 0.58145375851E+01 0.55532440893E+01 0.52673303838E+01
 0.49895916205E+01 0.47424797072E+01 0.45366808732E+01 0.43731845021E+01 0.42500765196E+01
 0.41691374553E+01 0.41373115678E+01 0.41646615118E+01 0.42635105166E+01 0.44476913186E+01
 0.47248464124E+01 0.50803540041E+01 0.54652484934E+01 0.58044936896E+01 0.60261348771E+01
 0.68191816074E+01 0.66149308140E+01 0.62513903306E+01 0.58216548411E+01 0.54001249434E+01
 0.50415198730E+01 0.47671690908E+01 0.45704729556E+01 0.44292411039E+01 0.43235131057E+01
 0.42500586135E+01 0.42231517074E+01 0.42635105166E+01 0.43892031096E+01 0.46162441475E+01
 0.49591794966E+01 0.54212515817E+01 0.59585698144E+01 0.64568191682E+01 0.67726513418E+01
 0.79342898468E+01 0.76447819850E+01 0.70720509725E+01 0.64127059929E+01 0.58045517815E+01
 0.52978728451E+01 0.49224860345E+01 0.46766560402E+01 0.45252426240E+01 0.44292434628E+01
 0.43731888302E+01 0.43711136692E+01 0.44476913186E+01 0.46162441475E+01 0.48804301760E+01
 0.52649872749E+01 0.58127274725E+01 0.65210816669E+01 0.72608978127E+01 0.77976118556E+01
 0.90769118602E+01 0.88398247924E+01 0.81599757124E+01 0.72925486469E+01 0.64568722161E+01
 0.57689809085E+01 0.52464834039E+01 0.48867457316E+01 0.46766401017E+01 0.45704794824E+01
 0.45367189768E+01 0.45815413966E+01 0.47248464124E+01 0.49591794966E+01 0.52649872749E+01
 0.56560400669E+01 0.62105098385E+01 0.70018959473E+01 0.79408280315E+01 0.87377005401E+01
 0.97597890006E+01 0.96392138135E+01 0.90236347262E+01 0.81642015113E+01 0.72610514191E+01
 0.64304137302E+01 0.57502539494E+01 0.52464714073E+01 0.49224554463E+01 0.47671759512E+01
 0.47425354249E+01 0.48431296693E+01 0.50803540041E+01 0.54212515817E+01 0.58127274725E+01
 0.62105098385E+01 0.66901407909E+01 0.74058420788E+01 0.83591729570E+01 0.92714543007E+01
 0.99880236259E+01 0.98518396493E+01 0.93034956424E+01 0.86291300074E+01 0.79411688321E+01
 0.72000786291E+01 0.64304213877E+01 0.57689805559E+01 0.52978404575E+01 0.50415227418E+01
 0.49896420262E+01 0.51287673226E+01 0.54652484934E+01 0.59585698144E+01 0.65210816669E+01
 0.70018959473E+01 0.74058420788E+01 0.79397073642E+01 0.87257898197E+01 0.95454592482E+01
 0.10283967974E+02 0.99745835856E+01 0.93041269261E+01 0.87257898197E+01 0.83591729570E+01
 0.79408280315E+01 0.72608978127E+01 0.64568191682E+01 0.58044936896E+01 0.54001099582E+01
 0.52673623867E+01 0.54001099582E+01 0.58044936896E+01 0.64568191682E+01 0.72608978127E+01
 0.79408280315E+01 0.83591729570E+01 0.87257898197E+01 0.93041269261E+01 0.99745835856E+01
 0.10962583329E+02 0.10583814296E+02 0.96947403635E+01 0.89645913747E+01 0.87241574939E+01
 0.86277401312E+01 0.81635740268E+01 0.72923305853E+01 0.64125885864E+01 0.58216146903E+01
 0.55532623834E+01 0.56192776525E+01 0.60261348771E+01 0.67726513418E+01 0.77976118556E+01
 0.87377005401E+01 0.92714543007E+01 0.95454592482E+01 0.99745835856E+01 0.10611455233E+02
 0.10835825561E+02 0.10602081970E+02 0.96909814175E+01 0.86235487939E+01 0.80225392239E+01
 0.79399829958E+01 0.78717364046E+01 0.74033009611E+01 0.66429143999E+01 0.59658384406E+01
 0.55459989905E+01 0.54215828208E+01 0.56040538247E+01 0.61060579385E+01 0.69303832785E+01
 0.79786420862E+01 0.89143454673E+01 0.95322500953E+01 0.99880236259E+01 0.10483922265E+02
 0.10602081970E+02 0.10951549448E+02 0.10576008668E+02 0.96923503141E+01 0.89659976253E+01
 0.87265539506E+01 0.86298522733E+01 0.81655293824E+01 0.72939092619E+01 0.64128965693E+01
 0.58205554571E+01 0.55522418835E+01 0.56196828447E+01 0.60275750274E+01 0.67735681204E+01
 0.77975338563E+01 0.87378477210E+01 0.92725076221E+01 0.95454592482E+01 0.99702808453E+01
 0.96909814175E+01 0.10576008668E+02 0.10953222272E+02 0.10604284506E+02 0.99718518066E+01
 0.95465336157E+01 0.92739365933E+01 0.87396134699E+01 0.77984815916E+01 0.67729407806E+01
 0.60262520883E+01 0.56193055634E+01 0.55532440893E+01 0.58216548411E+01 0.64127059929E+01
 0.72925486469E+01 0.81642015113E+01 0.86291300074E+01 0.87257898197E+01 0.89645913747E+01
 0.86235487939E+01 0.96923503141E+01 0.10604284506E+02 0.10837751475E+02 0.10485341527E+02
 0.99897030548E+01 0.95345373211E+01 0.89162642144E+01 0.79789323220E+01 0.69292091247E+01
 0.61050374888E+01 0.56044100737E+01 0.54227356960E+01 0.55463925269E+01 0.59648917669E+01
 0.66415856211E+01 0.74026855436E+01 0.78717156490E+01 0.79397073642E+01 0.80219141019E+01
 0.80225392239E+01 0.89659976253E+01 0.99718518066E+01 0.10485341527E+02 0.10351794412E+02
 0.98545528194E+01 0.92753576134E+01 0.86080830113E+01 0.77511321129E+01 0.68053550671E+01
 0.60177733255E+01 0.54955123851E+01 0.52461006081E+01 0.52561575436E+01 0.55180893716E+01
 0.60044788091E+01 0.66351372952E+01 0.71664540972E+01 0.74058420788E+01 0.75474212188E+01
 0.79399829958E+01 0.87265539506E+01 0.95465336157E+01 0.99897030548E+01 0.98545528194E+01
 0.93067431337E+01 0.86313533631E+01 0.79411706929E+01 0.71984278468E+01 0.64289873466E+01
 0.57689761133E+01 0.52986733298E+01 0.50417891898E+01 0.49889349184E+01 0.51280494672E+01
 0.54654906653E+01 0.59595407583E+01 0.65217866249E+01 0.70018959473E+01 0.74056611499E+01
 0.78717364046E+01 0.86298522733E+01 0.92739365933E+01 0.95345373211E+01 0.92753576134E+01
 0.86313533631E+01 0.78719853704E+01 0.71647032174E+01 0.65195232291E+01 0.59219371307E+01
 0.54173507942E+01 0.50441814196E+01 0.48304433805E+01 0.47653620916E+01 0.48305147815E+01
 0.50443312997E+01 0.54178086433E+01 0.59230259827E+01 0.65210816669E+01 0.71658273068E+01
 0.74033009611E+01 0.81655293824E+01 0.87396134699E+01 0.89162642144E+01 0.86080830113E+01
 0.79411706929E+01 0.71647032174E+01 0.64663972649E+01 0.58922616710E+01 0.54208357577E+01
 0.50467032741E+01 0.47784339960E+01 0.46327890356E+01 0.45906879591E+01 0.46281085878E+01
 0.47563521346E+01 0.50136929250E+01 0.54170131809E+01 0.59585698144E+01 0.66348167634E+01
 0.66429143999E+01 0.72939092619E+01 0.77984815916E+01 0.79789323220E+01 0.77511321129E+01
 0.71984278468E+01 0.65195232291E+01 0.58922616710E+01 0.53891825116E+01 0.50060715427E+01
 0.47248349875E+01 0.45453843204E+01 0.44650504309E+01 0.44584895874E+01 0.44992412135E+01
 0.45876450253E+01 0.47558190790E+01 0.50435722527E+01 0.54652484934E+01 0.60051641234E+01
 0.59658384406E+01 0.64128965693E+01 0.67729407806E+01 0.69292091247E+01 0.68053550671E+01
 0.64289873466E+01 0.59219371307E+01 0.54208357577E+01 0.50060715427E+01 0.46958747549E+01
 0.44861549322E+01 0.43710399245E+01 0.43363634426E+01 0.43586655613E+01 0.44149981646E+01
 0.44990751941E+01 0.46278356038E+01 0.48305684131E+01 0.51287673226E+01 0.55192513467E+01
 0.55459989905E+01 0.58205554571E+01 0.60262520883E+01 0.61050374888E+01 0.60177733255E+01
 0.57689761133E+01 0.54173507942E+01 0.50467032741E+01 0.47248349875E+01 0.44861549322E+01
 0.43349944835E+01 0.42610136690E+01 0.42500723622E+01 0.42871350419E+01 0.43587330857E+01
 0.44585983631E+01 0.45909692563E+01 0.47659411336E+01 0.49896420262E+01 0.52565176631E+01
 0.54215828208E+01 0.55522418835E+01 0.56193055634E+01 0.56044100737E+01 0.54955123851E+01
 0.52986733298E+01 0.50441814196E+01 0.47784339960E+01 0.45453843204E+01 0.43710399245E+01
 0.42610136690E+01 0.42090578455E+01 0.42070965284E+01 0.42501910669E+01 0.43365615783E+01
 0.44653012444E+01 0.46330523995E+01 0.48305684131E+01 0.50415227418E+01 0.52452956491E+01
 0.56040538247E+01 0.56196828447E+01 0.55532440893E+01 0.54227356960E+01 0.52461006081E+01
 0.50417891898E+01 0.48304433805E+01 0.46327890356E+01 0.44650504309E+01 0.43363634426E+01
 0.42500723622E+01 0.42070965284E+01 0.42091661487E+01 0.42611417703E+01 0.43710788563E+01
 0.45452603897E+01 0.47780923473E+01 0.50435722527E+01 0.52978404575E+01 0.54947113559E+01
 0.61060579385E+01 0.60275750274E+01 0.58216548411E+01 0.55463925269E+01 0.52561575436E+01
 0.49889349184E+01 0.47653620916E+01 0.45906879591E+01 0.44584895874E+01 0.43586655613E+01
 0.42871350419E+01 0.42501910669E+01 0.42611417703E+01 0.43349119509E+01 0.44857583121E+01
 0.47242470565E+01 0.50461517726E+01 0.54170131809E+01 0.57689805559E+01 0.60182584702E+01
 0.69303832785E+01 0.67735681204E+01 0.64127059929E+01 0.59648917669E+01 0.55180893716E+01
 0.51280494672E+01 0.48305147815E+01 0.46281085878E+01 0.44992412135E+01 0.44149981646E+01
 0.43587330857E+01 0.43365615783E+01 0.43710788563E+01 0.44857583121E+01 0.46952190799E+01
 0.50057174271E+01 0.54212203385E+01 0.59230259827E+01 0.64304213877E+01 0.68067864138E+01
 0.79786420862E+01 0.77975338563E+01 0.72925486469E+01 0.66415856211E+01 0.60044788091E+01
 0.54654906653E+01 0.50443312997E+01 0.47563521346E+01 0.45876450253E+01 0.44990751941E+01
 0.44585983631E+01 0.44653012444E+01 0.45452603897E+01 0.47242470565E+01 0.50057174271E+01
 0.53899133987E+01 0.58941650409E+01 0.65217866249E+01 0.72000786291E+01 0.77517500173E+01
 0.89143454673E+01 0.87378477210E+01 0.81642015113E+01 0.74026855436E+01 0.66351372952E+01
 0.59595407583E+01 0.54178086433E+01 0.50136929250E+01 0.47558190790E+01 0.46278356038E+01
 0.45909692563E+01 0.46330523995E+01 0.47780923473E+01 0.50461517726E+01 0.54212203385E+01
 0.58941650409E+01 0.64690017193E+01 0.71664540972E+01 0.79411688321E+01 0.86066632489E+01
 0.95322500953E+01 0.92725076221E+01 0.86291300074E+01 0.78717156490E+01 0.71664540972E+01
 0.65217866249E+01 0.59230259827E+01 0.54170131809E+01 0.50435722527E+01 0.48305684131E+01
 0.47659411336E+01 0.48305684131E+01 0.50435722527E+01 0.54170131809E+01 0.59230259827E+01
 0.65217866249E+01 0.71664540972E+01 0.78717156490E+01 0.86291300074E+01 0.92725076221E+01
 0.99880236259E+01 0.95454592482E+01 0.87257898197E+01 0.79397073642E+01 0.74058420788E+01
 0.70018959473E+01 0.65210816669E+01 0.59585698144E+01 0.54652484934E+01 0.51287673226E+01
 0.49896420262E+01 0.50415227418E+01 0.52978404575E+01 0.57689805559E+01 0.64304213877E+01
 0.72000786291E+01 0.79411688321E+01 0.86291300074E+01 0.93034956424E+01 0.98518396493E+01
 0.10483922265E+02 0.99702808453E+01 0.89645913747E+01 0.80219141019E+01 0.75474212188E+01
 0.74056611499E+01 0.71658273068E+01 0.66348167634E+01 0.60051641234E+01 0.55192513467E+01
 0.52565176631E+01 0.52452956491E+01 0.54947113559E+01 0.60182584702E+01 0.68067864138E+01
 0.77517500173E+01 0.86066632489E+01 0.92725076221E+01 0.98518396493E+01 0.10349972397E+02
 0.10710966892E+02 0.10343890960E+02 0.92998121828E+01 0.80225392239E+01 0.71083268598E+01
 0.67672288296E+01 0.66911162198E+01 0.64695828646E+01 0.60213695354E+01 0.55520007864E+01
 0.52195979383E+01 0.50915657294E+01 0.51808806939E+01 0.55106339160E+01 0.60955141540E+01
 0.69366568720E+01 0.79393834489E+01 0.89143454673E+01 0.97597890006E+01 0.10422374414E+02
 0.10343890960E+02 0.10478534567E+02 0.99682140858E+01 0.89659976253E+01 0.80249692578E+01
 0.75504446888E+01 0.74081642214E+01 0.71677412530E+01 0.66356734869E+01 0.60046488463E+01