   1   1   0   0
  0.1529104E+02  0.2708235E-09  0.2708235E-09  0.2708235E-09  0.5000000E-15
  1.000000000000000E-004
  CAR 
 BCC W                                   
     30.60282753     -3.27118589  301      8.09508573      1.00000000
     -3.271  0.0000E+00  0.0000E+00
     -3.158  0.0000E+00  0.0000E+00
     -3.045  0.0000E+00  0.0000E+00
     -2.932 -0.2706E-30 -0.3055E-31
     -2.820 -0.2170E-26 -0.2450E-27
     -2.707 -0.9150E-23 -0.1033E-23
     -2.594 -0.2027E-19 -0.2290E-20
     -2.481 -0.2356E-16 -0.2662E-17
     -2.368 -0.1387E-13 -0.1569E-14
     -2.255 -0.4379E-11 -0.4960E-12
     -2.142 -0.7176E-09 -0.8152E-10
     -2.029 -0.6061E-07 -0.6925E-08
     -1.916 -0.2605E-05 -0.3011E-06
     -1.803 -0.5562E-04 -0.6581E-05
     -1.690 -0.5571E-03 -0.6948E-04
     -1.577 -0.2172E-02 -0.3147E-03
     -1.465  0.5168E-03 -0.2564E-03
     -1.352  0.2221E-01  0.2252E-02
     -1.239  0.4698E-01  0.7556E-02
     -1.126  0.3292E-01  0.1127E-01
     -1.013  0.5878E-02  0.1194E-01
     -0.900  0.2076E-01  0.1428E-01
     -0.787  0.5765E-01  0.2079E-01
     -0.674  0.4517E-01  0.2589E-01
     -0.561  0.1130E-01  0.2717E-01
     -0.448  0.6961E-01  0.3503E-01
     -0.335  0.1810E+00  0.5546E-01
     -0.223  0.1568E+00  0.7316E-01
     -0.110  0.4002E-01  0.7768E-01
      0.003 -0.1034E-01  0.7652E-01
      0.116 -0.1396E-01  0.7494E-01
      0.229 -0.6185E-02  0.7424E-01
      0.342  0.7316E-01  0.8250E-01
      0.455  0.2047E+00  0.1056E+00
      0.568  0.1955E+00  0.1277E+00
      0.681  0.8913E-01  0.1378E+00
      0.794  0.1192E+00  0.1512E+00
      0.907  0.2186E+00  0.1759E+00
      1.020  0.2469E+00  0.2038E+00
      1.132  0.1923E+00  0.2255E+00
      1.245  0.7046E-01  0.2334E+00
      1.358 -0.1090E-01  0.2322E+00
      1.471 -0.3566E-01  0.2282E+00
      1.584 -0.5051E-02  0.2276E+00
      1.697  0.2431E+00  0.2551E+00
      1.810  0.6985E+00  0.3339E+00
      1.923  0.9250E+00  0.4384E+00
      2.036  0.8309E+00  0.5322E+00
      2.149  0.6575E+00  0.6064E+00
      2.262  0.4216E+00  0.6540E+00
      2.374  0.4100E+00  0.7003E+00
      2.487  0.5869E+00  0.7666E+00
      2.600  0.7133E+00  0.8471E+00
      2.713  0.1014E+01  0.9617E+00
      2.826  0.1198E+01  0.1097E+01
      2.939  0.8911E+00  0.1198E+01
      3.052  0.6121E+00  0.1267E+01
      3.165  0.6886E+00  0.1344E+01
      3.278  0.1056E+01  0.1464E+01
      3.391  0.1372E+01  0.1619E+01
      3.504  0.1341E+01  0.1770E+01
      3.617  0.1111E+01  0.1896E+01
      3.729  0.8083E+00  0.1987E+01
      3.842  0.4964E+00  0.2043E+01
      3.955  0.2412E+00  0.2070E+01
      4.068  0.1162E+00  0.2083E+01
      4.181  0.3740E+00  0.2125E+01
      4.294  0.8063E+00  0.2216E+01
      4.407  0.8379E+00  0.2311E+01
      4.520  0.8087E+00  0.2402E+01
      4.633  0.1031E+01  0.2519E+01
      4.746  0.1295E+01  0.2665E+01
      4.859  0.1791E+01  0.2867E+01
      4.971  0.2125E+01  0.3107E+01
      5.084  0.1787E+01  0.3309E+01
      5.197  0.1113E+01  0.3435E+01
      5.310  0.8578E+00  0.3531E+01
      5.423  0.9339E+00  0.3637E+01
      5.536  0.8470E+00  0.3733E+01
      5.649  0.9573E+00  0.3841E+01
      5.762  0.1283E+01  0.3986E+01
      5.875  0.1407E+01  0.4144E+01
      5.988  0.1517E+01  0.4316E+01
      6.101  0.1921E+01  0.4533E+01
      6.214  0.1994E+01  0.4758E+01
      6.326  0.1472E+01  0.4924E+01
      6.439  0.9431E+00  0.5030E+01
      6.552  0.6808E+00  0.5107E+01
      6.665  0.7916E+00  0.5197E+01
      6.778  0.1009E+01  0.5311E+01
      6.891  0.8287E+00  0.5404E+01
      7.004  0.3683E+00  0.5446E+01
      7.117  0.1532E+00  0.5463E+01
      7.230  0.3611E+00  0.5504E+01
      7.343  0.6202E+00  0.5574E+01
      7.456  0.6661E+00  0.5649E+01
      7.568  0.6568E+00  0.5723E+01
      7.681  0.6611E+00  0.5798E+01
      7.794  0.6219E+00  0.5868E+01
      7.907  0.5653E+00  0.5932E+01
      8.020  0.4289E+00  0.5980E+01
      8.133  0.2518E+00  0.6009E+01
      8.246  0.3300E+00  0.6046E+01
      8.359  0.5017E+00  0.6103E+01
      8.472  0.4748E+00  0.6156E+01
      8.585  0.2665E+00  0.6186E+01
      8.698  0.2027E+00  0.6209E+01
      8.811  0.4699E+00  0.6262E+01
      8.923  0.7979E+00  0.6352E+01
      9.036  0.9734E+00  0.6462E+01
      9.149  0.8838E+00  0.6562E+01
      9.262  0.7221E+00  0.6644E+01
      9.375  0.8100E+00  0.6735E+01
      9.488  0.8332E+00  0.6829E+01
      9.601  0.6327E+00  0.6901E+01
      9.714  0.7273E+00  0.6983E+01
      9.827  0.1039E+01  0.7100E+01
      9.940  0.1152E+01  0.7230E+01
     10.053  0.1227E+01  0.7369E+01
     10.166  0.1254E+01  0.7510E+01
     10.278  0.1186E+01  0.7644E+01
     10.391  0.1103E+01  0.7769E+01
     10.504  0.1119E+01  0.7895E+01
     10.617  0.1109E+01  0.8020E+01
     10.730  0.8382E+00  0.8115E+01
     10.843  0.8266E+00  0.8208E+01
     10.956  0.1120E+01  0.8335E+01
     11.069  0.1066E+01  0.8455E+01
     11.182  0.1070E+01  0.8576E+01
     11.295  0.1627E+01  0.8760E+01
     11.408  0.2119E+01  0.8999E+01
     11.520  0.2151E+01  0.9242E+01
     11.633  0.1952E+01  0.9462E+01
     11.746  0.1952E+01  0.9683E+01
     11.859  0.1885E+01  0.9896E+01
     11.972  0.1290E+01  0.1004E+02
     12.085  0.8280E+00  0.1013E+02
     12.198  0.7302E+00  0.1022E+02
     12.311  0.5008E+00  0.1027E+02
     12.424  0.3408E+00  0.1031E+02
     12.537  0.3784E+00  0.1035E+02
     12.650  0.3187E+00  0.1039E+02
     12.763  0.2028E+00  0.1041E+02
     12.875  0.1810E+00  0.1043E+02
     12.988  0.2839E+00  0.1047E+02
     13.101  0.3265E+00  0.1050E+02
     13.214  0.2219E+00  0.1053E+02
     13.327  0.1743E+00  0.1055E+02
     13.440  0.2097E+00  0.1057E+02
     13.553  0.1743E+00  0.1059E+02
     13.666  0.2404E+00  0.1062E+02
     13.779  0.3369E+00  0.1066E+02
     13.892  0.2728E+00  0.1069E+02
     14.005  0.4935E+00  0.1074E+02
     14.117  0.9961E+00  0.1086E+02
     14.230  0.1096E+01  0.1098E+02
     14.343  0.7345E+00  0.1106E+02
     14.456  0.4283E+00  0.1111E+02
     14.569  0.3757E+00  0.1115E+02
     14.682  0.3111E+00  0.1119E+02
     14.795  0.2324E+00  0.1121E+02
     14.908  0.2342E+00  0.1124E+02
     15.021  0.2195E+00  0.1127E+02
     15.134  0.1436E+00  0.1128E+02
     15.247  0.1063E+00  0.1129E+02
     15.360  0.2003E+00  0.1132E+02
     15.472  0.3629E+00  0.1136E+02
     15.585  0.3308E+00  0.1139E+02
     15.698  0.1094E+00  0.1141E+02
     15.811 -0.1509E-01  0.1141E+02
     15.924 -0.3378E-01  0.1140E+02
     16.037 -0.1221E-01  0.1140E+02
     16.150  0.1844E+00  0.1142E+02
     16.263  0.5217E+00  0.1148E+02
     16.376  0.5382E+00  0.1154E+02
     16.489  0.2598E+00  0.1157E+02
     16.602  0.1362E+00  0.1159E+02
     16.714  0.1706E+00  0.1160E+02
     16.827  0.4637E+00  0.1166E+02
     16.940  0.8804E+00  0.1176E+02
     17.053  0.7975E+00  0.1185E+02
     17.166  0.3298E+00  0.1188E+02
     17.279  0.4145E-01  0.1189E+02
     17.392 -0.4421E-02  0.1189E+02
     17.505  0.1105E+00  0.1190E+02
     17.618  0.2949E+00  0.1193E+02
     17.731  0.3089E+00  0.1197E+02
     17.844  0.1289E+00  0.1198E+02
     17.957  0.2035E-01  0.1199E+02
     18.069  0.1248E+00  0.1200E+02
     18.182  0.3011E+00  0.1203E+02
     18.295  0.3643E+00  0.1207E+02
     18.408  0.4075E+00  0.1212E+02
     18.521  0.6637E+00  0.1220E+02
     18.634  0.1037E+01  0.1231E+02
     18.747  0.1148E+01  0.1244E+02
     18.860  0.7866E+00  0.1253E+02
     18.973  0.2635E+00  0.1256E+02
     19.086  0.1037E+00  0.1257E+02
     19.199  0.3027E+00  0.1261E+02
     19.311  0.3629E+00  0.1265E+02
     19.424  0.1931E+00  0.1267E+02
     19.537  0.9386E-01  0.1268E+02
     19.650  0.1338E+00  0.1270E+02
     19.763  0.1623E+00  0.1271E+02
     19.876  0.1500E+00  0.1273E+02
     19.989  0.3428E+00  0.1277E+02
     20.102  0.5831E+00  0.1283E+02
     20.215  0.4673E+00  0.1289E+02
     20.328  0.1375E+00  0.1290E+02
     20.441  0.4343E-01  0.1291E+02
     20.554  0.2806E+00  0.1294E+02
     20.666  0.4871E+00  0.1299E+02
     20.779  0.6580E+00  0.1307E+02
     20.892  0.9654E+00  0.1318E+02
     21.005  0.9610E+00  0.1329E+02
     21.118  0.6706E+00  0.1336E+02
     21.231  0.5272E+00  0.1342E+02
     21.344  0.7059E+00  0.1350E+02
     21.457  0.8145E+00  0.1359E+02
     21.570  0.4788E+00  0.1365E+02
     21.683  0.2962E+00  0.1368E+02
     21.796  0.6167E+00  0.1375E+02
     21.908  0.8306E+00  0.1384E+02
     22.021  0.6543E+00  0.1392E+02
     22.134  0.3462E+00  0.1396E+02
     22.247  0.6941E-01  0.1397E+02
     22.360 -0.4278E-01  0.1396E+02
     22.473  0.2992E+00  0.1399E+02
     22.586  0.1048E+01  0.1411E+02
     22.699  0.1230E+01  0.1425E+02
     22.812  0.5603E+00  0.1431E+02
     22.925  0.2609E+00  0.1434E+02
     23.038  0.8153E+00  0.1444E+02
     23.151  0.1289E+01  0.1458E+02
     23.263  0.1141E+01  0.1471E+02
     23.376  0.7735E+00  0.1480E+02
     23.489  0.4264E+00  0.1485E+02
     23.602  0.2395E+00  0.1487E+02
     23.715  0.2696E+00  0.1490E+02
     23.828  0.3566E+00  0.1494E+02
     23.941  0.3813E+00  0.1499E+02
     24.054  0.4371E+00  0.1504E+02
     24.167  0.4401E+00  0.1509E+02
     24.280  0.2792E+00  0.1512E+02
     24.393  0.7314E-01  0.1513E+02
     24.506  0.1014E+00  0.1514E+02
     24.618  0.5811E+00  0.1520E+02
     24.731  0.9296E+00  0.1531E+02
     24.844  0.6234E+00  0.1538E+02
     24.957  0.2663E+00  0.1541E+02
     25.070  0.1429E+00  0.1542E+02
     25.183  0.1067E+00  0.1544E+02
     25.296  0.3376E+00  0.1547E+02
     25.409  0.6633E+00  0.1555E+02
     25.522  0.5916E+00  0.1562E+02
     25.635  0.4197E+00  0.1566E+02
     25.748  0.4954E+00  0.1572E+02
     25.860  0.4638E+00  0.1577E+02
     25.973  0.2854E+00  0.1580E+02
     26.086  0.1367E+00  0.1582E+02
     26.199  0.8947E-01  0.1583E+02
     26.312  0.1716E+00  0.1585E+02
     26.425  0.2175E+00  0.1587E+02
     26.538  0.1328E+00  0.1589E+02
     26.651  0.3653E-01  0.1589E+02
     26.764 -0.5913E-02  0.1589E+02
     26.877 -0.1837E-01  0.1589E+02
     26.990  0.1543E-01  0.1589E+02
     27.103  0.1632E+00  0.1591E+02
     27.215  0.3261E+00  0.1595E+02
     27.328  0.2833E+00  0.1598E+02
     27.441  0.9872E-01  0.1599E+02
     27.554 -0.4338E-02  0.1599E+02
     27.667 -0.1131E-01  0.1599E+02
     27.780 -0.2701E-02  0.1599E+02
     27.893 -0.2690E-03  0.1599E+02
     28.006 -0.2327E-04  0.1599E+02
     28.119 -0.1638E-03  0.1599E+02
     28.232 -0.1141E-02  0.1599E+02
     28.345 -0.2387E-02  0.1599E+02
     28.457  0.7010E-02  0.1599E+02
     28.570  0.3545E-01  0.1599E+02
     28.683  0.4752E-01  0.1600E+02
     28.796  0.2226E-01  0.1600E+02
     28.909  0.5188E-03  0.1600E+02
     29.022 -0.2172E-02  0.1600E+02
     29.135 -0.5571E-03  0.1600E+02
     29.248 -0.5562E-04  0.1600E+02
     29.361 -0.2605E-05  0.1600E+02
     29.474 -0.6061E-07  0.1600E+02
     29.587 -0.7176E-09  0.1600E+02
     29.700 -0.4379E-11  0.1600E+02
     29.812 -0.1388E-13  0.1600E+02
     29.925 -0.2360E-16  0.1600E+02
     30.038  0.0000E+00  0.1600E+02
     30.151  0.0000E+00  0.1600E+02
     30.264  0.0000E+00  0.1600E+02
     30.377  0.0000E+00  0.1600E+02
     30.490  0.0000E+00  0.1600E+02
     30.603  0.0000E+00  0.1600E+02
