    1    1    1    1
  0.1529104E+02  0.2708235E-09  0.2708235E-09  0.2708235E-09  0.5000000E-15
  1.000000000000000E-004
  CAR 
 BCC W                                   
      6     44      8
 
  0.5000000E-01  0.5000000E-01  0.5000000E-01  0.8000000E-02
    1       -0.801627   1.000000
    2        6.541337   1.000000
    3        6.541337   1.000000
    4        7.779101   1.023995
    5       10.243450  -0.000000
    6       10.243450  -0.000000
    7       24.064917   0.000000
    8       25.052003   0.000000
 
  0.1500000E+00  0.5000000E-01  0.5000000E-01  0.2400000E-01
    1        0.438607   1.000000
    2        5.821597   1.000000
    3        6.106534   1.000000
    4        9.336464  -0.000000
    5        9.895495  -0.000000
    6       10.531540  -0.000000
    7       24.633444   0.000000
    8       26.344115   0.000000
 
  0.2500000E+00  0.5000000E-01  0.5000000E-01  0.2400000E-01
    1        1.723220   1.000000
    2        5.111706   1.000000
    3        6.097740   1.000000
    4       10.129800  -0.000000
    5       10.885918  -0.000000
    6       11.598842  -0.000000
    7       23.137202   0.000000
    8       24.065767   0.000000
 
  0.3500000E+00  0.5000000E-01  0.5000000E-01  0.2400000E-01
    1        2.051879   1.000000
    2        4.622584   1.000000
    3        7.517098   1.000171
    4       10.520487  -0.000000
    5       11.254089  -0.000000
    6       13.995637   0.000000
    7       20.910915   0.000000
    8       21.329947   0.000000
 
  0.4500000E+00  0.5000000E-01  0.5000000E-01  0.1200000E-01
    1        1.996474   1.000000
    2        4.451219   1.000000
    3        8.745610  -0.000021
    4       10.510593  -0.000000
    5       11.435522  -0.000000
    6       15.228904   0.000000
    7       19.425095   0.000000
    8       20.604210   0.000000
 
 -0.5000000E-01  0.5000000E-01  0.5000000E-01  0.6000000E-02
    1       -1.271186   1.000000
    2        6.878866   1.000000
    3        6.879006   1.000000
    4        7.015618   1.000000
    5       10.098340  -0.000000
    6       10.625676  -0.000000
    7       24.037384   0.000000
    8       24.037394   0.000000
 
  0.1500000E+00  0.1500000E+00  0.5000000E-01  0.2400000E-01
    1        1.797940   1.000000
    2        5.337056   1.000000
    3        5.390457   1.000000
    4        9.977824  -0.000000
    5       10.924367  -0.000000
    6       11.561510  -0.000000
    7       24.237508   0.000000
    8       25.299259   0.000000
 
  0.2500000E+00  0.1500000E+00  0.5000000E-01  0.4800000E-01
    1        2.779875   1.000000
    2        4.815015   1.000000
    3        5.816731   1.000000
    4       10.305163  -0.000000
    5       11.293189  -0.000000
    6       14.159914   0.000000
    7       21.414047   0.000000
    8       23.322765   0.000000
 
  0.3500000E+00  0.1500000E+00  0.5000000E-01  0.4800000E-01
    1        2.800746   1.000000
    2        4.569199   1.000000
    3        7.238654   1.000000
    4       10.613273  -0.000000
    5       11.529885  -0.000000
    6       16.289871   0.000000
    7       18.696580   0.000000
    8       21.785893   0.000000
 
 -0.1500000E+00  0.1500000E+00  0.5000000E-01  0.2400000E-01
    1       -0.352374   1.000000
    2        6.393668   1.000000
    3        6.698837   1.000000
    4        7.949679   0.968958
    5        9.372463  -0.000000
    6       10.826142  -0.000000
    7       24.634500   0.000000
    8       25.653484   0.000000
 
  0.2500000E+00  0.2500000E+00  0.5000000E-01  0.2400000E-01
    1        3.492654   1.000000
    2        4.895098   1.000000
    3        5.940120   1.000000
    4       10.648105  -0.000000
    5       11.433091  -0.000000
    6       16.861716   0.000000
    7       18.518557   0.000000
    8       22.673221   0.000000
 
  0.3500000E+00  0.2500000E+00  0.5000000E-01  0.2400000E-01
    1        3.572284   1.000000
    2        5.017870   1.000000
    3        6.267176   1.000000
    4       10.930347  -0.000000
    5       11.480947  -0.000000
    6       16.916474   0.000000
    7       18.640222   0.000000
    8       21.314850   0.000000
 
 -0.2500000E+00  0.2500000E+00  0.5000000E-01  0.2400000E-01
    1        1.044158   1.000000
    2        5.650126   1.000000
    3        6.282583   1.000000
    4        9.398116  -0.000000
    5        9.777936  -0.000000
    6       11.043075  -0.000000
    7       23.832559   0.000000
    8       25.718329   0.000000
 
 -0.1500000E+00  0.2500000E+00  0.5000000E-01  0.2400000E-01
    1        0.835155   1.000000
    2        6.139158   1.000000
    3        6.172237   1.000000
    4        8.766298  -0.000011
    5        9.244839  -0.000000
    6       11.260233  -0.000000
    7       24.936284   0.000000
    8       25.771390   0.000000
 
 -0.3500000E+00  0.3500000E+00  0.5000000E-01  0.2400000E-01
    1        1.859109   1.000000
    2        5.003977   1.000000
    3        6.825502   1.000000
    4       10.042338  -0.000000
    5       11.310238  -0.000000
    6       12.169890  -0.000000
    7       21.748325   0.000000
    8       23.115103   0.000000
 
 -0.2500000E+00  0.3500000E+00  0.5000000E-01  0.4800000E-01
    1        2.103541   1.000000
    2        5.398731   1.000000
    3        6.000483   1.000000
    4        9.119790  -0.000000
    5       11.258759  -0.000000
    6       11.726354  -0.000000
    7       22.595556   0.000000
    8       25.400976   0.000000
 
 -0.4500000E+00  0.4500000E+00  0.5000000E-01  0.2400000E-01
    1        1.871963   1.000000
    2        4.640884   1.000000
    3        8.256056   0.008721
    4       10.232112  -0.000000
    5       11.865571  -0.000000
    6       14.280305   0.000000
    7       20.147125   0.000000
    8       21.026074   0.000000
 
 -0.3500000E+00  0.4500000E+00  0.5000000E-01  0.4800000E-01
    1        2.453170   1.000000
    2        5.015929   1.000000
    3        6.683144   1.000000
    4        9.768764  -0.000000
    5       11.779294  -0.000000
    6       14.096642   0.000000
    7       20.587028   0.000000
    8       23.006320   0.000000
 
 -0.2500000E+00  0.4500000E+00  0.5000000E-01  0.2400000E-01
    1        3.102288   1.000000
    2        4.845924   1.000000
    3        6.109690   1.000000
    4        9.459389  -0.000000
    5       11.404938  -0.000000
    6       14.291529   0.000000
    7       20.835688   0.000000
    8       24.705034   0.000000
 
 -0.4500000E+00 -0.4500000E+00  0.5000000E-01  0.2400000E-01
    1        2.387650   1.000000
    2        4.885400   1.000000
    3        7.340738   1.000001
    4        9.712236  -0.000000
    5       12.487951  -0.000000
    6       15.498203   0.000000
    7       19.205294   0.000000
    8       22.081654   0.000000
 
 -0.3500000E+00 -0.4500000E+00  0.5000000E-01  0.4800000E-01
    1        3.351219   1.000000
    2        4.915397   1.000000
    3        6.129382   1.000000
    4       10.012131  -0.000000
    5       11.735515  -0.000000
    6       16.993375   0.000000
    7       18.536969   0.000000
    8       22.652800   0.000000
 
 -0.3500000E+00 -0.3500000E+00  0.5000000E-01  0.8000000E-02
    1        3.929775   1.000000
    2        5.214095   1.000000
    3        5.214137   1.000000
    4       11.084537  -0.000000
    5       11.084646  -0.000000
    6       17.187606   0.000000
    7       20.136597   0.000000
    8       20.136807   0.000000
 
  0.1500000E+00  0.1500000E+00  0.1500000E+00  0.8000000E-02
    1        3.294599   1.000000
    2        4.831876   1.000000
    3        4.831876   1.000000
    4       10.873064  -0.000000
    5       10.873064  -0.000000
    6       14.300914   0.000000
    7       22.578110   0.000000
    8       23.999585   0.000000
 
  0.2500000E+00  0.1500000E+00  0.1500000E+00  0.2400000E-01
    1        3.862245   1.000000
    2        4.580930   1.000000
    3        5.725792   1.000000
    4       11.059585  -0.000000
    5       11.380582  -0.000000
    6       16.851280   0.000000
    7       18.712522   0.000000
    8       22.554428   0.000000
 
  0.3500000E+00  0.1500000E+00  0.1500000E+00  0.1200000E-01
    1        3.743714   1.000000
    2        4.509515   1.000000
    3        6.766009   1.000000
    4       11.146992  -0.000000
    5       11.538674  -0.000000
    6       16.929017   0.000000
    7       18.080588   0.000000
    8       21.998669   0.000000
 
 -0.1500000E+00  0.1500000E+00  0.1500000E+00  0.6000000E-02
    1        0.521244   1.000000
    2        6.912902   1.000000
    3        6.913023   1.000000
    4        7.819729   1.032587
    5        7.940036   0.983442
    6       11.476861  -0.000000
    7       26.191360   0.000000
    8       26.511026   0.000000
 
  0.2500000E+00  0.2500000E+00  0.1500000E+00  0.2400000E-01
    1        4.282783   1.000000
    2        5.087759   1.000000
    3        5.765392   1.000000
    4       11.384717  -0.000000
    5       11.528532  -0.000000
    6       16.234353   0.000000
    7       19.199981   0.000000
    8       21.460928   0.000000
 
 -0.2500000E+00  0.2500000E+00  0.1500000E+00  0.2400000E-01
    1        1.859728   1.000000
    2        6.078685   1.000000
    3        6.526492   1.000000
    4        7.922063   1.004882
    5        9.493333  -0.000000
    6       11.761934  -0.000000
    7       23.558335   0.000000
    8       27.254061   0.000000
 
 -0.3500000E+00  0.3500000E+00  0.1500000E+00  0.2400000E-01
    1        2.686410   1.000000
    2        5.625665   1.000000
    3        5.966659   1.000000
    4        8.892160  -0.000000
    5       11.884280  -0.000000
    6       12.112676  -0.000000
    7       21.911995   0.000000
    8       25.416023   0.000000
 
 -0.2500000E+00  0.3500000E+00  0.1500000E+00  0.2400000E-01
    1        2.996913   1.000000
    2        5.035881   1.000000
    3        6.787510   1.000000
    4        8.249533   0.017401
    5       10.914983  -0.000000
    6       12.186598  -0.000000
    7       22.546078   0.000000
    8       27.136969   0.000000
 
 -0.4500000E+00  0.4500000E+00  0.1500000E+00  0.2400000E-01
    1        2.632154   1.000000
    2        5.639029   1.000000
    3        6.217877   1.000000
    4        8.855044  -0.000001
    5       13.727460   0.000000
    6       14.058537   0.000000
    7       20.018834   0.000000
    8       23.751733   0.000000
 
 -0.3500000E+00  0.4500000E+00  0.1500000E+00  0.4800000E-01
    1        3.396881   1.000000
    2        4.784262   1.000000
    3        6.371741   1.000000
    4        8.998337  -0.000000
    5       11.945860  -0.000000
    6       14.533789   0.000000
    7       20.865215   0.000000
    8       24.687660   0.000000
 
 -0.4500000E+00 -0.4500000E+00  0.1500000E+00  0.2400000E-01
    1        3.245824   1.000000
    2        5.322493   1.000000
    3        5.833489   1.000000
    4        9.029353  -0.000000
    5       13.107259  -0.000000
    6       16.581414   0.000000
    7       18.776434   0.000000
    8       23.095538   0.000000
 
 -0.3500000E+00 -0.4500000E+00  0.1500000E+00  0.2400000E-01
    1        4.194608   1.000000
    2        4.272199   1.000000
    3        5.570530   1.000000
    4       10.416799  -0.000000
    5       11.786327  -0.000000
    6       17.565641   0.000000
    7       18.846801   0.000000
    8       21.903702   0.000000
 
  0.2500000E+00  0.2500000E+00  0.2500000E+00  0.2000000E-02
    1        5.195016   1.000000
    2        5.195016   1.000000
    3        5.195125   1.000000
    4       11.610947  -0.000000
    5       11.610947  -0.000000
    6       15.310597   0.000000
    7       21.086176   0.000000
    8       21.086310   0.000000
 
 -0.2500000E+00  0.2500000E+00  0.2500000E+00  0.6000000E-02
    1        2.976821   1.000000
    2        5.222586   1.000000
    3        7.675982   1.005801
    4        7.676110   1.005814
    5        9.632798  -0.000000
    6       11.864123  -0.000000
    7       23.379688   0.000000
    8       28.602828   0.000000
 
 -0.3500000E+00  0.3500000E+00  0.2500000E+00  0.2400000E-01
    1        3.570601   1.000000
    2        4.273173   1.000000
    3        7.738308   1.015059
    4        8.454355  -0.014572
    5       11.528885  -0.000000
    6       12.425226  -0.000000
    7       23.133906   0.000000
    8       25.948342   0.000000
 
 -0.4500000E+00  0.4500000E+00  0.2500000E+00  0.2400000E-01
    1        3.237962   1.000000
    2        4.342076   1.000000
    3        7.538641   1.000300
    4        8.428193  -0.020072
    5       13.715335   0.000000
    6       14.976669   0.000000
    7       20.007281   0.000000
    8       23.239848   0.000000
 
 -0.3500000E+00  0.4500000E+00  0.2500000E+00  0.2400000E-01
    1        3.498920   1.000000
    2        3.693257   1.000000
    3        7.658796   1.004260
    4        9.841577  -0.000000
    5       12.127565  -0.000000
    6       14.777729   0.000000
    7       21.157965   0.000000
    8       23.041178   0.000000
 
 -0.4500000E+00 -0.4500000E+00  0.2500000E+00  0.2400000E-01
    1        3.249124   1.000000
    2        3.660116   1.000000
    3        7.405218   1.000006
    4       10.451552  -0.000000
    5       12.965510  -0.000000
    6       17.684053   0.000000
    7       18.350641   0.000000
    8       21.061431   0.000000
 
 -0.3500000E+00  0.3500000E+00  0.3500000E+00  0.6000000E-02
    1        3.254756   1.000000
    2        3.442390   1.000000
    3        9.621368  -0.000000
    4        9.621512  -0.000000
    5       11.728616  -0.000000
    6       12.932481  -0.000000
    7       23.356264   0.000000
    8       23.356399   0.000000
 
 -0.4500000E+00  0.4500000E+00  0.3500000E+00  0.2400000E-01
    1        2.751118   1.000000
    2        3.010747   1.000000
    3       10.106754  -0.000000
    4       10.275166  -0.000000
    5       13.399713  -0.000000
    6       15.444966   0.000000
    7       19.693211   0.000000
    8       20.825859   0.000000
 
 -0.4500000E+00 -0.4500000E+00  0.3500000E+00  0.8000000E-02
    1        2.590520   1.000000
    2        2.590521   1.000000
    3       10.139067  -0.000000
    4       12.716803  -0.000000
    5       12.717076  -0.000000
    6       18.163466   0.000000
    7       18.169819   0.000000
    8       18.169915   0.000000
 
 -0.4500000E+00  0.4500000E+00  0.4500000E+00  0.6000000E-02
    1        2.222756   1.000000
    2        2.297808   1.000000
    3       12.613628  -0.000000
    4       12.613838  -0.000000
    5       13.365976  -0.000000
    6       16.173983   0.000000
    7       18.269745   0.000000
    8       18.269808   0.000000
