 running on    4 total cores
 distrk:  each k-point on    4 cores,    1 groups
 distr:  one band on    1 cores,    4 groups
 using from now: INCAR     
 vasp.5.4.4.18Apr17-6-g9f103f2a35 (build Jul 01 2019 03:25:34) complex          
  
 POSCAR found type information on POSCAR  W 
 POSCAR found :  1 types and       1 ions
 scaLAPACK will be used
 LDA part: xc-table for Ceperly-Alder, standard interpolation
 POSCAR, INCAR and KPOINTS ok, starting setup
 FFT: planning ...
 WAVECAR not read
 entering main loop
       N       E                     dE             d eps       ncg     rms          rms(c)
DAV:   1    -0.105802095222E+02   -0.10580E+02   -0.19083E+03   920   0.292E+02
DAV:   2    -0.148890970886E+02   -0.43089E+01   -0.42017E+01   888   0.493E+01
DAV:   3    -0.149042410444E+02   -0.15144E-01   -0.15124E-01   928   0.313E+00
DAV:   4    -0.149042473050E+02   -0.62606E-05   -0.62614E-05   904   0.417E-02
DAV:   5    -0.149042473105E+02   -0.54517E-08   -0.50350E-08   776   0.960E-04    0.409E+00
DAV:   6    -0.143995141127E+02    0.50473E+00   -0.40177E-01   760   0.390E+00    0.211E+00
DAV:   7    -0.142142873509E+02    0.18523E+00   -0.44107E-01   800   0.403E+00    0.253E-01
DAV:   8    -0.142126570892E+02    0.16303E-02   -0.99446E-03   816   0.673E-01    0.135E-01
DAV:   9    -0.142118867289E+02    0.77036E-03   -0.23777E-03   736   0.308E-01    0.591E-03
DAV:  10    -0.142118893389E+02   -0.26099E-05   -0.12531E-05   352   0.310E-02
   1 F= -.14211889E+02 E0= -.14212624E+02  d E =0.220249E-02
 writing wavefunctions
