<?xml version="1.0" encoding="ISO-8859-1"?>
<modeling>
 <generator>
  <i name="program" type="string">vasp </i>
  <i name="version" type="string">5.4.4.18Apr17-6-g9f103f2a35  </i>
  <i name="subversion" type="string">(build Jul 01 2019 03:25:34) complex            parallel </i>
  <i name="platform" type="string">LinuxIFC </i>
  <i name="date" type="string">2020 07 08 </i>
  <i name="time" type="string">20:31:44 </i>
 </generator>
 <incar>
  <i type="string" name="SYSTEM"> BCC W</i>
  <i type="string" name="PREC">normal</i>
  <i name="EDIFF">      0.00010000</i>
  <i name="ENCUT">    224.00000000</i>
  <v type="int" name="KPOINT_BSE">    -1     0     0     0</v>
 </incar>
 <structure name="primitive_cell" >
  <crystal>
   <varray name="basis" >
    <v>      -1.56360000       1.56360000       1.56360000 </v>
    <v>       1.56360000      -1.56360000       1.56360000 </v>
    <v>       1.56360000       1.56360000      -1.56360000 </v>
   </varray>
   <i name="volume">     15.29103832 </i>
   <varray name="rec_basis" >
    <v>       0.00000000       0.31977488       0.31977488 </v>
    <v>       0.31977488       0.00000000       0.31977488 </v>
    <v>       0.31977488       0.31977488       0.00000000 </v>
   </varray>
  </crystal>
  <varray name="positions" >
   <v>       0.00000000       0.00000000       0.00000000 </v>
  </varray>
 </structure>
 <varray name="primitive_index" >
  <v type="int" >        1 </v>
 </varray>
 <kpoints>
  <generation param="Monkhorst-Pack">
   <v type="int" name="divisions">      10       10       10 </v>
   <v name="usershift">      0.00000000       0.00000000       0.00000000 </v>
   <v name="genvec1">      0.10000000       0.00000000       0.00000000 </v>
   <v name="genvec2">      0.00000000       0.10000000       0.00000000 </v>
   <v name="genvec3">      0.00000000       0.00000000       0.10000000 </v>
   <v name="shift">      0.50000000       0.50000000       0.50000000 </v>
  </generation>
  <varray name="kpointlist" >
   <v>       0.05000000       0.05000000       0.05000000 </v>
   <v>       0.15000000       0.05000000       0.05000000 </v>
   <v>       0.25000000       0.05000000       0.05000000 </v>
   <v>       0.35000000       0.05000000       0.05000000 </v>
   <v>       0.45000000       0.05000000       0.05000000 </v>
   <v>      -0.05000000       0.05000000       0.05000000 </v>
   <v>       0.15000000       0.15000000       0.05000000 </v>
   <v>       0.25000000       0.15000000       0.05000000 </v>
   <v>       0.35000000       0.15000000       0.05000000 </v>
   <v>      -0.15000000       0.15000000       0.05000000 </v>
   <v>       0.25000000       0.25000000       0.05000000 </v>
   <v>       0.35000000       0.25000000       0.05000000 </v>
   <v>      -0.25000000       0.25000000       0.05000000 </v>
   <v>      -0.15000000       0.25000000       0.05000000 </v>
   <v>      -0.35000000       0.35000000       0.05000000 </v>
   <v>      -0.25000000       0.35000000       0.05000000 </v>
   <v>      -0.45000000       0.45000000       0.05000000 </v>
   <v>      -0.35000000       0.45000000       0.05000000 </v>
   <v>      -0.25000000       0.45000000       0.05000000 </v>
   <v>      -0.45000000      -0.45000000       0.05000000 </v>
   <v>      -0.35000000      -0.45000000       0.05000000 </v>
   <v>      -0.35000000      -0.35000000       0.05000000 </v>
   <v>       0.15000000       0.15000000       0.15000000 </v>
   <v>       0.25000000       0.15000000       0.15000000 </v>
   <v>       0.35000000       0.15000000       0.15000000 </v>
   <v>      -0.15000000       0.15000000       0.15000000 </v>
   <v>       0.25000000       0.25000000       0.15000000 </v>
   <v>      -0.25000000       0.25000000       0.15000000 </v>
   <v>      -0.35000000       0.35000000       0.15000000 </v>
   <v>      -0.25000000       0.35000000       0.15000000 </v>
   <v>      -0.45000000       0.45000000       0.15000000 </v>
   <v>      -0.35000000       0.45000000       0.15000000 </v>
   <v>      -0.45000000      -0.45000000       0.15000000 </v>
   <v>      -0.35000000      -0.45000000       0.15000000 </v>
   <v>       0.25000000       0.25000000       0.25000000 </v>
   <v>      -0.25000000       0.25000000       0.25000000 </v>
   <v>      -0.35000000       0.35000000       0.25000000 </v>
   <v>      -0.45000000       0.45000000       0.25000000 </v>
   <v>      -0.35000000       0.45000000       0.25000000 </v>
   <v>      -0.45000000      -0.45000000       0.25000000 </v>
   <v>      -0.35000000       0.35000000       0.35000000 </v>
   <v>      -0.45000000       0.45000000       0.35000000 </v>
   <v>      -0.45000000      -0.45000000       0.35000000 </v>
   <v>      -0.45000000       0.45000000       0.45000000 </v>
  </varray>
  <varray name="weights" >
   <v>       0.00800000 </v>
   <v>       0.02400000 </v>
   <v>       0.02400000 </v>
   <v>       0.02400000 </v>
   <v>       0.01200000 </v>
   <v>       0.00600000 </v>
   <v>       0.02400000 </v>
   <v>       0.04800000 </v>
   <v>       0.04800000 </v>
   <v>       0.02400000 </v>
   <v>       0.02400000 </v>
   <v>       0.02400000 </v>
   <v>       0.02400000 </v>
   <v>       0.02400000 </v>
   <v>       0.02400000 </v>
   <v>       0.04800000 </v>
   <v>       0.02400000 </v>
   <v>       0.04800000 </v>
   <v>       0.02400000 </v>
   <v>       0.02400000 </v>
   <v>       0.04800000 </v>
   <v>       0.00800000 </v>
   <v>       0.00800000 </v>
   <v>       0.02400000 </v>
   <v>       0.01200000 </v>
   <v>       0.00600000 </v>
   <v>       0.02400000 </v>
   <v>       0.02400000 </v>
   <v>       0.02400000 </v>
   <v>       0.02400000 </v>
   <v>       0.02400000 </v>
   <v>       0.04800000 </v>
   <v>       0.02400000 </v>
   <v>       0.02400000 </v>
   <v>       0.00200000 </v>
   <v>       0.00600000 </v>
   <v>       0.02400000 </v>
   <v>       0.02400000 </v>
   <v>       0.02400000 </v>
   <v>       0.02400000 </v>
   <v>       0.00600000 </v>
   <v>       0.02400000 </v>
   <v>       0.00800000 </v>
   <v>       0.00600000 </v>
  </varray>
 </kpoints>
 <parameters>
  <separator name="general" >
   <i type="string" name="SYSTEM">BCC W</i>
   <i type="logical" name="LCOMPAT"> F  </i>
  </separator>
  <separator name="electronic" >
   <i type="string" name="PREC">normal</i>
   <i name="ENMAX">    224.00000000</i>
   <i name="ENAUG">    373.43800000</i>
   <i name="EDIFF">      0.00010000</i>
   <i type="int" name="IALGO">    38</i>
   <i type="int" name="IWAVPR">    10</i>
   <i type="int" name="NBANDS">     8</i>
   <i name="NELECT">      6.00000000</i>
   <i type="int" name="TURBO">     0</i>
   <i type="int" name="IRESTART">     0</i>
   <i type="int" name="NREBOOT">     0</i>
   <i type="int" name="NMIN">     0</i>
   <i name="EREF">      0.00000000</i>
   <separator name="electronic smearing" >
    <i type="int" name="ISMEAR">     1</i>
    <i name="SIGMA">      0.20000000</i>
    <i name="KSPACING">      0.50000000</i>
    <i type="logical" name="KGAMMA"> T  </i>
   </separator>
   <separator name="electronic projectors" >
    <i type="logical" name="LREAL"> F  </i>
    <v name="ROPT">      0.00000000</v>
    <i type="int" name="LMAXPAW">  -100</i>
    <i type="int" name="LMAXMIX">     2</i>
    <i type="logical" name="NLSPLINE"> F  </i>
   </separator>
   <separator name="electronic startup" >
    <i type="int" name="ISTART">     0</i>
    <i type="int" name="ICHARG">     2</i>
    <i type="int" name="INIWAV">     1</i>
   </separator>
   <separator name="electronic spin" >
    <i type="int" name="ISPIN">     1</i>
    <i type="logical" name="LNONCOLLINEAR"> F  </i>
    <v name="MAGMOM">      1.00000000</v>
    <i name="NUPDOWN">     -1.00000000</i>
    <i type="logical" name="LSORBIT"> F  </i>
    <v name="SAXIS">      0.00000000      0.00000000      1.00000000</v>
    <i type="logical" name="LSPIRAL"> F  </i>
    <v name="QSPIRAL">      0.00000000      0.00000000      0.00000000</v>
    <i type="logical" name="LZEROZ"> F  </i>
   </separator>
   <separator name="electronic exchange-correlation" >
    <i type="logical" name="LASPH"> F  </i>
    <i type="logical" name="LMETAGGA"> F  </i>
   </separator>
   <separator name="electronic convergence" >
    <i type="int" name="NELM">    60</i>
    <i type="int" name="NELMDL">    -5</i>
    <i type="int" name="NELMIN">     2</i>
    <i name="ENINI">    224.00000000</i>
    <separator name="electronic convergence detail" >
     <i type="logical" name="LDIAG"> T  </i>
     <i type="logical" name="LSUBROT"> F  </i>
     <i name="WEIMIN">      0.00000000</i>
     <i name="EBREAK">      0.00000313</i>
     <i name="DEPER">      0.30000000</i>
     <i type="int" name="NRMM">     4</i>
     <i name="TIME">      0.40000000</i>
    </separator>
   </separator>
   <separator name="electronic mixer" >
    <i name="AMIX">      0.40000000</i>
    <i name="BMIX">      1.00000000</i>
    <i name="AMIN">      0.10000000</i>
    <i name="AMIX_MAG">      1.60000000</i>
    <i name="BMIX_MAG">      1.00000000</i>
    <separator name="electronic mixer details" >
     <i type="int" name="IMIX">     4</i>
     <i type="logical" name="MIXFIRST"> F  </i>
     <i type="int" name="MAXMIX">   -45</i>
     <i name="WC">    100.00000000</i>
     <i type="int" name="INIMIX">     1</i>
     <i type="int" name="MIXPRE">     1</i>
     <i type="int" name="MREMOVE">     5</i>
    </separator>
   </separator>
   <separator name="electronic dipolcorrection" >
    <i type="logical" name="LDIPOL"> F  </i>
    <i type="logical" name="LMONO"> F  </i>
    <i type="int" name="IDIPOL">     0</i>
    <i name="EPSILON">      1.00000000</i>
    <v name="DIPOL">   -100.00000000   -100.00000000   -100.00000000</v>
    <i name="EFIELD">      0.00000000</i>
   </separator>
  </separator>
  <separator name="grids" >
   <i type="int" name="NGX">    10</i>
   <i type="int" name="NGY">    10</i>
   <i type="int" name="NGZ">    10</i>
   <i type="int" name="NGXF">    20</i>
   <i type="int" name="NGYF">    20</i>
   <i type="int" name="NGZF">    20</i>
   <i type="logical" name="ADDGRID"> F  </i>
  </separator>
  <separator name="ionic" >
   <i type="int" name="NSW">     0</i>
   <i type="int" name="IBRION">    -1</i>
   <i type="int" name="MDALGO">     0</i>
   <i type="int" name="ISIF">     2</i>
   <i name="PSTRESS">      0.00000000</i>
   <i name="EDIFFG">      0.00100000</i>
   <i type="int" name="NFREE">     0</i>
   <i name="POTIM">      0.50000000</i>
   <i name="SMASS">     -3.00000000</i>
   <i name="SCALEE">      1.00000000</i>
  </separator>
  <separator name="ionic md" >
   <i name="TEBEG">      0.00010000</i>
   <i name="TEEND">      0.00010000</i>
   <i type="int" name="NBLOCK">     1</i>
   <i type="int" name="KBLOCK">     1</i>
   <i type="int" name="NPACO">   256</i>
   <i name="APACO">     16.00000000</i>
  </separator>
  <separator name="symmetry" >
   <i type="int" name="ISYM">     2</i>
   <i name="SYMPREC">      0.00001000</i>
  </separator>
  <separator name="dos" >
   <i type="int" name="LORBIT">     0</i>
   <v name="RWIGS">     -1.00000000</v>
   <i type="int" name="NEDOS">   301</i>
   <i name="EMIN">     10.00000000</i>
   <i name="EMAX">    -10.00000000</i>
   <i name="EFERMI">      0.00000000</i>
  </separator>
  <separator name="writing" >
   <i type="int" name="NWRITE">     2</i>
   <i type="logical" name="LWAVE"> T  </i>
   <i type="logical" name="LDOWNSAMPLE"> F  </i>
   <i type="logical" name="LCHARG"> T  </i>
   <i type="logical" name="LPARD"> F  </i>
   <i type="logical" name="LVTOT"> F  </i>
   <i type="logical" name="LVHAR"> F  </i>
   <i type="logical" name="LELF"> F  </i>
   <i type="logical" name="LOPTICS"> F  </i>
   <v name="STM">      0.00000000      0.00000000      0.00000000      0.00000000      0.00000000      0.00000000      0.00000000</v>
  </separator>
  <separator name="performance" >
   <i type="int" name="NPAR">     4</i>
   <i type="int" name="NSIM">     4</i>
   <i type="int" name="NBLK">    -1</i>
   <i type="logical" name="LPLANE"> T  </i>
   <i type="logical" name="LSCALAPACK"> T  </i>
   <i type="logical" name="LSCAAWARE"> F  </i>
   <i type="logical" name="LSCALU"> F  </i>
   <i type="logical" name="LASYNC"> F  </i>
   <i type="logical" name="LORBITALREAL"> F  </i>
  </separator>
  <separator name="miscellaneous" >
   <i type="int" name="IDIOT">     3</i>
   <i type="int" name="ISPECIAL">     0</i>
   <i type="logical" name="LMUSIC"> F  </i>
   <v name="POMASS">    183.85000000</v>
   <v name="DARWINR">      0.00000000</v>
   <v name="DARWINV">      1.00000000</v>
   <i type="logical" name="LCORR"> T  </i>
  </separator>
  <i type="logical" name="GGA_COMPAT"> T  </i>
  <i type="logical" name="LBERRY"> F  </i>
  <i type="int" name="ICORELEVEL">     0</i>
  <i type="logical" name="LDAU"> F  </i>
  <i type="int" name="I_CONSTRAINED_M">     0</i>
  <separator name="electronic exchange-correlation" >
   <i type="string" name="GGA">--</i>
   <i type="int" name="VOSKOWN">     0</i>
   <i type="logical" name="LHFCALC"> F  </i>
   <i type="string" name="PRECFOCK"></i>
   <i type="logical" name="LSYMGRAD"> F  </i>
   <i type="logical" name="LHFONE"> F  </i>
   <i type="logical" name="LRHFCALC"> F  </i>
   <i type="logical" name="LTHOMAS"> F  </i>
   <i type="logical" name="LMODELHF"> F  </i>
   <i name="ENCUT4O">     -1.00000000</i>
   <i type="int" name="EXXOEP">     0</i>
   <i type="int" name="FOURORBIT">     0</i>
   <i name="AEXX">      0.00000000</i>
   <i name="HFALPHA">      0.00000000</i>
   <i name="MCALPHA">      0.00000000</i>
   <i name="ALDAX">      1.00000000</i>
   <i name="AGGAX">      1.00000000</i>
   <i name="ALDAC">      1.00000000</i>
   <i name="AGGAC">      1.00000000</i>
   <i type="int" name="NKREDX">     1</i>
   <i type="int" name="NKREDY">     1</i>
   <i type="int" name="NKREDZ">     1</i>
   <i type="logical" name="SHIFTRED"> F  </i>
   <i type="logical" name="ODDONLY"> F  </i>
   <i type="logical" name="EVENONLY"> F  </i>
   <i type="int" name="LMAXFOCK">     0</i>
   <i type="int" name="NMAXFOCKAE">     0</i>
   <i type="logical" name="LFOCKAEDFT"> F  </i>
   <i name="HFSCREEN">      0.00000000</i>
   <i name="HFSCREENC">      0.00000000</i>
   <i type="int" name="NBANDSGWLOW">     0</i>
  </separator>
  <separator name="vdW DFT" >
   <i type="logical" name="LUSE_VDW"> F  </i>
   <i name="Zab_VDW">     -0.84910000</i>
   <i name="PARAM1">      0.12340000</i>
   <i name="PARAM2">      1.00000000</i>
   <i name="PARAM3">      0.00000000</i>
  </separator>
  <separator name="model GW" >
   <i type="int" name="MODEL_GW">     0</i>
   <i name="MODEL_EPS0">      9.17462299</i>
   <i name="MODEL_ALPHA">      1.00000000</i>
  </separator>
  <separator name="linear response parameters" >
   <i type="logical" name="LEPSILON"> F  </i>
   <i type="logical" name="LRPA"> F  </i>
   <i type="logical" name="LNABLA"> F  </i>
   <i type="logical" name="LVEL"> F  </i>
   <i type="int" name="KINTER">     0</i>
   <i name="CSHIFT">      0.10000000</i>
   <i name="OMEGAMAX">     -1.00000000</i>
   <i name="DEG_THRESHOLD">      0.00200000</i>
   <i name="RTIME">     -0.10000000</i>
   <i name="WPLASMAI">      0.00000000</i>
   <v name="DFIELD">      0.00000000      0.00000000      0.00000000</v>
   <v name="WPLASMA">      0.00000000      0.00000000      0.00000000      0.00000000      0.00000000      0.00000000      0.00000000      0.00000000      0.00000000</v>
  </separator>
  <separator name="orbital magnetization" >
   <i type="logical" name="NUCIND"> F  </i>
   <v name="MAGPOS">      0.00000000      0.00000000      0.00000000</v>
   <i type="logical" name="LNICSALL"> T  </i>
   <i type="logical" name="ORBITALMAG"> F  </i>
   <i type="logical" name="LMAGBLOCH"> F  </i>
   <i type="logical" name="LCHIMAG"> F  </i>
   <i type="logical" name="LGAUGE"> T  </i>
   <i type="int" name="MAGATOM">     0</i>
   <v name="MAGDIPOL">      0.00000000      0.00000000      0.00000000</v>
   <v name="AVECCONST">      0.00000000      0.00000000      0.00000000</v>
  </separator>
  <separator name="response functions" >
   <i type="logical" name="LADDER"> F  </i>
   <i type="logical" name="LRPAFORCE"> F  </i>
   <i type="logical" name="LFXC"> F  </i>
   <i type="logical" name="LHARTREE"> T  </i>
   <i type="int" name="IBSE">     0</i>
   <v type="int" name="KPOINT">    -1     0     0     0</v>
   <i type="logical" name="LTCTE"> F  </i>
   <i type="logical" name="LTETE"> F  </i>
   <i type="logical" name="LTRIPLET"> F  </i>
   <i type="logical" name="LFXCEPS"> F  </i>
   <i type="logical" name="LFXHEG"> F  </i>
   <i type="int" name="NATURALO">     2</i>
   <i type="logical" name="L2ORDER"> F  </i>
   <i type="logical" name="LMP2LT"> F  </i>
   <i type="logical" name="LUSEW"> F  </i>
   <i name="ENCUTGW">     -2.00000000</i>
   <i name="ENCUTGWSOFT">     -2.00000000</i>
   <i name="ENCUTLF">     -1.00000000</i>
   <i type="int" name="LMAXMP2">    -1</i>
   <i name="SCISSOR">      0.00000000</i>
   <i type="int" name="NOMEGA">     0</i>
   <i type="int" name="NOMEGAR">     0</i>
   <i type="int" name="NBANDSGW">    -1</i>
   <i type="int" name="NBANDSO">    -1</i>
   <i type="int" name="NBANDSV">    -1</i>
   <i type="int" name="NELM">     1</i>
   <i type="int" name="NELMHF">     1</i>
   <i type="int" name="DIM">     3</i>
   <i type="int" name="ANTIRES">     0</i>
   <i name="OMEGAMAX">    -30.00000000</i>
   <i name="OMEGAMIN">    -30.00000000</i>
   <i name="OMEGATL">   -200.00000000</i>
   <i type="int" name="OMEGAGRID">   140</i>
   <i name="CSHIFT">     -0.10000000</i>
   <i type="logical" name="SELFENERGY"> F  </i>
   <i type="logical" name="LSPECTRAL"> F  </i>
   <i type="logical" name="LSPECTRALGW"> F  </i>
   <i type="logical" name="LSINGLES"> F  </i>
   <i type="logical" name="LFERMIGW"> F  </i>
   <i type="logical" name="ODDONLYGW"> F  </i>
   <i type="logical" name="EVENONLYGW"> F  </i>
   <i type="int" name="NKREDLFX">     1</i>
   <i type="int" name="NKREDLFY">     1</i>
   <i type="int" name="NKREDLFZ">     1</i>
   <i type="int" name="MAXMEM">  2800</i>
   <i type="int" name="TELESCOPE">     0</i>
   <i type="int" name="TAUPAR">     1</i>
   <i type="int" name="OMEGAPAR">    -1</i>
   <i name="LAMBDA">      1.00000000</i>
  </separator>
  <separator name="External order field" >
   <i name="OFIELD_KAPPA">      0.00000000</i>
   <v name="OFIELD_K">      0.00000000      0.00000000      0.00000000</v>
   <i name="OFIELD_Q6_NEAR">      0.00000000</i>
   <i name="OFIELD_Q6_FAR">      0.00000000</i>
   <i name="OFIELD_A">      0.00000000</i>
  </separator>
 </parameters>
 <atominfo>
  <atoms>       1 </atoms>
  <types>       1 </types>
  <array name="atoms" >
   <dimension dim="1">ion</dimension>
   <field type="string">element</field>
   <field type="int">atomtype</field>
   <set>
    <rc><c>W </c><c>   1</c></rc>
   </set>
  </array>
  <array name="atomtypes" >
   <dimension dim="1">type</dimension>
   <field type="int">atomspertype</field>
   <field type="string">element</field>
   <field>mass</field>
   <field>valence</field>
   <field type="string">pseudopotential</field>
   <set>
    <rc><c>   1</c><c>W </c><c>    183.85000000</c><c>      6.00000000</c><c> PAW W 19Jan2001                        </c></rc>
   </set>
  </array>
 </atominfo>
 <structure name="initialpos" >
  <crystal>
   <varray name="basis" >
    <v>      -1.56360000       1.56360000       1.56360000 </v>
    <v>       1.56360000      -1.56360000       1.56360000 </v>
    <v>       1.56360000       1.56360000      -1.56360000 </v>
   </varray>
   <i name="volume">     15.29103832 </i>
   <varray name="rec_basis" >
    <v>       0.00000000       0.31977488       0.31977488 </v>
    <v>       0.31977488       0.00000000       0.31977488 </v>
    <v>       0.31977488       0.31977488       0.00000000 </v>
   </varray>
  </crystal>
  <varray name="positions" >
   <v>       0.00000000       0.00000000       0.00000000 </v>
  </varray>
 </structure>
 <calculation>
  <scstep>
   <time name="dav">    0.03    0.05</time>
   <time name="total">    0.04    0.05</time>
   <energy>
    <i name="alphaZ">     45.64970707 </i>
    <i name="ewald">   -301.63576621 </i>
    <i name="hartreedc">     -5.45136978 </i>
    <i name="XCdc">    -47.26850574 </i>
    <i name="pawpsdc">    183.53490256 </i>
    <i name="pawaedc">   -125.80866524 </i>
    <i name="eentropy">      0.00138234 </i>
    <i name="bandstr">     33.89024713 </i>
    <i name="atom">    206.50785835 </i>
    <i name="e_fr_energy">    -10.58020952 </i>
    <i name="e_wo_entrp">    -10.58159187 </i>
    <i name="e_0_energy">    -10.58067030 </i>
   </energy>
  </scstep>
  <scstep>
   <time name="dav">    0.03    0.03</time>
   <time name="total">    0.03    0.03</time>
   <energy>
    <i name="e_fr_energy">    -14.88909709 </i>
    <i name="e_wo_entrp">    -14.88906043 </i>
    <i name="e_0_energy">    -14.88908487 </i>
   </energy>
  </scstep>
  <scstep>
   <time name="dav">    0.03    0.03</time>
   <time name="total">    0.03    0.03</time>
   <energy>
    <i name="e_fr_energy">    -14.90424104 </i>
    <i name="e_wo_entrp">    -14.90430440 </i>
    <i name="e_0_energy">    -14.90426216 </i>
   </energy>
  </scstep>
  <scstep>
   <time name="dav">    0.03    0.03</time>
   <time name="total">    0.03    0.03</time>
   <energy>
    <i name="e_fr_energy">    -14.90424730 </i>
    <i name="e_wo_entrp">    -14.90431086 </i>
    <i name="e_0_energy">    -14.90426849 </i>
   </energy>
  </scstep>
  <scstep>
   <time name="dav">    0.03    0.03</time>
   <time name="total">    0.03    0.03</time>
   <energy>
    <i name="e_fr_energy">    -14.90424731 </i>
    <i name="e_wo_entrp">    -14.90431087 </i>
    <i name="e_0_energy">    -14.90426850 </i>
   </energy>
  </scstep>
  <scstep>
   <time name="dav">    0.02    0.02</time>
   <time name="total">    0.03    0.03</time>
   <energy>
    <i name="e_fr_energy">    -14.39951411 </i>
    <i name="e_wo_entrp">    -14.39871475 </i>
    <i name="e_0_energy">    -14.39924766 </i>
   </energy>
  </scstep>
  <scstep>
   <time name="dav">    0.03    0.03</time>
   <time name="total">    0.03    0.03</time>
   <energy>
    <i name="e_fr_energy">    -14.21428735 </i>
    <i name="e_wo_entrp">    -14.21652337 </i>
    <i name="e_0_energy">    -14.21503269 </i>
   </energy>
  </scstep>
  <scstep>
   <time name="dav">    0.03    0.03</time>
   <time name="total">    0.03    0.03</time>
   <energy>
    <i name="e_fr_energy">    -14.21265709 </i>
    <i name="e_wo_entrp">    -14.21461201 </i>
    <i name="e_0_energy">    -14.21330873 </i>
   </energy>
  </scstep>
  <scstep>
   <time name="dav">    0.02    0.02</time>
   <time name="total">    0.03    0.03</time>
   <energy>
    <i name="e_fr_energy">    -14.21188673 </i>
    <i name="e_wo_entrp">    -14.21408649 </i>
    <i name="e_0_energy">    -14.21261998 </i>
   </energy>
  </scstep>
  <scstep>
   <time name="dav">    0.01    0.01</time>
   <time name="total">    0.01    0.02</time>
   <energy>
    <i name="alphaZ">     45.64970707 </i>
    <i name="ewald">   -301.63576621 </i>
    <i name="hartreedc">     -2.13033906 </i>
    <i name="XCdc">    -46.81551990 </i>
    <i name="pawpsdc">    248.52916639 </i>
    <i name="pawaedc">   -192.45259080 </i>
    <i name="eentropy">      0.00220249 </i>
    <i name="bandstr">     28.13339233 </i>
    <i name="atom">    206.50785835 </i>
    <i name="e_fr_energy">    -14.21188934 </i>
    <i name="e_wo_entrp">    -14.21409183 </i>
    <i name="e_0_energy">    -14.21262350 </i>
   </energy>
  </scstep>
  <structure>
   <crystal>
    <varray name="basis" >
     <v>      -1.56360000       1.56360000       1.56360000 </v>
     <v>       1.56360000      -1.56360000       1.56360000 </v>
     <v>       1.56360000       1.56360000      -1.56360000 </v>
    </varray>
    <i name="volume">     15.29103832 </i>
    <varray name="rec_basis" >
     <v>       0.00000000       0.31977488       0.31977488 </v>
     <v>       0.31977488       0.00000000       0.31977488 </v>
     <v>       0.31977488       0.31977488       0.00000000 </v>
    </varray>
   </crystal>
   <varray name="positions" >
    <v>       0.00000000       0.00000000       0.00000000 </v>
   </varray>
  </structure>
  <varray name="forces" >
   <v>       0.00000000      -0.00000000       0.00000000 </v>
  </varray>
  <varray name="stress" >
   <v>     -16.77868965       0.00000000       0.00000000 </v>
   <v>       0.00000000     -16.77868965      -0.00000000 </v>
   <v>      -0.00000000       0.00000000     -16.77868965 </v>
  </varray>
  <energy>
   <i name="e_fr_energy">    -14.21188934 </i>
   <i name="e_wo_entrp">    -14.21262350 </i>
   <i name="e_0_energy">      0.00220249 </i>
  </energy>
  <time name="totalsc">    0.34    0.36</time>
  <eigenvalues>
   <array>
    <dimension dim="1">band</dimension>
    <dimension dim="2">kpoint</dimension>
    <dimension dim="3">spin</dimension>
    <field>eigene</field>
    <field>occ</field>
    <set>
     <set comment="spin 1">
      <set comment="kpoint 1">
       <r>   -0.8016    1.0000 </r>
       <r>    6.5413    1.0000 </r>
       <r>    6.5413    1.0000 </r>
       <r>    7.7791    1.0240 </r>
       <r>   10.2434   -0.0000 </r>
       <r>   10.2434   -0.0000 </r>
       <r>   24.0649    0.0000 </r>
       <r>   25.0520    0.0000 </r>
      </set>
      <set comment="kpoint 2">
       <r>    0.4386    1.0000 </r>
       <r>    5.8216    1.0000 </r>
       <r>    6.1065    1.0000 </r>
       <r>    9.3365   -0.0000 </r>
       <r>    9.8955   -0.0000 </r>
       <r>   10.5315   -0.0000 </r>
       <r>   24.6334    0.0000 </r>
       <r>   26.3441    0.0000 </r>
      </set>
      <set comment="kpoint 3">
       <r>    1.7232    1.0000 </r>
       <r>    5.1117    1.0000 </r>
       <r>    6.0977    1.0000 </r>
       <r>   10.1298   -0.0000 </r>
       <r>   10.8859   -0.0000 </r>
       <r>   11.5988   -0.0000 </r>
       <r>   23.1372    0.0000 </r>
       <r>   24.0658    0.0000 </r>
      </set>
      <set comment="kpoint 4">
       <r>    2.0519    1.0000 </r>
       <r>    4.6226    1.0000 </r>
       <r>    7.5171    1.0002 </r>
       <r>   10.5205   -0.0000 </r>
       <r>   11.2541   -0.0000 </r>
       <r>   13.9956    0.0000 </r>
       <r>   20.9109    0.0000 </r>
       <r>   21.3299    0.0000 </r>
      </set>
      <set comment="kpoint 5">
       <r>    1.9965    1.0000 </r>
       <r>    4.4512    1.0000 </r>
       <r>    8.7456   -0.0000 </r>
       <r>   10.5106   -0.0000 </r>
       <r>   11.4355   -0.0000 </r>
       <r>   15.2289    0.0000 </r>
       <r>   19.4251    0.0000 </r>
       <r>   20.6042    0.0000 </r>
      </set>
      <set comment="kpoint 6">
       <r>   -1.2712    1.0000 </r>
       <r>    6.8789    1.0000 </r>
       <r>    6.8790    1.0000 </r>
       <r>    7.0156    1.0000 </r>
       <r>   10.0983   -0.0000 </r>
       <r>   10.6257   -0.0000 </r>
       <r>   24.0374    0.0000 </r>
       <r>   24.0374    0.0000 </r>
      </set>
      <set comment="kpoint 7">
       <r>    1.7979    1.0000 </r>
       <r>    5.3371    1.0000 </r>
       <r>    5.3905    1.0000 </r>
       <r>    9.9778   -0.0000 </r>
       <r>   10.9244   -0.0000 </r>
       <r>   11.5615   -0.0000 </r>
       <r>   24.2375    0.0000 </r>
       <r>   25.2993    0.0000 </r>
      </set>
      <set comment="kpoint 8">
       <r>    2.7799    1.0000 </r>
       <r>    4.8150    1.0000 </r>
       <r>    5.8167    1.0000 </r>
       <r>   10.3052   -0.0000 </r>
       <r>   11.2932   -0.0000 </r>
       <r>   14.1599    0.0000 </r>
       <r>   21.4140    0.0000 </r>
       <r>   23.3228    0.0000 </r>
      </set>
      <set comment="kpoint 9">
       <r>    2.8007    1.0000 </r>
       <r>    4.5692    1.0000 </r>
       <r>    7.2387    1.0000 </r>
       <r>   10.6133   -0.0000 </r>
       <r>   11.5299   -0.0000 </r>
       <r>   16.2899    0.0000 </r>
       <r>   18.6966    0.0000 </r>
       <r>   21.7859    0.0000 </r>
      </set>
      <set comment="kpoint 10">
       <r>   -0.3524    1.0000 </r>
       <r>    6.3937    1.0000 </r>
       <r>    6.6988    1.0000 </r>
       <r>    7.9497    0.9690 </r>
       <r>    9.3725   -0.0000 </r>
       <r>   10.8261   -0.0000 </r>
       <r>   24.6345    0.0000 </r>
       <r>   25.6535    0.0000 </r>
      </set>
      <set comment="kpoint 11">
       <r>    3.4927    1.0000 </r>
       <r>    4.8951    1.0000 </r>
       <r>    5.9401    1.0000 </r>
       <r>   10.6481   -0.0000 </r>
       <r>   11.4331   -0.0000 </r>
       <r>   16.8617    0.0000 </r>
       <r>   18.5186    0.0000 </r>
       <r>   22.6732    0.0000 </r>
      </set>
      <set comment="kpoint 12">
       <r>    3.5723    1.0000 </r>
       <r>    5.0179    1.0000 </r>
       <r>    6.2672    1.0000 </r>
       <r>   10.9303   -0.0000 </r>
       <r>   11.4809   -0.0000 </r>
       <r>   16.9165    0.0000 </r>
       <r>   18.6402    0.0000 </r>
       <r>   21.3148    0.0000 </r>
      </set>
      <set comment="kpoint 13">
       <r>    1.0442    1.0000 </r>
       <r>    5.6501    1.0000 </r>
       <r>    6.2826    1.0000 </r>
       <r>    9.3981   -0.0000 </r>
       <r>    9.7779   -0.0000 </r>
       <r>   11.0431   -0.0000 </r>
       <r>   23.8326    0.0000 </r>
       <r>   25.7183    0.0000 </r>
      </set>
      <set comment="kpoint 14">
       <r>    0.8352    1.0000 </r>
       <r>    6.1392    1.0000 </r>
       <r>    6.1722    1.0000 </r>
       <r>    8.7663   -0.0000 </r>
       <r>    9.2448   -0.0000 </r>
       <r>   11.2602   -0.0000 </r>
       <r>   24.9363    0.0000 </r>
       <r>   25.7714    0.0000 </r>
      </set>
      <set comment="kpoint 15">
       <r>    1.8591    1.0000 </r>
       <r>    5.0040    1.0000 </r>
       <r>    6.8255    1.0000 </r>
       <r>   10.0423   -0.0000 </r>
       <r>   11.3102   -0.0000 </r>
       <r>   12.1699   -0.0000 </r>
       <r>   21.7483    0.0000 </r>
       <r>   23.1151    0.0000 </r>
      </set>
      <set comment="kpoint 16">
       <r>    2.1035    1.0000 </r>
       <r>    5.3987    1.0000 </r>
       <r>    6.0005    1.0000 </r>
       <r>    9.1198   -0.0000 </r>
       <r>   11.2588   -0.0000 </r>
       <r>   11.7264   -0.0000 </r>
       <r>   22.5956    0.0000 </r>
       <r>   25.4010    0.0000 </r>
      </set>
      <set comment="kpoint 17">
       <r>    1.8720    1.0000 </r>
       <r>    4.6409    1.0000 </r>
       <r>    8.2561    0.0087 </r>
       <r>   10.2321   -0.0000 </r>
       <r>   11.8656   -0.0000 </r>
       <r>   14.2803    0.0000 </r>
       <r>   20.1471    0.0000 </r>
       <r>   21.0261    0.0000 </r>
      </set>
      <set comment="kpoint 18">
       <r>    2.4532    1.0000 </r>
       <r>    5.0159    1.0000 </r>
       <r>    6.6831    1.0000 </r>
       <r>    9.7688   -0.0000 </r>
       <r>   11.7793   -0.0000 </r>
       <r>   14.0966    0.0000 </r>
       <r>   20.5870    0.0000 </r>
       <r>   23.0063    0.0000 </r>
      </set>
      <set comment="kpoint 19">
       <r>    3.1023    1.0000 </r>
       <r>    4.8459    1.0000 </r>
       <r>    6.1097    1.0000 </r>
       <r>    9.4594   -0.0000 </r>
       <r>   11.4049   -0.0000 </r>
       <r>   14.2915    0.0000 </r>
       <r>   20.8357    0.0000 </r>
       <r>   24.7050    0.0000 </r>
      </set>
      <set comment="kpoint 20">
       <r>    2.3877    1.0000 </r>
       <r>    4.8854    1.0000 </r>
       <r>    7.3407    1.0000 </r>
       <r>    9.7122   -0.0000 </r>
       <r>   12.4880   -0.0000 </r>
       <r>   15.4982    0.0000 </r>
       <r>   19.2053    0.0000 </r>
       <r>   22.0817    0.0000 </r>
      </set>
      <set comment="kpoint 21">
       <r>    3.3512    1.0000 </r>
       <r>    4.9154    1.0000 </r>
       <r>    6.1294    1.0000 </r>
       <r>   10.0121   -0.0000 </r>
       <r>   11.7355   -0.0000 </r>
       <r>   16.9934    0.0000 </r>
       <r>   18.5370    0.0000 </r>
       <r>   22.6528    0.0000 </r>
      </set>
      <set comment="kpoint 22">
       <r>    3.9298    1.0000 </r>
       <r>    5.2141    1.0000 </r>
       <r>    5.2141    1.0000 </r>
       <r>   11.0845   -0.0000 </r>
       <r>   11.0846   -0.0000 </r>
       <r>   17.1876    0.0000 </r>
       <r>   20.1366    0.0000 </r>
       <r>   20.1368    0.0000 </r>
      </set>
      <set comment="kpoint 23">
       <r>    3.2946    1.0000 </r>
       <r>    4.8319    1.0000 </r>
       <r>    4.8319    1.0000 </r>
       <r>   10.8731   -0.0000 </r>
       <r>   10.8731   -0.0000 </r>
       <r>   14.3009    0.0000 </r>
       <r>   22.5781    0.0000 </r>
       <r>   23.9996    0.0000 </r>
      </set>
      <set comment="kpoint 24">
       <r>    3.8622    1.0000 </r>
       <r>    4.5809    1.0000 </r>
       <r>    5.7258    1.0000 </r>
       <r>   11.0596   -0.0000 </r>
       <r>   11.3806   -0.0000 </r>
       <r>   16.8513    0.0000 </r>
       <r>   18.7125    0.0000 </r>
       <r>   22.5544    0.0000 </r>
      </set>
      <set comment="kpoint 25">
       <r>    3.7437    1.0000 </r>
       <r>    4.5095    1.0000 </r>
       <r>    6.7660    1.0000 </r>
       <r>   11.1470   -0.0000 </r>
       <r>   11.5387   -0.0000 </r>
       <r>   16.9290    0.0000 </r>
       <r>   18.0806    0.0000 </r>
       <r>   21.9987    0.0000 </r>
      </set>
      <set comment="kpoint 26">
       <r>    0.5212    1.0000 </r>
       <r>    6.9129    1.0000 </r>
       <r>    6.9130    1.0000 </r>
       <r>    7.8197    1.0326 </r>
       <r>    7.9400    0.9834 </r>
       <r>   11.4769   -0.0000 </r>
       <r>   26.1914    0.0000 </r>
       <r>   26.5110    0.0000 </r>
      </set>
      <set comment="kpoint 27">
       <r>    4.2828    1.0000 </r>
       <r>    5.0878    1.0000 </r>
       <r>    5.7654    1.0000 </r>
       <r>   11.3847   -0.0000 </r>
       <r>   11.5285   -0.0000 </r>
       <r>   16.2344    0.0000 </r>
       <r>   19.2000    0.0000 </r>
       <r>   21.4609    0.0000 </r>
      </set>
      <set comment="kpoint 28">
       <r>    1.8597    1.0000 </r>
       <r>    6.0787    1.0000 </r>
       <r>    6.5265    1.0000 </r>
       <r>    7.9221    1.0049 </r>
       <r>    9.4933   -0.0000 </r>
       <r>   11.7619   -0.0000 </r>
       <r>   23.5583    0.0000 </r>
       <r>   27.2541    0.0000 </r>
      </set>
      <set comment="kpoint 29">
       <r>    2.6864    1.0000 </r>
       <r>    5.6257    1.0000 </r>
       <r>    5.9667    1.0000 </r>
       <r>    8.8922   -0.0000 </r>
       <r>   11.8843   -0.0000 </r>
       <r>   12.1127   -0.0000 </r>
       <r>   21.9120    0.0000 </r>
       <r>   25.4160    0.0000 </r>
      </set>
      <set comment="kpoint 30">
       <r>    2.9969    1.0000 </r>
       <r>    5.0359    1.0000 </r>
       <r>    6.7875    1.0000 </r>
       <r>    8.2495    0.0174 </r>
       <r>   10.9150   -0.0000 </r>
       <r>   12.1866   -0.0000 </r>
       <r>   22.5461    0.0000 </r>
       <r>   27.1370    0.0000 </r>
      </set>
      <set comment="kpoint 31">
       <r>    2.6322    1.0000 </r>
       <r>    5.6390    1.0000 </r>
       <r>    6.2179    1.0000 </r>
       <r>    8.8550   -0.0000 </r>
       <r>   13.7275    0.0000 </r>
       <r>   14.0585    0.0000 </r>
       <r>   20.0188    0.0000 </r>
       <r>   23.7517    0.0000 </r>
      </set>
      <set comment="kpoint 32">
       <r>    3.3969    1.0000 </r>
       <r>    4.7843    1.0000 </r>
       <r>    6.3717    1.0000 </r>
       <r>    8.9983   -0.0000 </r>
       <r>   11.9459   -0.0000 </r>
       <r>   14.5338    0.0000 </r>
       <r>   20.8652    0.0000 </r>
       <r>   24.6877    0.0000 </r>
      </set>
      <set comment="kpoint 33">
       <r>    3.2458    1.0000 </r>
       <r>    5.3225    1.0000 </r>
       <r>    5.8335    1.0000 </r>
       <r>    9.0294   -0.0000 </r>
       <r>   13.1073   -0.0000 </r>
       <r>   16.5814    0.0000 </r>
       <r>   18.7764    0.0000 </r>
       <r>   23.0955    0.0000 </r>
      </set>
      <set comment="kpoint 34">
       <r>    4.1946    1.0000 </r>
       <r>    4.2722    1.0000 </r>
       <r>    5.5705    1.0000 </r>
       <r>   10.4168   -0.0000 </r>
       <r>   11.7863   -0.0000 </r>
       <r>   17.5656    0.0000 </r>
       <r>   18.8468    0.0000 </r>
       <r>   21.9037    0.0000 </r>
      </set>
      <set comment="kpoint 35">
       <r>    5.1950    1.0000 </r>
       <r>    5.1950    1.0000 </r>
       <r>    5.1951    1.0000 </r>
       <r>   11.6109   -0.0000 </r>
       <r>   11.6109   -0.0000 </r>
       <r>   15.3106    0.0000 </r>
       <r>   21.0862    0.0000 </r>
       <r>   21.0863    0.0000 </r>
      </set>
      <set comment="kpoint 36">
       <r>    2.9768    1.0000 </r>
       <r>    5.2226    1.0000 </r>
       <r>    7.6760    1.0058 </r>
       <r>    7.6761    1.0058 </r>
       <r>    9.6328   -0.0000 </r>
       <r>   11.8641   -0.0000 </r>
       <r>   23.3797    0.0000 </r>
       <r>   28.6028    0.0000 </r>
      </set>
      <set comment="kpoint 37">
       <r>    3.5706    1.0000 </r>
       <r>    4.2732    1.0000 </r>
       <r>    7.7383    1.0151 </r>
       <r>    8.4544   -0.0146 </r>
       <r>   11.5289   -0.0000 </r>
       <r>   12.4252   -0.0000 </r>
       <r>   23.1339    0.0000 </r>
       <r>   25.9483    0.0000 </r>
      </set>
      <set comment="kpoint 38">
       <r>    3.2380    1.0000 </r>
       <r>    4.3421    1.0000 </r>
       <r>    7.5386    1.0003 </r>
       <r>    8.4282   -0.0201 </r>
       <r>   13.7153    0.0000 </r>
       <r>   14.9767    0.0000 </r>
       <r>   20.0073    0.0000 </r>
       <r>   23.2398    0.0000 </r>
      </set>
      <set comment="kpoint 39">
       <r>    3.4989    1.0000 </r>
       <r>    3.6933    1.0000 </r>
       <r>    7.6588    1.0043 </r>
       <r>    9.8416   -0.0000 </r>
       <r>   12.1276   -0.0000 </r>
       <r>   14.7777    0.0000 </r>
       <r>   21.1580    0.0000 </r>
       <r>   23.0412    0.0000 </r>
      </set>
      <set comment="kpoint 40">
       <r>    3.2491    1.0000 </r>
       <r>    3.6601    1.0000 </r>
       <r>    7.4052    1.0000 </r>
       <r>   10.4516   -0.0000 </r>
       <r>   12.9655   -0.0000 </r>
       <r>   17.6841    0.0000 </r>
       <r>   18.3506    0.0000 </r>
       <r>   21.0614    0.0000 </r>
      </set>
      <set comment="kpoint 41">
       <r>    3.2548    1.0000 </r>
       <r>    3.4424    1.0000 </r>
       <r>    9.6214   -0.0000 </r>
       <r>    9.6215   -0.0000 </r>
       <r>   11.7286   -0.0000 </r>
       <r>   12.9325   -0.0000 </r>
       <r>   23.3563    0.0000 </r>
       <r>   23.3564    0.0000 </r>
      </set>
      <set comment="kpoint 42">
       <r>    2.7511    1.0000 </r>
       <r>    3.0107    1.0000 </r>
       <r>   10.1068   -0.0000 </r>
       <r>   10.2752   -0.0000 </r>
       <r>   13.3997   -0.0000 </r>
       <r>   15.4450    0.0000 </r>
       <r>   19.6932    0.0000 </r>
       <r>   20.8259    0.0000 </r>
      </set>
      <set comment="kpoint 43">
       <r>    2.5905    1.0000 </r>
       <r>    2.5905    1.0000 </r>
       <r>   10.1391   -0.0000 </r>
       <r>   12.7168   -0.0000 </r>
       <r>   12.7171   -0.0000 </r>
       <r>   18.1635    0.0000 </r>
       <r>   18.1698    0.0000 </r>
       <r>   18.1699    0.0000 </r>
      </set>
      <set comment="kpoint 44">
       <r>    2.2228    1.0000 </r>
       <r>    2.2978    1.0000 </r>
       <r>   12.6136   -0.0000 </r>
       <r>   12.6138   -0.0000 </r>
       <r>   13.3660   -0.0000 </r>
       <r>   16.1740    0.0000 </r>
       <r>   18.2697    0.0000 </r>
       <r>   18.2698    0.0000 </r>
      </set>
     </set>
    </set>
   </array>
  </eigenvalues>
  <separator name="orbital magnetization" >
   <v name="MAGDIPOLOUT">      0.00000000      0.00000000      0.00000000</v>
  </separator>
  <dos>
   <i name="efermi">      8.09508573 </i>
   <total>
    <array>
     <dimension dim="1">gridpoints</dimension>
     <dimension dim="2">spin</dimension>
     <field>energy</field>
     <field>total</field>
     <field>integrated</field>
     <set>
      <set comment="spin 1">
       <r>    -3.2712     0.0000     0.0000 </r>
       <r>    -3.1583     0.0000     0.0000 </r>
       <r>    -3.0454     0.0000     0.0000 </r>
       <r>    -2.9324    -0.0000    -0.0000 </r>
       <r>    -2.8195    -0.0000    -0.0000 </r>
       <r>    -2.7066    -0.0000    -0.0000 </r>
       <r>    -2.5937    -0.0000    -0.0000 </r>
       <r>    -2.4808    -0.0000    -0.0000 </r>
       <r>    -2.3679    -0.0000    -0.0000 </r>
       <r>    -2.2550    -0.0000    -0.0000 </r>
       <r>    -2.1421    -0.0000    -0.0000 </r>
       <r>    -2.0291    -0.0000    -0.0000 </r>
       <r>    -1.9162    -0.0000    -0.0000 </r>
       <r>    -1.8033    -0.0001    -0.0000 </r>
       <r>    -1.6904    -0.0006    -0.0001 </r>
       <r>    -1.5775    -0.0022    -0.0003 </r>
       <r>    -1.4646     0.0005    -0.0003 </r>
       <r>    -1.3517     0.0222     0.0023 </r>
       <r>    -1.2387     0.0470     0.0076 </r>
       <r>    -1.1258     0.0329     0.0113 </r>
       <r>    -1.0129     0.0059     0.0119 </r>
       <r>    -0.9000     0.0208     0.0143 </r>
       <r>    -0.7871     0.0577     0.0208 </r>
       <r>    -0.6742     0.0452     0.0259 </r>
       <r>    -0.5613     0.0113     0.0272 </r>
       <r>    -0.4484     0.0696     0.0350 </r>
       <r>    -0.3354     0.1810     0.0555 </r>
       <r>    -0.2225     0.1568     0.0732 </r>
       <r>    -0.1096     0.0400     0.0777 </r>
       <r>     0.0033    -0.0103     0.0765 </r>
       <r>     0.1162    -0.0140     0.0749 </r>
       <r>     0.2291    -0.0062     0.0742 </r>
       <r>     0.3420     0.0732     0.0825 </r>
       <r>     0.4550     0.2047     0.1056 </r>
       <r>     0.5679     0.1955     0.1277 </r>
       <r>     0.6808     0.0891     0.1378 </r>
       <r>     0.7937     0.1192     0.1512 </r>
       <r>     0.9066     0.2186     0.1759 </r>
       <r>     1.0195     0.2469     0.2038 </r>
       <r>     1.1324     0.1923     0.2255 </r>
       <r>     1.2453     0.0705     0.2334 </r>
       <r>     1.3583    -0.0109     0.2322 </r>
       <r>     1.4712    -0.0357     0.2282 </r>
       <r>     1.5841    -0.0051     0.2276 </r>
       <r>     1.6970     0.2431     0.2551 </r>
       <r>     1.8099     0.6985     0.3339 </r>
       <r>     1.9228     0.9250     0.4384 </r>
       <r>     2.0357     0.8309     0.5322 </r>
       <r>     2.1487     0.6575     0.6064 </r>
       <r>     2.2616     0.4216     0.6540 </r>
       <r>     2.3745     0.4100     0.7003 </r>
       <r>     2.4874     0.5869     0.7666 </r>
       <r>     2.6003     0.7133     0.8471 </r>
       <r>     2.7132     1.0142     0.9617 </r>
       <r>     2.8261     1.1985     1.0970 </r>
       <r>     2.9390     0.8911     1.1976 </r>
       <r>     3.0520     0.6121     1.2667 </r>
       <r>     3.1649     0.6886     1.3445 </r>
       <r>     3.2778     1.0561     1.4637 </r>
       <r>     3.3907     1.3721     1.6187 </r>
       <r>     3.5036     1.3411     1.7701 </r>
       <r>     3.6165     1.1108     1.8955 </r>
       <r>     3.7294     0.8083     1.9868 </r>
       <r>     3.8424     0.4964     2.0428 </r>
       <r>     3.9553     0.2412     2.0701 </r>
       <r>     4.0682     0.1162     2.0832 </r>
       <r>     4.1811     0.3740     2.1254 </r>
       <r>     4.2940     0.8063     2.2165 </r>
       <r>     4.4069     0.8379     2.3111 </r>
       <r>     4.5198     0.8087     2.4024 </r>
       <r>     4.6328     1.0314     2.5188 </r>
       <r>     4.7457     1.2947     2.6650 </r>
       <r>     4.8586     1.7910     2.8673 </r>
       <r>     4.9715     2.1245     3.1072 </r>
       <r>     5.0844     1.7872     3.3090 </r>
       <r>     5.1973     1.1127     3.4346 </r>
       <r>     5.3102     0.8578     3.5314 </r>
       <r>     5.4231     0.9339     3.6369 </r>
       <r>     5.5361     0.8470     3.7325 </r>
       <r>     5.6490     0.9573     3.8406 </r>
       <r>     5.7619     1.2833     3.9855 </r>
       <r>     5.8748     1.4066     4.1444 </r>
       <r>     5.9877     1.5173     4.3157 </r>
       <r>     6.1006     1.9205     4.5325 </r>
       <r>     6.2135     1.9943     4.7577 </r>
       <r>     6.3265     1.4717     4.9239 </r>
       <r>     6.4394     0.9431     5.0304 </r>
       <r>     6.5523     0.6808     5.1073 </r>
       <r>     6.6652     0.7916     5.1966 </r>
       <r>     6.7781     1.0095     5.3106 </r>
       <r>     6.8910     0.8287     5.4042 </r>
       <r>     7.0039     0.3683     5.4458 </r>
       <r>     7.1168     0.1532     5.4631 </r>
       <r>     7.2298     0.3611     5.5038 </r>
       <r>     7.3427     0.6202     5.5739 </r>
       <r>     7.4556     0.6661     5.6491 </r>
       <r>     7.5685     0.6568     5.7232 </r>
       <r>     7.6814     0.6611     5.7979 </r>
       <r>     7.7943     0.6219     5.8681 </r>
       <r>     7.9072     0.5653     5.9319 </r>
       <r>     8.0202     0.4289     5.9804 </r>
       <r>     8.1331     0.2518     6.0088 </r>
       <r>     8.2460     0.3300     6.0460 </r>
       <r>     8.3589     0.5017     6.1027 </r>
       <r>     8.4718     0.4748     6.1563 </r>
       <r>     8.5847     0.2665     6.1864 </r>
       <r>     8.6976     0.2027     6.2093 </r>
       <r>     8.8105     0.4699     6.2623 </r>
       <r>     8.9235     0.7979     6.3524 </r>
       <r>     9.0364     0.9734     6.4623 </r>
       <r>     9.1493     0.8838     6.5621 </r>
       <r>     9.2622     0.7221     6.6437 </r>
       <r>     9.3751     0.8100     6.7351 </r>
       <r>     9.4880     0.8332     6.8292 </r>
       <r>     9.6009     0.6327     6.9007 </r>
       <r>     9.7139     0.7273     6.9828 </r>
       <r>     9.8268     1.0388     7.1001 </r>
       <r>     9.9397     1.1515     7.2301 </r>
       <r>    10.0526     1.2265     7.3686 </r>
       <r>    10.1655     1.2541     7.5102 </r>
       <r>    10.2784     1.1859     7.6441 </r>
       <r>    10.3913     1.1030     7.7686 </r>
       <r>    10.5042     1.1192     7.8950 </r>
       <r>    10.6172     1.1091     8.0202 </r>
       <r>    10.7301     0.8382     8.1149 </r>
       <r>    10.8430     0.8266     8.2082 </r>
       <r>    10.9559     1.1200     8.3347 </r>
       <r>    11.0688     1.0661     8.4551 </r>
       <r>    11.1817     1.0702     8.5759 </r>
       <r>    11.2946     1.6270     8.7596 </r>
       <r>    11.4076     2.1189     8.9989 </r>
       <r>    11.5205     2.1513     9.2418 </r>
       <r>    11.6334     1.9525     9.4622 </r>
       <r>    11.7463     1.9522     9.6827 </r>
       <r>    11.8592     1.8853     9.8956 </r>
       <r>    11.9721     1.2895    10.0412 </r>
       <r>    12.0850     0.8280    10.1347 </r>
       <r>    12.1979     0.7302    10.2171 </r>
       <r>    12.3109     0.5008    10.2737 </r>
       <r>    12.4238     0.3408    10.3121 </r>
       <r>    12.5367     0.3784    10.3549 </r>
       <r>    12.6496     0.3187    10.3908 </r>
       <r>    12.7625     0.2028    10.4137 </r>
       <r>    12.8754     0.1810    10.4342 </r>
       <r>    12.9883     0.2839    10.4662 </r>
       <r>    13.1013     0.3265    10.5031 </r>
       <r>    13.2142     0.2219    10.5282 </r>
       <r>    13.3271     0.1743    10.5478 </r>
       <r>    13.4400     0.2097    10.5715 </r>
       <r>    13.5529     0.1743    10.5912 </r>
       <r>    13.6658     0.2404    10.6184 </r>
       <r>    13.7787     0.3369    10.6564 </r>
       <r>    13.8916     0.2728    10.6872 </r>
       <r>    14.0046     0.4935    10.7429 </r>
       <r>    14.1175     0.9961    10.8554 </r>
       <r>    14.2304     1.0956    10.9791 </r>
       <r>    14.3433     0.7345    11.0620 </r>
       <r>    14.4562     0.4283    11.1104 </r>
       <r>    14.5691     0.3757    11.1528 </r>
       <r>    14.6820     0.3111    11.1879 </r>
       <r>    14.7950     0.2324    11.2142 </r>
       <r>    14.9079     0.2342    11.2406 </r>
       <r>    15.0208     0.2195    11.2654 </r>
       <r>    15.1337     0.1436    11.2816 </r>
       <r>    15.2466     0.1063    11.2936 </r>
       <r>    15.3595     0.2003    11.3162 </r>
       <r>    15.4724     0.3629    11.3572 </r>
       <r>    15.5853     0.3308    11.3946 </r>
       <r>    15.6983     0.1094    11.4069 </r>
       <r>    15.8112    -0.0151    11.4052 </r>
       <r>    15.9241    -0.0338    11.4014 </r>
       <r>    16.0370    -0.0122    11.4000 </r>
       <r>    16.1499     0.1844    11.4209 </r>
       <r>    16.2628     0.5217    11.4798 </r>
       <r>    16.3757     0.5382    11.5405 </r>
       <r>    16.4887     0.2598    11.5699 </r>
       <r>    16.6016     0.1362    11.5852 </r>
       <r>    16.7145     0.1706    11.6045 </r>
       <r>    16.8274     0.4637    11.6569 </r>
       <r>    16.9403     0.8804    11.7563 </r>
       <r>    17.0532     0.7975    11.8463 </r>
       <r>    17.1661     0.3298    11.8836 </r>
       <r>    17.2790     0.0414    11.8882 </r>
       <r>    17.3920    -0.0044    11.8877 </r>
       <r>    17.5049     0.1105    11.9002 </r>
       <r>    17.6178     0.2949    11.9335 </r>
       <r>    17.7307     0.3089    11.9684 </r>
       <r>    17.8436     0.1289    11.9830 </r>
       <r>    17.9565     0.0203    11.9853 </r>
       <r>    18.0694     0.1248    11.9994 </r>
       <r>    18.1824     0.3011    12.0333 </r>
       <r>    18.2953     0.3643    12.0745 </r>
       <r>    18.4082     0.4075    12.1205 </r>
       <r>    18.5211     0.6637    12.1954 </r>
       <r>    18.6340     1.0373    12.3126 </r>
       <r>    18.7469     1.1484    12.4422 </r>
       <r>    18.8598     0.7866    12.5311 </r>
       <r>    18.9727     0.2635    12.5608 </r>
       <r>    19.0857     0.1037    12.5725 </r>
       <r>    19.1986     0.3027    12.6067 </r>
       <r>    19.3115     0.3629    12.6477 </r>
       <r>    19.4244     0.1931    12.6695 </r>
       <r>    19.5373     0.0939    12.6801 </r>
       <r>    19.6502     0.1338    12.6952 </r>
       <r>    19.7631     0.1623    12.7135 </r>
       <r>    19.8761     0.1500    12.7304 </r>
       <r>    19.9890     0.3428    12.7691 </r>
       <r>    20.1019     0.5831    12.8350 </r>
       <r>    20.2148     0.4673    12.8877 </r>
       <r>    20.3277     0.1375    12.9033 </r>
       <r>    20.4406     0.0434    12.9082 </r>
       <r>    20.5535     0.2806    12.9399 </r>
       <r>    20.6665     0.4871    12.9949 </r>
       <r>    20.7794     0.6580    13.0692 </r>
       <r>    20.8923     0.9654    13.1782 </r>
       <r>    21.0052     0.9610    13.2867 </r>
       <r>    21.1181     0.6706    13.3624 </r>
       <r>    21.2310     0.5272    13.4219 </r>
       <r>    21.3439     0.7059    13.5016 </r>
       <r>    21.4568     0.8145    13.5936 </r>
       <r>    21.5698     0.4788    13.6477 </r>
       <r>    21.6827     0.2962    13.6811 </r>
       <r>    21.7956     0.6167    13.7507 </r>
       <r>    21.9085     0.8306    13.8445 </r>
       <r>    22.0214     0.6543    13.9184 </r>
       <r>    22.1343     0.3462    13.9575 </r>
       <r>    22.2472     0.0694    13.9653 </r>
       <r>    22.3602    -0.0428    13.9605 </r>
       <r>    22.4731     0.2992    13.9943 </r>
       <r>    22.5860     1.0482    14.1126 </r>
       <r>    22.6989     1.2299    14.2515 </r>
       <r>    22.8118     0.5603    14.3148 </r>
       <r>    22.9247     0.2609    14.3442 </r>
       <r>    23.0376     0.8153    14.4363 </r>
       <r>    23.1505     1.2887    14.5818 </r>
       <r>    23.2635     1.1409    14.7106 </r>
       <r>    23.3764     0.7735    14.7980 </r>
       <r>    23.4893     0.4264    14.8461 </r>
       <r>    23.6022     0.2395    14.8731 </r>
       <r>    23.7151     0.2696    14.9036 </r>
       <r>    23.8280     0.3566    14.9439 </r>
       <r>    23.9409     0.3813    14.9869 </r>
       <r>    24.0539     0.4371    15.0363 </r>
       <r>    24.1668     0.4401    15.0860 </r>
       <r>    24.2797     0.2792    15.1175 </r>
       <r>    24.3926     0.0731    15.1257 </r>
       <r>    24.5055     0.1014    15.1372 </r>
       <r>    24.6184     0.5811    15.2028 </r>
       <r>    24.7313     0.9296    15.3078 </r>
       <r>    24.8442     0.6234    15.3782 </r>
       <r>    24.9572     0.2663    15.4082 </r>
       <r>    25.0701     0.1429    15.4244 </r>
       <r>    25.1830     0.1067    15.4364 </r>
       <r>    25.2959     0.3376    15.4745 </r>
       <r>    25.4088     0.6633    15.5494 </r>
       <r>    25.5217     0.5916    15.6162 </r>
       <r>    25.6346     0.4197    15.6636 </r>
       <r>    25.7476     0.4954    15.7195 </r>
       <r>    25.8605     0.4638    15.7719 </r>
       <r>    25.9734     0.2854    15.8041 </r>
       <r>    26.0863     0.1367    15.8196 </r>
       <r>    26.1992     0.0895    15.8297 </r>
       <r>    26.3121     0.1716    15.8490 </r>
       <r>    26.4250     0.2175    15.8736 </r>
       <r>    26.5379     0.1328    15.8886 </r>
       <r>    26.6509     0.0365    15.8927 </r>
       <r>    26.7638    -0.0059    15.8921 </r>
       <r>    26.8767    -0.0184    15.8900 </r>
       <r>    26.9896     0.0154    15.8917 </r>
       <r>    27.1025     0.1632    15.9102 </r>
       <r>    27.2154     0.3261    15.9470 </r>
       <r>    27.3283     0.2833    15.9790 </r>
       <r>    27.4413     0.0987    15.9901 </r>
       <r>    27.5542    -0.0043    15.9896 </r>
       <r>    27.6671    -0.0113    15.9883 </r>
       <r>    27.7800    -0.0027    15.9880 </r>
       <r>    27.8929    -0.0003    15.9880 </r>
       <r>    28.0058    -0.0000    15.9880 </r>
       <r>    28.1187    -0.0002    15.9880 </r>
       <r>    28.2316    -0.0011    15.9879 </r>
       <r>    28.3446    -0.0024    15.9876 </r>
       <r>    28.4575     0.0070    15.9884 </r>
       <r>    28.5704     0.0355    15.9924 </r>
       <r>    28.6833     0.0475    15.9977 </r>
       <r>    28.7962     0.0223    16.0003 </r>
       <r>    28.9091     0.0005    16.0003 </r>
       <r>    29.0220    -0.0022    16.0001 </r>
       <r>    29.1350    -0.0006    16.0000 </r>
       <r>    29.2479    -0.0001    16.0000 </r>
       <r>    29.3608    -0.0000    16.0000 </r>
       <r>    29.4737    -0.0000    16.0000 </r>
       <r>    29.5866    -0.0000    16.0000 </r>
       <r>    29.6995    -0.0000    16.0000 </r>
       <r>    29.8124    -0.0000    16.0000 </r>
       <r>    29.9253    -0.0000    16.0000 </r>
       <r>    30.0383     0.0000    16.0000 </r>
       <r>    30.1512     0.0000    16.0000 </r>
       <r>    30.2641     0.0000    16.0000 </r>
       <r>    30.3770     0.0000    16.0000 </r>
       <r>    30.4899     0.0000    16.0000 </r>
       <r>    30.6028     0.0000    16.0000 </r>
      </set>
     </set>
    </array>
   </total>
  </dos>
 </calculation>
 <structure name="finalpos" >
  <crystal>
   <varray name="basis" >
    <v>      -1.56360000       1.56360000       1.56360000 </v>
    <v>       1.56360000      -1.56360000       1.56360000 </v>
    <v>       1.56360000       1.56360000      -1.56360000 </v>
   </varray>
   <i name="volume">     15.29103832 </i>
   <varray name="rec_basis" >
    <v>       0.00000000       0.31977488       0.31977488 </v>
    <v>       0.31977488       0.00000000       0.31977488 </v>
    <v>       0.31977488       0.31977488       0.00000000 </v>
   </varray>
  </crystal>
  <varray name="positions" >
   <v>       0.00000000       0.00000000       0.00000000 </v>
  </varray>
 </structure>
</modeling>
