BCC W                                   
   3.10000000000000     
    -0.500000    0.500000    0.500000
     0.500000   -0.500000    0.500000
     0.500000    0.500000   -0.500000
   W 
     1
Direct
  0.000000  0.000000  0.000000
 
   20   20   20
  13.123      12.550      11.388      10.619      10.486      10.327      9.5043      8.1744      6.9858      6.2963    
  6.0666      6.2963      6.9858      8.1744      9.5043      10.327      10.486      10.619      11.388      12.550    
  12.550      12.331      11.311      10.403      10.136      10.094      9.5538      8.4023      7.1800      6.3703    
  6.0075      6.0818      6.5902      7.5681      8.8542      9.8651      10.216      10.273      10.756      11.772    
  11.388      11.311      10.465      9.5334      9.1405      9.1448      8.9055      8.1058      7.0668      6.2664    
  5.8365      5.7817      6.1120      6.8236      7.8989      8.9744      9.5964      9.7970      10.087      10.756    
  10.619      10.403      9.5334      8.5036      7.9166      7.8371      7.7892      7.3627      6.6418      5.9852    
  5.5735      5.4491      5.6323      6.1260      6.9290      7.9315      8.8069      9.3737      9.7970      10.273    
  10.486      10.136      9.1405      7.9166      7.0354      6.7070      6.6443      6.4491      6.0296      5.5784    
  5.2539      5.1253      5.2156      5.5449      6.1171      6.9326      7.8897      8.8069      9.5964      10.216    
  10.327      10.094      9.1448      7.8371      6.7070      6.0678      5.8186      5.6551      5.4097      5.1343    
  4.9228      4.8373      4.8913      5.1007      5.5036      6.1078      6.9326      7.9315      8.9744      9.8651    
  9.5043      9.5538      8.9055      7.7892      6.6443      5.8186      5.3628      5.1099      4.9093      4.7361    
  4.6226      4.5968      4.6547      4.7993      5.0675      5.5036      6.1171      6.9290      7.8989      8.8542    
  8.1744      8.4023      8.1058      7.3627      6.4491      5.6551      5.1099      4.7736      4.5616      4.4324    
  4.3815      4.4039      4.4821      4.6072      4.7993      5.1007      5.5449      6.1260      6.8236      7.5681    
  6.9858      7.1800      7.0668      6.6418      6.0296      5.4097      4.9093      4.5616      4.3453      4.2345    
  4.2105      4.2559      4.3508      4.4821      4.6547      4.8913      5.2156      5.6323      6.1120      6.5902    
  6.2963      6.3703      6.2664      5.9852      5.5784      5.1343      4.7361      4.4324      4.2345      4.1321    
  4.1100      4.1551      4.2559      4.4039      4.5968      4.8373      5.1253      5.4491      5.7817      6.0818    
  6.0666      6.0075      5.8365      5.5735      5.2539      4.9228      4.6226      4.3815      4.2105      4.1100    
  4.0770      4.1100      4.2105      4.3815      4.6226      4.9228      5.2539      5.5735      5.8365      6.0075    
  6.2963      6.0818      5.7817      5.4491      5.1253      4.8373      4.5968      4.4039      4.2559      4.1551    
  4.1100      4.1321      4.2345      4.4324      4.7361      5.1343      5.5784      5.9852      6.2664      6.3703    
  6.9858      6.5902      6.1120      5.6323      5.2156      4.8913      4.6547      4.4821      4.3508      4.2559    
  4.2105      4.2345      4.3453      4.5616      4.9093      5.4097      6.0296      6.6418      7.0668      7.1800    
  8.1744      7.5681      6.8236      6.1260      5.5449      5.1007      4.7993      4.6072      4.4821      4.4039    
  4.3815      4.4324      4.5616      4.7736      5.1099      5.6551      6.4491      7.3627      8.1058      8.4023    
  9.5043      8.8542      7.8989      6.9290      6.1171      5.5036      5.0675      4.7993      4.6547      4.5968    
  4.6226      4.7361      4.9093      5.1099      5.3628      5.8186      6.6443      7.7892      8.9055      9.5538    
  10.327      9.8651      8.9744      7.9315      6.9326      6.1078      5.5036      5.1007      4.8913      4.8373    
  4.9228      5.1343      5.4097      5.6551      5.8186      6.0678      6.7070      7.8371      9.1448      10.094    
  10.486      10.216      9.5964      8.8069      7.8897      6.9326      6.1171      5.5449      5.2156      5.1253    
  5.2539      5.5784      6.0296      6.4491      6.6443      6.7070      7.0354      7.9166      9.1405      10.136    
  10.619      10.273      9.7970      9.3737      8.8069      7.9315      6.9290      6.1260      5.6323      5.4491    
  5.5735      5.9852      6.6418      7.3627      7.7892      7.8371      7.9166      8.5036      9.5334      10.403    
  11.388      10.756      10.087      9.7970      9.5964      8.9744      7.8989      6.8236      6.1120      5.7817    
  5.8365      6.2664      7.0668      8.1058      8.9055      9.1448      9.1405      9.5334      10.465      11.311    
  12.550      11.772      10.756      10.273      10.216      9.8651      8.8542      7.5681      6.5902      6.0818    
  6.0075      6.3703      7.1800      8.4023      9.5538      10.094      10.136      10.403      11.311      12.331    
  12.550      12.331      11.311      10.403      10.136      10.094      9.5538      8.4023      7.1800      6.3703    
  6.0075      6.0818      6.5902      7.5681      8.8542      9.8651      10.216      10.273      10.756      11.772    
  12.331      12.542      11.761      10.747      10.268      10.215      9.8648      8.8543      7.5690      6.5914    
  6.0821      6.0066      6.3692      7.1800      8.4032      9.5550      10.096      10.142      10.411      11.317    
  11.311      11.761      11.306      10.389      9.7840      9.6648      9.4866      8.7545      7.6226      6.6237    
  6.0298      5.8284      6.0298      6.6236      7.6224      8.7544      9.4873      9.6676      9.7895      10.395    
  10.403      10.747      10.389      9.5342      8.8248      8.5901      8.5118      8.0931      7.2733      6.4237    
  5.8446      5.5778      5.6454      6.0482      6.7768      7.7597      8.6403      9.1256      9.3741      9.7860    
  10.136      10.268      9.7840      8.8248      7.9187      7.4607      7.3324      7.1206      6.6256      6.0212    
  5.5481      5.2879      5.2776      5.5278      6.0403      6.8052      7.7073      8.5086      9.1247      9.6644    
  10.094      10.215      9.6648      8.5901      7.4607      6.7086      6.3789      6.1898      5.8981      5.5197    
  5.1905      4.9921      4.9627      5.1100      5.4618      6.0224      6.7937      7.7078      8.6401      9.4857    
  9.5538      9.8648      9.4866      8.5118      7.3324      6.3789      5.8190      5.5203      5.2816      5.0388    
  4.8345      4.7193      4.7122      4.8106      5.0397      5.4410      6.0231      6.8060      7.7597      8.7534    
  8.4023      8.8543      8.7545      8.0931      7.1206      6.1898      5.5203      5.1092      4.8448      4.6552    
  4.5320      4.4885      4.5187      4.6088      4.7691      5.0401      5.4625      6.0405      6.7761      7.6212    
  7.1800      7.5690      7.6226      7.2733      6.6256      5.8981      5.2816      4.8448      4.5615      4.3900    
  4.3098      4.3088      4.3684      4.4691      4.6090      4.8109      5.1099      5.5271      6.0471      6.6228    
  6.3703      6.5914      6.6237      6.4237      6.0212      5.5197      5.0388      4.6552      4.3900      4.2348    
  4.1717      4.1839      4.2545      4.3683      4.5186      4.7119      4.9622      5.2770      5.6451      6.0302    
  6.0075      6.0821      6.0298      5.8446      5.5481      5.1905      4.8345      4.5320      4.3098      4.1717    
  4.1101      4.1162      4.1837      4.3086      4.4882      4.7190      4.9920      5.2881      5.5785      5.8295    
  6.0818      6.0066      5.8284      5.5778      5.2879      4.9921      4.7193      4.4885      4.3088      4.1839    
  4.1162      4.1099      4.1715      4.3096      4.5319      4.8347      5.1911      5.5489      5.8454      6.0302    
  6.5902      6.3692      6.0298      5.6454      5.2776      4.9627      4.7122      4.5187      4.3684      4.2545    
  4.1837      4.1715      4.2346      4.3901      4.6557      5.0396      5.5204      6.0216      6.4234      6.6228    
  7.5681      7.1800      6.6236      6.0482      5.5278      5.1100      4.8106      4.6088      4.4691      4.3683    
  4.3086      4.3096      4.3901      4.5621      4.8456      5.2822      5.8981      6.6249      7.2721      7.6212    
  8.8542      8.4032      7.6224      6.7768      6.0403      5.4618      5.0397      4.7691      4.6090      4.5186    
  4.4882      4.5319      4.6557      4.8456      5.1098      5.5201      6.1887      7.1190      8.0915      8.7534    
  9.8651      9.5550      8.7544      7.7597      6.8052      6.0224      5.4410      5.0401      4.8109      4.7119    
  4.7190      4.8347      5.0396      5.2822      5.5201      5.8178      6.3770      7.3302      8.5099      9.4857    
  10.216      10.096      9.4873      8.6403      7.7073      6.7937      6.0231      5.4625      5.1099      4.9622    
  4.9920      5.1911      5.5204      5.8981      6.1887      6.3770      6.7061      7.4581      8.5881      9.6644    
  10.273      10.142      9.6676      9.1256      8.5086      7.7078      6.8060      6.0405      5.5271      5.2770    
  5.2881      5.5489      6.0216      6.6249      7.1190      7.3302      7.4581      7.9162      8.8239      9.7860    
  10.756      10.411      9.7895      9.3741      9.1247      8.6401      7.7597      6.7761      6.0471      5.6451    
  5.5785      5.8454      6.4234      7.2721      8.0915      8.5099      8.5881      8.8239      9.5366      10.395    
  11.772      11.317      10.395      9.7860      9.6644      9.4857      8.7534      7.6212      6.6228      6.0302    
  5.8295      6.0302      6.6228      7.6212      8.7534      9.4857      9.6644      9.7860      10.395      11.317    
  11.388      11.311      10.465      9.5334      9.1405      9.1448      8.9055      8.1058      7.0668      6.2664    
  5.8365      5.7817      6.1120      6.8236      7.8989      8.9744      9.5964      9.7970      10.087      10.756    
  11.311      11.761      11.306      10.389      9.7840      9.6648      9.4866      8.7545      7.6226      6.6237    
  6.0298      5.8284      6.0298      6.6236      7.6224      8.7544      9.4873      9.6676      9.7895      10.395    
  10.465      11.306      11.380      10.748      10.082      9.7954      9.5968      8.9752      7.8994      6.8238    
  6.1121      5.7818      5.8365      6.2664      7.0669      8.1061      8.9065      9.1472      9.1442      9.5366    
  9.5334      10.389      10.748      10.405      9.7871      9.3750      9.1268      8.6417      7.7604      6.7764    
  6.0472      5.6451      5.5785      5.8454      6.4235      7.2723      8.0920      8.5112      8.5895      8.8239    
  9.1405      9.7840      10.082      9.7871      9.1453      8.5927      8.2506      7.8680      7.2328      6.4642    
  5.8298      5.4314      5.2977      5.4314      5.8298      6.4641      7.2323      7.8664      8.2474      8.5881    
  9.1448      9.6648      9.7954      9.3750      8.5927      7.8408      7.3333      6.9568      6.5082      5.9736    
  5.4970      5.1666      5.0263      5.0791      5.3358      5.7961      6.4359      7.1694      7.8661      8.5099    
  8.9055      9.4866      9.5968      9.1268      8.2506      7.3333      6.6450      6.1888      5.8152      5.4453    
  5.1192      4.8871      4.7854      4.8099      4.9670      5.2884      5.7781      6.4359      7.2321      8.0915    
  8.1058      8.7545      8.9752      8.6417      7.8680      6.9568      6.1888      5.6537      5.2810      4.9916    
  4.7690      4.6296      4.5841      4.6169      4.7237      4.9340      5.2884      5.7961      6.4641      7.2721    
  7.0668      7.6226      7.8994      7.7604      7.2328      6.5082      5.8152      5.2810      4.9087      4.6554    
  4.4941      4.4205      4.4226      4.4778      4.5731      4.7237      4.9670      5.3358      5.8298      6.4234    
  6.2664      6.6237      6.8238      6.7764      6.4642      5.9736      5.4453      4.9916      4.6554      4.4328    
  4.3099      4.2715      4.2994      4.3729      4.4778      4.6169      4.8099      5.0791      5.4314      5.8454    
  5.8365      6.0298      6.1121      6.0472      5.8298      5.4970      5.1192      4.7690      4.4941      4.3099    
  4.2107      4.1838      4.2170      4.2994      4.4226      4.5841      4.7854      5.0263      5.2977      5.5785    
  5.7817      5.8284      5.7818      5.6451      5.4314      5.1666      4.8871      4.6296      4.4205      4.2715    
  4.1838      4.1550      4.1837      4.2714      4.4205      4.6297      4.8872      5.1667      5.4314      5.6451    
  6.1120      6.0298      5.8365      5.5785      5.2977      5.0263      4.7854      4.5841      4.4226      4.2994    
  4.2170      4.1837      4.2106      4.3099      4.4942      4.7692      5.1194      5.4971      5.8298      6.0471    
  6.8236      6.6236      6.2664      5.8454      5.4314      5.0791      4.8099      4.6169      4.4778      4.3729    
  4.2994      4.2714      4.3099      4.4329      4.6557      4.9920      5.4457      5.9737      6.4641      6.7761    
  7.8989      7.6224      7.0669      6.4235      5.8298      5.3358      4.9670      4.7237      4.5731      4.4778    
  4.4226      4.4205      4.4942      4.6557      4.9093      5.2817      5.8156      6.5080      7.2321      7.7597    
  8.9744      8.7544      8.1061      7.2723      6.4641      5.7961      5.2884      4.9340      4.7237      4.6169    
  4.5841      4.6297      4.7692      4.9920      5.2817      5.6542      6.1885      6.9555      7.8661      8.6401    
  9.5964      9.4873      8.9065      8.0920      7.2323      6.4359      5.7781      5.2884      4.9670      4.8099    
  4.7854      4.8872      5.1194      5.4457      5.8156      6.1885      6.6435      7.3304      8.2474      9.1247    
  9.7970      9.6676      9.1472      8.5112      7.8664      7.1694      6.4359      5.7961      5.3358      5.0791    
  5.0263      5.1667      5.4971      5.9737      6.5080      6.9555      7.3304      7.8369      8.5895      9.3741    
  10.087      9.7895      9.1442      8.5895      8.2474      7.8661      7.2321      6.4641      5.8298      5.4314    
  5.2977      5.4314      5.8298      6.4641      7.2321      7.8661      8.2474      8.5895      9.1442      9.7895    
  10.756      10.395      9.5366      8.8239      8.5881      8.5099      8.0915      7.2721      6.4234      5.8454    
  5.5785      5.6451      6.0471      6.7761      7.7597      8.6401      9.1247      9.3741      9.7895      10.411    
  10.619      10.403      9.5334      8.5036      7.9166      7.8371      7.7892      7.3627      6.6418      5.9852    
  5.5735      5.4491      5.6323      6.1260      6.9290      7.9315      8.8069      9.3737      9.7970      10.273    
  10.403      10.747      10.389      9.5342      8.8248      8.5901      8.5118      8.0931      7.2733      6.4237    
  5.8446      5.5778      5.6454      6.0482      6.7768      7.7597      8.6403      9.1256      9.3741      9.7860    
  9.5334      10.389      10.748      10.405      9.7871      9.3750      9.1268      8.6417      7.7604      6.7764    
  6.0472      5.6451      5.5785      5.8454      6.4235      7.2723      8.0920      8.5112      8.5895      8.8239    
  8.5036      9.5342      10.405      10.620      10.274      9.7985      9.3757      8.8085      7.9318      6.9281    
  6.1253      5.6325      5.4499      5.5738      5.9845      6.6409      7.3622      7.7891      7.8369      7.9162    
  7.9166      8.8248      9.7871      10.274      10.143      9.6700      9.1280      8.5098      7.7074      6.8049    
  6.0401      5.5277      5.2776      5.2879      5.5481      6.0211      6.6251      7.1195      7.3304      7.4581    
  7.8371      8.5901      9.3750      9.7985      9.6700      9.1500      8.5130      7.8664      7.1681      6.4347    
  5.7960      5.3364      5.0793      5.0258      5.1661      5.4972      5.9744      6.5085      6.9555      7.3302    
  7.7892      8.5118      9.1268      9.3757      9.1280      8.5130      7.7894      7.1181      6.5067      5.9368    
  5.4508      5.0877      4.8742      4.8079      4.8743      5.0879      5.4512      5.9378      6.5080      7.1190    
  7.3627      8.0931      8.6417      8.8085      8.5098      7.8664      7.1181      6.4464      5.8963      5.4453    
  5.0866      4.8265      4.6815      4.6381      4.6757      4.8051      5.0596      5.4507      5.9737      6.6249    
  6.6418      7.2733      7.7604      7.9318      7.7074      7.1681      6.5067      5.8963      5.4086      5.0391    
  4.7691      4.5954      4.5163      4.5090      4.5493      4.6376      4.8047      5.0873      5.4971      6.0216    
  5.9852      6.4237      6.7764      6.9281      6.8049      6.4347      5.9368      5.4453      5.0391      4.7366    
  4.5322      4.4204      4.3875      4.4103      4.4662      4.5491      4.6755      4.8743      5.1667      5.5489    
  5.5735      5.8446      6.0472      6.1253      6.0401      5.7960      5.4508      5.0866      4.7691      4.5322    
  4.3817      4.3087      4.2994      4.3380      4.4103      4.5091      4.6383      4.8083      5.0263      5.2881    
  5.4491      5.5778      5.6451      5.6325      5.5277      5.3364      5.0877      4.8265      4.5954      4.4204    
  4.3087      4.2558      4.2545      4.2995      4.3876      4.5165      4.6817      4.8743      5.0791      5.2770    
  5.6323      5.6454      5.5785      5.4499      5.2776      5.0793      4.8742      4.6815      4.5163      4.3875    
  4.2994      4.2545      4.2559      4.3088      4.4205      4.5953      4.8262      5.0873      5.3358      5.5271    
  6.1260      6.0482      5.8454      5.5738      5.2879      5.0258      4.8079      4.6381      4.5090      4.4103    
  4.3380      4.2995      4.3088      4.3817      4.5319      4.7687      5.0863      5.4507      5.7961      6.0405    
  6.9290      6.7768      6.4235      5.9845      5.5481      5.1661      4.8743      4.6757      4.5493      4.4662    
  4.4103      4.3876      4.4205      4.5319      4.7361      5.0389      5.4457      5.9378      6.4359      6.8060    
  7.9315      7.7597      7.2723      6.6409      6.0211      5.4972      5.0879      4.8051      4.6376      4.5491    
  4.5091      4.5165      4.5953      4.7687      5.0389      5.4093      5.8980      6.5085      7.1694      7.7078    
  8.8069      8.6403      8.0920      7.3622      6.6251      5.9744      5.4512      5.0596      4.8047      4.6755    
  4.6383      4.6817      4.8262      5.0863      5.4457      5.8980      6.4486      7.1195      7.8664      8.5086    
  9.3737      9.1256      8.5112      7.7891      7.1195      6.5085      5.9378      5.4507      5.0873      4.8743    
  4.8083      4.8743      5.0873      5.4507      5.9378      6.5085      7.1195      7.7891      8.5112      9.1256    
  9.7970      9.3741      8.5895      7.8369      7.3304      6.9555      6.5080      5.9737      5.4971      5.1667    
  5.0263      5.0791      5.3358      5.7961      6.4359      7.1694      7.8664      8.5112      9.1472      9.6676    
  10.273      9.7860      8.8239      7.9162      7.4581      7.3302      7.1190      6.6249      6.0216      5.5489    
  5.2881      5.2770      5.5271      6.0405      6.8060      7.7078      8.5086      9.1256      9.6676      10.142    
  10.486      10.136      9.1405      7.9166      7.0354      6.7070      6.6443      6.4491      6.0296      5.5784    
  5.2539      5.1253      5.2156      5.5449      6.1171      6.9326      7.8897      8.8069      9.5964      10.216    
  10.136      10.268      9.7840      8.8248      7.9187      7.4607      7.3324      7.1206      6.6256      6.0212    
  5.5481      5.2879      5.2776      5.5278      6.0403      6.8052      7.7073      8.5086      9.1247      9.6644    
  9.1405      9.7840      10.082      9.7871      9.1453      8.5927      8.2506      7.8680      7.2328      6.4642    
  5.8298      5.4314      5.2977      5.4314      5.8298      6.4641      7.2323      7.8664      8.2474      8.5881    
  7.9166      8.8248      9.7871      10.274      10.143      9.6700      9.1280      8.5098      7.7074      6.8049    
  6.0401      5.5277      5.2776      5.2879      5.5481      6.0211      6.6251      7.1195      7.3304      7.4581    
  7.0354      7.9187      9.1453      10.143      10.493      10.221      9.5983      8.8067      7.8886      6.9317    
  6.1166      5.5447      5.2155      5.1252      5.2538      5.5783      6.0294      6.4486      6.6435      6.7061    
  6.7070      7.4607      8.5927      9.6700      10.221      10.098      9.4869      8.6382      7.7050      6.7922    
  6.0224      5.4622      5.1098      4.9622      4.9920      5.1910      5.5203      5.8980      6.1885      6.3770    
  6.6443      7.3324      8.2506      9.1280      9.5983      9.4869      8.9039      8.0886      7.2295      6.4343    
  5.7776      5.2883      4.9670      4.8099      4.7854      4.8872      5.1193      5.4457      5.8156      6.1887    
  6.4491      7.1206      7.8680      8.5098      8.8067      8.6382      8.0886      7.3588      6.6228      5.9735    
  5.4512      5.0598      4.8048      4.6756      4.6383      4.6817      4.8262      5.0863      5.4457      5.8981    
  6.0296      6.6256      7.2328      7.7074      7.8886      7.7050      7.2295      6.6228      6.0283      5.5203    
  5.1198      4.8267      4.6476      4.5634      4.5408      4.5634      4.6473      4.8262      5.1194      5.5204    
  5.5784      6.0212      6.4642      6.8049      6.9317      6.7922      6.4343      5.9735      5.5203      5.1352    
  4.8352      4.6297      4.5164      4.4747      4.4763      4.5037      4.5633      4.6817      4.8872      5.1911    
  5.2539      5.5481      5.8298      6.0401      6.1166      6.0224      5.7776      5.4512      5.1198      4.8352    
  4.6232      4.4884      4.4227      4.4103      4.4326      4.4763      4.5407      4.6383      4.7854      4.9920    
  5.1253      5.2879      5.4314      5.5277      5.5447      5.4622      5.2883      5.0598      4.8267      4.6297    
  4.4884      4.4038      4.3683      4.3730      4.4103      4.4746      4.5633      4.6755      4.8099      4.9622    
  5.2156      5.2776      5.2977      5.2776      5.2155      5.1098      4.9670      4.8048      4.6476      4.5164    
  4.4227      4.3683      4.3507      4.3683      4.4226      4.5162      4.6473      4.8047      4.9670      5.1099    
  5.5449      5.5278      5.4314      5.2879      5.1252      4.9622      4.8099      4.6756      4.5634      4.4747    
  4.4103      4.3730      4.3683      4.4037      4.4881      4.6293      4.8262      5.0596      5.2884      5.4625    
  6.1171      6.0403      5.8298      5.5481      5.2538      4.9920      4.7854      4.6383      4.5408      4.4763    
  4.4326      4.4103      4.4226      4.4881      4.6227      4.8345      5.1193      5.4512      5.7781      6.0231    
  6.9326      6.8052      6.4641      6.0211      5.5783      5.1910      4.8872      4.6817      4.5634      4.5037    
  4.4763      4.4746      4.5162      4.6293      4.8345      5.1345      5.5203      5.9744      6.4359      6.7937    
  7.8897      7.7073      7.2323      6.6251      6.0294      5.5203      5.1193      4.8262      4.6473      4.5633    
  4.5407      4.5633      4.6473      4.8262      5.1193      5.5203      6.0294      6.6251      7.2323      7.7073    
  8.8069      8.5086      7.8664      7.1195      6.4486      5.8980      5.4457      5.0863      4.8262      4.6817    
  4.6383      4.6755      4.8047      5.0596      5.4512      5.9744      6.6251      7.3622      8.0920      8.6403    
  9.5964      9.1247      8.2474      7.3304      6.6435      6.1885      5.8156      5.4457      5.1194      4.8872    
  4.7854      4.8099      4.9670      5.2884      5.7781      6.4359      7.2323      8.0920      8.9065      9.4873    
  10.216      9.6644      8.5881      7.4581      6.7061      6.3770      6.1887      5.8981      5.5204      5.1911    
  4.9920      4.9622      5.1099      5.4625      6.0231      6.7937      7.7073      8.6403      9.4873      10.096    
  10.327      10.094      9.1448      7.8371      6.7070      6.0678      5.8186      5.6551      5.4097      5.1343    
  4.9228      4.8373      4.8913      5.1007      5.5036      6.1078      6.9326      7.9315      8.9744      9.8651    
  10.094      10.215      9.6648      8.5901      7.4607      6.7086      6.3789      6.1898      5.8981      5.5197    
  5.1905      4.9921      4.9627      5.1100      5.4618      6.0224      6.7937      7.7078      8.6401      9.4857    
  9.1448      9.6648      9.7954      9.3750      8.5927      7.8408      7.3333      6.9568      6.5082      5.9736    
  5.4970      5.1666      5.0263      5.0791      5.3358      5.7961      6.4359      7.1694      7.8661      8.5099    
  7.8371      8.5901      9.3750      9.7985      9.6700      9.1500      8.5130      7.8664      7.1681      6.4347    
  5.7960      5.3364      5.0793      5.0258      5.1661      5.4972      5.9744      6.5085      6.9555      7.3302    
  6.7070      7.4607      8.5927      9.6700      10.221      10.098      9.4869      8.6382      7.7050      6.7922    
  6.0224      5.4622      5.1098      4.9622      4.9920      5.1910      5.5203      5.8980      6.1885      6.3770    
  6.0678      6.7086      7.8408      9.1500      10.098      10.328      9.8628      8.9699      7.9278      6.9311    
  6.1079      5.5039      5.1004      4.8909      4.8375      4.9234      5.1345      5.4093      5.6542      5.8178    
  5.8186      6.3789      7.3333      8.5130      9.4869      9.8628      9.5498      8.7489      7.7563      6.8046    
  6.0230      5.4413      5.0399      4.8108      4.7123      4.7193      4.8345      5.0389      5.2817      5.5201    
  5.6551      6.1898      6.9568      7.8664      8.6382      8.9699      8.7489      8.1019      7.2709      6.4649    
  5.7972      5.2888      4.9339      4.7238      4.6171      4.5841      4.6293      4.7687      4.9920      5.2822    
  5.4097      5.8981      6.5082      7.1681      7.7050      7.9278      7.7563      7.2709      6.6416      6.0228    
  5.4986      5.0884      4.8051      4.6378      4.5493      4.5090      4.5162      4.5953      4.7692      5.0396    
  5.1343      5.5197      5.9736      6.4347      6.7922      6.9311      6.8046      6.4649      6.0228      5.5802    
  5.1921      4.8875      4.6818      4.5634      4.5038      4.4763      4.4746      4.5165      4.6297      4.8347    
  4.9228      5.1905      5.4970      5.7960      6.0224      6.1079      6.0230      5.7972      5.4986      5.1921    
  4.9238      4.7193      4.5840      4.5090      4.4763      4.4679      4.4763      4.5091      4.5841      4.7190    
  4.8373      4.9921      5.1666      5.3364      5.4622      5.5039      5.4413      5.2888      5.0884      4.8875    
  4.7193      4.5967      4.5185      4.4777      4.4661      4.4763      4.5037      4.5491      4.6169      4.7119    
  4.8913      4.9627      5.0263      5.0793      5.1098      5.1004      5.0399      4.9339      4.8051      4.6818    
  4.5840      4.5185      4.4818      4.4690      4.4777      4.5090      4.5634      4.6376      4.7237      4.8109    
  5.1007      5.1100      5.0791      5.0258      4.9622      4.8909      4.8108      4.7238      4.6378      4.5634    
  4.5090      4.4777      4.4690      4.4819      4.5186      4.5841      4.6817      4.8051      4.9340      5.0401    
  5.5036      5.4618      5.3358      5.1661      4.9920      4.8375      4.7123      4.6171      4.5493      4.5038    
  4.4763      4.4661      4.4777      4.5186      4.5969      4.7193      4.8872      5.0879      5.2884      5.4410    
  6.1078      6.0224      5.7961      5.4972      5.1910      4.9234      4.7193      4.5841      4.5090      4.4763    
  4.4679      4.4763      4.5090      4.5841      4.7193      4.9234      5.1910      5.4972      5.7961      6.0224    
  6.9326      6.7937      6.4359      5.9744      5.5203      5.1345      4.8345      4.6293      4.5162      4.4746    
  4.4763      4.5037      4.5634      4.6817      4.8872      5.1910      5.5783      6.0211      6.4641      6.8052    
  7.9315      7.7078      7.1694      6.5085      5.8980      5.4093      5.0389      4.7687      4.5953      4.5165    
  4.5091      4.5491      4.6376      4.8051      5.0879      5.4972      6.0211      6.6409      7.2723      7.7597    
  8.9744      8.6401      7.8661      6.9555      6.1885      5.6542      5.2817      4.9920      4.7692      4.6297    
  4.5841      4.6169      4.7237      4.9340      5.2884      5.7961      6.4641      7.2723      8.1061      8.7544    
  9.8651      9.4857      8.5099      7.3302      6.3770      5.8178      5.5201      5.2822      5.0396      4.8347    
  4.7190      4.7119      4.8109      5.0401      5.4410      6.0224      6.8052      7.7597      8.7544      9.5550    
  9.5043      9.5538      8.9055      7.7892      6.6443      5.8186      5.3628      5.1099      4.9093      4.7361    
  4.6226      4.5968      4.6547      4.7993      5.0675      5.5036      6.1171      6.9290      7.8989      8.8542    
  9.5538      9.8648      9.4866      8.5118      7.3324      6.3789      5.8190      5.5203      5.2816      5.0388    
  4.8345      4.7193      4.7122      4.8106      5.0397      5.4410      6.0231      6.8060      7.7597      8.7534    
  8.9055      9.4866      9.5968      9.1268      8.2506      7.3333      6.6450      6.1888      5.8152      5.4453    