BCC W                                   
   3.10000000000000     
    -0.500000    0.500000    0.500000
     0.500000   -0.500000    0.500000
     0.500000    0.500000   -0.500000
   W 
     1
Direct
  0.000000  0.000000  0.000000
 
   20   20   20
 0.13122561605E+02 0.12549691381E+02 0.11387518175E+02 0.10618543085E+02 0.10486384574E+02
 0.10326785432E+02 0.95042622904E+01 0.81744213549E+01 0.69858471427E+01 0.62962958643E+01
 0.60665678995E+01 0.62962958643E+01 0.69858471427E+01 0.81744213549E+01 0.95042622904E+01
 0.10326785432E+02 0.10486384574E+02 0.10618543085E+02 0.11387518175E+02 0.12549691381E+02
 0.12549691381E+02 0.12330899535E+02 0.11310529496E+02 0.10403387132E+02 0.10136481131E+02
 0.10093875506E+02 0.95537887100E+01 0.84023386256E+01 0.71800466272E+01 0.63702592908E+01
 0.60075441238E+01 0.60817510910E+01 0.65901793389E+01 0.75681478625E+01 0.88541994689E+01
 0.98651059172E+01 0.10216028719E+02 0.10273031189E+02 0.10756155531E+02 0.11771861302E+02
 0.11387518175E+02 0.11310529496E+02 0.10464803404E+02 0.95333695353E+01 0.91404836784E+01
 0.91448319597E+01 0.89055395697E+01 0.81058170145E+01 0.70667960721E+01 0.62663531796E+01
 0.58365255114E+01 0.57817416787E+01 0.61120200537E+01 0.68236058951E+01 0.78988846096E+01
 0.89743528121E+01 0.95963558865E+01 0.97970261967E+01 0.10087034261E+02 0.10756155531E+02
 0.10618543085E+02 0.10403387132E+02 0.95333695353E+01 0.85036291437E+01 0.79166050319E+01
 0.78370810724E+01 0.77891892186E+01 0.73627147941E+01 0.66418422886E+01 0.59852238437E+01
 0.55735077623E+01 0.54490722495E+01 0.56322520945E+01 0.61260218986E+01 0.69289500453E+01
 0.79315428674E+01 0.88068888129E+01 0.93736842453E+01 0.97970261967E+01 0.10273031189E+02
 0.10486384574E+02 0.10136481131E+02 0.91404836784E+01 0.79166050319E+01 0.70353923889E+01
 0.67069785145E+01 0.66443225928E+01 0.64491050064E+01 0.60296308154E+01 0.55784308465E+01
 0.52538811910E+01 0.51252849743E+01 0.52155663870E+01 0.55448778928E+01 0.61171114545E+01
 0.69326279044E+01 0.78897225405E+01 0.88068888129E+01 0.95963558865E+01 0.10216028719E+02
 0.10326785432E+02 0.10093875506E+02 0.91448319597E+01 0.78370810724E+01 0.67069785145E+01
 0.60678474944E+01 0.58186307226E+01 0.56551170655E+01 0.54097414039E+01 0.51342781044E+01
 0.49228110735E+01 0.48373358852E+01 0.48913055322E+01 0.51007407428E+01 0.55036101771E+01
 0.61077995266E+01 0.69326279044E+01 0.79315428674E+01 0.89743528121E+01 0.98651059172E+01
 0.95042622904E+01 0.95537887100E+01 0.89055395697E+01 0.77891892186E+01 0.66443225928E+01
 0.58186307226E+01 0.53627568767E+01 0.51098722785E+01 0.49093142856E+01 0.47360659456E+01
 0.46226454794E+01 0.45968216493E+01 0.46547364015E+01 0.47993482486E+01 0.50674675820E+01
 0.55036101771E+01 0.61171114545E+01 0.69289500453E+01 0.78988846096E+01 0.88541994689E+01
 0.81744213549E+01 0.84023386256E+01 0.81058170145E+01 0.73627147941E+01 0.64491050064E+01
 0.56551170655E+01 0.51098722785E+01 0.47735694592E+01 0.45616205444E+01 0.44323524340E+01
 0.43814765701E+01 0.44038741043E+01 0.44820575050E+01 0.46071830275E+01 0.47993482486E+01
 0.51007407428E+01 0.55448778928E+01 0.61260218986E+01 0.68236058951E+01 0.75681478625E+01
 0.69858471427E+01 0.71800466272E+01 0.70667960721E+01 0.66418422886E+01 0.60296308154E+01
 0.54097414039E+01 0.49093142856E+01 0.45616205444E+01 0.43453201306E+01 0.42345245123E+01
 0.42105347191E+01 0.42558683205E+01 0.43507913331E+01 0.44820575050E+01 0.46547364015E+01
 0.48913055322E+01 0.52155663870E+01 0.56322520945E+01 0.61120200537E+01 0.65901793389E+01
 0.62962958643E+01 0.63702592908E+01 0.62663531796E+01 0.59852238437E+01 0.55784308465E+01
 0.51342781044E+01 0.47360659456E+01 0.44323524340E+01 0.42345245123E+01 0.41321220452E+01
 0.41100403341E+01 0.41551091840E+01 0.42558683205E+01 0.44038741043E+01 0.45968216493E+01
 0.48373358852E+01 0.51252849743E+01 0.54490722495E+01 0.57817416787E+01 0.60817510910E+01
 0.60665678995E+01 0.60075441238E+01 0.58365255114E+01 0.55735077623E+01 0.52538811910E+01
 0.49228110735E+01 0.46226454794E+01 0.43814765701E+01 0.42105347191E+01 0.41100403341E+01
 0.40770180264E+01 0.41100403341E+01 0.42105347191E+01 0.43814765701E+01 0.46226454794E+01
 0.49228110735E+01 0.52538811910E+01 0.55735077623E+01 0.58365255114E+01 0.60075441238E+01
 0.62962958643E+01 0.60817510910E+01 0.57817416787E+01 0.54490722495E+01 0.51252849743E+01
 0.48373358852E+01 0.45968216493E+01 0.44038741043E+01 0.42558683205E+01 0.41551091840E+01
 0.41100403341E+01 0.41321220452E+01 0.42345245123E+01 0.44323524340E+01 0.47360659456E+01
 0.51342781044E+01 0.55784308465E+01 0.59852238437E+01 0.62663531796E+01 0.63702592908E+01
 0.69858471427E+01 0.65901793389E+01 0.61120200537E+01 0.56322520945E+01 0.52155663870E+01
 0.48913055322E+01 0.46547364015E+01 0.44820575050E+01 0.43507913331E+01 0.42558683205E+01
 0.42105347191E+01 0.42345245123E+01 0.43453201306E+01 0.45616205444E+01 0.49093142856E+01
 0.54097414039E+01 0.60296308154E+01 0.66418422886E+01 0.70667960721E+01 0.71800466272E+01
 0.81744213549E+01 0.75681478625E+01 0.68236058951E+01 0.61260218986E+01 0.55448778928E+01
 0.51007407428E+01 0.47993482486E+01 0.46071830275E+01 0.44820575050E+01 0.44038741043E+01
 0.43814765701E+01 0.44323524340E+01 0.45616205444E+01 0.47735694592E+01 0.51098722785E+01
 0.56551170655E+01 0.64491050064E+01 0.73627147941E+01 0.81058170145E+01 0.84023386256E+01
 0.95042622904E+01 0.88541994689E+01 0.78988846096E+01 0.69289500453E+01 0.61171114545E+01
 0.55036101771E+01 0.50674675820E+01 0.47993482486E+01 0.46547364015E+01 0.45968216493E+01
 0.46226454794E+01 0.47360659456E+01 0.49093142856E+01 0.51098722785E+01 0.53627568767E+01
 0.58186307226E+01 0.66443225928E+01 0.77891892186E+01 0.89055395697E+01 0.95537887100E+01
 0.10326785432E+02 0.98651059172E+01 0.89743528121E+01 0.79315428674E+01 0.69326279044E+01
 0.61077995266E+01 0.55036101771E+01 0.51007407428E+01 0.48913055322E+01 0.48373358852E+01
 0.49228110735E+01 0.51342781044E+01 0.54097414039E+01 0.56551170655E+01 0.58186307226E+01
 0.60678474944E+01 0.67069785145E+01 0.78370810724E+01 0.91448319597E+01 0.10093875506E+02
 0.10486384574E+02 0.10216028719E+02 0.95963558865E+01 0.88068888129E+01 0.78897225405E+01
 0.69326279044E+01 0.61171114545E+01 0.55448778928E+01 0.52155663870E+01 0.51252849743E+01
 0.52538811910E+01 0.55784308465E+01 0.60296308154E+01 0.64491050064E+01 0.66443225928E+01
 0.67069785145E+01 0.70353923889E+01 0.79166050319E+01 0.91404836784E+01 0.10136481131E+02
 0.10618543085E+02 0.10273031189E+02 0.97970261967E+01 0.93736842453E+01 0.88068888129E+01
 0.79315428674E+01 0.69289500453E+01 0.61260218986E+01 0.56322520945E+01 0.54490722495E+01
 0.55735077623E+01 0.59852238437E+01 0.66418422886E+01 0.73627147941E+01 0.77891892186E+01
 0.78370810724E+01 0.79166050319E+01 0.85036291437E+01 0.95333695353E+01 0.10403387132E+02
 0.11387518175E+02 0.10756155531E+02 0.10087034261E+02 0.97970261967E+01 0.95963558865E+01
 0.89743528121E+01 0.78988846096E+01 0.68236058951E+01 0.61120200537E+01 0.57817416787E+01
 0.58365255114E+01 0.62663531796E+01 0.70667960721E+01 0.81058170145E+01 0.89055395697E+01
 0.91448319597E+01 0.91404836784E+01 0.95333695353E+01 0.10464803404E+02 0.11310529496E+02
 0.12549691381E+02 0.11771861302E+02 0.10756155531E+02 0.10273031189E+02 0.10216028719E+02
 0.98651059172E+01 0.88541994689E+01 0.75681478625E+01 0.65901793389E+01 0.60817510910E+01
 0.60075441238E+01 0.63702592908E+01 0.71800466272E+01 0.84023386256E+01 0.95537887100E+01
 0.10093875506E+02 0.10136481131E+02 0.10403387132E+02 0.11310529496E+02 0.12330899535E+02
 0.12549691381E+02 0.12330899535E+02 0.11310529496E+02 0.10403387132E+02 0.10136481131E+02
 0.10093875506E+02 0.95537887100E+01 0.84023386256E+01 0.71800466272E+01 0.63702592908E+01
 0.60075441238E+01 0.60817510910E+01 0.65901793389E+01 0.75681478625E+01 0.88541994689E+01
 0.98651059172E+01 0.10216028719E+02 0.10273031189E+02 0.10756155531E+02 0.11771861302E+02
 0.12330899535E+02 0.12542380418E+02 0.11761032005E+02 0.10747178199E+02 0.10268420962E+02
 0.10214601374E+02 0.98647502720E+01 0.88542900188E+01 0.75690216755E+01 0.65913958266E+01
 0.60820876938E+01 0.60066364060E+01 0.63692230232E+01 0.71800307243E+01 0.84031953412E+01
 0.95549624692E+01 0.10096154123E+02 0.10141524814E+02 0.10410884691E+02 0.11316656148E+02
 0.11310529496E+02 0.11761032005E+02 0.11305900060E+02 0.10388840983E+02 0.97840377221E+01
 0.96648019255E+01 0.94866173913E+01 0.87544699936E+01 0.76225555452E+01 0.66236678887E+01
 0.60298302600E+01 0.58284492352E+01 0.60297724027E+01 0.66235945346E+01 0.76224293935E+01
 0.87543977228E+01 0.94873467162E+01 0.96676003993E+01 0.97894647780E+01 0.10395443537E+02
 0.10403387132E+02 0.10747178199E+02 0.10388840983E+02 0.95342378512E+01 0.88248288231E+01
 0.85900559359E+01 0.85117722954E+01 0.80930678685E+01 0.72733473407E+01 0.64236526021E+01
 0.58445784945E+01 0.55777792259E+01 0.56453946574E+01 0.60481766135E+01 0.67768122790E+01
 0.77597031237E+01 0.86403229346E+01 0.91255557245E+01 0.93740863217E+01 0.97860370324E+01
 0.10136481131E+02 0.10268420962E+02 0.97840377221E+01 0.88248288231E+01 0.79186912552E+01
 0.74607140198E+01 0.73324158934E+01 0.71206130190E+01 0.66255567622E+01 0.60212153346E+01
 0.55480985080E+01 0.52878743623E+01 0.52776311385E+01 0.55278224029E+01 0.60403252165E+01
 0.68052460122E+01 0.77073327681E+01 0.85085510922E+01 0.91246514921E+01 0.96644093767E+01
 0.10093875506E+02 0.10214601374E+02 0.96648019255E+01 0.85900559359E+01 0.74607140198E+01
 0.67085788750E+01 0.63789289352E+01 0.61897773203E+01 0.58980957365E+01 0.55196649671E+01
 0.51905046405E+01 0.49921225351E+01 0.49627268379E+01 0.51099525994E+01 0.54618498274E+01
 0.60223987511E+01 0.67937412517E+01 0.77077629589E+01 0.86400662715E+01 0.94857311908E+01
 0.95537887100E+01 0.98647502720E+01 0.94866173913E+01 0.85117722954E+01 0.73324158934E+01
 0.63789289352E+01 0.58190111574E+01 0.55203047131E+01 0.52816407863E+01 0.50388427583E+01
 0.48344580818E+01 0.47192641180E+01 0.47121648025E+01 0.48106480730E+01 0.50396731093E+01
 0.54410039404E+01 0.60230916575E+01 0.68060017608E+01 0.77596585441E+01 0.87534021171E+01
 0.84023386256E+01 0.88542900188E+01 0.87544699936E+01 0.80930678685E+01 0.71206130190E+01
 0.61897773203E+01 0.55203047131E+01 0.51092496355E+01 0.48447665155E+01 0.46551531097E+01
 0.45319563754E+01 0.44884567199E+01 0.45186771718E+01 0.46087841095E+01 0.47690941863E+01
 0.50401409436E+01 0.54624949143E+01 0.60404729912E+01 0.67761019419E+01 0.76212359034E+01
 0.71800466272E+01 0.75690216755E+01 0.76225555452E+01 0.72733473407E+01 0.66255567622E+01
 0.58980957365E+01 0.52816407863E+01 0.48447665155E+01 0.45614677211E+01 0.43899578043E+01
 0.43098284877E+01 0.43088344698E+01 0.43683555331E+01 0.44691079870E+01 0.46089515578E+01
 0.48108936869E+01 0.51098767731E+01 0.55271439707E+01 0.60471234921E+01 0.66228036136E+01
 0.63702592908E+01 0.65913958266E+01 0.66236678887E+01 0.64236526021E+01 0.60212153346E+01
 0.55196649671E+01 0.50388427583E+01 0.46551531097E+01 0.43899578043E+01 0.42347658032E+01
 0.41717331905E+01 0.41838572136E+01 0.42544771406E+01 0.43683067342E+01 0.45185990552E+01
 0.47119168928E+01 0.49622015936E+01 0.52770046523E+01 0.56451031460E+01 0.60301721427E+01
 0.60075441238E+01 0.60820876938E+01 0.60298302600E+01 0.58445784945E+01 0.55480985080E+01
 0.51905046405E+01 0.48344580818E+01 0.45319563754E+01 0.43098284877E+01 0.41717331905E+01
 0.41100773061E+01 0.41161668779E+01 0.41837058642E+01 0.43085938767E+01 0.44881654752E+01
 0.47189729208E+01 0.49919825261E+01 0.52881159802E+01 0.55785201215E+01 0.58295007040E+01
 0.60817510910E+01 0.60066364060E+01 0.58284492352E+01 0.55777792259E+01 0.52878743623E+01
 0.49921225351E+01 0.47192641180E+01 0.44884567199E+01 0.43088344698E+01 0.41838572136E+01
 0.41161668779E+01 0.41099014430E+01 0.41714531605E+01 0.43095881410E+01 0.45319032409E+01
 0.48347001904E+01 0.51910807682E+01 0.55489136874E+01 0.58453503815E+01 0.60301721427E+01
 0.65901793389E+01 0.63692230232E+01 0.60297724027E+01 0.56453946574E+01 0.52776311385E+01
 0.49627268379E+01 0.47121648025E+01 0.45186771718E+01 0.43683555331E+01 0.42544771406E+01
 0.41837058642E+01 0.41714531605E+01 0.42345658715E+01 0.43900746690E+01 0.46556579945E+01
 0.50395923215E+01 0.55203809982E+01 0.60215843835E+01 0.64234257767E+01 0.66228036136E+01
 0.75681478625E+01 0.71800307243E+01 0.66235945346E+01 0.60481766135E+01 0.55278224029E+01
 0.51099525994E+01 0.48106480730E+01 0.46087841095E+01 0.44691079870E+01 0.43683067342E+01
 0.43085938767E+01 0.43095881410E+01 0.43900746690E+01 0.45620750554E+01 0.48456043749E+01
 0.52822454953E+01 0.58981046367E+01 0.66248686840E+01 0.72721351575E+01 0.76212359034E+01
 0.88541994689E+01 0.84031953412E+01 0.76224293935E+01 0.67768122790E+01 0.60403252165E+01
 0.54618498274E+01 0.50396731093E+01 0.47690941863E+01 0.46089515578E+01 0.45185990552E+01
 0.44881654752E+01 0.45319032409E+01 0.46556579945E+01 0.48456043749E+01 0.51098117138E+01
 0.55200947176E+01 0.61887226723E+01 0.71190210133E+01 0.80914507151E+01 0.87534021171E+01
 0.98651059172E+01 0.95549624692E+01 0.87543977228E+01 0.77597031237E+01 0.68052460122E+01
 0.60223987511E+01 0.54410039404E+01 0.50401409436E+01 0.48108936869E+01 0.47119168928E+01
 0.47189729208E+01 0.48347001904E+01 0.50395923215E+01 0.52822454953E+01 0.55200947176E+01
 0.58177995806E+01 0.63769906052E+01 0.73302349585E+01 0.85099346011E+01 0.94857311908E+01
 0.10216028719E+02 0.10096154123E+02 0.94873467162E+01 0.86403229346E+01 0.77073327681E+01
 0.67937412517E+01 0.60230916575E+01 0.54624949143E+01 0.51098767731E+01 0.49622015936E+01
 0.49919825261E+01 0.51910807682E+01 0.55203809982E+01 0.58981046367E+01 0.61887226723E+01
 0.63769906052E+01 0.67060884988E+01 0.74580987772E+01 0.85880892085E+01 0.96644093767E+01
 0.10273031189E+02 0.10141524814E+02 0.96676003993E+01 0.91255557245E+01 0.85085510922E+01
 0.77077629589E+01 0.68060017608E+01 0.60404729912E+01 0.55271439707E+01 0.52770046523E+01
 0.52881159802E+01 0.55489136874E+01 0.60215843835E+01 0.66248686840E+01 0.71190210133E+01
 0.73302349585E+01 0.74580987772E+01 0.79162175821E+01 0.88239180374E+01 0.97860370324E+01
 0.10756155531E+02 0.10410884691E+02 0.97894647780E+01 0.93740863217E+01 0.91246514921E+01
 0.86400662715E+01 0.77596585441E+01 0.67761019419E+01 0.60471234921E+01 0.56451031460E+01
 0.55785201215E+01 0.58453503815E+01 0.64234257767E+01 0.72721351575E+01 0.80914507151E+01
 0.85099346011E+01 0.85880892085E+01 0.88239180374E+01 0.95365573439E+01 0.10395443537E+02
 0.11771861302E+02 0.11316656148E+02 0.10395443537E+02 0.97860370324E+01 0.96644093767E+01
 0.94857311908E+01 0.87534021171E+01 0.76212359034E+01 0.66228036136E+01 0.60301721427E+01
 0.58295007040E+01 0.60301721427E+01 0.66228036136E+01 0.76212359034E+01 0.87534021171E+01
 0.94857311908E+01 0.96644093767E+01 0.97860370324E+01 0.10395443537E+02 0.11316656148E+02
 0.11387518175E+02 0.11310529496E+02 0.10464803404E+02 0.95333695353E+01 0.91404836784E+01
 0.91448319597E+01 0.89055395697E+01 0.81058170145E+01 0.70667960721E+01 0.62663531796E+01
 0.58365255114E+01 0.57817416787E+01 0.61120200537E+01 0.68236058951E+01 0.78988846096E+01
 0.89743528121E+01 0.95963558865E+01 0.97970261967E+01 0.10087034261E+02 0.10756155531E+02
 0.11310529496E+02 0.11761032005E+02 0.11305900060E+02 0.10388840983E+02 0.97840377221E+01
 0.96648019255E+01 0.94866173913E+01 0.87544699936E+01 0.76225555452E+01 0.66236678887E+01
 0.60298302600E+01 0.58284492352E+01 0.60297724027E+01 0.66235945346E+01 0.76224293935E+01
 0.87543977228E+01 0.94873467162E+01 0.96676003993E+01 0.97894647780E+01 0.10395443537E+02
 0.10464803404E+02 0.11305900060E+02 0.11379584115E+02 0.10748239876E+02 0.10082000360E+02
 0.97954473695E+01 0.95968323546E+01 0.89752124449E+01 0.78993864090E+01 0.68238161862E+01
 0.61121228711E+01 0.57817668860E+01 0.58365060997E+01 0.62663729064E+01 0.70668804929E+01
 0.81060800697E+01 0.89065111522E+01 0.91472302426E+01 0.91441740501E+01 0.95365573439E+01
 0.95333695353E+01 0.10388840983E+02 0.10748239876E+02 0.10404809358E+02 0.97871351295E+01
 0.93749920659E+01 0.91267826429E+01 0.86417387220E+01 0.77604410283E+01 0.67763685071E+01
 0.60472274625E+01 0.56451301268E+01 0.55785089184E+01 0.58453838353E+01 0.64235250570E+01
 0.72723370280E+01 0.80920228786E+01 0.85111573750E+01 0.85894964253E+01 0.88239180374E+01
 0.91404836784E+01 0.97840377221E+01 0.10082000360E+02 0.97871351295E+01 0.91452603296E+01
 0.85926719607E+01 0.82505612676E+01 0.78679630141E+01 0.72328146937E+01 0.64642171412E+01
 0.58297903239E+01 0.54314350874E+01 0.52976883655E+01 0.54314499362E+01 0.58298100759E+01
 0.64641349655E+01 0.72322846529E+01 0.78663806377E+01 0.82473976129E+01 0.85880892085E+01
 0.91448319597E+01 0.96648019255E+01 0.97954473695E+01 0.93749920659E+01 0.85926719607E+01
 0.78407796097E+01 0.73332677877E+01 0.69567680073E+01 0.65082045831E+01 0.59735741257E+01
 0.54969551653E+01 0.51666278496E+01 0.50262992033E+01 0.50790913808E+01 0.53358227101E+01
 0.57960927601E+01 0.64358591571E+01 0.71694103840E+01 0.78660713696E+01 0.85099346011E+01
 0.89055395697E+01 0.94866173913E+01 0.95968323546E+01 0.91267826429E+01 0.82505612676E+01
 0.73332677877E+01 0.66450497083E+01 0.61887792533E+01 0.58151995713E+01 0.54453189966E+01
 0.51191690704E+01 0.48871042233E+01 0.47853592476E+01 0.48098507826E+01 0.49669818130E+01
 0.52883737361E+01 0.57781478795E+01 0.64358594662E+01 0.72321325693E+01 0.80914507151E+01
 0.81058170145E+01 0.87544699936E+01 0.89752124449E+01 0.86417387220E+01 0.78679630141E+01
 0.69567680073E+01 0.61887792533E+01 0.56536504520E+01 0.52809994085E+01 0.49915821512E+01
 0.47689682522E+01 0.46296284631E+01 0.45840595269E+01 0.46168536322E+01 0.47236893403E+01
 0.49339774959E+01 0.52883646364E+01 0.57960911718E+01 0.64640814159E+01 0.72721351575E+01
 0.70667960721E+01 0.76225555452E+01 0.78993864090E+01 0.77604410283E+01 0.72328146937E+01
 0.65082045831E+01 0.58151995713E+01 0.52809994085E+01 0.49087401110E+01 0.46553664722E+01
 0.44940781083E+01 0.44204799221E+01 0.44226358792E+01 0.44777908411E+01 0.45730896064E+01
 0.47236769988E+01 0.49669587319E+01 0.53357988056E+01 0.58297630689E+01 0.64234257767E+01
 0.62663531796E+01 0.66236678887E+01 0.68238161862E+01 0.67763685071E+01 0.64642171412E+01
 0.59735741257E+01 0.54453189966E+01 0.49915821512E+01 0.46553664722E+01 0.44327747703E+01
 0.43099163292E+01 0.42714505888E+01 0.42993802147E+01 0.43729490084E+01 0.44777926502E+01
 0.46168603511E+01 0.48098591303E+01 0.50790968089E+01 0.54314393776E+01 0.58453503815E+01
 0.58365255114E+01 0.60298302600E+01 0.61121228711E+01 0.60472274625E+01 0.58297903239E+01
 0.54969551653E+01 0.51191690704E+01 0.47689682522E+01 0.44940781083E+01 0.43099163292E+01
 0.42106534898E+01 0.41837722376E+01 0.42170086670E+01 0.42993623071E+01 0.44226385916E+01
 0.45840941400E+01 0.47854102026E+01 0.50263441806E+01 0.52977144269E+01 0.55785201215E+01
 0.57817416787E+01 0.58284492352E+01 0.57817668860E+01 0.56451301268E+01 0.54314350874E+01
 0.51666278496E+01 0.48871042233E+01 0.46296284631E+01 0.44204799221E+01 0.42714505888E+01
 0.41837722376E+01 0.41549692314E+01 0.41837237931E+01 0.42714031634E+01 0.44204849666E+01
 0.46296926435E+01 0.48871872247E+01 0.51666809495E+01 0.54314393776E+01 0.56451031460E+01
 0.61120200537E+01 0.60297724027E+01 0.58365060997E+01 0.55785089184E+01 0.52976883655E+01
 0.50262992033E+01 0.47853592476E+01 0.45840595269E+01 0.44226358792E+01 0.42993802147E+01
 0.42170086670E+01 0.41837237931E+01 0.42105780551E+01 0.43098873894E+01 0.44941609526E+01
 0.47691516898E+01 0.51193612907E+01 0.54970542428E+01 0.58297630689E+01 0.60471234921E+01
 0.68236058951E+01 0.66235945346E+01 0.62663729064E+01 0.58453838353E+01 0.54314499362E+01
 0.50790913808E+01 0.48098507826E+01 0.46168536322E+01 0.44777908411E+01 0.43729490084E+01
 0.42993623071E+01 0.42714031634E+01 0.43098873894E+01 0.44328741687E+01 0.46556734910E+01
 0.49920341798E+01 0.54457142597E+01 0.59737182831E+01 0.64640814159E+01 0.67761019419E+01
 0.78988846096E+01 0.76224293935E+01 0.70668804929E+01 0.64235250570E+01 0.58298100759E+01
 0.53358227101E+01 0.49669818130E+01 0.47236893403E+01 0.45730896064E+01 0.44777926502E+01
 0.44226385916E+01 0.44204849666E+01 0.44941609526E+01 0.46556734910E+01 0.49093325018E+01
 0.52816857055E+01 0.58155919569E+01 0.65080184415E+01 0.72321325693E+01 0.77596585441E+01
 0.89743528121E+01 0.87543977228E+01 0.81060800697E+01 0.72723370280E+01 0.64641349655E+01
 0.57960927601E+01 0.52883737361E+01 0.49339774959E+01 0.47236769988E+01 0.46168603511E+01
 0.45840941400E+01 0.46296926435E+01 0.47691516898E+01 0.49920341798E+01 0.52816857055E+01
 0.56541582649E+01 0.61885156643E+01 0.69554813736E+01 0.78660713696E+01 0.86400662715E+01
 0.95963558865E+01 0.94873467162E+01 0.89065111522E+01 0.80920228786E+01 0.72322846529E+01
 0.64358591571E+01 0.57781478795E+01 0.52883646364E+01 0.49669587319E+01 0.48098591303E+01
 0.47854102026E+01 0.48871872247E+01 0.51193612907E+01 0.54457142597E+01 0.58155919569E+01
 0.61885156643E+01 0.66434562717E+01 0.73303864218E+01 0.82473976129E+01 0.91246514921E+01
 0.97970261967E+01 0.96676003993E+01 0.91472302426E+01 0.85111573750E+01 0.78663806377E+01
 0.71694103840E+01 0.64358594662E+01 0.57960911718E+01 0.53357988056E+01 0.50790968089E+01
 0.50263441806E+01 0.51666809495E+01 0.54970542428E+01 0.59737182831E+01 0.65080184415E+01
 0.69554813736E+01 0.73303864218E+01 0.78369134374E+01 0.85894964253E+01 0.93740863217E+01
 0.10087034261E+02 0.97894647780E+01 0.91441740501E+01 0.85894964253E+01 0.82473976129E+01
 0.78660713696E+01 0.72321325693E+01 0.64640814159E+01 0.58297630689E+01 0.54314393776E+01
 0.52977144269E+01 0.54314393776E+01 0.58297630689E+01 0.64640814159E+01 0.72321325693E+01
 0.78660713696E+01 0.82473976129E+01 0.85894964253E+01 0.91441740501E+01 0.97894647780E+01
 0.10756155531E+02 0.10395443537E+02 0.95365573439E+01 0.88239180374E+01 0.85880892085E+01
 0.85099346011E+01 0.80914507151E+01 0.72721351575E+01 0.64234257767E+01 0.58453503815E+01
 0.55785201215E+01 0.56451031460E+01 0.60471234921E+01 0.67761019419E+01 0.77596585441E+01
 0.86400662715E+01 0.91246514921E+01 0.93740863217E+01 0.97894647780E+01 0.10410884691E+02
 0.10618543085E+02 0.10403387132E+02 0.95333695353E+01 0.85036291437E+01 0.79166050319E+01
 0.78370810724E+01 0.77891892186E+01 0.73627147941E+01 0.66418422886E+01 0.59852238437E+01
 0.55735077623E+01 0.54490722495E+01 0.56322520945E+01 0.61260218986E+01 0.69289500453E+01
 0.79315428674E+01 0.88068888129E+01 0.93736842453E+01 0.97970261967E+01 0.10273031189E+02
 0.10403387132E+02 0.10747178199E+02 0.10388840983E+02 0.95342378512E+01 0.88248288231E+01
 0.85900559359E+01 0.85117722954E+01 0.80930678685E+01 0.72733473407E+01 0.64236526021E+01
 0.58445784945E+01 0.55777792259E+01 0.56453946574E+01 0.60481766135E+01 0.67768122790E+01
 0.77597031237E+01 0.86403229346E+01 0.91255557245E+01 0.93740863217E+01 0.97860370324E+01
 0.95333695353E+01 0.10388840983E+02 0.10748239876E+02 0.10404809358E+02 0.97871351295E+01
 0.93749920659E+01 0.91267826429E+01 0.86417387220E+01 0.77604410283E+01 0.67763685071E+01
 0.60472274625E+01 0.56451301268E+01 0.55785089184E+01 0.58453838353E+01 0.64235250570E+01
 0.72723370280E+01 0.80920228786E+01 0.85111573750E+01 0.85894964253E+01 0.88239180374E+01
 0.85036291437E+01 0.95342378512E+01 0.10404809358E+02 0.10619875546E+02 0.10274208126E+02
 0.97985489322E+01 0.93756508265E+01 0.88084757681E+01 0.79318314515E+01 0.69281196724E+01
 0.61252921474E+01 0.56325195520E+01 0.54499169610E+01 0.55738051747E+01 0.59845420713E+01
 0.66408525267E+01 0.73622141797E+01 0.77891407319E+01 0.78369134374E+01 0.79162175821E+01
 0.79166050319E+01 0.88248288231E+01 0.97871351295E+01 0.10274208126E+02 0.10143200157E+02
 0.96700094004E+01 0.91279832788E+01 0.85097667853E+01 0.77073510345E+01 0.68049363536E+01
 0.60400961397E+01 0.55277183261E+01 0.52775892469E+01 0.52878508783E+01 0.55480549507E+01
 0.60210589047E+01 0.66250747013E+01 0.71194732357E+01 0.73303864218E+01 0.74580987772E+01
 0.78370810724E+01 0.85900559359E+01 0.93749920659E+01 0.97985489322E+01 0.96700094004E+01
 0.91500197310E+01 0.85130418958E+01 0.78664355975E+01 0.71681193860E+01 0.64347009442E+01
 0.57960202444E+01 0.53363831107E+01 0.50792809984E+01 0.50258140749E+01 0.51661433006E+01
 0.54972253692E+01 0.59744301192E+01 0.65085397593E+01 0.69554813736E+01 0.73302349585E+01
 0.77891892186E+01 0.85117722954E+01 0.91267826429E+01 0.93756508265E+01 0.91279832788E+01
 0.85130418958E+01 0.77893979903E+01 0.71180562568E+01 0.65066672986E+01 0.59368472206E+01
 0.54508253342E+01 0.50877188132E+01 0.48742221296E+01 0.48078610252E+01 0.48742874510E+01
 0.50878648037E+01 0.54512499816E+01 0.59378123505E+01 0.65080184415E+01 0.71190210133E+01
 0.73627147941E+01 0.80930678685E+01 0.86417387220E+01 0.88084757681E+01 0.85097667853E+01
 0.78664355975E+01 0.71180562568E+01 0.64464094938E+01 0.58963081672E+01 0.54452673416E+01
 0.50866362919E+01 0.48264855339E+01 0.46815217243E+01 0.46380830511E+01 0.46757473235E+01
 0.48050784477E+01 0.50595653687E+01 0.54506524124E+01 0.59737182831E+01 0.66248686840E+01
 0.66418422886E+01 0.72733473407E+01 0.77604410283E+01 0.79318314515E+01 0.77073510345E+01
 0.71681193860E+01 0.65066672986E+01 0.58963081672E+01 0.54085646470E+01 0.50391472436E+01
 0.47691355594E+01 0.45953700397E+01 0.45162750769E+01 0.45090250485E+01 0.45492500944E+01
 0.46376403367E+01 0.48046676128E+01 0.50872896914E+01 0.54970542428E+01 0.60215843835E+01
 0.59852238437E+01 0.64236526021E+01 0.67763685071E+01 0.69281196724E+01 0.68049363536E+01
 0.64347009442E+01 0.59368472206E+01 0.54452673416E+01 0.50391472436E+01 0.47366005356E+01
 0.45322271401E+01 0.44204403498E+01 0.43874745594E+01 0.44102521423E+01 0.44662147766E+01
 0.45491182389E+01 0.46755298920E+01 0.48743216551E+01 0.51666809495E+01 0.55489136874E+01
 0.55735077623E+01 0.58445784945E+01 0.60472274625E+01 0.61252921474E+01 0.60400961397E+01
 0.57960202444E+01 0.54508253342E+01 0.50866362919E+01 0.47691355594E+01 0.45322271401E+01
 0.43817379837E+01 0.43087286970E+01 0.42993804353E+01 0.43380407192E+01 0.44103060826E+01
 0.45091041830E+01 0.46382886049E+01 0.48082937503E+01 0.50263441806E+01 0.52881159802E+01
 0.54490722495E+01 0.55777792259E+01 0.56451301268E+01 0.56325195520E+01 0.55277183261E+01
 0.53363831107E+01 0.50877188132E+01 0.48264855339E+01 0.45953700397E+01 0.44204403498E+01
 0.43087286970E+01 0.42557758528E+01 0.42544693886E+01 0.42994793229E+01 0.43876298749E+01
 0.45164606938E+01 0.46817156245E+01 0.48743216551E+01 0.50790968089E+01 0.52770046523E+01
 0.56322520945E+01 0.56453946574E+01 0.55785089184E+01 0.54499169610E+01 0.52775892469E+01
 0.50792809984E+01 0.48742221296E+01 0.46815217243E+01 0.45162750769E+01 0.43874745594E+01
 0.42993804353E+01 0.42544693886E+01 0.42558683585E+01 0.43088326784E+01 0.44204616387E+01
 0.45952618736E+01 0.48262297989E+01 0.50872896914E+01 0.53357988056E+01 0.55271439707E+01
 0.61260218986E+01 0.60481766135E+01 0.58453838353E+01 0.55738051747E+01 0.52878508783E+01
 0.50258140749E+01 0.48078610252E+01 0.46380830511E+01 0.45090250485E+01 0.44102521423E+01
 0.43380407192E+01 0.42994793229E+01 0.43088326784E+01 0.43816634263E+01 0.45319012249E+01
 0.47686855792E+01 0.50862644112E+01 0.54506524124E+01 0.57960911718E+01 0.60404729912E+01
 0.69289500453E+01 0.67768122790E+01 0.64235250570E+01 0.59845420713E+01 0.55480549507E+01
 0.51661433006E+01 0.48742874510E+01 0.46757473235E+01 0.45492500944E+01 0.44662147766E+01
 0.44103060826E+01 0.43876298749E+01 0.44204616387E+01 0.45319012249E+01 0.47360951245E+01
 0.50389361621E+01 0.54456878970E+01 0.59378123505E+01 0.64358594662E+01 0.68060017608E+01
 0.79315428674E+01 0.77597031237E+01 0.72723370280E+01 0.66408525267E+01 0.60210589047E+01
 0.54972253692E+01 0.50878648037E+01 0.48050784477E+01 0.46376403367E+01 0.45491182389E+01
 0.45091041830E+01 0.45164606938E+01 0.45952618736E+01 0.47686855792E+01 0.50389361621E+01
 0.54092698867E+01 0.58979542466E+01 0.65085397593E+01 0.71694103840E+01 0.77077629589E+01
 0.88068888129E+01 0.86403229346E+01 0.80920228786E+01 0.73622141797E+01 0.66250747013E+01
 0.59744301192E+01 0.54512499816E+01 0.50595653687E+01 0.48046676128E+01 0.46755298920E+01
 0.46382886049E+01 0.46817156245E+01 0.48262297989E+01 0.50862644112E+01 0.54456878970E+01
 0.58979542466E+01 0.64485806602E+01 0.71194732357E+01 0.78663806377E+01 0.85085510922E+01
 0.93736842453E+01 0.91255557245E+01 0.85111573750E+01 0.77891407319E+01 0.71194732357E+01
 0.65085397593E+01 0.59378123505E+01 0.54506524124E+01 0.50872896914E+01 0.48743216551E+01
 0.48082937503E+01 0.48743216551E+01 0.50872896914E+01 0.54506524124E+01 0.59378123505E+01
 0.65085397593E+01 0.71194732357E+01 0.77891407319E+01 0.85111573750E+01 0.91255557245E+01
 0.97970261967E+01 0.93740863217E+01 0.85894964253E+01 0.78369134374E+01 0.73303864218E+01
 0.69554813736E+01 0.65080184415E+01 0.59737182831E+01 0.54970542428E+01 0.51666809495E+01
 0.50263441806E+01 0.50790968089E+01 0.53357988056E+01 0.57960911718E+01 0.64358594662E+01
 0.71694103840E+01 0.78663806377E+01 0.85111573750E+01 0.91472302426E+01 0.96676003993E+01
 0.10273031189E+02 0.97860370324E+01 0.88239180374E+01 0.79162175821E+01 0.74580987772E+01
 0.73302349585E+01 0.71190210133E+01 0.66248686840E+01 0.60215843835E+01 0.55489136874E+01
 0.52881159802E+01 0.52770046523E+01 0.55271439707E+01 0.60404729912E+01 0.68060017608E+01
 0.77077629589E+01 0.85085510922E+01 0.91255557245E+01 0.96676003993E+01 0.10141524814E+02
 0.10486384574E+02 0.10136481131E+02 0.91404836784E+01 0.79166050319E+01 0.70353923889E+01
 0.67069785145E+01 0.66443225928E+01 0.64491050064E+01 0.60296308154E+01 0.55784308465E+01
 0.52538811910E+01 0.51252849743E+01 0.52155663870E+01 0.55448778928E+01 0.61171114545E+01
 0.69326279044E+01 0.78897225405E+01 0.88068888129E+01 0.95963558865E+01 0.10216028719E+02
 0.10136481131E+02 0.10268420962E+02 0.97840377221E+01 0.88248288231E+01 0.79186912552E+01
 0.74607140198E+01 0.73324158934E+01 0.71206130190E+01 0.66255567622E+01 0.60212153346E+01