   1   1   0   0
  0.1489550E+02  0.2684679E-09  0.2684679E-09  0.2684679E-09  0.5000000E-15
  1.000000000000000E-004
  CAR 
 BCC W                                   
     31.43239818     -3.09765576  301      8.40425083      1.00000000
     -3.098  0.0000E+00  0.0000E+00
     -2.983  0.0000E+00  0.0000E+00
     -2.867  0.0000E+00  0.0000E+00
     -2.752 -0.4554E-30 -0.5242E-31
     -2.637 -0.4158E-26 -0.4787E-27
     -2.522 -0.1947E-22 -0.2241E-23
     -2.407 -0.4668E-19 -0.5375E-20
     -2.292 -0.5726E-16 -0.6596E-17
     -2.177 -0.3465E-13 -0.3994E-14
     -2.062 -0.1096E-10 -0.1265E-11
     -1.947 -0.1752E-08 -0.2029E-09
     -1.832 -0.1404E-06 -0.1637E-07
     -1.716 -0.5560E-05 -0.6563E-06
     -1.601 -0.1054E-03 -0.1279E-04
     -1.486 -0.8866E-03 -0.1148E-03
     -1.371 -0.2432E-02 -0.3947E-03
     -1.256  0.4680E-02  0.1439E-03
     -1.141  0.3218E-01  0.3848E-02
     -1.026  0.4731E-01  0.9293E-02
     -0.911  0.2134E-01  0.1175E-01
     -0.796  0.3239E-02  0.1212E-01
     -0.681  0.3202E-01  0.1581E-01
     -0.565  0.6149E-01  0.2289E-01
     -0.450  0.3198E-01  0.2657E-01
     -0.335  0.1116E-01  0.2785E-01
     -0.220  0.9878E-01  0.3922E-01
     -0.105  0.1922E+00  0.6134E-01
      0.010  0.1245E+00  0.7567E-01
      0.125  0.1605E-01  0.7752E-01
      0.240 -0.1213E-01  0.7612E-01
      0.355 -0.1313E-01  0.7461E-01
      0.470  0.2083E-02  0.7485E-01
      0.586  0.1029E+00  0.8670E-01
      0.701  0.2195E+00  0.1120E+00
      0.816  0.1653E+00  0.1310E+00
      0.931  0.7438E-01  0.1395E+00
      1.046  0.1441E+00  0.1561E+00
      1.161  0.2412E+00  0.1839E+00
      1.276  0.2466E+00  0.2123E+00
      1.391  0.1542E+00  0.2300E+00
      1.506  0.3022E-01  0.2335E+00
      1.621 -0.2782E-01  0.2303E+00
      1.737 -0.3929E-01  0.2258E+00
      1.852  0.9710E-01  0.2370E+00
      1.967  0.5431E+00  0.2995E+00
      2.082  0.9483E+00  0.4086E+00
      2.197  0.9003E+00  0.5123E+00
      2.312  0.6930E+00  0.5920E+00
      2.427  0.5283E+00  0.6528E+00
      2.542  0.4919E+00  0.7095E+00
      2.657  0.6207E+00  0.7809E+00
      2.772  0.7070E+00  0.8623E+00
      2.888  0.9270E+00  0.9690E+00
      3.003  0.1100E+01  0.1096E+01
      3.118  0.8224E+00  0.1190E+01
      3.233  0.6170E+00  0.1261E+01
      3.348  0.8388E+00  0.1358E+01
      3.463  0.1125E+01  0.1487E+01
      3.578  0.1305E+01  0.1637E+01
      3.693  0.1295E+01  0.1787E+01
      3.808  0.1059E+01  0.1908E+01
      3.923  0.7247E+00  0.1992E+01
      4.039  0.4250E+00  0.2041E+01
      4.154  0.2375E+00  0.2068E+01
      4.269  0.1665E+00  0.2087E+01
      4.384  0.4441E+00  0.2138E+01
      4.499  0.8164E+00  0.2232E+01
      4.614  0.8109E+00  0.2326E+01
      4.729  0.8519E+00  0.2424E+01
      4.844  0.1053E+01  0.2545E+01
      4.959  0.1270E+01  0.2691E+01
      5.074  0.1809E+01  0.2899E+01
      5.190  0.2088E+01  0.3140E+01
      5.305  0.1633E+01  0.3328E+01
      5.420  0.9762E+00  0.3440E+01
      5.535  0.8669E+00  0.3540E+01
      5.650  0.9610E+00  0.3650E+01
      5.765  0.7874E+00  0.3741E+01
      5.880  0.8077E+00  0.3834E+01
      5.995  0.1080E+01  0.3958E+01
      6.110  0.1351E+01  0.4114E+01
      6.225  0.1547E+01  0.4292E+01
      6.341  0.1865E+01  0.4507E+01
      6.456  0.1939E+01  0.4730E+01
      6.571  0.1538E+01  0.4907E+01
      6.686  0.1052E+01  0.5028E+01
      6.801  0.6455E+00  0.5102E+01
      6.916  0.5980E+00  0.5171E+01
      7.031  0.8983E+00  0.5274E+01
      7.146  0.9394E+00  0.5382E+01
      7.261  0.5204E+00  0.5442E+01
      7.376  0.1095E+00  0.5455E+01
      7.492  0.1379E+00  0.5471E+01
      7.607  0.5190E+00  0.5531E+01
      7.722  0.7301E+00  0.5615E+01
      7.837  0.6936E+00  0.5694E+01
      7.952  0.7165E+00  0.5777E+01
      8.067  0.6937E+00  0.5857E+01
      8.182  0.5878E+00  0.5924E+01
      8.297  0.4475E+00  0.5976E+01
      8.412  0.2197E+00  0.6001E+01
      8.527  0.2068E+00  0.6025E+01
      8.643  0.4424E+00  0.6076E+01
      8.758  0.5487E+00  0.6139E+01
      8.873  0.3594E+00  0.6180E+01
      8.988  0.1659E+00  0.6200E+01
      9.103  0.3389E+00  0.6239E+01
      9.218  0.7002E+00  0.6319E+01
      9.333  0.9508E+00  0.6429E+01
      9.448  0.9288E+00  0.6536E+01
      9.563  0.7106E+00  0.6617E+01
      9.678  0.7409E+00  0.6703E+01
      9.794  0.8554E+00  0.6801E+01
      9.909  0.6469E+00  0.6875E+01
     10.024  0.5662E+00  0.6941E+01
     10.139  0.8992E+00  0.7044E+01
     10.254  0.1119E+01  0.7173E+01
     10.369  0.1150E+01  0.7305E+01
     10.484  0.1196E+01  0.7443E+01
     10.599  0.1166E+01  0.7577E+01
     10.714  0.1090E+01  0.7703E+01
     10.829  0.1032E+01  0.7822E+01
     10.945  0.1107E+01  0.7949E+01
     11.060  0.1001E+01  0.8064E+01
     11.175  0.7511E+00  0.8151E+01
     11.290  0.9311E+00  0.8258E+01
     11.405  0.1108E+01  0.8385E+01
     11.520  0.9290E+00  0.8492E+01
     11.635  0.1112E+01  0.8620E+01
     11.750  0.1726E+01  0.8819E+01
     11.865  0.2067E+01  0.9057E+01
     11.980  0.2027E+01  0.9290E+01
     12.096  0.1807E+01  0.9498E+01
     12.211  0.1869E+01  0.9713E+01
     12.326  0.1793E+01  0.9920E+01
     12.441  0.1154E+01  0.1005E+02
     12.556  0.7541E+00  0.1014E+02
     12.671  0.7071E+00  0.1022E+02
     12.786  0.4559E+00  0.1027E+02
     12.901  0.3053E+00  0.1031E+02
     13.016  0.3917E+00  0.1035E+02
     13.131  0.3401E+00  0.1039E+02
     13.247  0.1973E+00  0.1042E+02
     13.362  0.1600E+00  0.1043E+02
     13.477  0.2688E+00  0.1046E+02
     13.592  0.3218E+00  0.1050E+02
     13.707  0.2206E+00  0.1053E+02
     13.822  0.1686E+00  0.1055E+02
     13.937  0.2114E+00  0.1057E+02
     14.052  0.1575E+00  0.1059E+02
     14.167  0.1874E+00  0.1061E+02
     14.282  0.3306E+00  0.1065E+02
     14.398  0.2801E+00  0.1068E+02
     14.513  0.3970E+00  0.1073E+02
     14.628  0.8945E+00  0.1083E+02
     14.743  0.1101E+01  0.1096E+02
     14.858  0.7907E+00  0.1105E+02
     14.973  0.4343E+00  0.1110E+02
     15.088  0.3588E+00  0.1114E+02
     15.203  0.3430E+00  0.1118E+02
     15.318  0.2472E+00  0.1121E+02
     15.433  0.2280E+00  0.1123E+02
     15.549  0.2291E+00  0.1126E+02
     15.664  0.1612E+00  0.1128E+02
     15.779  0.9900E-01  0.1129E+02
     15.894  0.1621E+00  0.1131E+02
     16.009  0.3150E+00  0.1134E+02
     16.124  0.3537E+00  0.1138E+02
     16.239  0.1760E+00  0.1140E+02
     16.354  0.1275E-01  0.1141E+02
     16.469 -0.2576E-01  0.1140E+02
     16.584 -0.2287E-01  0.1140E+02
     16.700  0.6797E-01  0.1141E+02
     16.815  0.3695E+00  0.1145E+02
     16.930  0.5832E+00  0.1152E+02
     17.045  0.3702E+00  0.1156E+02
     17.160  0.1540E+00  0.1158E+02
     17.275  0.1353E+00  0.1159E+02
     17.390  0.2513E+00  0.1162E+02
     17.505  0.6496E+00  0.1170E+02
     17.620  0.8966E+00  0.1180E+02
     17.735  0.5906E+00  0.1187E+02
     17.851  0.1683E+00  0.1189E+02
     17.966 -0.5035E-02  0.1189E+02
     18.081  0.1342E-01  0.1189E+02
     18.196  0.1988E+00  0.1191E+02
     18.311  0.3577E+00  0.1195E+02
     18.426  0.2329E+00  0.1198E+02
     18.541  0.4048E-01  0.1198E+02
     18.656  0.8363E-01  0.1199E+02
     18.771  0.2738E+00  0.1203E+02
     18.886  0.3319E+00  0.1206E+02
     19.002  0.3016E+00  0.1210E+02
     19.117  0.4704E+00  0.1215E+02
     19.232  0.8006E+00  0.1224E+02
     19.347  0.1040E+01  0.1236E+02
     19.462  0.1023E+01  0.1248E+02
     19.577  0.5896E+00  0.1255E+02
     19.692  0.1386E+00  0.1257E+02
     19.807  0.1465E+00  0.1258E+02
     19.922  0.3313E+00  0.1262E+02
     20.037  0.2705E+00  0.1265E+02
     20.153  0.1316E+00  0.1267E+02
     20.268  0.1478E+00  0.1268E+02
     20.383  0.1979E+00  0.1271E+02
     20.498  0.1229E+00  0.1272E+02
     20.613  0.1125E+00  0.1273E+02
     20.728  0.4061E+00  0.1278E+02
     20.843  0.6316E+00  0.1285E+02
     20.958  0.4360E+00  0.1290E+02
     21.073  0.1780E+00  0.1292E+02
     21.188  0.2096E+00  0.1295E+02
     21.304  0.3650E+00  0.1299E+02
     21.419  0.5652E+00  0.1306E+02
     21.534  0.9374E+00  0.1316E+02
     21.649  0.1029E+01  0.1328E+02
     21.764  0.8020E+00  0.1337E+02
     21.879  0.6048E+00  0.1344E+02
     21.994  0.5719E+00  0.1351E+02
     22.109  0.7335E+00  0.1359E+02
     22.224  0.8144E+00  0.1369E+02
     22.339  0.6779E+00  0.1377E+02
     22.455  0.4936E+00  0.1382E+02
     22.570  0.5364E+00  0.1388E+02
     22.685  0.5138E+00  0.1394E+02
     22.800  0.1988E+00  0.1397E+02
     22.915 -0.1513E-01  0.1396E+02
     23.030  0.2040E+00  0.1399E+02
     23.145  0.6806E+00  0.1407E+02
     23.260  0.8634E+00  0.1417E+02
     23.375  0.7686E+00  0.1425E+02
     23.490  0.6214E+00  0.1433E+02
     23.606  0.5917E+00  0.1439E+02
     23.721  0.7953E+00  0.1449E+02
     23.836  0.1150E+01  0.1462E+02
     23.951  0.1183E+01  0.1475E+02
     24.066  0.7298E+00  0.1484E+02
     24.181  0.3699E+00  0.1488E+02
     24.296  0.3746E+00  0.1492E+02
     24.411  0.4660E+00  0.1498E+02
     24.526  0.3219E+00  0.1501E+02
     24.641  0.1577E+00  0.1503E+02
     24.757  0.2420E+00  0.1506E+02
     24.872  0.3685E+00  0.1510E+02
     24.987  0.3499E+00  0.1514E+02
     25.102  0.3623E+00  0.1518E+02
     25.217  0.2665E+00  0.1522E+02
     25.332  0.2337E+00  0.1524E+02
     25.447  0.6272E+00  0.1531E+02
     25.562  0.7617E+00  0.1540E+02
     25.677  0.3164E+00  0.1544E+02
     25.792  0.5236E-01  0.1544E+02
     25.908  0.1854E+00  0.1547E+02
     26.023  0.5207E+00  0.1553E+02
     26.138  0.7922E+00  0.1562E+02
     26.253  0.6486E+00  0.1569E+02
     26.368  0.3961E+00  0.1574E+02
     26.483  0.2261E+00  0.1576E+02
     26.598  0.8972E-01  0.1577E+02
     26.713  0.1806E+00  0.1579E+02
     26.828  0.3680E+00  0.1584E+02
     26.943  0.3099E+00  0.1587E+02
     27.059  0.1212E+00  0.1589E+02
     27.174  0.3735E-01  0.1589E+02
     27.289  0.1325E-01  0.1589E+02
     27.404 -0.1600E-02  0.1589E+02
     27.519 -0.7249E-02  0.1589E+02
     27.634 -0.1857E-01  0.1589E+02
     27.749  0.1202E-01  0.1589E+02
     27.864  0.2035E+00  0.1591E+02
     27.979  0.3859E+00  0.1596E+02
     28.094  0.2496E+00  0.1599E+02
     28.210  0.3320E-01  0.1599E+02
     28.325 -0.1929E-01  0.1599E+02
     28.440 -0.6726E-02  0.1599E+02
     28.555 -0.7816E-03  0.1599E+02
     28.670 -0.4054E-04  0.1599E+02
     28.785 -0.3398E-05  0.1599E+02
     28.900 -0.5464E-04  0.1599E+02
     29.015 -0.5691E-03  0.1599E+02
     29.130 -0.2210E-02  0.1599E+02
     29.245  0.1071E-02  0.1599E+02
     29.361  0.2437E-01  0.1599E+02
     29.476  0.4814E-01  0.1600E+02
     29.591  0.3226E-01  0.1600E+02
     29.706  0.4684E-02  0.1600E+02
     29.821 -0.2432E-02  0.1600E+02
     29.936 -0.8866E-03  0.1600E+02
     30.051 -0.1054E-03  0.1600E+02
     30.166 -0.5560E-05  0.1600E+02
     30.281 -0.1404E-06  0.1600E+02
     30.396 -0.1752E-08  0.1600E+02
     30.512 -0.1096E-10  0.1600E+02
     30.627 -0.3466E-13  0.1600E+02
     30.742 -0.4630E-16  0.1600E+02
     30.857  0.0000E+00  0.1600E+02
     30.972  0.0000E+00  0.1600E+02
     31.087  0.0000E+00  0.1600E+02
     31.202  0.0000E+00  0.1600E+02
     31.317  0.0000E+00  0.1600E+02
     31.432  0.0000E+00  0.1600E+02
