    1    1    1    1
  0.1489550E+02  0.2684679E-09  0.2684679E-09  0.2684679E-09  0.5000000E-15
  1.000000000000000E-004
  CAR 
 BCC W                                   
      6     44      8
 
  0.5000000E-01  0.5000000E-01  0.5000000E-01  0.8000000E-02
    1       -0.614100   1.000000
    2        6.789713   1.000000
    3        6.789713   1.000000
    4        8.074591   1.020850
    5       10.608353  -0.000000
    6       10.608353  -0.000000
    7       24.463257   0.000000
    8       25.519903   0.000000
 
  0.1500000E+00  0.5000000E-01  0.5000000E-01  0.2400000E-01
    1        0.655730   1.000000
    2        6.041125   1.000000
    3        6.338591   1.000000
    4        9.690112  -0.000000
    5       10.249353  -0.000000
    6       10.913620  -0.000000
    7       25.095287   0.000000
    8       26.860105   0.000000
 
  0.2500000E+00  0.5000000E-01  0.5000000E-01  0.2400000E-01
    1        1.932011   1.000000
    2        5.306768   1.000000
    3        6.365185   1.000000
    4       10.499779  -0.000000
    5       11.278810  -0.000000
    6       12.036667  -0.000000
    7       23.622110   0.000000
    8       24.792924   0.000000
 
  0.3500000E+00  0.5000000E-01  0.5000000E-01  0.2400000E-01
    1        2.207857   1.000000
    2        4.803270   1.000000
    3        7.875230   1.000591
    4       10.916226  -0.000000
    5       11.674321  -0.000000
    6       14.525193   0.000000
    7       21.653709   0.000000
    8       21.764824   0.000000
 
  0.4500000E+00  0.5000000E-01  0.5000000E-01  0.1200000E-01
    1        2.134251   1.000000
    2        4.625564   1.000000
    3        9.147879  -0.000001
    4       10.907720  -0.000000
    5       11.868870  -0.000000
    6       15.805064   0.000000
    7       20.171325   0.000000
    8       21.013179   0.000000
 
 -0.5000000E-01  0.5000000E-01  0.5000000E-01  0.6000000E-02
    1       -1.097656   1.000000
    2        7.142463   1.000000
    3        7.142559   1.000000
    4        7.282631   1.000000
    5       10.457906  -0.000000
    6       11.006644  -0.000000
    7       24.440636   0.000000
    8       24.440654   0.000000
 
  0.1500000E+00  0.1500000E+00  0.5000000E-01  0.2400000E-01
    1        2.037395   1.000000
    2        5.543947   1.000000
    3        5.603798   1.000000
    4       10.334565  -0.000000
    5       11.324779  -0.000000
    6       12.002353  -0.000000
    7       24.839075   0.000000
    8       25.869497   0.000000
 
  0.2500000E+00  0.1500000E+00  0.5000000E-01  0.4800000E-01
    1        2.985595   1.000000
    2        5.009188   1.000000
    3        6.091468   1.000000
    4       10.683292  -0.000000
    5       11.715648  -0.000000
    6       14.693155   0.000000
    7       22.086416   0.000000
    8       23.903304   0.000000
 
  0.3500000E+00  0.1500000E+00  0.5000000E-01  0.4800000E-01
    1        2.967789   1.000000
    2        4.757884   1.000000
    3        7.580381   1.000000
    4       11.012563  -0.000000
    5       11.966499  -0.000000
    6       16.887370   0.000000
    7       19.383135   0.000000
    8       22.285354   0.000000
 
 -0.1500000E+00  0.1500000E+00  0.5000000E-01  0.2400000E-01
    1       -0.152420   1.000000
    2        6.633648   1.000000
    3        6.951242   1.000000
    4        8.247720   0.985475
    5        9.695884  -0.000000
    6       11.219652  -0.000000
    7       25.084541   0.000000
    8       26.105005   0.000000
 
  0.2500000E+00  0.2500000E+00  0.5000000E-01  0.2400000E-01
    1        3.676740   1.000000
    2        5.113739   1.000000
    3        6.228348   1.000000
    4       11.042595  -0.000000
    5       11.872373  -0.000000
    6       17.478985   0.000000
    7       19.168215   0.000000
    8       23.355043   0.000000
 
  0.3500000E+00  0.2500000E+00  0.5000000E-01  0.2400000E-01
    1        3.746942   1.000000
    2        5.246371   1.000000
    3        6.561440   1.000000
    4       11.337616  -0.000000
    5       11.915665  -0.000000
    6       17.547536   0.000000
    7       19.284113   0.000000
    8       21.972804   0.000000
 
 -0.2500000E+00  0.2500000E+00  0.5000000E-01  0.2400000E-01
    1        1.262463   1.000000
    2        5.863978   1.000000
    3        6.533673   1.000000
    4        9.734556  -0.000000
    5       10.144479  -0.000000
    6       11.448077  -0.000000
    7       24.333347   0.000000
    8       26.400879   0.000000
 
 -0.1500000E+00  0.2500000E+00  0.5000000E-01  0.2400000E-01
    1        1.061379   1.000000
    2        6.367638   1.000000
    3        6.410998   1.000000
    4        9.072368  -0.000012
    5        9.594932  -0.000000
    6       11.678380  -0.000000
    7       25.496473   0.000000
    8       26.289269   0.000000
 
 -0.3500000E+00  0.3500000E+00  0.5000000E-01  0.2400000E-01
    1        2.033700   1.000000
    2        5.194491   1.000000
    3        7.139945   1.000000
    4       10.419631  -0.000000
    5       11.735904  -0.000000
    6       12.626607  -0.000000
    7       22.262788   0.000000
    8       23.801818   0.000000
 
 -0.2500000E+00  0.3500000E+00  0.5000000E-01  0.4800000E-01
    1        2.323414   1.000000
    2        5.604876   1.000000
    3        6.251074   1.000000
    4        9.447705  -0.000000
    5       11.680850  -0.000000
    6       12.172847  -0.000000
    7       23.154321   0.000000
    8       26.068469   0.000000
 
 -0.4500000E+00  0.4500000E+00  0.5000000E-01  0.2400000E-01
    1        2.007719   1.000000
    2        4.819319   1.000000
    3        8.626483  -0.033150
    4       10.616556  -0.000000
    5       12.319876  -0.000000
    6       14.825924   0.000000
    7       20.844888   0.000000
    8       21.512556   0.000000
 
 -0.3500000E+00  0.4500000E+00  0.5000000E-01  0.4800000E-01
    1        2.619257   1.000000
    2        5.211430   1.000000
    3        6.986522   1.000000
    4       10.130824  -0.000000
    5       12.231428  -0.000000
    6       14.628327   0.000000
    7       21.250331   0.000000
    8       23.585903   0.000000
 
 -0.2500000E+00  0.4500000E+00  0.5000000E-01  0.2400000E-01
    1        3.306308   1.000000
    2        5.042809   1.000000
    3        6.378748   1.000000
    4        9.802885  -0.000000
    5       11.843017  -0.000000
    6       14.831501   0.000000
    7       21.479307   0.000000
    8       25.437527   0.000000
 
 -0.4500000E+00 -0.4500000E+00  0.5000000E-01  0.2400000E-01
    1        2.534307   1.000000
    2        5.078105   1.000000
    3        7.668523   1.000001
    4       10.072118  -0.000000
    5       12.972506  -0.000000
    6       16.090238   0.000000
    7       19.926280   0.000000
    8       22.592446   0.000000
 
 -0.3500000E+00 -0.4500000E+00  0.5000000E-01  0.4800000E-01
    1        3.525187   1.000000
    2        5.120476   1.000000
    3        6.404586   1.000000
    4       10.379989  -0.000000
    5       12.185336  -0.000000
    6       17.627751   0.000000
    7       19.189373   0.000000
    8       23.357056   0.000000
 
 -0.3500000E+00 -0.3500000E+00  0.5000000E-01  0.8000000E-02
    1        4.105254   1.000000
    2        5.447774   1.000000
    3        5.447807   1.000000
    4       11.499674  -0.000000
    5       11.499756  -0.000000
    6       17.812843   0.000000
    7       20.834114   0.000000
    8       20.834279   0.000000
 
  0.1500000E+00  0.1500000E+00  0.1500000E+00  0.8000000E-02
    1        3.564939   1.000000
    2        5.029469   1.000000
    3        5.029469   1.000000
    4       11.273256  -0.000000
    5       11.273256  -0.000000
    6       14.841420   0.000000
    7       23.344776   0.000000
    8       24.611935   0.000000
 
  0.2500000E+00  0.1500000E+00  0.1500000E+00  0.2400000E-01
    1        4.076670   1.000000
    2        4.776781   1.000000
    3        6.013759   1.000000
    4       11.473859  -0.000000
    5       11.805696  -0.000000
    6       17.471676   0.000000
    7       19.378771   0.000000
    8       23.111674   0.000000
 
  0.3500000E+00  0.1500000E+00  0.1500000E+00  0.1200000E-01
    1        3.942386   1.000000
    2        4.705362   1.000000
    3        7.090252   1.000000
    4       11.566309  -0.000000
    5       11.972668  -0.000000
    6       17.567638   0.000000
    7       18.704811   0.000000
    8       22.532790   0.000000
 
 -0.1500000E+00  0.1500000E+00  0.1500000E+00  0.6000000E-02
    1        0.745531   1.000000
    2        7.174333   1.000000
    3        7.174425   1.000000
    4        8.076861   1.021367
    5        8.232390   1.003703
    6       11.905180  -0.000000
    7       26.766723   0.000000
    8       27.101299   0.000000
 
  0.2500000E+00  0.2500000E+00  0.1500000E+00  0.2400000E-01
    1        4.485824   1.000000
    2        5.325256   1.000000
    3        6.050084   1.000000
    4       11.814599  -0.000000
    5       11.966915  -0.000000
    6       16.852402   0.000000
    7       19.843888   0.000000
    8       22.108014   0.000000
 
 -0.2500000E+00  0.2500000E+00  0.1500000E+00  0.2400000E-01
    1        2.102780   1.000000
    2        6.295971   1.000000
    3        6.773931   1.000000
    4        8.211781   1.020766
    5        9.845546  -0.000000
    6       12.212462  -0.000000
    7       24.090356   0.000000
    8       27.925610   0.000000
 
 -0.3500000E+00  0.3500000E+00  0.1500000E+00  0.2400000E-01
    1        2.886274   1.000000
    2        5.860628   1.000000
    3        6.195462   1.000000
    4        9.222672  -0.000000
    5       12.328622  -0.000000
    6       12.589063  -0.000000
    7       22.506044   0.000000
    8       26.121286   0.000000
 
 -0.2500000E+00  0.3500000E+00  0.1500000E+00  0.2400000E-01
    1        3.237572   1.000000
    2        5.215659   1.000000
    3        7.053062   1.000000
    4        8.553396   0.025169
    5       11.319740  -0.000000
    6       12.662183  -0.000000
    7       23.121652   0.000000
    8       27.938902   0.000000
 
 -0.4500000E+00  0.4500000E+00  0.1500000E+00  0.2400000E-01
    1        2.785348   1.000000
    2        5.856944   1.000000
    3        6.489307   1.000000
    4        9.178268  -0.000000
    5       14.261318   0.000000
    6       14.594931   0.000000
    7       20.745380   0.000000
    8       24.320765   0.000000
 
 -0.3500000E+00  0.4500000E+00  0.1500000E+00  0.4800000E-01
    1        3.582002   1.000000
    2        4.986857   1.000000
    3        6.622102   1.000000
    4        9.331151  -0.000000
    5       12.401492  -0.000000
    6       15.090495   0.000000
    7       21.549783   0.000000
    8       25.462427   0.000000
 
 -0.4500000E+00 -0.4500000E+00  0.1500000E+00  0.2400000E-01
    1        3.404888   1.000000
    2        5.553662   1.000000
    3        6.058610   1.000000
    4        9.362389  -0.000000
    5       13.606125  -0.000000
    6       17.194844   0.000000
    7       19.467872   0.000000
    8       23.810037   0.000000
 
 -0.3500000E+00 -0.4500000E+00  0.1500000E+00  0.2400000E-01
    1        4.367873   1.000000
    2        4.472180   1.000000
    3        5.794919   1.000000
    4       10.805616  -0.000000
    5       12.233522  -0.000000
    6       18.222098   0.000000
    7       19.490472   0.000000
    8       22.651959   0.000000
 
  0.2500000E+00  0.2500000E+00  0.2500000E+00  0.2000000E-02
    1        5.441030   1.000000
    2        5.441030   1.000000
    3        5.441114   1.000000
    4       12.046201  -0.000000
    5       12.046201  -0.000000
    6       15.904971   0.000000
    7       21.724885   0.000000
    8       21.725020   0.000000
 
 -0.2500000E+00  0.2500000E+00  0.2500000E+00  0.6000000E-02
    1        3.232773   1.000000
    2        5.393972   1.000000
    3        7.968906   1.004335
    4        7.969003   1.004343
    5        9.983081  -0.000000
    6       12.328551  -0.000000
    7       23.920537   0.000000
    8       29.432398   0.000000
 
 -0.3500000E+00  0.3500000E+00  0.2500000E+00  0.2400000E-01
    1        3.779621   1.000000
    2        4.436840   1.000000
    3        8.032529   1.012282
    4        8.774292  -0.012577
    5       11.953386  -0.000000
    6       12.914770  -0.000000
    7       23.805081   0.000000
    8       26.750675   0.000000
 
 -0.4500000E+00  0.4500000E+00  0.2500000E+00  0.2400000E-01
    1        3.382632   1.000000
    2        4.532202   1.000000
    3        7.826988   1.000174
    4        8.749733  -0.017369
    5       14.238164   0.000000
    6       15.537880   0.000000
    7       20.723098   0.000000
    8       23.942613   0.000000
 
 -0.3500000E+00  0.4500000E+00  0.2500000E+00  0.2400000E-01
    1        3.629617   1.000000
    2        3.875469   1.000000
    3        7.953847   1.003261
    4       10.212339  -0.000000
    5       12.584429  -0.000000
    6       15.336516   0.000000
    7       21.856859   0.000000
    8       23.797250   0.000000
 
 -0.4500000E+00 -0.4500000E+00  0.2500000E+00  0.2400000E-01
    1        3.382594   1.000000
    2        3.814912   1.000000
    3        7.693954   1.000003
    4       10.844984  -0.000000
    5       13.454691  -0.000000
    6       18.304946   0.000000
    7       19.009595   0.000000
    8       21.745665   0.000000
 
 -0.3500000E+00  0.3500000E+00  0.3500000E+00  0.6000000E-02
    1        3.370075   1.000000
    2        3.615731   1.000000
    3        9.984669  -0.000000
    4        9.984780  -0.000000
    5       12.158251  -0.000000
    6       13.431698  -0.000000
    7       24.102639   0.000000
    8       24.102746   0.000000
 
 -0.4500000E+00  0.4500000E+00  0.3500000E+00  0.2400000E-01
    1        2.857675   1.000000
    2        3.141338   1.000000
    3       10.484088  -0.000000
    4       10.666439  -0.000000
    5       13.903680   0.000000
    6       15.996700   0.000000
    7       20.361797   0.000000
    8       21.488617   0.000000
 
 -0.4500000E+00 -0.4500000E+00  0.3500000E+00  0.8000000E-02
    1        2.695627   1.000000
    2        2.695628   1.000000
    3       10.521385  -0.000000
    4       13.192548  -0.000000
    5       13.192757  -0.000000
    6       18.773822   0.000000
    7       18.773898   0.000000
    8       18.789733   0.000000
 
 -0.4500000E+00  0.4500000E+00  0.4500000E+00  0.6000000E-02
    1        2.310524   1.000000
    2        2.392753   1.000000
    3       13.084585  -0.000000
    4       13.084746  -0.000000
    5       13.868770   0.000000
    6       16.716793   0.000000
    7       18.865035   0.000000
    8       18.865086   0.000000
