 running on    4 total cores
 distrk:  each k-point on    4 cores,    1 groups
 distr:  one band on    1 cores,    4 groups
 using from now: INCAR     
 vasp.5.4.4.18Apr17-6-g9f103f2a35 (build Jul 01 2019 03:25:34) complex          
  
 POSCAR found type information on POSCAR  W 
 POSCAR found :  1 types and       1 ions
 scaLAPACK will be used
 LDA part: xc-table for Ceperly-Alder, standard interpolation
 POSCAR, INCAR and KPOINTS ok, starting setup
 FFT: planning ...
 WAVECAR not read
 entering main loop
       N       E                     dE             d eps       ncg     rms          rms(c)
DAV:   1    -0.110527827676E+02   -0.11053E+02   -0.18885E+03   968   0.287E+02
DAV:   2    -0.148586798123E+02   -0.38059E+01   -0.36383E+01   800   0.486E+01
DAV:   3    -0.148703731755E+02   -0.11693E-01   -0.11693E-01   984   0.281E+00
DAV:   4    -0.148703770416E+02   -0.38660E-05   -0.38663E-05   840   0.345E-02
DAV:   5    -0.148703770449E+02   -0.33056E-08   -0.38067E-08   800   0.828E-04    0.401E+00
DAV:   6    -0.143873224864E+02    0.48305E+00   -0.35870E-01   760   0.372E+00    0.209E+00
DAV:   7    -0.142040709696E+02    0.18325E+00   -0.40131E-01   800   0.388E+00    0.232E-01
DAV:   8    -0.142018673152E+02    0.22037E-02   -0.45152E-03   824   0.474E-01    0.552E-02
DAV:   9    -0.142017252608E+02    0.14205E-03   -0.40236E-04   720   0.127E-01    0.512E-03
DAV:  10    -0.142017272986E+02   -0.20379E-05   -0.40107E-06   352   0.160E-02
   1 F= -.14201727E+02 E0= -.14202594E+02  d E =0.259988E-02
 writing wavefunctions
