 vasp.5.4.4.18Apr17-6-g9f103f2a35 (build Jul 01 2019 03:25:34) complex          
  
 executed on             LinuxIFC date 2020.07.08  19:51:30
 running on    4 total cores
 distrk:  each k-point on    4 cores,    1 groups
 distr:  one band on NCORES_PER_BAND=   1 cores,    4 groups


--------------------------------------------------------------------------------------------------------


 INCAR:
 POTCAR:   PAW W 19Jan2001                        
 POTCAR:   PAW W 19Jan2001                        
   VRHFIN =W: 5p6s5d                                                            
   LEXCH  = CA                                                                  
   EATOM  =   206.5370 eV,   15.1800 Ry                                         
                                                                                
   TITEL  = PAW W 19Jan2001                                                     
   LULTRA =        F    use ultrasoft PP ?                                      
   IUNSCR =        1    unscreen: 0-lin 1-nonlin 2-no                           
   RPACOR =    2.330    partial core radius                                     
   POMASS =  183.850; ZVAL   =    6.000    mass and valenz                      
   RCORE  =    2.750    outmost cutoff radius                                   
   RWIGS  =    2.750; RWIGS  =    1.455    wigner-seitz radius (au A)           
   ENMAX  =  223.126; ENMIN  =  167.344 eV                                      
   RCLOC  =    2.147    cutoff for local pot                                    
   LCOR   =        T    correct aug charges                                     
   LPAW   =        T    paw PP                                                  
   EAUG   =  373.438                                                            
   DEXC   =    -.048                                                            
   RMAX   =    3.087    core radius for proj-oper                               
   RAUG   =    1.300    factor for augmentation sphere                          
   RDEP   =    2.886    radius for radial grids                                 
   QCUT   =   -4.050; QGAM   =    8.099    optimization parameters              
                                                                                
   Description                                                                  
     l     E      TYP  RCUT    TYP  RCUT                                        
     2   .000     23  2.500                                                     
     2   .000     23  2.500                                                     
     0   .000     23  2.500                                                     
     0   .000     23  2.500                                                     
     1   .200     23  2.750                                                     
     1  2.000     23  2.750                                                     
     3   .000      7   .000                                                     
  local pseudopotential read in
  partial core-charges read in
  atomic valenz-charges read in
  non local Contribution for L=           2  read in
    real space projection operators read in
  non local Contribution for L=           2  read in
    real space projection operators read in
  non local Contribution for L=           0  read in
    real space projection operators read in
  non local Contribution for L=           0  read in
    real space projection operators read in
  non local Contribution for L=           1  read in
    real space projection operators read in
  non local Contribution for L=           1  read in
    real space projection operators read in
    PAW grid and wavefunctions read in
 
   number of l-projection  operators is LMAX  =           6
   number of lm-projection operators is LMMAX =          18
 
 PAW W 19Jan2001                        :
 energy of atom  1       EATOM= -206.5370
 kinetic energy error for atom=    0.0291 (will be added to EATOM!!)
 
 
 POSCAR: BCC W Bulk                              
  positions in direct lattice
  No initial velocities read in
 exchange correlation table for  LEXCH =        2
   RHO(1)=    0.500       N(1)  =     2000
   RHO(2)=  100.500       N(2)  =     4000
 


--------------------------------------------------------------------------------------------------------


 ion  position               nearest neighbor table
   1  0.000  0.000  0.000-
 
  LATTYP: Found a body centered cubic cell.
 ALAT       =     3.1000000000
  
  Lattice vectors:
  
 A1 = (  -1.5500000000,   1.5500000000,   1.5500000000)
 A2 = (   1.5500000000,  -1.5500000000,   1.5500000000)
 A3 = (   1.5500000000,   1.5500000000,  -1.5500000000)


Analysis of symmetry for initial positions (statically):
=====================================================================
 Subroutine PRICEL returns:
 Original cell was already a primitive cell.
 

 Routine SETGRP: Setting up the symmetry group for a 
 body centered cubic supercell.


 Subroutine GETGRP returns: Found 48 space group operations
 (whereof 48 operations were pure point group operations)
 out of a pool of 48 trial point group operations.


The static configuration has the point symmetry O_h .


Analysis of symmetry for dynamics (positions and initial velocities):
=====================================================================
 Subroutine PRICEL returns:
 Original cell was already a primitive cell.
 

 Routine SETGRP: Setting up the symmetry group for a 
 body centered cubic supercell.


 Subroutine GETGRP returns: Found 48 space group operations
 (whereof 48 operations were pure point group operations)
 out of a pool of 48 trial point group operations.


The dynamic configuration has the point symmetry O_h .


 Subroutine INISYM returns: Found 48 space group operations
 (whereof 48 operations are pure point group operations),
 and found     1 'primitive' translations

 
 
 KPOINTS: 10x10x10                                

Automatic generation of k-mesh.
Space group operators:
 irot       det(A)        alpha          n_x          n_y          n_z        tau_x        tau_y        tau_z
    1     1.000000     0.000000     1.000000     0.000000     0.000000     0.000000     0.000000     0.000000
    2    -1.000000     0.000000     1.000000     0.000000     0.000000     0.000000     0.000000     0.000000
    3     1.000000   120.000000    -0.577350    -0.577350    -0.577350     0.000000     0.000000     0.000000
    4    -1.000000   120.000000    -0.577350    -0.577350    -0.577350     0.000000     0.000000     0.000000
    5     1.000000   120.000000     0.577350     0.577350     0.577350     0.000000     0.000000     0.000000
    6    -1.000000   120.000000     0.577350     0.577350     0.577350     0.000000     0.000000     0.000000
    7     1.000000    90.000000     0.000000     0.000000    -1.000000     0.000000     0.000000     0.000000
    8    -1.000000    90.000000     0.000000     0.000000    -1.000000     0.000000     0.000000     0.000000
    9     1.000000   180.000000     0.000000     0.707107     0.707107     0.000000     0.000000     0.000000
   10    -1.000000   180.000000     0.000000     0.707107     0.707107     0.000000     0.000000     0.000000
   11     1.000000    90.000000     0.000000     1.000000     0.000000     0.000000     0.000000     0.000000
   12    -1.000000    90.000000     0.000000     1.000000     0.000000     0.000000     0.000000     0.000000
   13     1.000000   179.999999     0.000000     0.000000     1.000000     0.000000     0.000000     0.000000
   14    -1.000000   179.999999     0.000000     0.000000     1.000000     0.000000     0.000000     0.000000
   15     1.000000   120.000000    -0.577350     0.577350     0.577350     0.000000     0.000000     0.000000
   16    -1.000000   120.000000    -0.577350     0.577350     0.577350     0.000000     0.000000     0.000000
   17     1.000000   120.000000    -0.577350     0.577350    -0.577350     0.000000     0.000000     0.000000
   18    -1.000000   120.000000    -0.577350     0.577350    -0.577350     0.000000     0.000000     0.000000
   19     1.000000    90.000000     0.000000     0.000000     1.000000     0.000000     0.000000     0.000000
   20    -1.000000    90.000000     0.000000     0.000000     1.000000     0.000000     0.000000     0.000000
   21     1.000000    90.000000    -1.000000     0.000000     0.000000     0.000000     0.000000     0.000000
   22    -1.000000    90.000000    -1.000000     0.000000     0.000000     0.000000     0.000000     0.000000
   23     1.000000   180.000000     0.707107     0.000000     0.707107     0.000000     0.000000     0.000000
   24    -1.000000   180.000000     0.707107     0.000000     0.707107     0.000000     0.000000     0.000000
   25     1.000000   120.000000     0.577350    -0.577350     0.577350     0.000000     0.000000     0.000000
   26    -1.000000   120.000000     0.577350    -0.577350     0.577350     0.000000     0.000000     0.000000
   27     1.000000   120.000000    -0.577350    -0.577350     0.577350     0.000000     0.000000     0.000000
   28    -1.000000   120.000000    -0.577350    -0.577350     0.577350     0.000000     0.000000     0.000000
   29     1.000000   180.000000     1.000000     0.000000     0.000000     0.000000     0.000000     0.000000
   30    -1.000000   180.000000     1.000000     0.000000     0.000000     0.000000     0.000000     0.000000
   31     1.000000    90.000000     0.000000    -1.000000     0.000000     0.000000     0.000000     0.000000
   32    -1.000000    90.000000     0.000000    -1.000000     0.000000     0.000000     0.000000     0.000000
   33     1.000000   180.000000     0.707107     0.707107     0.000000     0.000000     0.000000     0.000000
   34    -1.000000   180.000000     0.707107     0.707107     0.000000     0.000000     0.000000     0.000000
   35     1.000000    90.000000     1.000000     0.000000     0.000000     0.000000     0.000000     0.000000
   36    -1.000000    90.000000     1.000000     0.000000     0.000000     0.000000     0.000000     0.000000
   37     1.000000   120.000000     0.577350    -0.577350    -0.577350     0.000000     0.000000     0.000000
   38    -1.000000   120.000000     0.577350    -0.577350    -0.577350     0.000000     0.000000     0.000000
   39     1.000000   180.000000     0.000000     1.000000     0.000000     0.000000     0.000000     0.000000
   40    -1.000000   180.000000     0.000000     1.000000     0.000000     0.000000     0.000000     0.000000
   41     1.000000   120.000000     0.577350     0.577350    -0.577350     0.000000     0.000000     0.000000
   42    -1.000000   120.000000     0.577350     0.577350    -0.577350     0.000000     0.000000     0.000000
   43     1.000000   180.000000     0.000000    -0.707107     0.707107     0.000000     0.000000     0.000000
   44    -1.000000   180.000000     0.000000    -0.707107     0.707107     0.000000     0.000000     0.000000
   45     1.000000   180.000000     0.707107    -0.707107     0.000000     0.000000     0.000000     0.000000
   46    -1.000000   180.000000     0.707107    -0.707107     0.000000     0.000000     0.000000     0.000000
   47     1.000000   180.000000     0.707107     0.000000    -0.707107     0.000000     0.000000     0.000000
   48    -1.000000   180.000000     0.707107     0.000000    -0.707107     0.000000     0.000000     0.000000
 
 Subroutine IBZKPT returns following result:
 ===========================================
 
 Found     44 irreducible k-points:
 
 Following reciprocal coordinates:
            Coordinates               Weight
  0.050000  0.050000  0.050000      8.000000
  0.150000  0.050000  0.050000     24.000000
  0.250000  0.050000  0.050000     24.000000
  0.350000  0.050000  0.050000     24.000000
  0.450000  0.050000  0.050000     12.000000
 -0.050000  0.050000  0.050000      6.000000
  0.150000  0.150000  0.050000     24.000000
  0.250000  0.150000  0.050000     48.000000
  0.350000  0.150000  0.050000     48.000000
 -0.150000  0.150000  0.050000     24.000000
  0.250000  0.250000  0.050000     24.000000
  0.350000  0.250000  0.050000     24.000000
 -0.250000  0.250000  0.050000     24.000000
 -0.150000  0.250000  0.050000     24.000000
 -0.350000  0.350000  0.050000     24.000000
 -0.250000  0.350000  0.050000     48.000000
 -0.450000  0.450000  0.050000     24.000000
 -0.350000  0.450000  0.050000     48.000000
 -0.250000  0.450000  0.050000     24.000000
 -0.450000 -0.450000  0.050000     24.000000
 -0.350000 -0.450000  0.050000     48.000000
 -0.350000 -0.350000  0.050000      8.000000
  0.150000  0.150000  0.150000      8.000000
  0.250000  0.150000  0.150000     24.000000
  0.350000  0.150000  0.150000     12.000000
 -0.150000  0.150000  0.150000      6.000000
  0.250000  0.250000  0.150000     24.000000
 -0.250000  0.250000  0.150000     24.000000
 -0.350000  0.350000  0.150000     24.000000
 -0.250000  0.350000  0.150000     24.000000
 -0.450000  0.450000  0.150000     24.000000
 -0.350000  0.450000  0.150000     48.000000
 -0.450000 -0.450000  0.150000     24.000000
 -0.350000 -0.450000  0.150000     24.000000
  0.250000  0.250000  0.250000      2.000000
 -0.250000  0.250000  0.250000      6.000000
 -0.350000  0.350000  0.250000     24.000000
 -0.450000  0.450000  0.250000     24.000000
 -0.350000  0.450000  0.250000     24.000000
 -0.450000 -0.450000  0.250000     24.000000
 -0.350000  0.350000  0.350000      6.000000
 -0.450000  0.450000  0.350000     24.000000
 -0.450000 -0.450000  0.350000      8.000000
 -0.450000  0.450000  0.450000      6.000000
 
 Following cartesian coordinates:
            Coordinates               Weight
  0.100000  0.100000  0.100000      8.000000
  0.100000  0.200000  0.200000     24.000000
  0.100000  0.300000  0.300000     24.000000
  0.100000  0.400000  0.400000     24.000000
  0.100000  0.500000  0.500000     12.000000
  0.100000  0.000000  0.000000      6.000000
  0.200000  0.200000  0.300000     24.000000
  0.200000  0.300000  0.400000     48.000000
  0.200000  0.400000  0.500000     48.000000
  0.200000 -0.100000  0.000000     24.000000
  0.300000  0.300000  0.500000     24.000000
  0.300000  0.400000  0.600000     24.000000
  0.300000 -0.200000  0.000000     24.000000
  0.300000 -0.100000  0.100000     24.000000
  0.400000 -0.300000  0.000000     24.000000
  0.400000 -0.200000  0.100000     48.000000
  0.500000 -0.400000  0.000000     24.000000
  0.500000 -0.300000  0.100000     48.000000
  0.500000 -0.200000  0.200000     24.000000
 -0.400000 -0.400000 -0.900000     24.000000
 -0.400000 -0.300000 -0.800000     48.000000
 -0.300000 -0.300000 -0.700000      8.000000
  0.300000  0.300000  0.300000      8.000000
  0.300000  0.400000  0.400000     24.000000
  0.300000  0.500000  0.500000     12.000000
  0.300000  0.000000  0.000000      6.000000
  0.400000  0.400000  0.500000     24.000000
  0.400000 -0.100000  0.000000     24.000000
  0.500000 -0.200000  0.000000     24.000000
  0.500000 -0.100000  0.100000     24.000000
  0.600000 -0.300000  0.000000     24.000000
  0.600000 -0.200000  0.100000     48.000000
 -0.300000 -0.300000 -0.900000     24.000000
 -0.300000 -0.200000 -0.800000     24.000000
  0.500000  0.500000  0.500000      2.000000
  0.500000  0.000000  0.000000      6.000000
  0.600000 -0.100000  0.000000     24.000000
  0.700000 -0.200000  0.000000     24.000000
  0.700000 -0.100000  0.100000     24.000000
 -0.200000 -0.200000 -0.900000     24.000000
  0.700000  0.000000  0.000000      6.000000
  0.800000 -0.100000  0.000000     24.000000
 -0.100000 -0.100000 -0.900000      8.000000
  0.900000  0.000000  0.000000      6.000000
 


--------------------------------------------------------------------------------------------------------




 Dimension of arrays:
   k-points           NKPTS =     44   k-points in BZ     NKDIM =     44   number of bands    NBANDS=      8
   number of dos      NEDOS =    301   number of ions     NIONS =      1
   non local maximal  LDIM  =      6   non local SUM 2l+1 LMDIM =     18
   total plane-waves  NPLWV =   1000
   max r-space proj   IRMAX =      1   max aug-charges    IRDMAX=   4031
   dimension x,y,z NGX =    10 NGY =   10 NGZ =   10
   dimension x,y,z NGXF=    20 NGYF=   20 NGZF=   20
   support grid    NGXF=    20 NGYF=   20 NGZF=   20
   ions per type =               1
   NGX,Y,Z   is equivalent  to a cutoff of   6.19,  6.19,  6.19 a.u.
   NGXF,Y,Z  is equivalent  to a cutoff of  12.38, 12.38, 12.38 a.u.

 SYSTEM =  BCC W                                   
 POSCAR =  BCC W Bulk                              

 Startparameter for this run:
   NWRITE =      2    write-flag & timer
   PREC   = normal    normal or accurate (medium, high low for compatibility)
   ISTART =      0    job   : 0-new  1-cont  2-samecut
   ICHARG =      2    charge: 1-file 2-atom 10-const
   ISPIN  =      1    spin polarized calculation?
   LNONCOLLINEAR =      F non collinear calculations
   LSORBIT =      F    spin-orbit coupling
   INIWAV =      1    electr: 0-lowe 1-rand  2-diag
   LASPH  =      F    aspherical Exc in radial PAW
   METAGGA=      F    non-selfconsistent MetaGGA calc.

 Electronic Relaxation 1
   ENCUT  =  224.0 eV  16.46 Ry    4.06 a.u.   3.28  3.28  3.28*2*pi/ulx,y,z
   ENINI  =  224.0     initial cutoff
   ENAUG  =  373.4 eV  augmentation charge cutoff
   NELM   =     60;   NELMIN=  2; NELMDL= -5     # of ELM steps 
   EDIFF  = 0.1E-03   stopping-criterion for ELM
   LREAL  =      F    real-space projection
   NLSPLINE    = F    spline interpolate recip. space projectors
   LCOMPAT=      F    compatible to vasp.4.4
   GGA_COMPAT  = T    GGA compatible to vasp.4.4-vasp.4.6
   LMAXPAW     = -100 max onsite density
   LMAXMIX     =    2 max onsite mixed and CHGCAR
   VOSKOWN=      0    Vosko Wilk Nusair interpolation
   ROPT   =    0.00000
 Ionic relaxation
   EDIFFG = 0.1E-02   stopping-criterion for IOM
   NSW    =      0    number of steps for IOM
   NBLOCK =      1;   KBLOCK =      1    inner block; outer block 
   IBRION =     -1    ionic relax: 0-MD 1-quasi-New 2-CG
   NFREE  =      0    steps in history (QN), initial steepest desc. (CG)
   ISIF   =      2    stress and relaxation
   IWAVPR =     10    prediction:  0-non 1-charg 2-wave 3-comb
   ISYM   =      2    0-nonsym 1-usesym 2-fastsym
   LCORR  =      T    Harris-Foulkes like correction to forces

   POTIM  = 0.5000    time-step for ionic-motion
   TEIN   =    0.0    initial temperature
   TEBEG  =    0.0;   TEEND  =   0.0 temperature during run
   SMASS  =  -3.00    Nose mass-parameter (am)
   estimated Nose-frequenzy (Omega)   =  0.10E-29 period in steps =****** mass=  -0.165E-27a.u.
   SCALEE = 1.0000    scale energy and forces
   NPACO  =    256;   APACO  = 16.0  distance and # of slots for P.C.
   PSTRESS=    0.0 pullay stress

  Mass of Ions in am
   POMASS = 183.85
  Ionic Valenz
   ZVAL   =   6.00
  Atomic Wigner-Seitz radii
   RWIGS  =  -1.00
  virtual crystal weights 
   VCA    =   1.00
   NELECT =       6.0000    total number of electrons
   NUPDOWN=      -1.0000    fix difference up-down

 DOS related values:
   EMIN   =  10.00;   EMAX   =-10.00  energy-range for DOS
   EFERMI =   0.00
   ISMEAR =     1;   SIGMA  =   0.20  broadening in eV -4-tet -1-fermi 0-gaus

 Electronic relaxation 2 (details)
   IALGO  =     38    algorithm
   LDIAG  =      T    sub-space diagonalisation (order eigenvalues)
   LSUBROT=      F    optimize rotation matrix (better conditioning)
   TURBO    =      0    0=normal 1=particle mesh
   IRESTART =      0    0=no restart 2=restart with 2 vectors
   NREBOOT  =      0    no. of reboots
   NMIN     =      0    reboot dimension
   EREF     =   0.00    reference energy to select bands
   IMIX   =      4    mixing-type and parameters
     AMIX     =   0.40;   BMIX     =  1.00
     AMIX_MAG =   1.60;   BMIX_MAG =  1.00
     AMIN     =   0.10
     WC   =   100.;   INIMIX=   1;  MIXPRE=   1;  MAXMIX= -45

 Intra band minimization:
   WEIMIN = 0.0000     energy-eigenvalue tresh-hold
   EBREAK =  0.31E-05  absolut break condition
   DEPER  =   0.30     relativ break condition  

   TIME   =   0.40     timestep for ELM

  volume/ion in A,a.u.               =      14.90       100.52
  Fermi-wavevector in a.u.,A,eV,Ry     =   1.209039  2.284752 19.888652  1.461775
  Thomas-Fermi vector in A             =   2.344628
 
 Write flags
   LWAVE        =      T    write WAVECAR
   LDOWNSAMPLE  =      F    k-point downsampling of WAVECAR
   LCHARG       =      T    write CHGCAR
   LVTOT        =      F    write LOCPOT, total local potential
   LVHAR        =      F    write LOCPOT, Hartree potential only
   LELF         =      F    write electronic localiz. function (ELF)
   LORBIT       =      0    0 simple, 1 ext, 2 COOP (PROOUT), +10 PAW based schemes


 Dipole corrections
   LMONO  =      F    monopole corrections only (constant potential shift)
   LDIPOL =      F    correct potential (dipole corrections)
   IDIPOL =      0    1-x, 2-y, 3-z, 4-all directions 
   EPSILON=  1.0000000 bulk dielectric constant

 Exchange correlation treatment:
   GGA     =    --    GGA type
   LEXCH   =     2    internal setting for exchange type
   VOSKOWN=      0    Vosko Wilk Nusair interpolation
   LHFCALC =     F    Hartree Fock is set to
   LHFONE  =     F    Hartree Fock one center treatment
   AEXX    =    0.0000 exact exchange contribution

 Linear response parameters
   LEPSILON=     F    determine dielectric tensor
   LRPA    =     F    only Hartree local field effects (RPA)
   LNABLA  =     F    use nabla operator in PAW spheres
   LVEL    =     F    velocity operator in full k-point grid
   LINTERFAST=   F  fast interpolation
   KINTER  =     0    interpolate to denser k-point grid
   CSHIFT  =0.1000    complex shift for real part using Kramers Kronig
   OMEGAMAX=  -1.0    maximum frequency
   DEG_THRESHOLD= 0.2000000E-02 threshold for treating states as degnerate
   RTIME   =   -0.100 relaxation time in fs
  (WPLASMAI=    0.000 imaginary part of plasma frequency in eV, 0.658/RTIME)
   DFIELD  = 0.0000000 0.0000000 0.0000000 field for delta impulse in time
 
 Orbital magnetization related:
   ORBITALMAG=     F  switch on orbital magnetization
   LCHIMAG   =     F  perturbation theory with respect to B field
   DQ        =  0.001000  dq finite difference perturbation B field
   LLRAUG    =     F  two centre corrections for induced B field



--------------------------------------------------------------------------------------------------------


 Static calculation
 charge density and potential will be updated during run
 non-spin polarized calculation
 Variant of blocked Davidson
 Davidson routine will perform the subspace rotation
 perform sub-space diagonalisation
    after iterative eigenvector-optimisation
 modified Broyden-mixing scheme, WC =      100.0
 initial mixing is a Kerker type mixing with AMIX =  0.4000 and BMIX =      1.0000
 Hartree-type preconditioning will be used
 using additional bands            5
 reciprocal scheme for non local part
 use partial core corrections
 calculate Harris-corrections to forces 
   (improved forces if not selfconsistent)
 use of overlap-Matrix (Vanderbilt PP)
 Methfessel and Paxton  Order N= 1 SIGMA  =   0.20


--------------------------------------------------------------------------------------------------------


  energy-cutoff  :      224.00
  volume of cell :       14.90
      direct lattice vectors                 reciprocal lattice vectors
    -1.550000000  1.550000000  1.550000000     0.000000000  0.322580645  0.322580645
     1.550000000 -1.550000000  1.550000000     0.322580645  0.000000000  0.322580645
     1.550000000  1.550000000 -1.550000000     0.322580645  0.322580645  0.000000000

  length of vectors
     2.684678752  2.684678752  2.684678752     0.456197923  0.456197923  0.456197923


 
 k-points in units of 2pi/SCALE and weight: 10x10x10                                
   0.10000000  0.10000000  0.10000000       0.008
   0.10000000  0.20000000  0.20000000       0.024
   0.10000000  0.30000000  0.30000000       0.024
   0.10000000  0.40000000  0.40000000       0.024
   0.10000000  0.50000000  0.50000000       0.012
   0.10000000  0.00000000  0.00000000       0.006
   0.20000000  0.20000000  0.30000000       0.024
   0.20000000  0.30000000  0.40000000       0.048
   0.20000000  0.40000000  0.50000000       0.048
   0.20000000 -0.10000000  0.00000000       0.024
   0.30000000  0.30000000  0.50000000       0.024
   0.30000000  0.40000000  0.60000000       0.024
   0.30000000 -0.20000000  0.00000000       0.024
   0.30000000 -0.10000000  0.10000000       0.024
   0.40000000 -0.30000000  0.00000000       0.024
   0.40000000 -0.20000000  0.10000000       0.048
   0.50000000 -0.40000000  0.00000000       0.024
   0.50000000 -0.30000000  0.10000000       0.048
   0.50000000 -0.20000000  0.20000000       0.024
  -0.40000000 -0.40000000 -0.90000000       0.024
  -0.40000000 -0.30000000 -0.80000000       0.048
  -0.30000000 -0.30000000 -0.70000000       0.008
   0.30000000  0.30000000  0.30000000       0.008
   0.30000000  0.40000000  0.40000000       0.024
   0.30000000  0.50000000  0.50000000       0.012
   0.30000000  0.00000000  0.00000000       0.006
   0.40000000  0.40000000  0.50000000       0.024
   0.40000000 -0.10000000  0.00000000       0.024
   0.50000000 -0.20000000  0.00000000       0.024
   0.50000000 -0.10000000  0.10000000       0.024
   0.60000000 -0.30000000  0.00000000       0.024
   0.60000000 -0.20000000  0.10000000       0.048
  -0.30000000 -0.30000000 -0.90000000       0.024
  -0.30000000 -0.20000000 -0.80000000       0.024
   0.50000000  0.50000000  0.50000000       0.002
   0.50000000  0.00000000  0.00000000       0.006
   0.60000000 -0.10000000  0.00000000       0.024
   0.70000000 -0.20000000  0.00000000       0.024
   0.70000000 -0.10000000  0.10000000       0.024
  -0.20000000 -0.20000000 -0.90000000       0.024
   0.70000000  0.00000000  0.00000000       0.006
   0.80000000 -0.10000000  0.00000000       0.024
  -0.10000000 -0.10000000 -0.90000000       0.008
   0.90000000  0.00000000  0.00000000       0.006
 
 k-points in reciprocal lattice and weights: 10x10x10                                
   0.05000000  0.05000000  0.05000000       0.008
   0.15000000  0.05000000  0.05000000       0.024
   0.25000000  0.05000000  0.05000000       0.024
   0.35000000  0.05000000  0.05000000       0.024
   0.45000000  0.05000000  0.05000000       0.012
  -0.05000000  0.05000000  0.05000000       0.006
   0.15000000  0.15000000  0.05000000       0.024
   0.25000000  0.15000000  0.05000000       0.048
   0.35000000  0.15000000  0.05000000       0.048
  -0.15000000  0.15000000  0.05000000       0.024
   0.25000000  0.25000000  0.05000000       0.024
   0.35000000  0.25000000  0.05000000       0.024
  -0.25000000  0.25000000  0.05000000       0.024
  -0.15000000  0.25000000  0.05000000       0.024
  -0.35000000  0.35000000  0.05000000       0.024
  -0.25000000  0.35000000  0.05000000       0.048
  -0.45000000  0.45000000  0.05000000       0.024
  -0.35000000  0.45000000  0.05000000       0.048
  -0.25000000  0.45000000  0.05000000       0.024
  -0.45000000 -0.45000000  0.05000000       0.024
  -0.35000000 -0.45000000  0.05000000       0.048
  -0.35000000 -0.35000000  0.05000000       0.008
   0.15000000  0.15000000  0.15000000       0.008
   0.25000000  0.15000000  0.15000000       0.024
   0.35000000  0.15000000  0.15000000       0.012
  -0.15000000  0.15000000  0.15000000       0.006
   0.25000000  0.25000000  0.15000000       0.024
  -0.25000000  0.25000000  0.15000000       0.024
  -0.35000000  0.35000000  0.15000000       0.024
  -0.25000000  0.35000000  0.15000000       0.024
  -0.45000000  0.45000000  0.15000000       0.024
  -0.35000000  0.45000000  0.15000000       0.048
  -0.45000000 -0.45000000  0.15000000       0.024
  -0.35000000 -0.45000000  0.15000000       0.024
   0.25000000  0.25000000  0.25000000       0.002
  -0.25000000  0.25000000  0.25000000       0.006
  -0.35000000  0.35000000  0.25000000       0.024
  -0.45000000  0.45000000  0.25000000       0.024
  -0.35000000  0.45000000  0.25000000       0.024
  -0.45000000 -0.45000000  0.25000000       0.024
  -0.35000000  0.35000000  0.35000000       0.006
  -0.45000000  0.45000000  0.35000000       0.024
  -0.45000000 -0.45000000  0.35000000       0.008
  -0.45000000  0.45000000  0.45000000       0.006
 
 position of ions in fractional coordinates (direct lattice) 
   0.00000000  0.00000000  0.00000000
 
 position of ions in cartesian coordinates  (Angst):
   0.00000000  0.00000000  0.00000000
 


--------------------------------------------------------------------------------------------------------


 k-point  1 :   0.0500 0.0500 0.0500  plane waves:     117
 k-point  2 :   0.1500 0.0500 0.0500  plane waves:     115
 k-point  3 :   0.2500 0.0500 0.0500  plane waves:     114
 k-point  4 :   0.3500 0.0500 0.0500  plane waves:     114
 k-point  5 :   0.4500 0.0500 0.0500  plane waves:     114
 k-point  6 :  -0.0500 0.0500 0.0500  plane waves:     119
 k-point  7 :   0.1500 0.1500 0.0500  plane waves:     111
 k-point  8 :   0.2500 0.1500 0.0500  plane waves:     114
 k-point  9 :   0.3500 0.1500 0.0500  plane waves:     114
 k-point 10 :  -0.1500 0.1500 0.0500  plane waves:     117
 k-point 11 :   0.2500 0.2500 0.0500  plane waves:     114
 k-point 12 :   0.3500 0.2500 0.0500  plane waves:     115
 k-point 13 :  -0.2500 0.2500 0.0500  plane waves:     114
 k-point 14 :  -0.1500 0.2500 0.0500  plane waves:     112
 k-point 15 :  -0.3500 0.3500 0.0500  plane waves:     112
 k-point 16 :  -0.2500 0.3500 0.0500  plane waves:     112
 k-point 17 :  -0.4500 0.4500 0.0500  plane waves:     116
 k-point 18 :  -0.3500 0.4500 0.0500  plane waves:     113
 k-point 19 :  -0.2500 0.4500 0.0500  plane waves:     112
 k-point 20 :  -0.4500-0.4500 0.0500  plane waves:     111
 k-point 21 :  -0.3500-0.4500 0.0500  plane waves:     113
 k-point 22 :  -0.3500-0.3500 0.0500  plane waves:     119
 k-point 23 :   0.1500 0.1500 0.1500  plane waves:     119
 k-point 24 :   0.2500 0.1500 0.1500  plane waves:     117
 k-point 25 :   0.3500 0.1500 0.1500  plane waves:     118
 k-point 26 :  -0.1500 0.1500 0.1500  plane waves:     112
 k-point 27 :   0.2500 0.2500 0.1500  plane waves:     113
 k-point 28 :  -0.2500 0.2500 0.1500  plane waves:     112
 k-point 29 :  -0.3500 0.3500 0.1500  plane waves:     113
 k-point 30 :  -0.2500 0.3500 0.1500  plane waves:     116
 k-point 31 :  -0.4500 0.4500 0.1500  plane waves:     113
 k-point 32 :  -0.3500 0.4500 0.1500  plane waves:     114
 k-point 33 :  -0.4500-0.4500 0.1500  plane waves:     113
 k-point 34 :  -0.3500-0.4500 0.1500  plane waves:     113
 k-point 35 :   0.2500 0.2500 0.2500  plane waves:     104
 k-point 36 :  -0.2500 0.2500 0.2500  plane waves:     116
 k-point 37 :  -0.3500 0.3500 0.2500  plane waves:     113
 k-point 38 :  -0.4500 0.4500 0.2500  plane waves:     108
 k-point 39 :  -0.3500 0.4500 0.2500  plane waves:     110
 k-point 40 :  -0.4500-0.4500 0.2500  plane waves:     110
 k-point 41 :  -0.3500 0.3500 0.3500  plane waves:     112
 k-point 42 :  -0.4500 0.4500 0.3500  plane waves:     114
 k-point 43 :  -0.4500-0.4500 0.3500  plane waves:     116
 k-point 44 :  -0.4500 0.4500 0.4500  plane waves:     116

 maximum and minimum number of plane-waves per node :       119      104

 maximum number of plane-waves:       119
 maximum index in each direction: 
   IXMAX=    3   IYMAX=    3   IZMAX=    3
   IXMIN=   -3   IYMIN=   -3   IZMIN=   -3


 serial   3D FFT for wavefunctions
 parallel 3D FFT for charge:
    minimum data exchange during FFTs selected (reduces bandwidth)


 total amount of memory used by VASP MPI-rank0    31308. kBytes
=======================================================================

   base      :      30000. kBytes
   nonl-proj :        762. kBytes
   fftplans  :        142. kBytes
   grid      :        192. kBytes
   one-center:         15. kBytes
   wavefun   :        197. kBytes
 
     INWAV:  cpu time    0.0000: real time    0.0002
 Broyden mixing: mesh for mixing (old mesh)
   NGX =  7   NGY =  7   NGZ =  7
  (NGX  = 20   NGY  = 20   NGZ  = 20)
  gives a total of    343 points

 initial charge density was supplied:
 charge density of overlapping atoms calculated
 number of electron       6.0000000 magnetization 
 keeping initial charge density in first step


--------------------------------------------------------------------------------------------------------


 Maximum index for augmentation-charges          937 (set IRDMAX)


--------------------------------------------------------------------------------------------------------


 First call to EWALD:  gamma=   0.720
 Maximum number of real-space cells 3x 3x 3
 Maximum number of reciprocal cells 3x 3x 3

    FEWALD:  cpu time    0.0011: real time    0.0011


--------------------------------------- Iteration      1(   1)  ---------------------------------------


    POTLOK:  cpu time    0.0011: real time    0.0021
    SETDIJ:  cpu time    0.0013: real time    0.0013
     EDDAV:  cpu time    0.0444: real time    0.0450
       DOS:  cpu time    0.0004: real time    0.0004
    --------------------------------------------
      LOOP:  cpu time    0.0471: real time    0.0488

 eigenvalue-minimisations  :   968
 total energy-change (2. order) :-0.1105278E+02  (-0.1888453E+03)
 number of electron       6.0000000 magnetization 
 augmentation part        6.0000000 magnetization 

 Free energy of the ion-electron system (eV)
  ---------------------------------------------------
  alpha Z        PSCENC =        46.86189923
  Ewald energy   TEWEN  =      -304.28237681
  -Hartree energ DENC   =        -5.16259319
  -exchange      EXHF   =         0.00000000
  -V(xc)+E(xc)   XCENC  =       -47.22053100
  PAW double counting   =       183.53490256     -125.80866524
  entropy T*S    EENTRO =        -0.00016068
  eigenvalues    EBANDS =        34.51688401
  atomic energy  EATOM  =       206.50785835
  Solvation  Ediel_sol  =         0.00000000
  ---------------------------------------------------
  free energy    TOTEN  =       -11.05278277 eV

  energy without entropy =      -11.05262209  energy(sigma->0) =      -11.05272921


--------------------------------------------------------------------------------------------------------




--------------------------------------- Iteration      1(   2)  ---------------------------------------


     EDDAV:  cpu time    0.0283: real time    0.0284
       DOS:  cpu time    0.0004: real time    0.0004
    --------------------------------------------
      LOOP:  cpu time    0.0287: real time    0.0288

 eigenvalue-minimisations  :   800
 total energy-change (2. order) :-0.3805897E+01  (-0.3638327E+01)
 number of electron       6.0000000 magnetization 
 augmentation part        6.0000000 magnetization 

 Free energy of the ion-electron system (eV)
  ---------------------------------------------------
  alpha Z        PSCENC =        46.86189923
  Ewald energy   TEWEN  =      -304.28237681
  -Hartree energ DENC   =        -5.16259319
  -exchange      EXHF   =         0.00000000
  -V(xc)+E(xc)   XCENC  =       -47.22053100
  PAW double counting   =       183.53490256     -125.80866524
  entropy T*S    EENTRO =         0.00093892
  eigenvalues    EBANDS =        30.70988736
  atomic energy  EATOM  =       206.50785835
  Solvation  Ediel_sol  =         0.00000000
  ---------------------------------------------------
  free energy    TOTEN  =       -14.85867981 eV

  energy without entropy =      -14.85961873  energy(sigma->0) =      -14.85899279


--------------------------------------------------------------------------------------------------------




--------------------------------------- Iteration      1(   3)  ---------------------------------------


     EDDAV:  cpu time    0.0358: real time    0.0360
       DOS:  cpu time    0.0004: real time    0.0004
    --------------------------------------------
      LOOP:  cpu time    0.0362: real time    0.0364

 eigenvalue-minimisations  :   984
 total energy-change (2. order) :-0.1169336E-01  (-0.1169294E-01)
 number of electron       6.0000000 magnetization 
 augmentation part        6.0000000 magnetization 

 Free energy of the ion-electron system (eV)
  ---------------------------------------------------
  alpha Z        PSCENC =        46.86189923
  Ewald energy   TEWEN  =      -304.28237681
  -Hartree energ DENC   =        -5.16259319
  -exchange      EXHF   =         0.00000000
  -V(xc)+E(xc)   XCENC  =       -47.22053100
  PAW double counting   =       183.53490256     -125.80866524
  entropy T*S    EENTRO =         0.00091850
  eigenvalues    EBANDS =        30.69821441
  atomic energy  EATOM  =       206.50785835
  Solvation  Ediel_sol  =         0.00000000
  ---------------------------------------------------
  free energy    TOTEN  =       -14.87037318 eV

  energy without entropy =      -14.87129168  energy(sigma->0) =      -14.87067934


--------------------------------------------------------------------------------------------------------




--------------------------------------- Iteration      1(   4)  ---------------------------------------


     EDDAV:  cpu time    0.0293: real time    0.0294
       DOS:  cpu time    0.0004: real time    0.0004
    --------------------------------------------
      LOOP:  cpu time    0.0296: real time    0.0298

 eigenvalue-minimisations  :   840
 total energy-change (2. order) :-0.3866033E-05  (-0.3866297E-05)
 number of electron       6.0000000 magnetization 
 augmentation part        6.0000000 magnetization 

 Free energy of the ion-electron system (eV)
  ---------------------------------------------------
  alpha Z        PSCENC =        46.86189923
  Ewald energy   TEWEN  =      -304.28237681
  -Hartree energ DENC   =        -5.16259319
  -exchange      EXHF   =         0.00000000
  -V(xc)+E(xc)   XCENC  =       -47.22053100
  PAW double counting   =       183.53490256     -125.80866524
  entropy T*S    EENTRO =         0.00091853
  eigenvalues    EBANDS =        30.69821052
  atomic energy  EATOM  =       206.50785835
  Solvation  Ediel_sol  =         0.00000000
  ---------------------------------------------------
  free energy    TOTEN  =       -14.87037704 eV

  energy without entropy =      -14.87129557  energy(sigma->0) =      -14.87068322


--------------------------------------------------------------------------------------------------------




--------------------------------------- Iteration      1(   5)  ---------------------------------------


     EDDAV:  cpu time    0.0279: real time    0.0280
       DOS:  cpu time    0.0004: real time    0.0004
    CHARGE:  cpu time    0.0012: real time    0.0012
    MIXING:  cpu time    0.0002: real time    0.0002
    --------------------------------------------
      LOOP:  cpu time    0.0297: real time    0.0299

 eigenvalue-minimisations  :   800
 total energy-change (2. order) :-0.3305558E-08  (-0.3806701E-08)
 number of electron       5.9999973 magnetization 
 augmentation part        0.6192029 magnetization 

 Broyden mixing:
  rms(total) = 0.40143E+00    rms(broyden)= 0.40132E+00
  rms(prec ) = 0.16980E+01
  weight for this iteration     100.00

 Free energy of the ion-electron system (eV)
  ---------------------------------------------------
  alpha Z        PSCENC =        46.86189923
  Ewald energy   TEWEN  =      -304.28237681
  -Hartree energ DENC   =        -5.16259319
  -exchange      EXHF   =         0.00000000
  -V(xc)+E(xc)   XCENC  =       -47.22053100
  PAW double counting   =       183.53490256     -125.80866524
  entropy T*S    EENTRO =         0.00091853
  eigenvalues    EBANDS =        30.69821052
  atomic energy  EATOM  =       206.50785835
  Solvation  Ediel_sol  =         0.00000000
  ---------------------------------------------------
  free energy    TOTEN  =       -14.87037704 eV

  energy without entropy =      -14.87129558  energy(sigma->0) =      -14.87068322


--------------------------------------------------------------------------------------------------------




--------------------------------------- Iteration      1(   6)  ---------------------------------------


    POTLOK:  cpu time    0.0009: real time    0.0010
    SETDIJ:  cpu time    0.0010: real time    0.0010
     EDDAV:  cpu time    0.0271: real time    0.0272
       DOS:  cpu time    0.0004: real time    0.0004
    CHARGE:  cpu time    0.0013: real time    0.0012
    MIXING:  cpu time    0.0002: real time    0.0002
    --------------------------------------------
      LOOP:  cpu time    0.0309: real time    0.0310

 eigenvalue-minimisations  :   760
 total energy-change (2. order) : 0.4830546E+00  (-0.3587039E-01)
 number of electron       5.9999972 magnetization 
 augmentation part        0.6522166 magnetization 

 Broyden mixing:
  rms(total) = 0.20873E+00    rms(broyden)= 0.20872E+00
  rms(prec ) = 0.86576E+00
  weight for this iteration     100.00

 eigenvalues of (default mixing * dielectric matrix)
  average eigenvalue GAMMA=   2.0643
  2.0643

 Free energy of the ion-electron system (eV)
  ---------------------------------------------------
  alpha Z        PSCENC =        46.86189923
  Ewald energy   TEWEN  =      -304.28237681
  -Hartree energ DENC   =        -3.36013135
  -exchange      EXHF   =         0.00000000
  -V(xc)+E(xc)   XCENC  =       -47.03079114
  PAW double counting   =       206.76253102     -149.83740260
  entropy T*S    EENTRO =        -0.00101927
  eigenvalues    EBANDS =        29.99211008
  atomic energy  EATOM  =       206.50785835
  Solvation  Ediel_sol  =         0.00000000
  ---------------------------------------------------
  free energy    TOTEN  =       -14.38732249 eV

  energy without entropy =      -14.38630322  energy(sigma->0) =      -14.38698273


--------------------------------------------------------------------------------------------------------




--------------------------------------- Iteration      1(   7)  ---------------------------------------


    POTLOK:  cpu time    0.0010: real time    0.0011
    SETDIJ:  cpu time    0.0010: real time    0.0010
     EDDAV:  cpu time    0.0301: real time    0.0302
       DOS:  cpu time    0.0005: real time    0.0004
    CHARGE:  cpu time    0.0013: real time    0.0013
    MIXING:  cpu time    0.0002: real time    0.0002
    --------------------------------------------
      LOOP:  cpu time    0.0341: real time    0.0343

 eigenvalue-minimisations  :   800
 total energy-change (2. order) : 0.1832515E+00  (-0.4013133E-01)
 number of electron       5.9999970 magnetization 
 augmentation part        0.6890003 magnetization 

 Broyden mixing:
  rms(total) = 0.23223E-01    rms(broyden)= 0.23079E-01
  rms(prec ) = 0.61787E-01
  weight for this iteration     100.00

 eigenvalues of (default mixing * dielectric matrix)
  average eigenvalue GAMMA=   2.4537
  2.1522  2.7553

 Free energy of the ion-electron system (eV)
  ---------------------------------------------------
  alpha Z        PSCENC =        46.86189923
  Ewald energy   TEWEN  =      -304.28237681
  -Hartree energ DENC   =        -1.94267570
  -exchange      EXHF   =         0.00000000
  -V(xc)+E(xc)   XCENC  =       -46.76961539
  PAW double counting   =       241.94715826     -185.83414939
  entropy T*S    EENTRO =         0.00261214
  eigenvalues    EBANDS =        29.30521835
  atomic energy  EATOM  =       206.50785835
  Solvation  Ediel_sol  =         0.00000000
  ---------------------------------------------------
  free energy    TOTEN  =       -14.20407097 eV

  energy without entropy =      -14.20668311  energy(sigma->0) =      -14.20494168


--------------------------------------------------------------------------------------------------------




--------------------------------------- Iteration      1(   8)  ---------------------------------------


    POTLOK:  cpu time    0.0011: real time    0.0011
    SETDIJ:  cpu time    0.0010: real time    0.0010
     EDDAV:  cpu time    0.0319: real time    0.0320
       DOS:  cpu time    0.0005: real time    0.0004
    CHARGE:  cpu time    0.0010: real time    0.0010
    MIXING:  cpu time    0.0001: real time    0.0001
    --------------------------------------------
      LOOP:  cpu time    0.0356: real time    0.0356

 eigenvalue-minimisations  :   824
 total energy-change (2. order) : 0.2203654E-02  (-0.4515205E-03)
 number of electron       5.9999971 magnetization 
 augmentation part        0.6880619 magnetization 

 Broyden mixing:
  rms(total) = 0.55173E-02    rms(broyden)= 0.55055E-02
  rms(prec ) = 0.24044E-01
  weight for this iteration     100.00

 eigenvalues of (default mixing * dielectric matrix)
  average eigenvalue GAMMA=   1.8386
  1.2169  1.8689  2.4299

 Free energy of the ion-electron system (eV)
  ---------------------------------------------------
  alpha Z        PSCENC =        46.86189923
  Ewald energy   TEWEN  =      -304.28237681
  -Hartree energ DENC   =        -2.02318251
  -exchange      EXHF   =         0.00000000
  -V(xc)+E(xc)   XCENC  =       -46.77230479
  PAW double counting   =       254.66147394     -198.65116156
  entropy T*S    EENTRO =         0.00255510
  eigenvalues    EBANDS =        29.49337174
  atomic energy  EATOM  =       206.50785835
  Solvation  Ediel_sol  =         0.00000000
  ---------------------------------------------------
  free energy    TOTEN  =       -14.20186732 eV

  energy without entropy =      -14.20442241  energy(sigma->0) =      -14.20271901


--------------------------------------------------------------------------------------------------------




--------------------------------------- Iteration      1(   9)  ---------------------------------------


    POTLOK:  cpu time    0.0010: real time    0.0011
    SETDIJ:  cpu time    0.0010: real time    0.0010
     EDDAV:  cpu time    0.0259: real time    0.0259
       DOS:  cpu time    0.0003: real time    0.0004
    CHARGE:  cpu time    0.0011: real time    0.0011
    MIXING:  cpu time    0.0003: real time    0.0002
    --------------------------------------------
      LOOP:  cpu time    0.0297: real time    0.0298

 eigenvalue-minimisations  :   720
 total energy-change (2. order) : 0.1420544E-03  (-0.4023605E-04)
 number of electron       5.9999971 magnetization 
 augmentation part        0.6890209 magnetization 

 Broyden mixing:
  rms(total) = 0.51167E-03    rms(broyden)= 0.49645E-03
  rms(prec ) = 0.13033E-02
  weight for this iteration     100.00

 eigenvalues of (default mixing * dielectric matrix)
  average eigenvalue GAMMA=   1.9776
  0.9902  2.4464  2.4464  2.0275

 Free energy of the ion-electron system (eV)
  ---------------------------------------------------
  alpha Z        PSCENC =        46.86189923
  Ewald energy   TEWEN  =      -304.28237681
  -Hartree energ DENC   =        -1.98677640
  -exchange      EXHF   =         0.00000000
  -V(xc)+E(xc)   XCENC  =       -46.76475341
  PAW double counting   =       254.79062712     -198.78794382
  entropy T*S    EENTRO =         0.00259762
  eigenvalues    EBANDS =        29.45714286
  atomic energy  EATOM  =       206.50785835
  Solvation  Ediel_sol  =         0.00000000
  ---------------------------------------------------
  free energy    TOTEN  =       -14.20172526 eV

  energy without entropy =      -14.20432288  energy(sigma->0) =      -14.20259113


--------------------------------------------------------------------------------------------------------




--------------------------------------- Iteration      1(  10)  ---------------------------------------


    POTLOK:  cpu time    0.0010: real time    0.0010
    SETDIJ:  cpu time    0.0010: real time    0.0010
     EDDAV:  cpu time    0.0136: real time    0.0137
       DOS:  cpu time    0.0004: real time    0.0004
    --------------------------------------------
      LOOP:  cpu time    0.0160: real time    0.0161

 eigenvalue-minimisations  :   352
 total energy-change (2. order) :-0.2037879E-05  (-0.4010698E-06)
 number of electron       5.9999971 magnetization 
 augmentation part        0.6890209 magnetization 

 Free energy of the ion-electron system (eV)
  ---------------------------------------------------
  alpha Z        PSCENC =        46.86189923
  Ewald energy   TEWEN  =      -304.28237681
  -Hartree energ DENC   =        -1.98713430
  -exchange      EXHF   =         0.00000000
  -V(xc)+E(xc)   XCENC  =       -46.76488859
  PAW double counting   =       255.01398061     -199.00549394
  entropy T*S    EENTRO =         0.00259988
  eigenvalues    EBANDS =        29.45182826
  atomic energy  EATOM  =       206.50785835
  Solvation  Ediel_sol  =         0.00000000
  ---------------------------------------------------
  free energy    TOTEN  =       -14.20172730 eV

  energy without entropy =      -14.20432718  energy(sigma->0) =      -14.20259393


--------------------------------------------------------------------------------------------------------




 average (electrostatic) potential at core
  the test charge radii are     1.1823
  (the norm of the test charge is              1.0000)
       1 -37.3035
 
 
 
 E-fermi :   8.4043     XC(G=0): -13.5600     alpha+bet :-15.6609


 k-point     1 :       0.0500    0.0500    0.0500
  band No.  band energies     occupation 
      1      -0.6141      2.00000
      2       6.7897      2.00000
      3       6.7897      2.00000
      4       8.0746      2.04170
      5      10.6084     -0.00000
      6      10.6084     -0.00000
      7      24.4633      0.00000
      8      25.5199      0.00000

 k-point     2 :       0.1500    0.0500    0.0500
  band No.  band energies     occupation 
      1       0.6557      2.00000
      2       6.0411      2.00000
      3       6.3386      2.00000
      4       9.6901     -0.00000
      5      10.2494     -0.00000
      6      10.9136     -0.00000
      7      25.0953      0.00000
      8      26.8601      0.00000

 k-point     3 :       0.2500    0.0500    0.0500
  band No.  band energies     occupation 
      1       1.9320      2.00000
      2       5.3068      2.00000
      3       6.3652      2.00000
      4      10.4998     -0.00000
      5      11.2788     -0.00000
      6      12.0367     -0.00000
      7      23.6221      0.00000
      8      24.7929      0.00000

 k-point     4 :       0.3500    0.0500    0.0500
  band No.  band energies     occupation 
      1       2.2079      2.00000
      2       4.8033      2.00000
      3       7.8752      2.00118
      4      10.9162     -0.00000
      5      11.6743     -0.00000
      6      14.5252      0.00000
      7      21.6537      0.00000
      8      21.7648      0.00000

 k-point     5 :       0.4500    0.0500    0.0500
  band No.  band energies     occupation 
      1       2.1343      2.00000
      2       4.6256      2.00000
      3       9.1479     -0.00000
      4      10.9077     -0.00000
      5      11.8689     -0.00000
      6      15.8051      0.00000
      7      20.1713      0.00000
      8      21.0132      0.00000

 k-point     6 :      -0.0500    0.0500    0.0500
  band No.  band energies     occupation 
      1      -1.0977      2.00000
      2       7.1425      2.00000
      3       7.1426      2.00000
      4       7.2826      2.00000
      5      10.4579     -0.00000
      6      11.0066     -0.00000
      7      24.4406      0.00000
      8      24.4407      0.00000

 k-point     7 :       0.1500    0.1500    0.0500
  band No.  band energies     occupation 
      1       2.0374      2.00000
      2       5.5439      2.00000
      3       5.6038      2.00000
      4      10.3346     -0.00000
      5      11.3248     -0.00000
      6      12.0024     -0.00000
      7      24.8391      0.00000
      8      25.8695      0.00000

 k-point     8 :       0.2500    0.1500    0.0500
  band No.  band energies     occupation 
      1       2.9856      2.00000
      2       5.0092      2.00000
      3       6.0915      2.00000
      4      10.6833     -0.00000
      5      11.7156     -0.00000
      6      14.6932      0.00000
      7      22.0864      0.00000
      8      23.9033      0.00000

 k-point     9 :       0.3500    0.1500    0.0500
  band No.  band energies     occupation 
      1       2.9678      2.00000
      2       4.7579      2.00000
      3       7.5804      2.00000
      4      11.0126     -0.00000
      5      11.9665     -0.00000
      6      16.8874      0.00000
      7      19.3831      0.00000
      8      22.2854      0.00000

 k-point    10 :      -0.1500    0.1500    0.0500
  band No.  band energies     occupation 
      1      -0.1524      2.00000
      2       6.6336      2.00000
      3       6.9512      2.00000
      4       8.2477      1.97095
      5       9.6959     -0.00000
      6      11.2197     -0.00000
      7      25.0845      0.00000
      8      26.1050      0.00000

 k-point    11 :       0.2500    0.2500    0.0500
  band No.  band energies     occupation 
      1       3.6767      2.00000
      2       5.1137      2.00000
      3       6.2283      2.00000
      4      11.0426     -0.00000
      5      11.8724     -0.00000
      6      17.4790      0.00000
      7      19.1682      0.00000
      8      23.3550      0.00000

 k-point    12 :       0.3500    0.2500    0.0500
  band No.  band energies     occupation 
      1       3.7469      2.00000
      2       5.2464      2.00000
      3       6.5614      2.00000
      4      11.3376     -0.00000
      5      11.9157     -0.00000
      6      17.5475      0.00000
      7      19.2841      0.00000
      8      21.9728      0.00000

 k-point    13 :      -0.2500    0.2500    0.0500
  band No.  band energies     occupation 
      1       1.2625      2.00000
      2       5.8640      2.00000
      3       6.5337      2.00000
      4       9.7346     -0.00000
      5      10.1445     -0.00000
      6      11.4481     -0.00000
      7      24.3333      0.00000
      8      26.4009      0.00000

 k-point    14 :      -0.1500    0.2500    0.0500
  band No.  band energies     occupation 
      1       1.0614      2.00000
      2       6.3676      2.00000
      3       6.4110      2.00000
      4       9.0724     -0.00002
      5       9.5949     -0.00000
      6      11.6784     -0.00000
      7      25.4965      0.00000
      8      26.2893      0.00000

 k-point    15 :      -0.3500    0.3500    0.0500
  band No.  band energies     occupation 
      1       2.0337      2.00000
      2       5.1945      2.00000
      3       7.1399      2.00000
      4      10.4196     -0.00000
      5      11.7359     -0.00000
      6      12.6266     -0.00000
      7      22.2628      0.00000
      8      23.8018      0.00000

 k-point    16 :      -0.2500    0.3500    0.0500
  band No.  band energies     occupation 
      1       2.3234      2.00000
      2       5.6049      2.00000
      3       6.2511      2.00000
      4       9.4477     -0.00000
      5      11.6809     -0.00000
      6      12.1728     -0.00000
      7      23.1543      0.00000
      8      26.0685      0.00000

 k-point    17 :      -0.4500    0.4500    0.0500
  band No.  band energies     occupation 
      1       2.0077      2.00000
      2       4.8193      2.00000
      3       8.6265     -0.06630
      4      10.6166     -0.00000
      5      12.3199     -0.00000
      6      14.8259      0.00000
      7      20.8449      0.00000
      8      21.5126      0.00000

 k-point    18 :      -0.3500    0.4500    0.0500
  band No.  band energies     occupation 
      1       2.6193      2.00000
      2       5.2114      2.00000
      3       6.9865      2.00000
      4      10.1308     -0.00000
      5      12.2314     -0.00000
      6      14.6283      0.00000
      7      21.2503      0.00000
      8      23.5859      0.00000

 k-point    19 :      -0.2500    0.4500    0.0500
  band No.  band energies     occupation 
      1       3.3063      2.00000
      2       5.0428      2.00000
      3       6.3787      2.00000
      4       9.8029     -0.00000
      5      11.8430     -0.00000
      6      14.8315      0.00000
      7      21.4793      0.00000
      8      25.4375      0.00000

 k-point    20 :      -0.4500   -0.4500    0.0500
  band No.  band energies     occupation 
      1       2.5343      2.00000
      2       5.0781      2.00000
      3       7.6685      2.00000
      4      10.0721     -0.00000
      5      12.9725     -0.00000
      6      16.0902      0.00000
      7      19.9263      0.00000
      8      22.5924      0.00000

 k-point    21 :      -0.3500   -0.4500    0.0500
  band No.  band energies     occupation 
      1       3.5252      2.00000
      2       5.1205      2.00000
      3       6.4046      2.00000
      4      10.3800     -0.00000
      5      12.1853     -0.00000
      6      17.6278      0.00000
      7      19.1894      0.00000
      8      23.3571      0.00000

 k-point    22 :      -0.3500   -0.3500    0.0500
  band No.  band energies     occupation 
      1       4.1053      2.00000
      2       5.4478      2.00000
      3       5.4478      2.00000
      4      11.4997     -0.00000
      5      11.4998     -0.00000
      6      17.8128      0.00000
      7      20.8341      0.00000
      8      20.8343      0.00000

 k-point    23 :       0.1500    0.1500    0.1500
  band No.  band energies     occupation 
      1       3.5649      2.00000
      2       5.0295      2.00000
      3       5.0295      2.00000
      4      11.2733     -0.00000
      5      11.2733     -0.00000
      6      14.8414      0.00000
      7      23.3448      0.00000
      8      24.6119      0.00000

 k-point    24 :       0.2500    0.1500    0.1500
  band No.  band energies     occupation 
      1       4.0767      2.00000
      2       4.7768      2.00000
      3       6.0138      2.00000
      4      11.4739     -0.00000
      5      11.8057     -0.00000
      6      17.4717      0.00000
      7      19.3788      0.00000
      8      23.1117      0.00000

 k-point    25 :       0.3500    0.1500    0.1500
  band No.  band energies     occupation 
      1       3.9424      2.00000
      2       4.7054      2.00000
      3       7.0903      2.00000
      4      11.5663     -0.00000
      5      11.9727     -0.00000
      6      17.5676      0.00000
      7      18.7048      0.00000
      8      22.5328      0.00000

 k-point    26 :      -0.1500    0.1500    0.1500
  band No.  band energies     occupation 
      1       0.7455      2.00000
      2       7.1743      2.00000
      3       7.1744      2.00000
      4       8.0769      2.04273
      5       8.2324      2.00741
      6      11.9052     -0.00000
      7      26.7667      0.00000
      8      27.1013      0.00000

 k-point    27 :       0.2500    0.2500    0.1500
  band No.  band energies     occupation 
      1       4.4858      2.00000
      2       5.3253      2.00000
      3       6.0501      2.00000
      4      11.8146     -0.00000
      5      11.9669     -0.00000
      6      16.8524      0.00000
      7      19.8439      0.00000
      8      22.1080      0.00000

 k-point    28 :      -0.2500    0.2500    0.1500
  band No.  band energies     occupation 
      1       2.1028      2.00000
      2       6.2960      2.00000
      3       6.7739      2.00000
      4       8.2118      2.04153
      5       9.8455     -0.00000
      6      12.2125     -0.00000
      7      24.0904      0.00000
      8      27.9256      0.00000

 k-point    29 :      -0.3500    0.3500    0.1500
  band No.  band energies     occupation 
      1       2.8863      2.00000
      2       5.8606      2.00000
      3       6.1955      2.00000
      4       9.2227     -0.00000
      5      12.3286     -0.00000
      6      12.5891     -0.00000
      7      22.5060      0.00000
      8      26.1213      0.00000

 k-point    30 :      -0.2500    0.3500    0.1500
  band No.  band energies     occupation 
      1       3.2376      2.00000
      2       5.2157      2.00000
      3       7.0531      2.00000
      4       8.5534      0.05034
      5      11.3197     -0.00000
      6      12.6622     -0.00000
      7      23.1217      0.00000
      8      27.9389      0.00000

 k-point    31 :      -0.4500    0.4500    0.1500
  band No.  band energies     occupation 
      1       2.7853      2.00000
      2       5.8569      2.00000
      3       6.4893      2.00000
      4       9.1783     -0.00000
      5      14.2613      0.00000
      6      14.5949      0.00000
      7      20.7454      0.00000
      8      24.3208      0.00000

 k-point    32 :      -0.3500    0.4500    0.1500
  band No.  band energies     occupation 
      1       3.5820      2.00000
      2       4.9869      2.00000
      3       6.6221      2.00000
      4       9.3312     -0.00000
      5      12.4015     -0.00000
      6      15.0905      0.00000
      7      21.5498      0.00000
      8      25.4624      0.00000

 k-point    33 :      -0.4500   -0.4500    0.1500
  band No.  band energies     occupation 
      1       3.4049      2.00000
      2       5.5537      2.00000
      3       6.0586      2.00000
      4       9.3624     -0.00000
      5      13.6061     -0.00000
      6      17.1948      0.00000
      7      19.4679      0.00000
      8      23.8100      0.00000

 k-point    34 :      -0.3500   -0.4500    0.1500
  band No.  band energies     occupation 
      1       4.3679      2.00000
      2       4.4722      2.00000
      3       5.7949      2.00000
      4      10.8056     -0.00000
      5      12.2335     -0.00000
      6      18.2221      0.00000
      7      19.4905      0.00000
      8      22.6520      0.00000

 k-point    35 :       0.2500    0.2500    0.2500
  band No.  band energies     occupation 
      1       5.4410      2.00000
      2       5.4410      2.00000
      3       5.4411      2.00000
      4      12.0462     -0.00000
      5      12.0462     -0.00000
      6      15.9050      0.00000
      7      21.7249      0.00000
      8      21.7250      0.00000

 k-point    36 :      -0.2500    0.2500    0.2500
  band No.  band energies     occupation 
      1       3.2328      2.00000
      2       5.3940      2.00000
      3       7.9689      2.00867
      4       7.9690      2.00869
      5       9.9831     -0.00000
      6      12.3286     -0.00000
      7      23.9205      0.00000
      8      29.4324      0.00000

 k-point    37 :      -0.3500    0.3500    0.2500
  band No.  band energies     occupation 
      1       3.7796      2.00000
      2       4.4368      2.00000
      3       8.0325      2.02456
      4       8.7743     -0.02515
      5      11.9534     -0.00000
      6      12.9148     -0.00000
      7      23.8051      0.00000
      8      26.7507      0.00000

 k-point    38 :      -0.4500    0.4500    0.2500
  band No.  band energies     occupation 
      1       3.3826      2.00000
      2       4.5322      2.00000
      3       7.8270      2.00035
      4       8.7497     -0.03474
      5      14.2382      0.00000
      6      15.5379      0.00000
      7      20.7231      0.00000
      8      23.9426      0.00000

 k-point    39 :      -0.3500    0.4500    0.2500
  band No.  band energies     occupation 
      1       3.6296      2.00000
      2       3.8755      2.00000
      3       7.9538      2.00652
      4      10.2123     -0.00000
      5      12.5844     -0.00000
      6      15.3365      0.00000
      7      21.8569      0.00000
      8      23.7972      0.00000

 k-point    40 :      -0.4500   -0.4500    0.2500
  band No.  band energies     occupation 
      1       3.3826      2.00000
      2       3.8149      2.00000
      3       7.6940      2.00001
      4      10.8450     -0.00000
      5      13.4547     -0.00000
      6      18.3049      0.00000
      7      19.0096      0.00000
      8      21.7457      0.00000

 k-point    41 :      -0.3500    0.3500    0.3500
  band No.  band energies     occupation 
      1       3.3701      2.00000
      2       3.6157      2.00000
      3       9.9847     -0.00000
      4       9.9848     -0.00000
      5      12.1583     -0.00000
      6      13.4317     -0.00000
      7      24.1026      0.00000
      8      24.1027      0.00000

 k-point    42 :      -0.4500    0.4500    0.3500
  band No.  band energies     occupation 
      1       2.8577      2.00000
      2       3.1413      2.00000
      3      10.4841     -0.00000
      4      10.6664     -0.00000
      5      13.9037      0.00000
      6      15.9967      0.00000
      7      20.3618      0.00000
      8      21.4886      0.00000

 k-point    43 :      -0.4500   -0.4500    0.3500
  band No.  band energies     occupation 
      1       2.6956      2.00000
      2       2.6956      2.00000
      3      10.5214     -0.00000
      4      13.1925     -0.00000
      5      13.1928     -0.00000
      6      18.7738      0.00000
      7      18.7739      0.00000
      8      18.7897      0.00000

 k-point    44 :      -0.4500    0.4500    0.4500
  band No.  band energies     occupation 
      1       2.3105      2.00000
      2       2.3928      2.00000
      3      13.0846     -0.00000
      4      13.0847     -0.00000
      5      13.8688      0.00000
      6      16.7168      0.00000
      7      18.8650      0.00000
      8      18.8651      0.00000


--------------------------------------------------------------------------------------------------------


 soft charge-density along one line, spin component           1
         0         1         2         3         4         5         6         7         8         9
 total charge-density along one line
 
 pseudopotential strength for first ion, spin component:           1
 -6.672   0.000   0.000   0.000   0.000   0.000   0.000   0.000  -0.000   0.000   0.138   0.000   0.000   0.000   0.000   0.000
  0.000   0.000  -6.672   0.000  -0.000   0.000   0.000   0.000   0.000   0.000   0.000   0.000   0.138   0.000  -0.000   0.000
  0.000   0.000  -0.000   0.000  -6.698   0.000  -0.000   0.000   0.000   0.000   0.000   0.000  -0.000   0.000   0.137   0.000
  0.000   0.000   0.000   0.000  -0.000   0.000  -6.672   0.000  -0.000   0.000   0.000   0.000   0.000   0.000  -0.000   0.000
 -0.000   0.000   0.000   0.000   0.000   0.000  -0.000   0.000  -6.698   0.000  -0.000   0.000   0.000   0.000   0.000   0.000
  0.138   0.000   0.000   0.000   0.000   0.000   0.000   0.000  -0.000   0.000   0.085   0.000  -0.000   0.000  -0.000   0.000
  0.000   0.000   0.138   0.000  -0.000   0.000   0.000   0.000   0.000   0.000  -0.000   0.000   0.085   0.000   0.000   0.000
  0.000   0.000  -0.000   0.000   0.137   0.000  -0.000   0.000   0.000   0.000  -0.000   0.000   0.000   0.000   0.085   0.000
  0.000   0.000   0.000   0.000  -0.000   0.000   0.138   0.000  -0.000   0.000  -0.000   0.000  -0.000   0.000   0.000   0.000
 -0.000   0.000   0.000   0.000   0.000   0.000  -0.000   0.000   0.137   0.000   0.000   0.000  -0.000   0.000   0.000   0.000
 -0.000   0.000  -0.000   0.000  -0.000   0.000  -0.000   0.000   0.000   0.000  -0.000   0.000  -0.000   0.000  -0.000   0.000
  0.000   0.000   0.000   0.000   0.000   0.000   0.000   0.000  -0.000   0.000   0.000   0.000   0.000   0.000   0.000   0.000
 -0.000   0.000   0.000   0.000  -0.000   0.000   0.000   0.000  -0.000   0.000  -0.000   0.000   0.000   0.000   0.000   0.000
  0.000   0.000  -0.000   0.000   0.000   0.000  -0.000   0.000   0.000   0.000  -0.000   0.000   0.000   0.000   0.000   0.000
  0.000   0.000   0.000   0.000   0.000   0.000   0.000   0.000  -0.000   0.000   0.000   0.000  -0.000   0.000   0.000   0.000
  0.000   0.000  -0.000   0.000   0.000   0.000  -0.000   0.000   0.000   0.000   0.000   0.000  -0.000   0.000   0.000   0.000
 -0.000   0.000   0.000   0.000  -0.000   0.000   0.000   0.000  -0.000   0.000   0.000   0.000  -0.000   0.000  -0.000   0.000
 -0.000   0.000  -0.000   0.000  -0.000   0.000  -0.000   0.000   0.000   0.000  -0.000   0.000   0.000   0.000  -0.000   0.000
 total augmentation occupancy for first ion, spin component:           1
  1.085  -0.000   0.000   0.000  -0.000  -0.804   0.000  -0.000   0.000   0.000  -0.000   0.000   0.000   0.000   0.000   0.000
 -0.000   1.085  -0.000  -0.000   0.000  -0.000  -0.804   0.000   0.000   0.000   0.000   0.000   0.000   0.000   0.000   0.000
  0.000   0.000   0.700   0.000   0.000   0.000   0.000  -0.703   0.000   0.000  -0.000  -0.000   0.000   0.000   0.000   0.000
  0.000  -0.000  -0.000   1.085   0.000   0.000  -0.000  -0.000  -0.804  -0.000  -0.000   0.000   0.000   0.000   0.000   0.000
 -0.000   0.000   0.000   0.000   0.700   0.000   0.000  -0.000  -0.000  -0.703   0.000  -0.000   0.000   0.000   0.000   0.000
 -0.804  -0.000   0.000  -0.000   0.000   0.745  -0.000  -0.000   0.000  -0.000  -0.000  -0.000   0.000   0.000   0.000   0.000
 -0.000  -0.804   0.000   0.000   0.000  -0.000   0.745   0.000  -0.000   0.000  -0.000   0.000   0.000   0.000   0.000   0.000
  0.000  -0.000  -0.703   0.000   0.000   0.000   0.000   0.808   0.000  -0.000   0.000  -0.000   0.000   0.000   0.000   0.000
 -0.000   0.000   0.000  -0.804  -0.000   0.000  -0.000  -0.000   0.745   0.000   0.000   0.000   0.000   0.000   0.000   0.000
  0.000   0.000   0.000  -0.000  -0.703  -0.000   0.000   0.000   0.000   0.808   0.000   0.000   0.000   0.000   0.000   0.000
 -0.000   0.000   0.000  -0.000   0.000  -0.000  -0.000   0.000  -0.000   0.000   1.498  -0.304   0.000   0.000   0.000   0.000
  0.000   0.000  -0.000  -0.000  -0.000  -0.000   0.000  -0.000   0.000  -0.000  -0.304   0.080   0.000   0.000   0.000   0.000
  0.000   0.000   0.000   0.000   0.000   0.000   0.000   0.000   0.000   0.000   0.000   0.000   0.300  -0.000   0.000  -0.019
  0.000   0.000   0.000   0.000   0.000   0.000   0.000   0.000   0.000   0.000   0.000   0.000  -0.000   0.300   0.000   0.000
  0.000   0.000   0.000   0.000   0.000   0.000   0.000   0.000   0.000   0.000   0.000   0.000   0.000   0.000   0.300  -0.000
  0.000   0.000   0.000   0.000   0.000   0.000   0.000   0.000   0.000   0.000   0.000   0.000  -0.019  -0.000   0.000   0.001
  0.000   0.000   0.000   0.000   0.000   0.000   0.000   0.000   0.000   0.000   0.000   0.000   0.000  -0.019   0.000   0.000
  0.000   0.000   0.000   0.000   0.000   0.000   0.000   0.000   0.000   0.000   0.000   0.000  -0.000   0.000  -0.019   0.000


------------------------ aborting loop because EDIFF is reached ----------------------------------------


    CHARGE:  cpu time    0.0011: real time    0.0012
    FORLOC:  cpu time    0.0001: real time    0.0001
    FORNL :  cpu time    0.0021: real time    0.0021
    STRESS:  cpu time    0.0144: real time    0.0144
    FORCOR:  cpu time    0.0003: real time    0.0004
    FORHAR:  cpu time    0.0003: real time    0.0003
    MIXING:  cpu time    0.0003: real time    0.0002
    OFIELD:  cpu time    0.0000: real time    0.0000

  FORCE on cell =-STRESS in cart. coord.  units (eV):
  Direction    XX          YY          ZZ          XY          YZ          ZX
  --------------------------------------------------------------------------------------
  Alpha Z    46.86190    46.86190    46.86190
  Ewald    -101.42746  -101.42746  -101.42746    -0.00000     0.00000    -0.00000
  Hartree     0.66303     0.66303     0.66303    -0.00000    -0.00000    -0.00000
  E(xc)     -27.90814   -27.90814   -27.90814    -0.00000    -0.00000    -0.00000
  Local       8.83593     8.83593     8.83593    -0.00013    -0.00013    -0.00013
  n-local   -12.31835   -10.50109   -10.04846     1.72162    -1.96869    -3.57751
  augment     5.15645     5.15645     5.15645     0.00001     0.00001     0.00001
  Kinetic    77.47406    78.59048    82.44423    -0.95309     3.29776     1.91304
  Fock        0.00000     0.00000     0.00000     0.00000     0.00000     0.00000
  -------------------------------------------------------------------------------------
  Total       0.72868     0.72868     0.72868    -0.00000    -0.00000     0.00000
  in kB      78.37817    78.37817    78.37817    -0.00000    -0.00000     0.00000
  external pressure =       78.38 kB  Pullay stress =        0.00 kB


 VOLUME and BASIS-vectors are now :
 -----------------------------------------------------------------------------
  energy-cutoff  :      224.00
  volume of cell :       14.90
      direct lattice vectors                 reciprocal lattice vectors
    -1.550000000  1.550000000  1.550000000     0.000000000  0.322580645  0.322580645
     1.550000000 -1.550000000  1.550000000     0.322580645  0.000000000  0.322580645
     1.550000000  1.550000000 -1.550000000     0.322580645  0.322580645  0.000000000

  length of vectors
     2.684678752  2.684678752  2.684678752     0.456197923  0.456197923  0.456197923


 FORCES acting on ions
    electron-ion (+dipol)            ewald-force                    non-local-force                 convergence-correction
 -----------------------------------------------------------------------------------------------
   0.476E-14 0.557E-14 0.543E-14   0.119E-15 -.531E-15 -.352E-16   0.910E-23 -.248E-23 0.910E-23   0.940E-15 -.251E-15 -.239E-15
 -----------------------------------------------------------------------------------------------
   0.476E-14 0.557E-14 0.543E-14   0.119E-15 -.531E-15 -.352E-16   0.910E-23 -.248E-23 0.910E-23   0.940E-15 -.251E-15 -.239E-15
 
 
 POSITION                                       TOTAL-FORCE (eV/Angst)
 -----------------------------------------------------------------------------------
      0.00000      0.00000      0.00000         0.000000      0.000000      0.000000
 -----------------------------------------------------------------------------------
    total drift:                                0.000000      0.000000      0.000000


--------------------------------------------------------------------------------------------------------



  FREE ENERGIE OF THE ION-ELECTRON SYSTEM (eV)
  ---------------------------------------------------
  free  energy   TOTEN  =       -14.20172730 eV

  energy  without entropy=      -14.20432718  energy(sigma->0) =      -14.20259393
 


--------------------------------------------------------------------------------------------------------


    POTLOK:  cpu time    0.0020: real time    0.0020


--------------------------------------------------------------------------------------------------------


 writing wavefunctions
     LOOP+:  cpu time    0.3624: real time    0.3686
    4ORBIT:  cpu time    0.0000: real time    0.0000

 total amount of memory used by VASP MPI-rank0    31308. kBytes
=======================================================================

   base      :      30000. kBytes
   nonl-proj :        762. kBytes
   fftplans  :        142. kBytes
   grid      :        192. kBytes
   one-center:         15. kBytes
   wavefun   :        197. kBytes
 
  
  
 General timing and accounting informations for this job:
 ========================================================
  
                  Total CPU time used (sec):        0.540
                            User time (sec):        0.438
                          System time (sec):        0.103
                         Elapsed time (sec):        0.608
  
                   Maximum memory used (kb):       56316.
                   Average memory used (kb):           0.
  
                          Minor page faults:         7289
                          Major page faults:            0
                 Voluntary context switches:          638
