<?xml version="1.0" encoding="ISO-8859-1"?>
<modeling>
 <generator>
  <i name="program" type="string">vasp </i>
  <i name="version" type="string">5.4.4.18Apr17-6-g9f103f2a35  </i>
  <i name="subversion" type="string">(build Jul 01 2019 03:25:34) complex            parallel </i>
  <i name="platform" type="string">LinuxIFC </i>
  <i name="date" type="string">2020 07 08 </i>
  <i name="time" type="string">19:51:30 </i>
 </generator>
 <incar>
  <i type="string" name="SYSTEM"> BCC W</i>
  <i type="string" name="PREC">normal</i>
  <i name="EDIFF">      0.00010000</i>
  <i name="ENCUT">    224.00000000</i>
  <v type="int" name="KPOINT_BSE">    -1     0     0     0</v>
 </incar>
 <structure name="primitive_cell" >
  <crystal>
   <varray name="basis" >
    <v>      -1.55000000       1.55000000       1.55000000 </v>
    <v>       1.55000000      -1.55000000       1.55000000 </v>
    <v>       1.55000000       1.55000000      -1.55000000 </v>
   </varray>
   <i name="volume">     14.89550000 </i>
   <varray name="rec_basis" >
    <v>       0.00000000       0.32258065       0.32258065 </v>
    <v>       0.32258065       0.00000000       0.32258065 </v>
    <v>       0.32258065       0.32258065       0.00000000 </v>
   </varray>
  </crystal>
  <varray name="positions" >
   <v>       0.00000000       0.00000000       0.00000000 </v>
  </varray>
 </structure>
 <varray name="primitive_index" >
  <v type="int" >        1 </v>
 </varray>
 <kpoints>
  <generation param="Monkhorst-Pack">
   <v type="int" name="divisions">      10       10       10 </v>
   <v name="usershift">      0.00000000       0.00000000       0.00000000 </v>
   <v name="genvec1">      0.10000000       0.00000000       0.00000000 </v>
   <v name="genvec2">      0.00000000       0.10000000       0.00000000 </v>
   <v name="genvec3">      0.00000000       0.00000000       0.10000000 </v>
   <v name="shift">      0.50000000       0.50000000       0.50000000 </v>
  </generation>
  <varray name="kpointlist" >
   <v>       0.05000000       0.05000000       0.05000000 </v>
   <v>       0.15000000       0.05000000       0.05000000 </v>
   <v>       0.25000000       0.05000000       0.05000000 </v>
   <v>       0.35000000       0.05000000       0.05000000 </v>
   <v>       0.45000000       0.05000000       0.05000000 </v>
   <v>      -0.05000000       0.05000000       0.05000000 </v>
   <v>       0.15000000       0.15000000       0.05000000 </v>
   <v>       0.25000000       0.15000000       0.05000000 </v>
   <v>       0.35000000       0.15000000       0.05000000 </v>
   <v>      -0.15000000       0.15000000       0.05000000 </v>
   <v>       0.25000000       0.25000000       0.05000000 </v>
   <v>       0.35000000       0.25000000       0.05000000 </v>
   <v>      -0.25000000       0.25000000       0.05000000 </v>
   <v>      -0.15000000       0.25000000       0.05000000 </v>
   <v>      -0.35000000       0.35000000       0.05000000 </v>
   <v>      -0.25000000       0.35000000       0.05000000 </v>
   <v>      -0.45000000       0.45000000       0.05000000 </v>
   <v>      -0.35000000       0.45000000       0.05000000 </v>
   <v>      -0.25000000       0.45000000       0.05000000 </v>
   <v>      -0.45000000      -0.45000000       0.05000000 </v>
   <v>      -0.35000000      -0.45000000       0.05000000 </v>
   <v>      -0.35000000      -0.35000000       0.05000000 </v>
   <v>       0.15000000       0.15000000       0.15000000 </v>
   <v>       0.25000000       0.15000000       0.15000000 </v>
   <v>       0.35000000       0.15000000       0.15000000 </v>
   <v>      -0.15000000       0.15000000       0.15000000 </v>
   <v>       0.25000000       0.25000000       0.15000000 </v>
   <v>      -0.25000000       0.25000000       0.15000000 </v>
   <v>      -0.35000000       0.35000000       0.15000000 </v>
   <v>      -0.25000000       0.35000000       0.15000000 </v>
   <v>      -0.45000000       0.45000000       0.15000000 </v>
   <v>      -0.35000000       0.45000000       0.15000000 </v>
   <v>      -0.45000000      -0.45000000       0.15000000 </v>
   <v>      -0.35000000      -0.45000000       0.15000000 </v>
   <v>       0.25000000       0.25000000       0.25000000 </v>
   <v>      -0.25000000       0.25000000       0.25000000 </v>
   <v>      -0.35000000       0.35000000       0.25000000 </v>
   <v>      -0.45000000       0.45000000       0.25000000 </v>
   <v>      -0.35000000       0.45000000       0.25000000 </v>
   <v>      -0.45000000      -0.45000000       0.25000000 </v>
   <v>      -0.35000000       0.35000000       0.35000000 </v>
   <v>      -0.45000000       0.45000000       0.35000000 </v>
   <v>      -0.45000000      -0.45000000       0.35000000 </v>
   <v>      -0.45000000       0.45000000       0.45000000 </v>
  </varray>
  <varray name="weights" >
   <v>       0.00800000 </v>
   <v>       0.02400000 </v>
   <v>       0.02400000 </v>
   <v>       0.02400000 </v>
   <v>       0.01200000 </v>
   <v>       0.00600000 </v>
   <v>       0.02400000 </v>
   <v>       0.04800000 </v>
   <v>       0.04800000 </v>
   <v>       0.02400000 </v>
   <v>       0.02400000 </v>
   <v>       0.02400000 </v>
   <v>       0.02400000 </v>
   <v>       0.02400000 </v>
   <v>       0.02400000 </v>
   <v>       0.04800000 </v>
   <v>       0.02400000 </v>
   <v>       0.04800000 </v>
   <v>       0.02400000 </v>
   <v>       0.02400000 </v>
   <v>       0.04800000 </v>
   <v>       0.00800000 </v>
   <v>       0.00800000 </v>
   <v>       0.02400000 </v>
   <v>       0.01200000 </v>
   <v>       0.00600000 </v>
   <v>       0.02400000 </v>
   <v>       0.02400000 </v>
   <v>       0.02400000 </v>
   <v>       0.02400000 </v>
   <v>       0.02400000 </v>
   <v>       0.04800000 </v>
   <v>       0.02400000 </v>
   <v>       0.02400000 </v>
   <v>       0.00200000 </v>
   <v>       0.00600000 </v>
   <v>       0.02400000 </v>
   <v>       0.02400000 </v>
   <v>       0.02400000 </v>
   <v>       0.02400000 </v>
   <v>       0.00600000 </v>
   <v>       0.02400000 </v>
   <v>       0.00800000 </v>
   <v>       0.00600000 </v>
  </varray>
 </kpoints>
 <parameters>
  <separator name="general" >
   <i type="string" name="SYSTEM">BCC W</i>
   <i type="logical" name="LCOMPAT"> F  </i>
  </separator>
  <separator name="electronic" >
   <i type="string" name="PREC">normal</i>
   <i name="ENMAX">    224.00000000</i>
   <i name="ENAUG">    373.43800000</i>
   <i name="EDIFF">      0.00010000</i>
   <i type="int" name="IALGO">    38</i>
   <i type="int" name="IWAVPR">    10</i>
   <i type="int" name="NBANDS">     8</i>
   <i name="NELECT">      6.00000000</i>
   <i type="int" name="TURBO">     0</i>
   <i type="int" name="IRESTART">     0</i>
   <i type="int" name="NREBOOT">     0</i>
   <i type="int" name="NMIN">     0</i>
   <i name="EREF">      0.00000000</i>
   <separator name="electronic smearing" >
    <i type="int" name="ISMEAR">     1</i>
    <i name="SIGMA">      0.20000000</i>
    <i name="KSPACING">      0.50000000</i>
    <i type="logical" name="KGAMMA"> T  </i>
   </separator>
   <separator name="electronic projectors" >
    <i type="logical" name="LREAL"> F  </i>
    <v name="ROPT">      0.00000000</v>
    <i type="int" name="LMAXPAW">  -100</i>
    <i type="int" name="LMAXMIX">     2</i>
    <i type="logical" name="NLSPLINE"> F  </i>
   </separator>
   <separator name="electronic startup" >
    <i type="int" name="ISTART">     0</i>
    <i type="int" name="ICHARG">     2</i>
    <i type="int" name="INIWAV">     1</i>
   </separator>
   <separator name="electronic spin" >
    <i type="int" name="ISPIN">     1</i>
    <i type="logical" name="LNONCOLLINEAR"> F  </i>
    <v name="MAGMOM">      1.00000000</v>
    <i name="NUPDOWN">     -1.00000000</i>
    <i type="logical" name="LSORBIT"> F  </i>
    <v name="SAXIS">      0.00000000      0.00000000      1.00000000</v>
    <i type="logical" name="LSPIRAL"> F  </i>
    <v name="QSPIRAL">      0.00000000      0.00000000      0.00000000</v>
    <i type="logical" name="LZEROZ"> F  </i>
   </separator>
   <separator name="electronic exchange-correlation" >
    <i type="logical" name="LASPH"> F  </i>
    <i type="logical" name="LMETAGGA"> F  </i>
   </separator>
   <separator name="electronic convergence" >
    <i type="int" name="NELM">    60</i>
    <i type="int" name="NELMDL">    -5</i>
    <i type="int" name="NELMIN">     2</i>
    <i name="ENINI">    224.00000000</i>
    <separator name="electronic convergence detail" >
     <i type="logical" name="LDIAG"> T  </i>
     <i type="logical" name="LSUBROT"> F  </i>
     <i name="WEIMIN">      0.00000000</i>
     <i name="EBREAK">      0.00000313</i>
     <i name="DEPER">      0.30000000</i>
     <i type="int" name="NRMM">     4</i>
     <i name="TIME">      0.40000000</i>
    </separator>
   </separator>
   <separator name="electronic mixer" >
    <i name="AMIX">      0.40000000</i>
    <i name="BMIX">      1.00000000</i>
    <i name="AMIN">      0.10000000</i>
    <i name="AMIX_MAG">      1.60000000</i>
    <i name="BMIX_MAG">      1.00000000</i>
    <separator name="electronic mixer details" >
     <i type="int" name="IMIX">     4</i>
     <i type="logical" name="MIXFIRST"> F  </i>
     <i type="int" name="MAXMIX">   -45</i>
     <i name="WC">    100.00000000</i>
     <i type="int" name="INIMIX">     1</i>
     <i type="int" name="MIXPRE">     1</i>
     <i type="int" name="MREMOVE">     5</i>
    </separator>
   </separator>
   <separator name="electronic dipolcorrection" >
    <i type="logical" name="LDIPOL"> F  </i>
    <i type="logical" name="LMONO"> F  </i>
    <i type="int" name="IDIPOL">     0</i>
    <i name="EPSILON">      1.00000000</i>
    <v name="DIPOL">   -100.00000000   -100.00000000   -100.00000000</v>
    <i name="EFIELD">      0.00000000</i>
   </separator>
  </separator>
  <separator name="grids" >
   <i type="int" name="NGX">    10</i>
   <i type="int" name="NGY">    10</i>
   <i type="int" name="NGZ">    10</i>
   <i type="int" name="NGXF">    20</i>
   <i type="int" name="NGYF">    20</i>
   <i type="int" name="NGZF">    20</i>
   <i type="logical" name="ADDGRID"> F  </i>
  </separator>
  <separator name="ionic" >
   <i type="int" name="NSW">     0</i>
   <i type="int" name="IBRION">    -1</i>
   <i type="int" name="MDALGO">     0</i>
   <i type="int" name="ISIF">     2</i>
   <i name="PSTRESS">      0.00000000</i>
   <i name="EDIFFG">      0.00100000</i>
   <i type="int" name="NFREE">     0</i>
   <i name="POTIM">      0.50000000</i>
   <i name="SMASS">     -3.00000000</i>
   <i name="SCALEE">      1.00000000</i>
  </separator>
  <separator name="ionic md" >
   <i name="TEBEG">      0.00010000</i>
   <i name="TEEND">      0.00010000</i>
   <i type="int" name="NBLOCK">     1</i>
   <i type="int" name="KBLOCK">     1</i>
   <i type="int" name="NPACO">   256</i>
   <i name="APACO">     16.00000000</i>
  </separator>
  <separator name="symmetry" >
   <i type="int" name="ISYM">     2</i>
   <i name="SYMPREC">      0.00001000</i>
  </separator>
  <separator name="dos" >
   <i type="int" name="LORBIT">     0</i>
   <v name="RWIGS">     -1.00000000</v>
   <i type="int" name="NEDOS">   301</i>
   <i name="EMIN">     10.00000000</i>
   <i name="EMAX">    -10.00000000</i>
   <i name="EFERMI">      0.00000000</i>
  </separator>
  <separator name="writing" >
   <i type="int" name="NWRITE">     2</i>
   <i type="logical" name="LWAVE"> T  </i>
   <i type="logical" name="LDOWNSAMPLE"> F  </i>
   <i type="logical" name="LCHARG"> T  </i>
   <i type="logical" name="LPARD"> F  </i>
   <i type="logical" name="LVTOT"> F  </i>
   <i type="logical" name="LVHAR"> F  </i>
   <i type="logical" name="LELF"> F  </i>
   <i type="logical" name="LOPTICS"> F  </i>
   <v name="STM">      0.00000000      0.00000000      0.00000000      0.00000000      0.00000000      0.00000000      0.00000000</v>
  </separator>
  <separator name="performance" >
   <i type="int" name="NPAR">     4</i>
   <i type="int" name="NSIM">     4</i>
   <i type="int" name="NBLK">    -1</i>
   <i type="logical" name="LPLANE"> T  </i>
   <i type="logical" name="LSCALAPACK"> T  </i>
   <i type="logical" name="LSCAAWARE"> F  </i>
   <i type="logical" name="LSCALU"> F  </i>
   <i type="logical" name="LASYNC"> F  </i>
   <i type="logical" name="LORBITALREAL"> F  </i>
  </separator>
  <separator name="miscellaneous" >
   <i type="int" name="IDIOT">     3</i>
   <i type="int" name="ISPECIAL">     0</i>
   <i type="logical" name="LMUSIC"> F  </i>
   <v name="POMASS">    183.85000000</v>
   <v name="DARWINR">      0.00000000</v>
   <v name="DARWINV">      1.00000000</v>
   <i type="logical" name="LCORR"> T  </i>
  </separator>
  <i type="logical" name="GGA_COMPAT"> T  </i>
  <i type="logical" name="LBERRY"> F  </i>
  <i type="int" name="ICORELEVEL">     0</i>
  <i type="logical" name="LDAU"> F  </i>
  <i type="int" name="I_CONSTRAINED_M">     0</i>
  <separator name="electronic exchange-correlation" >
   <i type="string" name="GGA">--</i>
   <i type="int" name="VOSKOWN">     0</i>
   <i type="logical" name="LHFCALC"> F  </i>
   <i type="string" name="PRECFOCK"></i>
   <i type="logical" name="LSYMGRAD"> F  </i>
   <i type="logical" name="LHFONE"> F  </i>
   <i type="logical" name="LRHFCALC"> F  </i>
   <i type="logical" name="LTHOMAS"> F  </i>
   <i type="logical" name="LMODELHF"> F  </i>
   <i name="ENCUT4O">     -1.00000000</i>
   <i type="int" name="EXXOEP">     0</i>
   <i type="int" name="FOURORBIT">     0</i>
   <i name="AEXX">      0.00000000</i>
   <i name="HFALPHA">      0.00000000</i>
   <i name="MCALPHA">      0.00000000</i>
   <i name="ALDAX">      1.00000000</i>
   <i name="AGGAX">      1.00000000</i>
   <i name="ALDAC">      1.00000000</i>
   <i name="AGGAC">      1.00000000</i>
   <i type="int" name="NKREDX">     1</i>
   <i type="int" name="NKREDY">     1</i>
   <i type="int" name="NKREDZ">     1</i>
   <i type="logical" name="SHIFTRED"> F  </i>
   <i type="logical" name="ODDONLY"> F  </i>
   <i type="logical" name="EVENONLY"> F  </i>
   <i type="int" name="LMAXFOCK">     0</i>
   <i type="int" name="NMAXFOCKAE">     0</i>
   <i type="logical" name="LFOCKAEDFT"> F  </i>
   <i name="HFSCREEN">      0.00000000</i>
   <i name="HFSCREENC">      0.00000000</i>
   <i type="int" name="NBANDSGWLOW">     0</i>
  </separator>
  <separator name="vdW DFT" >
   <i type="logical" name="LUSE_VDW"> F  </i>
   <i name="Zab_VDW">     -0.84910000</i>
   <i name="PARAM1">      0.12340000</i>
   <i name="PARAM2">      1.00000000</i>
   <i name="PARAM3">      0.00000000</i>
  </separator>
  <separator name="model GW" >
   <i type="int" name="MODEL_GW">     0</i>
   <i name="MODEL_EPS0">      8.93730000</i>
   <i name="MODEL_ALPHA">      1.00000000</i>
  </separator>
  <separator name="linear response parameters" >
   <i type="logical" name="LEPSILON"> F  </i>
   <i type="logical" name="LRPA"> F  </i>
   <i type="logical" name="LNABLA"> F  </i>
   <i type="logical" name="LVEL"> F  </i>
   <i type="int" name="KINTER">     0</i>
   <i name="CSHIFT">      0.10000000</i>
   <i name="OMEGAMAX">     -1.00000000</i>
   <i name="DEG_THRESHOLD">      0.00200000</i>
   <i name="RTIME">     -0.10000000</i>
   <i name="WPLASMAI">      0.00000000</i>
   <v name="DFIELD">      0.00000000      0.00000000      0.00000000</v>
   <v name="WPLASMA">      0.00000000      0.00000000      0.00000000      0.00000000      0.00000000      0.00000000      0.00000000      0.00000000      0.00000000</v>
  </separator>
  <separator name="orbital magnetization" >
   <i type="logical" name="NUCIND"> F  </i>
   <v name="MAGPOS">      0.00000000      0.00000000      0.00000000</v>
   <i type="logical" name="LNICSALL"> T  </i>
   <i type="logical" name="ORBITALMAG"> F  </i>
   <i type="logical" name="LMAGBLOCH"> F  </i>
   <i type="logical" name="LCHIMAG"> F  </i>
   <i type="logical" name="LGAUGE"> T  </i>
   <i type="int" name="MAGATOM">     0</i>
   <v name="MAGDIPOL">      0.00000000      0.00000000      0.00000000</v>
   <v name="AVECCONST">      0.00000000      0.00000000      0.00000000</v>
  </separator>
  <separator name="response functions" >
   <i type="logical" name="LADDER"> F  </i>
   <i type="logical" name="LRPAFORCE"> F  </i>
   <i type="logical" name="LFXC"> F  </i>
   <i type="logical" name="LHARTREE"> T  </i>
   <i type="int" name="IBSE">     0</i>
   <v type="int" name="KPOINT">    -1     0     0     0</v>
   <i type="logical" name="LTCTE"> F  </i>
   <i type="logical" name="LTETE"> F  </i>
   <i type="logical" name="LTRIPLET"> F  </i>
   <i type="logical" name="LFXCEPS"> F  </i>
   <i type="logical" name="LFXHEG"> F  </i>
   <i type="int" name="NATURALO">     2</i>
   <i type="logical" name="L2ORDER"> F  </i>
   <i type="logical" name="LMP2LT"> F  </i>
   <i type="logical" name="LUSEW"> F  </i>
   <i name="ENCUTGW">     -2.00000000</i>
   <i name="ENCUTGWSOFT">     -2.00000000</i>
   <i name="ENCUTLF">     -1.00000000</i>
   <i type="int" name="LMAXMP2">    -1</i>
   <i name="SCISSOR">      0.00000000</i>
   <i type="int" name="NOMEGA">     0</i>
   <i type="int" name="NOMEGAR">     0</i>
   <i type="int" name="NBANDSGW">    -1</i>
   <i type="int" name="NBANDSO">    -1</i>
   <i type="int" name="NBANDSV">    -1</i>
   <i type="int" name="NELM">     1</i>
   <i type="int" name="NELMHF">     1</i>
   <i type="int" name="DIM">     3</i>
   <i type="int" name="ANTIRES">     0</i>
   <i name="OMEGAMAX">    -30.00000000</i>
   <i name="OMEGAMIN">    -30.00000000</i>
   <i name="OMEGATL">   -200.00000000</i>
   <i type="int" name="OMEGAGRID">   140</i>
   <i name="CSHIFT">     -0.10000000</i>
   <i type="logical" name="SELFENERGY"> F  </i>
   <i type="logical" name="LSPECTRAL"> F  </i>
   <i type="logical" name="LSPECTRALGW"> F  </i>
   <i type="logical" name="LSINGLES"> F  </i>
   <i type="logical" name="LFERMIGW"> F  </i>
   <i type="logical" name="ODDONLYGW"> F  </i>
   <i type="logical" name="EVENONLYGW"> F  </i>
   <i type="int" name="NKREDLFX">     1</i>
   <i type="int" name="NKREDLFY">     1</i>
   <i type="int" name="NKREDLFZ">     1</i>
   <i type="int" name="MAXMEM">  2800</i>
   <i type="int" name="TELESCOPE">     0</i>
   <i type="int" name="TAUPAR">     1</i>
   <i type="int" name="OMEGAPAR">    -1</i>
   <i name="LAMBDA">      1.00000000</i>
  </separator>
  <separator name="External order field" >
   <i name="OFIELD_KAPPA">      0.00000000</i>
   <v name="OFIELD_K">      0.00000000      0.00000000      0.00000000</v>
   <i name="OFIELD_Q6_NEAR">      0.00000000</i>
   <i name="OFIELD_Q6_FAR">      0.00000000</i>
   <i name="OFIELD_A">      0.00000000</i>
  </separator>
 </parameters>
 <atominfo>
  <atoms>       1 </atoms>
  <types>       1 </types>
  <array name="atoms" >
   <dimension dim="1">ion</dimension>
   <field type="string">element</field>
   <field type="int">atomtype</field>
   <set>
    <rc><c>W </c><c>   1</c></rc>
   </set>
  </array>
  <array name="atomtypes" >
   <dimension dim="1">type</dimension>
   <field type="int">atomspertype</field>
   <field type="string">element</field>
   <field>mass</field>
   <field>valence</field>
   <field type="string">pseudopotential</field>
   <set>
    <rc><c>   1</c><c>W </c><c>    183.85000000</c><c>      6.00000000</c><c> PAW W 19Jan2001                        </c></rc>
   </set>
  </array>
 </atominfo>
 <structure name="initialpos" >
  <crystal>
   <varray name="basis" >
    <v>      -1.55000000       1.55000000       1.55000000 </v>
    <v>       1.55000000      -1.55000000       1.55000000 </v>
    <v>       1.55000000       1.55000000      -1.55000000 </v>
   </varray>
   <i name="volume">     14.89550000 </i>
   <varray name="rec_basis" >
    <v>       0.00000000       0.32258065       0.32258065 </v>
    <v>       0.32258065       0.00000000       0.32258065 </v>
    <v>       0.32258065       0.32258065       0.00000000 </v>
   </varray>
  </crystal>
  <varray name="positions" >
   <v>       0.00000000       0.00000000       0.00000000 </v>
  </varray>
 </structure>
 <calculation>
  <scstep>
   <time name="dav">    0.04    0.05</time>
   <time name="total">    0.05    0.05</time>
   <energy>
    <i name="alphaZ">     46.86189923 </i>
    <i name="ewald">   -304.28237681 </i>
    <i name="hartreedc">     -5.16259319 </i>
    <i name="XCdc">    -47.22053100 </i>
    <i name="pawpsdc">    183.53490256 </i>
    <i name="pawaedc">   -125.80866524 </i>
    <i name="eentropy">     -0.00016068 </i>
    <i name="bandstr">     34.51688401 </i>
    <i name="atom">    206.50785835 </i>
    <i name="e_fr_energy">    -11.05278277 </i>
    <i name="e_wo_entrp">    -11.05262209 </i>
    <i name="e_0_energy">    -11.05272921 </i>
   </energy>
  </scstep>
  <scstep>
   <time name="dav">    0.03    0.03</time>
   <time name="total">    0.03    0.03</time>
   <energy>
    <i name="e_fr_energy">    -14.85867981 </i>
    <i name="e_wo_entrp">    -14.85961873 </i>
    <i name="e_0_energy">    -14.85899279 </i>
   </energy>
  </scstep>
  <scstep>
   <time name="dav">    0.04    0.04</time>
   <time name="total">    0.04    0.04</time>
   <energy>
    <i name="e_fr_energy">    -14.87037318 </i>
    <i name="e_wo_entrp">    -14.87129168 </i>
    <i name="e_0_energy">    -14.87067934 </i>
   </energy>
  </scstep>
  <scstep>
   <time name="dav">    0.03    0.03</time>
   <time name="total">    0.03    0.03</time>
   <energy>
    <i name="e_fr_energy">    -14.87037704 </i>
    <i name="e_wo_entrp">    -14.87129557 </i>
    <i name="e_0_energy">    -14.87068322 </i>
   </energy>
  </scstep>
  <scstep>
   <time name="dav">    0.03    0.03</time>
   <time name="total">    0.03    0.03</time>
   <energy>
    <i name="e_fr_energy">    -14.87037704 </i>
    <i name="e_wo_entrp">    -14.87129558 </i>
    <i name="e_0_energy">    -14.87068322 </i>
   </energy>
  </scstep>
  <scstep>
   <time name="dav">    0.03    0.03</time>
   <time name="total">    0.03    0.03</time>
   <energy>
    <i name="e_fr_energy">    -14.38732249 </i>
    <i name="e_wo_entrp">    -14.38630322 </i>
    <i name="e_0_energy">    -14.38698273 </i>
   </energy>
  </scstep>
  <scstep>
   <time name="dav">    0.03    0.03</time>
   <time name="total">    0.03    0.03</time>
   <energy>
    <i name="e_fr_energy">    -14.20407097 </i>
    <i name="e_wo_entrp">    -14.20668311 </i>
    <i name="e_0_energy">    -14.20494168 </i>
   </energy>
  </scstep>
  <scstep>
   <time name="dav">    0.03    0.03</time>
   <time name="total">    0.04    0.04</time>
   <energy>
    <i name="e_fr_energy">    -14.20186732 </i>
    <i name="e_wo_entrp">    -14.20442241 </i>
    <i name="e_0_energy">    -14.20271901 </i>
   </energy>
  </scstep>
  <scstep>
   <time name="dav">    0.03    0.03</time>
   <time name="total">    0.03    0.03</time>
   <energy>
    <i name="e_fr_energy">    -14.20172526 </i>
    <i name="e_wo_entrp">    -14.20432288 </i>
    <i name="e_0_energy">    -14.20259113 </i>
   </energy>
  </scstep>
  <scstep>
   <time name="dav">    0.01    0.01</time>
   <time name="total">    0.02    0.02</time>
   <energy>
    <i name="alphaZ">     46.86189923 </i>
    <i name="ewald">   -304.28237681 </i>
    <i name="hartreedc">     -1.98713430 </i>
    <i name="XCdc">    -46.76488859 </i>
    <i name="pawpsdc">    255.01398061 </i>
    <i name="pawaedc">   -199.00549394 </i>
    <i name="eentropy">      0.00259988 </i>
    <i name="bandstr">     29.45182826 </i>
    <i name="atom">    206.50785835 </i>
    <i name="e_fr_energy">    -14.20172730 </i>
    <i name="e_wo_entrp">    -14.20432718 </i>
    <i name="e_0_energy">    -14.20259393 </i>
   </energy>
  </scstep>
  <structure>
   <crystal>
    <varray name="basis" >
     <v>      -1.55000000       1.55000000       1.55000000 </v>
     <v>       1.55000000      -1.55000000       1.55000000 </v>
     <v>       1.55000000       1.55000000      -1.55000000 </v>
    </varray>
    <i name="volume">     14.89550000 </i>
    <varray name="rec_basis" >
     <v>       0.00000000       0.32258065       0.32258065 </v>
     <v>       0.32258065       0.00000000       0.32258065 </v>
     <v>       0.32258065       0.32258065       0.00000000 </v>
    </varray>
   </crystal>
   <varray name="positions" >
    <v>       0.00000000       0.00000000       0.00000000 </v>
   </varray>
  </structure>
  <varray name="forces" >
   <v>       0.00000000       0.00000000       0.00000000 </v>
  </varray>
  <varray name="stress" >
   <v>      78.37817024      -0.00000000       0.00000000 </v>
   <v>      -0.00000000      78.37817024      -0.00000000 </v>
   <v>       0.00000000      -0.00000000      78.37817024 </v>
  </varray>
  <energy>
   <i name="e_fr_energy">    -14.20172730 </i>
   <i name="e_wo_entrp">    -14.20259393 </i>
   <i name="e_0_energy">      0.00259988 </i>
  </energy>
  <time name="totalsc">    0.36    0.37</time>
  <eigenvalues>
   <array>
    <dimension dim="1">band</dimension>
    <dimension dim="2">kpoint</dimension>
    <dimension dim="3">spin</dimension>
    <field>eigene</field>
    <field>occ</field>
    <set>
     <set comment="spin 1">
      <set comment="kpoint 1">
       <r>   -0.6141    1.0000 </r>
       <r>    6.7897    1.0000 </r>
       <r>    6.7897    1.0000 </r>
       <r>    8.0746    1.0209 </r>
       <r>   10.6084   -0.0000 </r>
       <r>   10.6084   -0.0000 </r>
       <r>   24.4633    0.0000 </r>
       <r>   25.5199    0.0000 </r>
      </set>
      <set comment="kpoint 2">
       <r>    0.6557    1.0000 </r>
       <r>    6.0411    1.0000 </r>
       <r>    6.3386    1.0000 </r>
       <r>    9.6901   -0.0000 </r>
       <r>   10.2494   -0.0000 </r>
       <r>   10.9136   -0.0000 </r>
       <r>   25.0953    0.0000 </r>
       <r>   26.8601    0.0000 </r>
      </set>
      <set comment="kpoint 3">
       <r>    1.9320    1.0000 </r>
       <r>    5.3068    1.0000 </r>
       <r>    6.3652    1.0000 </r>
       <r>   10.4998   -0.0000 </r>
       <r>   11.2788   -0.0000 </r>
       <r>   12.0367   -0.0000 </r>
       <r>   23.6221    0.0000 </r>
       <r>   24.7929    0.0000 </r>
      </set>
      <set comment="kpoint 4">
       <r>    2.2079    1.0000 </r>
       <r>    4.8033    1.0000 </r>
       <r>    7.8752    1.0006 </r>
       <r>   10.9162   -0.0000 </r>
       <r>   11.6743   -0.0000 </r>
       <r>   14.5252    0.0000 </r>
       <r>   21.6537    0.0000 </r>
       <r>   21.7648    0.0000 </r>
      </set>
      <set comment="kpoint 5">
       <r>    2.1343    1.0000 </r>
       <r>    4.6256    1.0000 </r>
       <r>    9.1479   -0.0000 </r>
       <r>   10.9077   -0.0000 </r>
       <r>   11.8689   -0.0000 </r>
       <r>   15.8051    0.0000 </r>
       <r>   20.1713    0.0000 </r>
       <r>   21.0132    0.0000 </r>
      </set>
      <set comment="kpoint 6">
       <r>   -1.0977    1.0000 </r>
       <r>    7.1425    1.0000 </r>
       <r>    7.1426    1.0000 </r>
       <r>    7.2826    1.0000 </r>
       <r>   10.4579   -0.0000 </r>
       <r>   11.0066   -0.0000 </r>
       <r>   24.4406    0.0000 </r>
       <r>   24.4407    0.0000 </r>
      </set>
      <set comment="kpoint 7">
       <r>    2.0374    1.0000 </r>
       <r>    5.5439    1.0000 </r>
       <r>    5.6038    1.0000 </r>
       <r>   10.3346   -0.0000 </r>
       <r>   11.3248   -0.0000 </r>
       <r>   12.0024   -0.0000 </r>
       <r>   24.8391    0.0000 </r>
       <r>   25.8695    0.0000 </r>
      </set>
      <set comment="kpoint 8">
       <r>    2.9856    1.0000 </r>
       <r>    5.0092    1.0000 </r>
       <r>    6.0915    1.0000 </r>
       <r>   10.6833   -0.0000 </r>
       <r>   11.7156   -0.0000 </r>
       <r>   14.6932    0.0000 </r>
       <r>   22.0864    0.0000 </r>
       <r>   23.9033    0.0000 </r>
      </set>
      <set comment="kpoint 9">
       <r>    2.9678    1.0000 </r>
       <r>    4.7579    1.0000 </r>
       <r>    7.5804    1.0000 </r>
       <r>   11.0126   -0.0000 </r>
       <r>   11.9665   -0.0000 </r>
       <r>   16.8874    0.0000 </r>
       <r>   19.3831    0.0000 </r>
       <r>   22.2854    0.0000 </r>
      </set>
      <set comment="kpoint 10">
       <r>   -0.1524    1.0000 </r>
       <r>    6.6336    1.0000 </r>
       <r>    6.9512    1.0000 </r>
       <r>    8.2477    0.9855 </r>
       <r>    9.6959   -0.0000 </r>
       <r>   11.2197   -0.0000 </r>
       <r>   25.0845    0.0000 </r>
       <r>   26.1050    0.0000 </r>
      </set>
      <set comment="kpoint 11">
       <r>    3.6767    1.0000 </r>
       <r>    5.1137    1.0000 </r>
       <r>    6.2283    1.0000 </r>
       <r>   11.0426   -0.0000 </r>
       <r>   11.8724   -0.0000 </r>
       <r>   17.4790    0.0000 </r>
       <r>   19.1682    0.0000 </r>
       <r>   23.3550    0.0000 </r>
      </set>
      <set comment="kpoint 12">
       <r>    3.7469    1.0000 </r>
       <r>    5.2464    1.0000 </r>
       <r>    6.5614    1.0000 </r>
       <r>   11.3376   -0.0000 </r>
       <r>   11.9157   -0.0000 </r>
       <r>   17.5475    0.0000 </r>
       <r>   19.2841    0.0000 </r>
       <r>   21.9728    0.0000 </r>
      </set>
      <set comment="kpoint 13">
       <r>    1.2625    1.0000 </r>
       <r>    5.8640    1.0000 </r>
       <r>    6.5337    1.0000 </r>
       <r>    9.7346   -0.0000 </r>
       <r>   10.1445   -0.0000 </r>
       <r>   11.4481   -0.0000 </r>
       <r>   24.3333    0.0000 </r>
       <r>   26.4009    0.0000 </r>
      </set>
      <set comment="kpoint 14">
       <r>    1.0614    1.0000 </r>
       <r>    6.3676    1.0000 </r>
       <r>    6.4110    1.0000 </r>
       <r>    9.0724   -0.0000 </r>
       <r>    9.5949   -0.0000 </r>
       <r>   11.6784   -0.0000 </r>
       <r>   25.4965    0.0000 </r>
       <r>   26.2893    0.0000 </r>
      </set>
      <set comment="kpoint 15">
       <r>    2.0337    1.0000 </r>
       <r>    5.1945    1.0000 </r>
       <r>    7.1399    1.0000 </r>
       <r>   10.4196   -0.0000 </r>
       <r>   11.7359   -0.0000 </r>
       <r>   12.6266   -0.0000 </r>
       <r>   22.2628    0.0000 </r>
       <r>   23.8018    0.0000 </r>
      </set>
      <set comment="kpoint 16">
       <r>    2.3234    1.0000 </r>
       <r>    5.6049    1.0000 </r>
       <r>    6.2511    1.0000 </r>
       <r>    9.4477   -0.0000 </r>
       <r>   11.6809   -0.0000 </r>
       <r>   12.1728   -0.0000 </r>
       <r>   23.1543    0.0000 </r>
       <r>   26.0685    0.0000 </r>
      </set>
      <set comment="kpoint 17">
       <r>    2.0077    1.0000 </r>
       <r>    4.8193    1.0000 </r>
       <r>    8.6265   -0.0331 </r>
       <r>   10.6166   -0.0000 </r>
       <r>   12.3199   -0.0000 </r>
       <r>   14.8259    0.0000 </r>
       <r>   20.8449    0.0000 </r>
       <r>   21.5126    0.0000 </r>
      </set>
      <set comment="kpoint 18">
       <r>    2.6193    1.0000 </r>
       <r>    5.2114    1.0000 </r>
       <r>    6.9865    1.0000 </r>
       <r>   10.1308   -0.0000 </r>
       <r>   12.2314   -0.0000 </r>
       <r>   14.6283    0.0000 </r>
       <r>   21.2503    0.0000 </r>
       <r>   23.5859    0.0000 </r>
      </set>
      <set comment="kpoint 19">
       <r>    3.3063    1.0000 </r>
       <r>    5.0428    1.0000 </r>
       <r>    6.3787    1.0000 </r>
       <r>    9.8029   -0.0000 </r>
       <r>   11.8430   -0.0000 </r>
       <r>   14.8315    0.0000 </r>
       <r>   21.4793    0.0000 </r>
       <r>   25.4375    0.0000 </r>
      </set>
      <set comment="kpoint 20">
       <r>    2.5343    1.0000 </r>
       <r>    5.0781    1.0000 </r>
       <r>    7.6685    1.0000 </r>
       <r>   10.0721   -0.0000 </r>
       <r>   12.9725   -0.0000 </r>
       <r>   16.0902    0.0000 </r>
       <r>   19.9263    0.0000 </r>
       <r>   22.5924    0.0000 </r>
      </set>
      <set comment="kpoint 21">
       <r>    3.5252    1.0000 </r>
       <r>    5.1205    1.0000 </r>
       <r>    6.4046    1.0000 </r>
       <r>   10.3800   -0.0000 </r>
       <r>   12.1853   -0.0000 </r>
       <r>   17.6278    0.0000 </r>
       <r>   19.1894    0.0000 </r>
       <r>   23.3571    0.0000 </r>
      </set>
      <set comment="kpoint 22">
       <r>    4.1053    1.0000 </r>
       <r>    5.4478    1.0000 </r>
       <r>    5.4478    1.0000 </r>
       <r>   11.4997   -0.0000 </r>
       <r>   11.4998   -0.0000 </r>
       <r>   17.8128    0.0000 </r>
       <r>   20.8341    0.0000 </r>
       <r>   20.8343    0.0000 </r>
      </set>
      <set comment="kpoint 23">
       <r>    3.5649    1.0000 </r>
       <r>    5.0295    1.0000 </r>
       <r>    5.0295    1.0000 </r>
       <r>   11.2733   -0.0000 </r>
       <r>   11.2733   -0.0000 </r>
       <r>   14.8414    0.0000 </r>
       <r>   23.3448    0.0000 </r>
       <r>   24.6119    0.0000 </r>
      </set>
      <set comment="kpoint 24">
       <r>    4.0767    1.0000 </r>
       <r>    4.7768    1.0000 </r>
       <r>    6.0138    1.0000 </r>
       <r>   11.4739   -0.0000 </r>
       <r>   11.8057   -0.0000 </r>
       <r>   17.4717    0.0000 </r>
       <r>   19.3788    0.0000 </r>
       <r>   23.1117    0.0000 </r>
      </set>
      <set comment="kpoint 25">
       <r>    3.9424    1.0000 </r>
       <r>    4.7054    1.0000 </r>
       <r>    7.0903    1.0000 </r>
       <r>   11.5663   -0.0000 </r>
       <r>   11.9727   -0.0000 </r>
       <r>   17.5676    0.0000 </r>
       <r>   18.7048    0.0000 </r>
       <r>   22.5328    0.0000 </r>
      </set>
      <set comment="kpoint 26">
       <r>    0.7455    1.0000 </r>
       <r>    7.1743    1.0000 </r>
       <r>    7.1744    1.0000 </r>
       <r>    8.0769    1.0214 </r>
       <r>    8.2324    1.0037 </r>
       <r>   11.9052   -0.0000 </r>
       <r>   26.7667    0.0000 </r>
       <r>   27.1013    0.0000 </r>
      </set>
      <set comment="kpoint 27">
       <r>    4.4858    1.0000 </r>
       <r>    5.3253    1.0000 </r>
       <r>    6.0501    1.0000 </r>
       <r>   11.8146   -0.0000 </r>
       <r>   11.9669   -0.0000 </r>
       <r>   16.8524    0.0000 </r>
       <r>   19.8439    0.0000 </r>
       <r>   22.1080    0.0000 </r>
      </set>
      <set comment="kpoint 28">
       <r>    2.1028    1.0000 </r>
       <r>    6.2960    1.0000 </r>
       <r>    6.7739    1.0000 </r>
       <r>    8.2118    1.0208 </r>
       <r>    9.8455   -0.0000 </r>
       <r>   12.2125   -0.0000 </r>
       <r>   24.0904    0.0000 </r>
       <r>   27.9256    0.0000 </r>
      </set>
      <set comment="kpoint 29">
       <r>    2.8863    1.0000 </r>
       <r>    5.8606    1.0000 </r>
       <r>    6.1955    1.0000 </r>
       <r>    9.2227   -0.0000 </r>
       <r>   12.3286   -0.0000 </r>
       <r>   12.5891   -0.0000 </r>
       <r>   22.5060    0.0000 </r>
       <r>   26.1213    0.0000 </r>
      </set>
      <set comment="kpoint 30">
       <r>    3.2376    1.0000 </r>
       <r>    5.2157    1.0000 </r>
       <r>    7.0531    1.0000 </r>
       <r>    8.5534    0.0252 </r>
       <r>   11.3197   -0.0000 </r>
       <r>   12.6622   -0.0000 </r>
       <r>   23.1217    0.0000 </r>
       <r>   27.9389    0.0000 </r>
      </set>
      <set comment="kpoint 31">
       <r>    2.7853    1.0000 </r>
       <r>    5.8569    1.0000 </r>
       <r>    6.4893    1.0000 </r>
       <r>    9.1783   -0.0000 </r>
       <r>   14.2613    0.0000 </r>
       <r>   14.5949    0.0000 </r>
       <r>   20.7454    0.0000 </r>
       <r>   24.3208    0.0000 </r>
      </set>
      <set comment="kpoint 32">
       <r>    3.5820    1.0000 </r>
       <r>    4.9869    1.0000 </r>
       <r>    6.6221    1.0000 </r>
       <r>    9.3312   -0.0000 </r>
       <r>   12.4015   -0.0000 </r>
       <r>   15.0905    0.0000 </r>
       <r>   21.5498    0.0000 </r>
       <r>   25.4624    0.0000 </r>
      </set>
      <set comment="kpoint 33">
       <r>    3.4049    1.0000 </r>
       <r>    5.5537    1.0000 </r>
       <r>    6.0586    1.0000 </r>
       <r>    9.3624   -0.0000 </r>
       <r>   13.6061   -0.0000 </r>
       <r>   17.1948    0.0000 </r>
       <r>   19.4679    0.0000 </r>
       <r>   23.8100    0.0000 </r>
      </set>
      <set comment="kpoint 34">
       <r>    4.3679    1.0000 </r>
       <r>    4.4722    1.0000 </r>
       <r>    5.7949    1.0000 </r>
       <r>   10.8056   -0.0000 </r>
       <r>   12.2335   -0.0000 </r>
       <r>   18.2221    0.0000 </r>
       <r>   19.4905    0.0000 </r>
       <r>   22.6520    0.0000 </r>
      </set>
      <set comment="kpoint 35">
       <r>    5.4410    1.0000 </r>
       <r>    5.4410    1.0000 </r>
       <r>    5.4411    1.0000 </r>
       <r>   12.0462   -0.0000 </r>
       <r>   12.0462   -0.0000 </r>
       <r>   15.9050    0.0000 </r>
       <r>   21.7249    0.0000 </r>
       <r>   21.7250    0.0000 </r>
      </set>
      <set comment="kpoint 36">
       <r>    3.2328    1.0000 </r>
       <r>    5.3940    1.0000 </r>
       <r>    7.9689    1.0043 </r>
       <r>    7.9690    1.0043 </r>
       <r>    9.9831   -0.0000 </r>
       <r>   12.3286   -0.0000 </r>
       <r>   23.9205    0.0000 </r>
       <r>   29.4324    0.0000 </r>
      </set>
      <set comment="kpoint 37">
       <r>    3.7796    1.0000 </r>
       <r>    4.4368    1.0000 </r>
       <r>    8.0325    1.0123 </r>
       <r>    8.7743   -0.0126 </r>
       <r>   11.9534   -0.0000 </r>
       <r>   12.9148   -0.0000 </r>
       <r>   23.8051    0.0000 </r>
       <r>   26.7507    0.0000 </r>
      </set>
      <set comment="kpoint 38">
       <r>    3.3826    1.0000 </r>
       <r>    4.5322    1.0000 </r>
       <r>    7.8270    1.0002 </r>
       <r>    8.7497   -0.0174 </r>
       <r>   14.2382    0.0000 </r>
       <r>   15.5379    0.0000 </r>
       <r>   20.7231    0.0000 </r>
       <r>   23.9426    0.0000 </r>
      </set>
      <set comment="kpoint 39">
       <r>    3.6296    1.0000 </r>
       <r>    3.8755    1.0000 </r>
       <r>    7.9538    1.0033 </r>
       <r>   10.2123   -0.0000 </r>
       <r>   12.5844   -0.0000 </r>
       <r>   15.3365    0.0000 </r>
       <r>   21.8569    0.0000 </r>
       <r>   23.7972    0.0000 </r>
      </set>
      <set comment="kpoint 40">
       <r>    3.3826    1.0000 </r>
       <r>    3.8149    1.0000 </r>
       <r>    7.6940    1.0000 </r>
       <r>   10.8450   -0.0000 </r>
       <r>   13.4547   -0.0000 </r>
       <r>   18.3049    0.0000 </r>
       <r>   19.0096    0.0000 </r>
       <r>   21.7457    0.0000 </r>
      </set>
      <set comment="kpoint 41">
       <r>    3.3701    1.0000 </r>
       <r>    3.6157    1.0000 </r>
       <r>    9.9847   -0.0000 </r>
       <r>    9.9848   -0.0000 </r>
       <r>   12.1583   -0.0000 </r>
       <r>   13.4317   -0.0000 </r>
       <r>   24.1026    0.0000 </r>
       <r>   24.1027    0.0000 </r>
      </set>
      <set comment="kpoint 42">
       <r>    2.8577    1.0000 </r>
       <r>    3.1413    1.0000 </r>
       <r>   10.4841   -0.0000 </r>
       <r>   10.6664   -0.0000 </r>
       <r>   13.9037    0.0000 </r>
       <r>   15.9967    0.0000 </r>
       <r>   20.3618    0.0000 </r>
       <r>   21.4886    0.0000 </r>
      </set>
      <set comment="kpoint 43">
       <r>    2.6956    1.0000 </r>
       <r>    2.6956    1.0000 </r>
       <r>   10.5214   -0.0000 </r>
       <r>   13.1925   -0.0000 </r>
       <r>   13.1928   -0.0000 </r>
       <r>   18.7738    0.0000 </r>
       <r>   18.7739    0.0000 </r>
       <r>   18.7897    0.0000 </r>
      </set>
      <set comment="kpoint 44">
       <r>    2.3105    1.0000 </r>
       <r>    2.3928    1.0000 </r>
       <r>   13.0846   -0.0000 </r>
       <r>   13.0847   -0.0000 </r>
       <r>   13.8688    0.0000 </r>
       <r>   16.7168    0.0000 </r>
       <r>   18.8650    0.0000 </r>
       <r>   18.8651    0.0000 </r>
      </set>
     </set>
    </set>
   </array>
  </eigenvalues>
  <separator name="orbital magnetization" >
   <v name="MAGDIPOLOUT">      0.00000000      0.00000000      0.00000000</v>
  </separator>
  <dos>
   <i name="efermi">      8.40425083 </i>
   <total>
    <array>
     <dimension dim="1">gridpoints</dimension>
     <dimension dim="2">spin</dimension>
     <field>energy</field>
     <field>total</field>
     <field>integrated</field>
     <set>
      <set comment="spin 1">
       <r>    -3.0977     0.0000     0.0000 </r>
       <r>    -2.9826     0.0000     0.0000 </r>
       <r>    -2.8675     0.0000     0.0000 </r>
       <r>    -2.7524    -0.0000    -0.0000 </r>
       <r>    -2.6373    -0.0000    -0.0000 </r>
       <r>    -2.5222    -0.0000    -0.0000 </r>
       <r>    -2.4071    -0.0000    -0.0000 </r>
       <r>    -2.2920    -0.0000    -0.0000 </r>
       <r>    -2.1769    -0.0000    -0.0000 </r>
       <r>    -2.0618    -0.0000    -0.0000 </r>
       <r>    -1.9467    -0.0000    -0.0000 </r>
       <r>    -1.8316    -0.0000    -0.0000 </r>
       <r>    -1.7165    -0.0000    -0.0000 </r>
       <r>    -1.6014    -0.0001    -0.0000 </r>
       <r>    -1.4863    -0.0009    -0.0001 </r>
       <r>    -1.3712    -0.0024    -0.0004 </r>
       <r>    -1.2561     0.0047     0.0001 </r>
       <r>    -1.1410     0.0322     0.0038 </r>
       <r>    -1.0259     0.0473     0.0093 </r>
       <r>    -0.9108     0.0213     0.0117 </r>
       <r>    -0.7957     0.0032     0.0121 </r>
       <r>    -0.6806     0.0320     0.0158 </r>
       <r>    -0.5655     0.0615     0.0229 </r>
       <r>    -0.4504     0.0320     0.0266 </r>
       <r>    -0.3353     0.0112     0.0279 </r>
       <r>    -0.2202     0.0988     0.0392 </r>
       <r>    -0.1051     0.1922     0.0613 </r>
       <r>     0.0100     0.1245     0.0757 </r>
       <r>     0.1251     0.0161     0.0775 </r>
       <r>     0.2402    -0.0121     0.0761 </r>
       <r>     0.3553    -0.0131     0.0746 </r>
       <r>     0.4704     0.0021     0.0749 </r>
       <r>     0.5855     0.1029     0.0867 </r>
       <r>     0.7007     0.2195     0.1120 </r>
       <r>     0.8158     0.1653     0.1310 </r>
       <r>     0.9309     0.0744     0.1395 </r>
       <r>     1.0460     0.1441     0.1561 </r>
       <r>     1.1611     0.2412     0.1839 </r>
       <r>     1.2762     0.2466     0.2123 </r>
       <r>     1.3913     0.1542     0.2300 </r>
       <r>     1.5064     0.0302     0.2335 </r>
       <r>     1.6215    -0.0278     0.2303 </r>
       <r>     1.7366    -0.0393     0.2258 </r>
       <r>     1.8517     0.0971     0.2370 </r>
       <r>     1.9668     0.5431     0.2995 </r>
       <r>     2.0819     0.9483     0.4086 </r>
       <r>     2.1970     0.9003     0.5123 </r>
       <r>     2.3121     0.6930     0.5920 </r>
       <r>     2.4272     0.5283     0.6528 </r>
       <r>     2.5423     0.4919     0.7095 </r>
       <r>     2.6574     0.6207     0.7809 </r>
       <r>     2.7725     0.7070     0.8623 </r>
       <r>     2.8876     0.9270     0.9690 </r>
       <r>     3.0027     1.0996     1.0955 </r>
       <r>     3.1178     0.8224     1.1902 </r>
       <r>     3.2329     0.6170     1.2612 </r>
       <r>     3.3480     0.8388     1.3578 </r>
       <r>     3.4631     1.1249     1.4872 </r>
       <r>     3.5782     1.3054     1.6375 </r>
       <r>     3.6933     1.2952     1.7865 </r>
       <r>     3.8084     1.0593     1.9085 </r>
       <r>     3.9235     0.7247     1.9919 </r>
       <r>     4.0386     0.4250     2.0408 </r>
       <r>     4.1537     0.2375     2.0681 </r>
       <r>     4.2688     0.1665     2.0873 </r>
       <r>     4.3839     0.4441     2.1384 </r>
       <r>     4.4990     0.8164     2.2324 </r>
       <r>     4.6141     0.8109     2.3257 </r>
       <r>     4.7292     0.8519     2.4238 </r>
       <r>     4.8443     1.0527     2.5449 </r>
       <r>     4.9594     1.2704     2.6912 </r>
       <r>     5.0745     1.8089     2.8994 </r>
       <r>     5.1896     2.0882     3.1397 </r>
       <r>     5.3047     1.6332     3.3277 </r>
       <r>     5.4198     0.9762     3.4401 </r>
       <r>     5.5349     0.8669     3.5399 </r>
       <r>     5.6500     0.9610     3.6505 </r>
       <r>     5.7651     0.7874     3.7411 </r>
       <r>     5.8802     0.8077     3.8341 </r>
       <r>     5.9953     1.0804     3.9584 </r>
       <r>     6.1104     1.3508     4.1139 </r>
       <r>     6.2255     1.5465     4.2919 </r>
       <r>     6.3406     1.8646     4.5065 </r>
       <r>     6.4557     1.9389     4.7297 </r>
       <r>     6.5708     1.5378     4.9067 </r>
       <r>     6.6859     1.0524     5.0278 </r>
       <r>     6.8010     0.6455     5.1021 </r>
       <r>     6.9161     0.5980     5.1710 </r>
       <r>     7.0312     0.8983     5.2744 </r>
       <r>     7.1463     0.9394     5.3825 </r>
       <r>     7.2614     0.5204     5.4424 </r>
       <r>     7.3765     0.1095     5.4550 </r>
       <r>     7.4916     0.1379     5.4709 </r>
       <r>     7.6067     0.5190     5.5306 </r>
       <r>     7.7218     0.7301     5.6146 </r>
       <r>     7.8369     0.6936     5.6945 </r>
       <r>     7.9520     0.7165     5.7769 </r>
       <r>     8.0671     0.6937     5.8568 </r>
       <r>     8.1822     0.5878     5.9244 </r>
       <r>     8.2973     0.4475     5.9759 </r>
       <r>     8.4124     0.2197     6.0012 </r>
       <r>     8.5275     0.2068     6.0250 </r>
       <r>     8.6426     0.4424     6.0759 </r>
       <r>     8.7577     0.5487     6.1391 </r>
       <r>     8.8728     0.3594     6.1805 </r>
       <r>     8.9879     0.1659     6.1996 </r>
       <r>     9.1030     0.3389     6.2386 </r>
       <r>     9.2181     0.7002     6.3192 </r>
       <r>     9.3332     0.9508     6.4286 </r>
       <r>     9.4483     0.9288     6.5355 </r>
       <r>     9.5634     0.7106     6.6173 </r>
       <r>     9.6785     0.7409     6.7026 </r>
       <r>     9.7936     0.8554     6.8010 </r>
       <r>     9.9087     0.6469     6.8755 </r>
       <r>    10.0238     0.5662     6.9407 </r>
       <r>    10.1389     0.8992     7.0442 </r>
       <r>    10.2540     1.1186     7.1729 </r>
       <r>    10.3691     1.1503     7.3053 </r>
       <r>    10.4842     1.1961     7.4430 </r>
       <r>    10.5993     1.1664     7.5772 </r>
       <r>    10.7144     1.0904     7.7027 </r>
       <r>    10.8295     1.0323     7.8216 </r>
       <r>    10.9446     1.1073     7.9490 </r>
       <r>    11.0597     1.0009     8.0642 </r>
       <r>    11.1748     0.7511     8.1507 </r>
       <r>    11.2899     0.9311     8.2578 </r>
       <r>    11.4050     1.1078     8.3853 </r>
       <r>    11.5201     0.9290     8.4923 </r>
       <r>    11.6352     1.1124     8.6203 </r>
       <r>    11.7503     1.7258     8.8189 </r>
       <r>    11.8654     2.0672     9.0569 </r>
       <r>    11.9805     2.0267     9.2902 </r>
       <r>    12.0956     1.8067     9.4981 </r>
       <r>    12.2107     1.8687     9.7132 </r>
       <r>    12.3258     1.7926     9.9195 </r>
       <r>    12.4409     1.1544    10.0524 </r>
       <r>    12.5560     0.7541    10.1392 </r>
       <r>    12.6711     0.7071    10.2206 </r>
       <r>    12.7862     0.4559    10.2730 </r>
       <r>    12.9013     0.3053    10.3082 </r>
       <r>    13.0164     0.3917    10.3533 </r>
       <r>    13.1315     0.3401    10.3924 </r>
       <r>    13.2466     0.1973    10.4151 </r>
       <r>    13.3617     0.1600    10.4335 </r>
       <r>    13.4768     0.2688    10.4645 </r>
       <r>    13.5919     0.3218    10.5015 </r>
       <r>    13.7070     0.2206    10.5269 </r>
       <r>    13.8221     0.1686    10.5463 </r>
       <r>    13.9372     0.2114    10.5706 </r>
       <r>    14.0523     0.1575    10.5888 </r>
       <r>    14.1674     0.1874    10.6103 </r>
       <r>    14.2825     0.3306    10.6484 </r>
       <r>    14.3976     0.2801    10.6806 </r>
       <r>    14.5127     0.3970    10.7263 </r>
       <r>    14.6278     0.8945    10.8293 </r>
       <r>    14.7429     1.1005    10.9560 </r>
       <r>    14.8580     0.7907    11.0470 </r>
       <r>    14.9731     0.4343    11.0970 </r>
       <r>    15.0882     0.3588    11.1383 </r>
       <r>    15.2033     0.3430    11.1777 </r>
       <r>    15.3184     0.2472    11.2062 </r>
       <r>    15.4335     0.2280    11.2324 </r>
       <r>    15.5486     0.2291    11.2588 </r>
       <r>    15.6637     0.1612    11.2774 </r>
       <r>    15.7788     0.0990    11.2888 </r>
       <r>    15.8939     0.1621    11.3074 </r>
       <r>    16.0090     0.3150    11.3437 </r>
       <r>    16.1241     0.3537    11.3844 </r>
       <r>    16.2392     0.1760    11.4046 </r>
       <r>    16.3543     0.0128    11.4061 </r>
       <r>    16.4694    -0.0258    11.4031 </r>
       <r>    16.5845    -0.0229    11.4005 </r>
       <r>    16.6996     0.0680    11.4083 </r>
       <r>    16.8147     0.3695    11.4509 </r>
       <r>    16.9298     0.5832    11.5180 </r>
       <r>    17.0449     0.3702    11.5606 </r>
       <r>    17.1600     0.1540    11.5783 </r>
       <r>    17.2751     0.1353    11.5939 </r>
       <r>    17.3902     0.2513    11.6228 </r>
       <r>    17.5053     0.6496    11.6976 </r>
       <r>    17.6204     0.8966    11.8008 </r>
       <r>    17.7355     0.5906    11.8688 </r>
       <r>    17.8506     0.1683    11.8881 </r>
       <r>    17.9657    -0.0050    11.8876 </r>
       <r>    18.0808     0.0134    11.8891 </r>
       <r>    18.1959     0.1988    11.9120 </r>
       <r>    18.3110     0.3577    11.9531 </r>
       <r>    18.4261     0.2329    11.9799 </r>
       <r>    18.5412     0.0405    11.9846 </r>
       <r>    18.6563     0.0836    11.9942 </r>
       <r>    18.7714     0.2738    12.0258 </r>
       <r>    18.8865     0.3319    12.0640 </r>
       <r>    19.0016     0.3016    12.0987 </r>
       <r>    19.1167     0.4704    12.1528 </r>
       <r>    19.2318     0.8006    12.2450 </r>
       <r>    19.3469     1.0405    12.3647 </r>
       <r>    19.4620     1.0228    12.4824 </r>
       <r>    19.5771     0.5896    12.5503 </r>
       <r>    19.6922     0.1386    12.5663 </r>
       <r>    19.8073     0.1465    12.5831 </r>
       <r>    19.9224     0.3313    12.6213 </r>
       <r>    20.0375     0.2705    12.6524 </r>
       <r>    20.1526     0.1316    12.6675 </r>
       <r>    20.2677     0.1478    12.6846 </r>
       <r>    20.3828     0.1979    12.7073 </r>
       <r>    20.4979     0.1229    12.7215 </r>
       <r>    20.6130     0.1125    12.7344 </r>
       <r>    20.7281     0.4061    12.7812 </r>
       <r>    20.8432     0.6316    12.8539 </r>
       <r>    20.9583     0.4360    12.9040 </r>
       <r>    21.0734     0.1780    12.9245 </r>
       <r>    21.1885     0.2096    12.9487 </r>
       <r>    21.3036     0.3650    12.9907 </r>
       <r>    21.4187     0.5652    13.0557 </r>
       <r>    21.5338     0.9374    13.1636 </r>
       <r>    21.6489     1.0289    13.2820 </r>
       <r>    21.7640     0.8020    13.3744 </r>
       <r>    21.8791     0.6048    13.4440 </r>
       <r>    21.9942     0.5719    13.5098 </r>
       <r>    22.1093     0.7335    13.5942 </r>
       <r>    22.2244     0.8144    13.6880 </r>
       <r>    22.3395     0.6779    13.7660 </r>
       <r>    22.4546     0.4936    13.8228 </r>
       <r>    22.5697     0.5364    13.8845 </r>
       <r>    22.6848     0.5138    13.9437 </r>
       <r>    22.7999     0.1988    13.9666 </r>
       <r>    22.9150    -0.0151    13.9648 </r>
       <r>    23.0301     0.2040    13.9883 </r>
       <r>    23.1452     0.6806    14.0666 </r>
       <r>    23.2603     0.8634    14.1660 </r>
       <r>    23.3754     0.7686    14.2545 </r>
       <r>    23.4905     0.6214    14.3260 </r>
       <r>    23.6056     0.5917    14.3941 </r>
       <r>    23.7207     0.7953    14.4856 </r>
       <r>    23.8358     1.1500    14.6180 </r>
       <r>    23.9509     1.1829    14.7542 </r>
       <r>    24.0660     0.7298    14.8382 </r>
       <r>    24.1811     0.3699    14.8807 </r>
       <r>    24.2962     0.3746    14.9239 </r>
       <r>    24.4113     0.4660    14.9775 </r>
       <r>    24.5264     0.3219    15.0145 </r>
       <r>    24.6415     0.1577    15.0327 </r>
       <r>    24.7566     0.2420    15.0605 </r>
       <r>    24.8717     0.3685    15.1030 </r>
       <r>    24.9868     0.3499    15.1432 </r>
       <r>    25.1019     0.3623    15.1849 </r>
       <r>    25.2170     0.2665    15.2156 </r>
       <r>    25.3321     0.2337    15.2425 </r>
       <r>    25.4472     0.6272    15.3147 </r>
       <r>    25.5623     0.7617    15.4024 </r>
       <r>    25.6774     0.3164    15.4388 </r>
       <r>    25.7925     0.0524    15.4448 </r>
       <r>    25.9076     0.1854    15.4662 </r>
       <r>    26.0227     0.5207    15.5261 </r>
       <r>    26.1378     0.7922    15.6173 </r>
       <r>    26.2529     0.6486    15.6919 </r>
       <r>    26.3680     0.3961    15.7375 </r>
       <r>    26.4831     0.2261    15.7636 </r>
       <r>    26.5982     0.0897    15.7739 </r>
       <r>    26.7133     0.1806    15.7947 </r>
       <r>    26.8284     0.3680    15.8370 </r>
       <r>    26.9435     0.3099    15.8727 </r>
       <r>    27.0586     0.1212    15.8866 </r>
       <r>    27.1737     0.0373    15.8909 </r>
       <r>    27.2888     0.0133    15.8925 </r>
       <r>    27.4039    -0.0016    15.8923 </r>
       <r>    27.5190    -0.0072    15.8915 </r>
       <r>    27.6341    -0.0186    15.8893 </r>
       <r>    27.7492     0.0120    15.8907 </r>
       <r>    27.8643     0.2035    15.9141 </r>
       <r>    27.9794     0.3859    15.9585 </r>
       <r>    28.0945     0.2496    15.9873 </r>
       <r>    28.2096     0.0332    15.9911 </r>
       <r>    28.3247    -0.0193    15.9889 </r>
       <r>    28.4398    -0.0067    15.9881 </r>
       <r>    28.5549    -0.0008    15.9880 </r>
       <r>    28.6700    -0.0000    15.9880 </r>
       <r>    28.7851    -0.0000    15.9880 </r>
       <r>    28.9002    -0.0001    15.9880 </r>
       <r>    29.0153    -0.0006    15.9879 </r>
       <r>    29.1304    -0.0022    15.9877 </r>
       <r>    29.2455     0.0011    15.9878 </r>
       <r>    29.3606     0.0244    15.9906 </r>
       <r>    29.4757     0.0481    15.9961 </r>
       <r>    29.5908     0.0323    15.9999 </r>
       <r>    29.7059     0.0047    16.0004 </r>
       <r>    29.8210    -0.0024    16.0001 </r>
       <r>    29.9361    -0.0009    16.0000 </r>
       <r>    30.0512    -0.0001    16.0000 </r>
       <r>    30.1663    -0.0000    16.0000 </r>
       <r>    30.2814    -0.0000    16.0000 </r>
       <r>    30.3965    -0.0000    16.0000 </r>
       <r>    30.5116    -0.0000    16.0000 </r>
       <r>    30.6267    -0.0000    16.0000 </r>
       <r>    30.7418    -0.0000    16.0000 </r>
       <r>    30.8569     0.0000    16.0000 </r>
       <r>    30.9720     0.0000    16.0000 </r>
       <r>    31.0871     0.0000    16.0000 </r>
       <r>    31.2022     0.0000    16.0000 </r>
       <r>    31.3173     0.0000    16.0000 </r>
       <r>    31.4324     0.0000    16.0000 </r>
      </set>
     </set>
    </array>
   </total>
  </dos>
 </calculation>
 <structure name="finalpos" >
  <crystal>
   <varray name="basis" >
    <v>      -1.55000000       1.55000000       1.55000000 </v>
    <v>       1.55000000      -1.55000000       1.55000000 </v>
    <v>       1.55000000       1.55000000      -1.55000000 </v>
   </varray>
   <i name="volume">     14.89550000 </i>
   <varray name="rec_basis" >
    <v>       0.00000000       0.32258065       0.32258065 </v>
    <v>       0.32258065       0.00000000       0.32258065 </v>
    <v>       0.32258065       0.32258065       0.00000000 </v>
   </varray>
  </crystal>
  <varray name="positions" >
   <v>       0.00000000       0.00000000       0.00000000 </v>
  </varray>
 </structure>
</modeling>
