   1   1   1   0
  0.1000000E+04  0.1000000E-08  0.1000000E-08  0.1000000E-08  0.5000000E-15
  1.000000000000000E-004
  CAR 
 C-Spin                                  
      3.49083573    -16.55321192  301     -5.95176418      1.00000000
    -16.553  0.0000E+00  0.0000E+00  0.0000E+00  0.0000E+00
    -16.486  0.0000E+00  0.0000E+00  0.0000E+00  0.0000E+00
    -16.420  0.0000E+00  0.0000E+00  0.0000E+00  0.0000E+00
    -16.353  0.0000E+00  0.0000E+00  0.0000E+00  0.0000E+00
    -16.286  0.0000E+00  0.0000E+00  0.0000E+00  0.0000E+00
    -16.219 -0.5181E-30  0.0000E+00 -0.3462E-31  0.0000E+00
    -16.152 -0.1157E-27  0.0000E+00 -0.7763E-29  0.0000E+00
    -16.086 -0.2069E-25  0.0000E+00 -0.1390E-26  0.0000E+00
    -16.019 -0.2954E-23  0.0000E+00 -0.1988E-24  0.0000E+00
    -15.952 -0.3366E-21  0.0000E+00 -0.2269E-22  0.0000E+00
    -15.885 -0.3060E-19  0.0000E+00 -0.2067E-20  0.0000E+00
    -15.818 -0.2218E-17  0.0000E+00 -0.1503E-18  0.0000E+00
    -15.751 -0.1282E-15  0.0000E+00 -0.8714E-17  0.0000E+00
    -15.685 -0.5718E-14  0.0000E+00 -0.3908E-15  0.0000E+00
    -15.618 -0.2088E-12  0.0000E+00 -0.1434E-13  0.0000E+00
    -15.551 -0.6059E-11  0.0000E+00 -0.4192E-12  0.0000E+00
    -15.484 -0.1396E-09  0.0000E+00 -0.9747E-11  0.0000E+00
    -15.417 -0.2550E-08  0.0000E+00 -0.1801E-09  0.0000E+00
    -15.351 -0.3683E-07  0.0000E+00 -0.2641E-08  0.0000E+00
    -15.284 -0.4197E-06  0.0000E+00 -0.3068E-07  0.0000E+00
    -15.217 -0.3756E-05  0.0000E+00 -0.2817E-06  0.0000E+00
    -15.150 -0.2625E-04  0.0000E+00 -0.2036E-05  0.0000E+00
    -15.083 -0.1419E-03  0.0000E+00 -0.1152E-04  0.0000E+00
    -15.017 -0.5841E-03  0.0000E+00 -0.5054E-04  0.0000E+00
    -14.950 -0.1776E-02  0.0000E+00 -0.1692E-03  0.0000E+00
    -14.883 -0.3709E-02  0.0000E+00 -0.4170E-03  0.0000E+00
    -14.816 -0.4047E-02  0.0000E+00 -0.6874E-03  0.0000E+00
    -14.749  0.3419E-02  0.0000E+00 -0.4589E-03  0.0000E+00
    -14.682  0.2494E-01  0.0000E+00  0.1207E-02  0.0000E+00
    -14.616  0.5666E-01  0.0000E+00  0.4993E-02  0.0000E+00
    -14.549  0.8052E-01  0.0000E+00  0.1037E-01  0.0000E+00
    -14.482  0.7860E-01  0.0000E+00  0.1562E-01  0.0000E+00
    -14.415  0.5244E-01  0.0000E+00  0.1913E-01  0.0000E+00
    -14.348  0.2127E-01  0.0000E+00  0.2055E-01  0.0000E+00
    -14.282  0.1712E-02  0.0000E+00  0.2066E-01  0.0000E+00
    -14.215 -0.4281E-02  0.0000E+00  0.2038E-01  0.0000E+00
    -14.148 -0.3457E-02  0.0000E+00  0.2015E-01  0.0000E+00
    -14.081 -0.1563E-02  0.0000E+00  0.2004E-01  0.0000E+00
    -14.014 -0.4927E-03  0.0000E+00  0.2001E-01  0.0000E+00
    -13.947 -0.1153E-03  0.0000E+00  0.2000E-01  0.0000E+00
    -13.881 -0.2061E-04  0.0000E+00  0.2000E-01  0.0000E+00
    -13.814 -0.2853E-05  0.0000E+00  0.2000E-01  0.0000E+00
    -13.747 -0.3087E-06  0.0000E+00  0.2000E-01  0.0000E+00
    -13.680 -0.2625E-07  0.0000E+00  0.2000E-01  0.0000E+00
    -13.613 -0.1762E-08  0.0000E+00  0.2000E-01  0.0000E+00
    -13.547 -0.9354E-10  0.0000E+00  0.2000E-01  0.0000E+00
    -13.480 -0.3938E-11  0.0000E+00  0.2000E-01  0.0000E+00
    -13.413 -0.1317E-12 -0.1673E-28  0.2000E-01 -0.1118E-29
    -13.346 -0.3456E-14 -0.3235E-26  0.2000E-01 -0.2173E-27
    -13.279 -0.6647E-16 -0.5013E-24  0.2000E-01 -0.3371E-25
    -13.213  0.0000E+00 -0.6199E-22  0.2000E-01 -0.4176E-23
    -13.146  0.0000E+00 -0.6116E-20  0.2000E-01 -0.4128E-21
    -13.079  0.0000E+00 -0.4813E-18  0.2000E-01 -0.3257E-19
    -13.012  0.0000E+00 -0.3020E-16  0.2000E-01 -0.2050E-17
    -12.945  0.0000E+00 -0.1460E-14  0.2000E-01 -0.9961E-16
    -12.878  0.0000E+00 -0.5813E-13  0.2000E-01 -0.3984E-14
    -12.812  0.0000E+00 -0.1834E-11  0.2000E-01 -0.1265E-12
    -12.745  0.0000E+00 -0.4594E-10  0.2000E-01 -0.3196E-11
    -12.678  0.0000E+00 -0.9131E-09  0.2000E-01 -0.6420E-10
    -12.611  0.0000E+00 -0.1437E-07  0.2000E-01 -0.1024E-08
    -12.544  0.0000E+00 -0.1785E-06  0.2000E-01 -0.1295E-07
    -12.478  0.0000E+00 -0.1745E-05  0.2000E-01 -0.1295E-06
    -12.411  0.0000E+00 -0.1335E-04  0.2000E-01 -0.1021E-05
    -12.344  0.0000E+00 -0.7931E-04  0.2000E-01 -0.6321E-05
    -12.277  0.0000E+00 -0.3613E-03  0.2000E-01 -0.3046E-04
    -12.210  0.0000E+00 -0.1232E-02  0.2000E-01 -0.1128E-03
    -12.144  0.0000E+00 -0.2991E-02  0.2000E-01 -0.3126E-03
    -12.077  0.0000E+00 -0.4423E-02  0.2000E-01 -0.6081E-03
    -12.010  0.0000E+00 -0.6867E-03  0.2000E-01 -0.6540E-03
    -11.943  0.0000E+00  0.1541E-01  0.2000E-01  0.3759E-03
    -11.876  0.0000E+00  0.4488E-01  0.2000E-01  0.3375E-02
    -11.809  0.0000E+00  0.7417E-01  0.2000E-01  0.8331E-02
    -11.743  0.0000E+00  0.8271E-01  0.2000E-01  0.1386E-01
    -11.676  0.0000E+00  0.6369E-01  0.2000E-01  0.1811E-01
    -11.609  0.0000E+00  0.3183E-01  0.2000E-01  0.2024E-01
    -11.542  0.0000E+00  0.7040E-02  0.2000E-01  0.2071E-01
    -11.475  0.0000E+00 -0.3303E-02  0.2000E-01  0.2049E-01
    -11.409  0.0000E+00 -0.4093E-02  0.2000E-01  0.2021E-01
    -11.342  0.0000E+00 -0.2186E-02  0.2000E-01  0.2007E-01
    -11.275  0.0000E+00 -0.7770E-03  0.2000E-01  0.2002E-01
    -11.208  0.0000E+00 -0.2017E-03  0.2000E-01  0.2000E-01
    -11.141  0.0000E+00 -0.3967E-04  0.2000E-01  0.2000E-01
    -11.075  0.0000E+00 -0.6018E-05  0.2000E-01  0.2000E-01
    -11.008  0.0000E+00 -0.7114E-06  0.2000E-01  0.2000E-01
    -10.941  0.0000E+00 -0.6599E-07  0.2000E-01  0.2000E-01
    -10.874  0.0000E+00 -0.4824E-08  0.2000E-01  0.2000E-01
    -10.807  0.0000E+00 -0.2788E-09  0.2000E-01  0.2000E-01
    -10.740  0.0000E+00 -0.1276E-10  0.2000E-01  0.2000E-01
    -10.674  0.0000E+00 -0.4639E-12  0.2000E-01  0.2000E-01
    -10.607  0.0000E+00 -0.1336E-13  0.2000E-01  0.2000E-01
    -10.540  0.0000E+00 -0.3323E-15  0.2000E-01  0.2000E-01
    -10.473  0.0000E+00  0.0000E+00  0.2000E-01  0.2000E-01
    -10.406  0.0000E+00  0.0000E+00  0.2000E-01  0.2000E-01
    -10.340  0.0000E+00  0.0000E+00  0.2000E-01  0.2000E-01
    -10.273  0.0000E+00  0.0000E+00  0.2000E-01  0.2000E-01
    -10.206  0.0000E+00  0.0000E+00  0.2000E-01  0.2000E-01
    -10.139  0.0000E+00  0.0000E+00  0.2000E-01  0.2000E-01
    -10.072  0.0000E+00  0.0000E+00  0.2000E-01  0.2000E-01
    -10.005  0.0000E+00  0.0000E+00  0.2000E-01  0.2000E-01
     -9.939  0.0000E+00  0.0000E+00  0.2000E-01  0.2000E-01
     -9.872  0.0000E+00  0.0000E+00  0.2000E-01  0.2000E-01
     -9.805  0.0000E+00  0.0000E+00  0.2000E-01  0.2000E-01
     -9.738  0.0000E+00  0.0000E+00  0.2000E-01  0.2000E-01
     -9.671  0.0000E+00  0.0000E+00  0.2000E-01  0.2000E-01
     -9.605  0.0000E+00  0.0000E+00  0.2000E-01  0.2000E-01
     -9.538  0.0000E+00  0.0000E+00  0.2000E-01  0.2000E-01
     -9.471  0.0000E+00  0.0000E+00  0.2000E-01  0.2000E-01
     -9.404  0.0000E+00  0.0000E+00  0.2000E-01  0.2000E-01
     -9.337  0.0000E+00  0.0000E+00  0.2000E-01  0.2000E-01
     -9.271  0.0000E+00  0.0000E+00  0.2000E-01  0.2000E-01
     -9.204  0.0000E+00  0.0000E+00  0.2000E-01  0.2000E-01
     -9.137  0.0000E+00  0.0000E+00  0.2000E-01  0.2000E-01
     -9.070  0.0000E+00  0.0000E+00  0.2000E-01  0.2000E-01
     -9.003  0.0000E+00  0.0000E+00  0.2000E-01  0.2000E-01
     -8.936  0.0000E+00  0.0000E+00  0.2000E-01  0.2000E-01
     -8.870  0.0000E+00  0.0000E+00  0.2000E-01  0.2000E-01
     -8.803  0.0000E+00  0.0000E+00  0.2000E-01  0.2000E-01
     -8.736  0.0000E+00  0.0000E+00  0.2000E-01  0.2000E-01
     -8.669  0.0000E+00  0.0000E+00  0.2000E-01  0.2000E-01
     -8.602  0.0000E+00  0.0000E+00  0.2000E-01  0.2000E-01
     -8.536  0.0000E+00  0.0000E+00  0.2000E-01  0.2000E-01
     -8.469  0.0000E+00  0.0000E+00  0.2000E-01  0.2000E-01
     -8.402  0.0000E+00  0.0000E+00  0.2000E-01  0.2000E-01
     -8.335  0.0000E+00  0.0000E+00  0.2000E-01  0.2000E-01
     -8.268  0.0000E+00  0.0000E+00  0.2000E-01  0.2000E-01
     -8.202  0.0000E+00  0.0000E+00  0.2000E-01  0.2000E-01
     -8.135  0.0000E+00  0.0000E+00  0.2000E-01  0.2000E-01
     -8.068  0.0000E+00  0.0000E+00  0.2000E-01  0.2000E-01
     -8.001  0.0000E+00  0.0000E+00  0.2000E-01  0.2000E-01
     -7.934  0.0000E+00  0.0000E+00  0.2000E-01  0.2000E-01
     -7.867  0.0000E+00  0.0000E+00  0.2000E-01  0.2000E-01
     -7.801  0.0000E+00  0.0000E+00  0.2000E-01  0.2000E-01
     -7.734  0.0000E+00  0.0000E+00  0.2000E-01  0.2000E-01
     -7.667  0.0000E+00  0.0000E+00  0.2000E-01  0.2000E-01
     -7.600 -0.1698E-27  0.0000E+00  0.2000E-01  0.2000E-01
     -7.533 -0.3118E-25  0.0000E+00  0.2000E-01  0.2000E-01
     -7.467 -0.4590E-23  0.0000E+00  0.2000E-01  0.2000E-01
     -7.400 -0.5392E-21  0.0000E+00  0.2000E-01  0.2000E-01
     -7.333 -0.5053E-19  0.0000E+00  0.2000E-01  0.2000E-01
     -7.266 -0.3777E-17  0.0000E+00  0.2000E-01  0.2000E-01
     -7.199 -0.2251E-15  0.0000E+00  0.2000E-01  0.2000E-01
     -7.133 -0.1034E-13  0.0000E+00  0.2000E-01  0.2000E-01
     -7.066 -0.3902E-12  0.0000E+00  0.2000E-01  0.2000E-01
     -6.999 -0.1168E-10  0.0000E+00  0.2000E-01  0.2000E-01
     -6.932 -0.2777E-09  0.0000E+00  0.2000E-01  0.2000E-01
     -6.865 -0.5234E-08  0.0000E+00  0.2000E-01  0.2000E-01
     -6.798 -0.7806E-07  0.0000E+00  0.2000E-01  0.2000E-01
     -6.732 -0.9187E-06  0.0000E+00  0.2000E-01  0.2000E-01
     -6.665 -0.8498E-05  0.0000E+00  0.2000E-01  0.2000E-01
     -6.598 -0.6143E-04  0.0000E+00  0.2000E-01  0.2000E-01
     -6.531 -0.3441E-03  0.0000E+00  0.1997E-01  0.2000E-01
     -6.464 -0.1472E-02  0.0000E+00  0.1987E-01  0.2000E-01
     -6.398 -0.4674E-02  0.0000E+00  0.1956E-01  0.2000E-01
     -6.331 -0.1035E-01  0.0000E+00  0.1887E-01  0.2000E-01
     -6.264 -0.1286E-01  0.0000E+00  0.1801E-01  0.2000E-01
     -6.197  0.5012E-02  0.0000E+00  0.1835E-01  0.2000E-01
     -6.130  0.6354E-01  0.0000E+00  0.2259E-01  0.2000E-01
     -6.063  0.1570E+00  0.0000E+00  0.3308E-01  0.2000E-01
     -5.997  0.2356E+00  0.0000E+00  0.4882E-01  0.2000E-01
     -5.930  0.2417E+00  0.0000E+00  0.6497E-01  0.2000E-01
     -5.863  0.1703E+00  0.0000E+00  0.7635E-01  0.2000E-01
     -5.796  0.7511E-01  0.0000E+00  0.8137E-01  0.2000E-01
     -5.729  0.1040E-01  0.0000E+00  0.8206E-01  0.2000E-01
     -5.663 -0.1212E-01  0.0000E+00  0.8125E-01  0.2000E-01
     -5.596 -0.1115E-01  0.0000E+00  0.8051E-01  0.2000E-01
     -5.529 -0.5345E-02  0.0000E+00  0.8015E-01  0.2000E-01
     -5.462 -0.1760E-02  0.0000E+00  0.8003E-01  0.2000E-01
     -5.395 -0.4280E-03  0.0000E+00  0.8001E-01  0.2000E-01
     -5.329 -0.7925E-04  0.0000E+00  0.8000E-01  0.2000E-01
     -5.262 -0.1135E-04  0.0000E+00  0.8000E-01  0.2000E-01
     -5.195 -0.1269E-05  0.0000E+00  0.8000E-01  0.2000E-01
     -5.128 -0.1115E-06 -0.5122E-28  0.8000E-01  0.2000E-01
     -5.061 -0.7723E-08 -0.9894E-26  0.8000E-01  0.2000E-01
     -4.994 -0.4232E-09 -0.1532E-23  0.8000E-01  0.2000E-01
     -4.928 -0.1838E-10 -0.1893E-21  0.8000E-01  0.2000E-01
     -4.861 -0.6339E-12 -0.1866E-19  0.8000E-01  0.2000E-01
     -4.794 -0.1735E-13 -0.1467E-17  0.8000E-01  0.2000E-01
     -4.727 -0.3988E-15 -0.9198E-16  0.8000E-01  0.2000E-01
     -4.660  0.0000E+00 -0.4445E-14  0.8000E-01  0.2000E-01
     -4.594  0.0000E+00 -0.1767E-12  0.8000E-01  0.2000E-01
     -4.527  0.0000E+00 -0.5570E-11  0.8000E-01  0.2000E-01
     -4.460  0.0000E+00 -0.1394E-09  0.8000E-01  0.2000E-01
     -4.393  0.0000E+00 -0.2769E-08  0.8000E-01  0.2000E-01
     -4.326  0.0000E+00 -0.4353E-07  0.8000E-01  0.2000E-01
     -4.260  0.0000E+00 -0.5403E-06  0.8000E-01  0.2000E-01
     -4.193  0.0000E+00 -0.5276E-05  0.8000E-01  0.2000E-01
     -4.126  0.0000E+00 -0.4033E-04  0.8000E-01  0.2000E-01
     -4.059  0.0000E+00 -0.2394E-03  0.8000E-01  0.1998E-01
     -3.992  0.0000E+00 -0.1089E-02  0.8000E-01  0.1991E-01
     -3.925  0.0000E+00 -0.3712E-02  0.8000E-01  0.1966E-01
     -3.859  0.0000E+00 -0.8995E-02  0.8000E-01  0.1906E-01
     -3.792  0.0000E+00 -0.1327E-01  0.8000E-01  0.1817E-01
     -3.725  0.0000E+00 -0.1960E-02  0.8000E-01  0.1804E-01
     -3.658  0.0000E+00  0.4651E-01  0.8000E-01  0.2115E-01
     -3.591  0.0000E+00  0.1350E+00  0.8000E-01  0.3017E-01
     -3.525  0.0000E+00  0.2228E+00  0.8000E-01  0.4505E-01
     -3.458  0.0000E+00  0.2481E+00  0.8000E-01  0.6163E-01
     -3.391  0.0000E+00  0.1907E+00  0.8000E-01  0.7437E-01
     -3.324  0.0000E+00  0.9513E-01  0.8000E-01  0.8073E-01
     -3.257  0.0000E+00  0.2092E-01  0.8000E-01  0.8213E-01
     -3.191  0.0000E+00 -0.9956E-02  0.8000E-01  0.8146E-01
     -3.124  0.0000E+00 -0.1226E-01  0.8000E-01  0.8064E-01
     -3.057  0.0000E+00 -0.6537E-02  0.8000E-01  0.8020E-01
     -2.990  0.0000E+00 -0.2320E-02  0.8000E-01  0.8005E-01
     -2.923  0.0000E+00 -0.6018E-03  0.8000E-01  0.8001E-01
     -2.856  0.0000E+00 -0.1182E-03  0.8000E-01  0.8000E-01
     -2.790  0.0000E+00 -0.1792E-04  0.8000E-01  0.8000E-01
     -2.723  0.0000E+00 -0.2116E-05  0.8000E-01  0.8000E-01
     -2.656  0.0000E+00 -0.1961E-06  0.8000E-01  0.8000E-01
     -2.589  0.0000E+00 -0.1432E-07  0.8000E-01  0.8000E-01
     -2.522  0.0000E+00 -0.8271E-09  0.8000E-01  0.8000E-01
     -2.456  0.0000E+00 -0.3784E-10  0.8000E-01  0.8000E-01
     -2.389  0.0000E+00 -0.1374E-11  0.8000E-01  0.8000E-01
     -2.322  0.0000E+00 -0.3948E-13  0.8000E-01  0.8000E-01
     -2.255  0.0000E+00 -0.9970E-15  0.8000E-01  0.8000E-01
     -2.188  0.0000E+00  0.0000E+00  0.8000E-01  0.8000E-01
     -2.121 -0.9746E-30  0.0000E+00  0.8000E-01  0.8000E-01
     -2.055 -0.2120E-27  0.0000E+00  0.8000E-01  0.8000E-01
     -1.988 -0.3696E-25  0.0000E+00  0.8000E-01  0.8000E-01
     -1.921 -0.5143E-23  0.0000E+00  0.8000E-01  0.8000E-01
     -1.854 -0.5710E-21  0.0000E+00  0.8000E-01  0.8000E-01
     -1.787 -0.5057E-19  0.0000E+00  0.8000E-01  0.8000E-01
     -1.721 -0.3572E-17  0.0000E+00  0.8000E-01  0.8000E-01
     -1.654 -0.2011E-15 -0.5834E-28  0.8000E-01  0.8000E-01
     -1.587 -0.8738E-14 -0.1070E-25  0.8000E-01  0.8000E-01
     -1.520 -0.3108E-12 -0.1573E-23  0.8000E-01  0.8000E-01
     -1.453 -0.8784E-11 -0.1845E-21  0.8000E-01  0.8000E-01
     -1.387 -0.1971E-09 -0.1727E-19  0.8000E-01  0.8000E-01
     -1.320 -0.3504E-08 -0.1289E-17  0.8000E-01  0.8000E-01
     -1.253 -0.4928E-07 -0.7673E-16  0.8000E-01  0.8000E-01
     -1.186 -0.5463E-06 -0.3522E-14  0.8000E-01  0.8000E-01
     -1.119 -0.4754E-05 -0.1327E-12  0.8000E-01  0.8000E-01
     -1.052 -0.3228E-04 -0.3967E-11  0.8000E-01  0.8000E-01
     -0.986 -0.1693E-03 -0.9418E-10  0.7999E-01  0.8000E-01
     -0.919 -0.6743E-03 -0.1773E-08  0.7994E-01  0.8000E-01
     -0.852 -0.1974E-02 -0.2641E-07  0.7981E-01  0.8000E-01
     -0.785 -0.3911E-02 -0.3103E-06  0.7955E-01  0.8000E-01
     -0.718 -0.3735E-02 -0.2867E-05  0.7930E-01  0.8000E-01
     -0.652  0.5114E-02 -0.2069E-04  0.7964E-01  0.8000E-01
     -0.585  0.2829E-01 -0.1157E-03  0.8153E-01  0.7999E-01
     -0.518  0.6022E-01 -0.4942E-03  0.8555E-01  0.7996E-01
     -0.451  0.8180E-01 -0.1567E-02  0.9102E-01  0.7985E-01
     -0.384  0.7656E-01 -0.3461E-02  0.9613E-01  0.7962E-01
     -0.318  0.4870E-01 -0.4278E-02  0.9939E-01  0.7934E-01
     -0.251  0.1827E-01  0.1739E-02  0.1006E+00  0.7945E-01
     -0.184  0.4306E-03  0.2133E-01  0.1006E+00  0.8088E-01
     -0.117 -0.4390E-02  0.5251E-01  0.1003E+00  0.8439E-01
     -0.050 -0.3228E-02  0.7864E-01  0.1001E+00  0.8964E-01
      0.017 -0.1392E-02  0.8049E-01  0.1000E+00  0.9502E-01
      0.083 -0.4232E-03  0.5659E-01  0.1000E+00  0.9880E-01
      0.150 -0.9595E-04  0.2488E-01  0.1000E+00  0.1005E+00
      0.217 -0.1670E-04  0.3388E-02  0.1000E+00  0.1007E+00
      0.284 -0.2904E-05 -0.4052E-02  0.1000E+00  0.1004E+00
      0.351 -0.6226E-05 -0.3705E-02  0.1000E+00  0.1002E+00
      0.417 -0.4232E-04 -0.1772E-02  0.1000E+00  0.1001E+00
      0.484 -0.2321E-03 -0.5825E-03  0.9998E-01  0.1000E+00
      0.551 -0.9748E-03 -0.1414E-03  0.9992E-01  0.1000E+00
      0.618 -0.3050E-02 -0.2616E-04  0.9971E-01  0.1000E+00
      0.685 -0.6673E-02 -0.3917E-05  0.9927E-01  0.1000E+00
      0.751 -0.8194E-02 -0.2235E-05  0.9872E-01  0.1000E+00
      0.818  0.3342E-02 -0.1463E-04  0.9894E-01  0.1000E+00
      0.885  0.4092E-01 -0.9156E-04  0.1017E+00  0.9999E-01
      0.952  0.1014E+00 -0.4445E-03  0.1084E+00  0.9996E-01
      1.019  0.1536E+00 -0.1639E-02  0.1187E+00  0.9985E-01
      1.086  0.1601E+00 -0.4417E-02  0.1294E+00  0.9956E-01
      1.152  0.1158E+00 -0.7869E-02  0.1371E+00  0.9903E-01
      1.219  0.5361E-01 -0.5532E-02  0.1407E+00  0.9866E-01
      1.286  0.9430E-02  0.1557E-01  0.1414E+00  0.9970E-01
      1.353 -0.7221E-02  0.6396E-01  0.1409E+00  0.1040E+00
      1.420 -0.7486E-02  0.1251E+00  0.1404E+00  0.1123E+00
      1.486 -0.3789E-02  0.1617E+00  0.1401E+00  0.1231E+00
      1.553 -0.1305E-02  0.1461E+00  0.1400E+00  0.1329E+00
      1.620 -0.3317E-03  0.9058E-01  0.1400E+00  0.1390E+00
      1.687 -0.6421E-04  0.3319E-01  0.1400E+00  0.1412E+00
      1.754 -0.9633E-05  0.4240E-03  0.1400E+00  0.1412E+00
      1.820 -0.1131E-05 -0.8231E-02  0.1400E+00  0.1406E+00
      1.887 -0.1044E-06 -0.6022E-02  0.1400E+00  0.1402E+00
      1.954 -0.7623E-08 -0.2617E-02  0.1400E+00  0.1401E+00
      2.021 -0.4409E-09 -0.8069E-03  0.1400E+00  0.1400E+00
      2.088 -0.2025E-10 -0.1865E-03  0.1400E+00  0.1400E+00
      2.155 -0.7398E-12 -0.3313E-04  0.1400E+00  0.1400E+00
      2.221 -0.2154E-13 -0.4584E-05  0.1400E+00  0.1400E+00
      2.288 -0.5317E-15 -0.4977E-06  0.1400E+00  0.1400E+00
      2.355  0.0000E+00 -0.4263E-07  0.1400E+00  0.1400E+00
      2.422  0.0000E+00 -0.2890E-08  0.1400E+00  0.1400E+00
      2.489  0.0000E+00 -0.1554E-09  0.1400E+00  0.1400E+00
      2.555  0.0000E+00 -0.6643E-11  0.1400E+00  0.1400E+00
      2.622  0.0000E+00 -0.2259E-12  0.1400E+00  0.1400E+00
      2.689  0.0000E+00 -0.6115E-14  0.1400E+00  0.1400E+00
      2.756  0.0000E+00 -0.1329E-15  0.1400E+00  0.1400E+00
      2.823  0.0000E+00  0.0000E+00  0.1400E+00  0.1400E+00
      2.890  0.0000E+00  0.0000E+00  0.1400E+00  0.1400E+00
      2.956  0.0000E+00  0.0000E+00  0.1400E+00  0.1400E+00
      3.023  0.0000E+00  0.0000E+00  0.1400E+00  0.1400E+00
      3.090  0.0000E+00  0.0000E+00  0.1400E+00  0.1400E+00
      3.157  0.0000E+00  0.0000E+00  0.1400E+00  0.1400E+00
      3.224  0.0000E+00  0.0000E+00  0.1400E+00  0.1400E+00
      3.290  0.0000E+00  0.0000E+00  0.1400E+00  0.1400E+00
      3.357  0.0000E+00  0.0000E+00  0.1400E+00  0.1400E+00
      3.424  0.0000E+00  0.0000E+00  0.1400E+00  0.1400E+00
      3.491  0.0000E+00  0.0000E+00  0.1400E+00  0.1400E+00
      3.49083573    -16.55321192  301     -5.95176418      1.00000000
    -16.553  0.0000E+00  0.0000E+00  0.0000E+00  0.0000E+00  0.0000E+00  0.0000E+00
    -16.486  0.0000E+00  0.0000E+00  0.0000E+00  0.0000E+00  0.0000E+00  0.0000E+00
    -16.420  0.0000E+00  0.0000E+00  0.0000E+00  0.0000E+00  0.0000E+00  0.0000E+00
    -16.353  0.0000E+00  0.0000E+00  0.0000E+00  0.0000E+00  0.0000E+00  0.0000E+00
    -16.286  0.0000E+00  0.0000E+00  0.0000E+00  0.0000E+00  0.0000E+00  0.0000E+00
    -16.219 -0.1427E-28  0.0000E+00 -0.1093E-45  0.0000E+00 -0.2094E-47  0.0000E+00
    -16.152 -0.3186E-26  0.0000E+00 -0.2441E-43  0.0000E+00 -0.4676E-45  0.0000E+00
    -16.086 -0.5700E-24  0.0000E+00 -0.4366E-41  0.0000E+00 -0.8365E-43  0.0000E+00
    -16.019 -0.8138E-22  0.0000E+00 -0.6234E-39  0.0000E+00 -0.1194E-40  0.0000E+00
    -15.952 -0.9273E-20  0.0000E+00 -0.7103E-37  0.0000E+00 -0.1361E-38  0.0000E+00
    -15.885 -0.8429E-18  0.0000E+00 -0.6457E-35  0.0000E+00 -0.1237E-36  0.0000E+00
    -15.818 -0.6110E-16  0.0000E+00 -0.4680E-33  0.0000E+00 -0.8967E-35  0.0000E+00
    -15.751 -0.3531E-14  0.0000E+00 -0.2705E-31  0.0000E+00 -0.5181E-33  0.0000E+00
    -15.685 -0.1575E-12  0.0000E+00 -0.1207E-29  0.0000E+00 -0.2312E-31  0.0000E+00
    -15.618 -0.5751E-11  0.0000E+00 -0.4406E-28  0.0000E+00 -0.8440E-30  0.0000E+00
    -15.551 -0.1669E-09  0.0000E+00 -0.1279E-26  0.0000E+00 -0.2449E-28  0.0000E+00
    -15.484 -0.3845E-08  0.0000E+00 -0.2946E-25  0.0000E+00 -0.5644E-27  0.0000E+00
    -15.417 -0.7023E-07  0.0000E+00 -0.5380E-24  0.0000E+00 -0.1031E-25  0.0000E+00
    -15.351 -0.1015E-05  0.0000E+00 -0.7773E-23  0.0000E+00 -0.1489E-24  0.0000E+00
    -15.284 -0.1156E-04  0.0000E+00 -0.8856E-22  0.0000E+00 -0.1697E-23  0.0000E+00
    -15.217 -0.1035E-03  0.0000E+00 -0.7926E-21  0.0000E+00 -0.1519E-22  0.0000E+00
    -15.150 -0.7231E-03  0.0000E+00 -0.5539E-20  0.0000E+00 -0.1061E-21  0.0000E+00
    -15.083 -0.3909E-02  0.0000E+00 -0.2994E-19  0.0000E+00 -0.5737E-21  0.0000E+00
    -15.017 -0.1609E-01  0.0000E+00 -0.1233E-18  0.0000E+00 -0.2361E-20  0.0000E+00
    -14.950 -0.4892E-01  0.0000E+00 -0.3747E-18  0.0000E+00 -0.7179E-20  0.0000E+00
    -14.883 -0.1022E+00  0.0000E+00 -0.7826E-18  0.0000E+00 -0.1499E-19  0.0000E+00
    -14.816 -0.1115E+00  0.0000E+00 -0.8539E-18  0.0000E+00 -0.1636E-19  0.0000E+00
    -14.749  0.9418E-01  0.0000E+00  0.7215E-18  0.0000E+00  0.1382E-19  0.0000E+00
    -14.682  0.6870E+00  0.0000E+00  0.5262E-17  0.0000E+00  0.1008E-18  0.0000E+00
    -14.616  0.1561E+01  0.0000E+00  0.1196E-16  0.0000E+00  0.2290E-18  0.0000E+00
    -14.549  0.2218E+01  0.0000E+00  0.1699E-16  0.0000E+00  0.3255E-18  0.0000E+00
    -14.482  0.2165E+01  0.0000E+00  0.1659E-16  0.0000E+00  0.3178E-18  0.0000E+00
    -14.415  0.1444E+01  0.0000E+00  0.1106E-16  0.0000E+00  0.2120E-18  0.0000E+00
    -14.348  0.5860E+00  0.0000E+00  0.4489E-17  0.0000E+00  0.8600E-19  0.0000E+00
    -14.282  0.4716E-01  0.0000E+00  0.3613E-18  0.0000E+00  0.6921E-20  0.0000E+00
    -14.215 -0.1179E+00  0.0000E+00 -0.9032E-18  0.0000E+00 -0.1730E-19  0.0000E+00
    -14.148 -0.9522E-01  0.0000E+00 -0.7294E-18  0.0000E+00 -0.1397E-19  0.0000E+00
    -14.081 -0.4306E-01  0.0000E+00 -0.3299E-18  0.0000E+00 -0.6320E-20  0.0000E+00
    -14.014 -0.1357E-01  0.0000E+00 -0.1040E-18  0.0000E+00 -0.1992E-20  0.0000E+00
    -13.947 -0.3177E-02  0.0000E+00 -0.2434E-19  0.0000E+00 -0.4662E-21  0.0000E+00
    -13.881 -0.5677E-03  0.0000E+00 -0.4349E-20  0.0000E+00 -0.8332E-22  0.0000E+00
    -13.814 -0.7859E-04  0.0000E+00 -0.6021E-21  0.0000E+00 -0.1153E-22  0.0000E+00
    -13.747 -0.8504E-05  0.0000E+00 -0.6514E-22  0.0000E+00 -0.1248E-23  0.0000E+00
    -13.680 -0.7232E-06  0.0000E+00 -0.5540E-23  0.0000E+00 -0.1061E-24  0.0000E+00
    -13.613 -0.4853E-07  0.0000E+00 -0.3718E-24  0.0000E+00 -0.7122E-26  0.0000E+00
    -13.547 -0.2577E-08  0.0000E+00 -0.1974E-25  0.0000E+00 -0.3782E-27  0.0000E+00
    -13.480 -0.1085E-09  0.0000E+00 -0.8309E-27  0.0000E+00 -0.1592E-28  0.0000E+00
    -13.413 -0.3627E-11 -0.4410E-27 -0.2778E-28 -0.2658E-41 -0.5323E-30 -0.1293E-43
    -13.346 -0.9521E-13 -0.8525E-25 -0.7293E-30 -0.5137E-39 -0.1397E-31 -0.2500E-41
    -13.279 -0.1831E-14 -0.1321E-22 -0.1403E-31 -0.7961E-37 -0.2687E-33 -0.3873E-39
    -13.213  0.0000E+00 -0.1634E-20  0.0000E+00 -0.9845E-35  0.0000E+00 -0.4790E-37
    -13.146  0.0000E+00 -0.1612E-18  0.0000E+00 -0.9713E-33  0.0000E+00 -0.4726E-35
    -13.079  0.0000E+00 -0.1269E-16  0.0000E+00 -0.7644E-31  0.0000E+00 -0.3719E-33
    -13.012  0.0000E+00 -0.7959E-15  0.0000E+00 -0.4796E-29  0.0000E+00 -0.2334E-31
    -12.945  0.0000E+00 -0.3848E-13  0.0000E+00 -0.2319E-27  0.0000E+00 -0.1128E-29
    -12.878  0.0000E+00 -0.1532E-11  0.0000E+00 -0.9232E-26  0.0000E+00 -0.4492E-28
    -12.812  0.0000E+00 -0.4832E-10  0.0000E+00 -0.2912E-24  0.0000E+00 -0.1417E-26
    -12.745  0.0000E+00 -0.1211E-08  0.0000E+00 -0.7296E-23  0.0000E+00 -0.3550E-25
    -12.678  0.0000E+00 -0.2406E-07  0.0000E+00 -0.1450E-21  0.0000E+00 -0.7055E-24
    -12.611  0.0000E+00 -0.3786E-06  0.0000E+00 -0.2281E-20  0.0000E+00 -0.1110E-22
    -12.544  0.0000E+00 -0.4704E-05  0.0000E+00 -0.2834E-19  0.0000E+00 -0.1379E-21
    -12.478  0.0000E+00 -0.4598E-04  0.0000E+00 -0.2771E-18  0.0000E+00 -0.1348E-20
    -12.411  0.0000E+00 -0.3518E-03  0.0000E+00 -0.2120E-17  0.0000E+00 -0.1031E-19
    -12.344  0.0000E+00 -0.2090E-02  0.0000E+00 -0.1260E-16  0.0000E+00 -0.6129E-19
    -12.277  0.0000E+00 -0.9522E-02  0.0000E+00 -0.5738E-16  0.0000E+00 -0.2792E-18
    -12.210  0.0000E+00 -0.3248E-01  0.0000E+00 -0.1957E-15  0.0000E+00 -0.9522E-18
    -12.144  0.0000E+00 -0.7881E-01  0.0000E+00 -0.4749E-15  0.0000E+00 -0.2311E-17
    -12.077  0.0000E+00 -0.1166E+00  0.0000E+00 -0.7024E-15  0.0000E+00 -0.3418E-17
    -12.010  0.0000E+00 -0.1810E-01  0.0000E+00 -0.1090E-15  0.0000E+00 -0.5306E-18
    -11.943  0.0000E+00  0.4062E+00  0.0000E+00  0.2448E-14  0.0000E+00  0.1191E-16
    -11.876  0.0000E+00  0.1183E+01  0.0000E+00  0.7128E-14  0.0000E+00  0.3468E-16
    -11.809  0.0000E+00  0.1955E+01  0.0000E+00  0.1178E-13  0.0000E+00  0.5731E-16
    -11.743  0.0000E+00  0.2180E+01  0.0000E+00  0.1313E-13  0.0000E+00  0.6391E-16
    -11.676  0.0000E+00  0.1678E+01  0.0000E+00  0.1011E-13  0.0000E+00  0.4921E-16
    -11.609  0.0000E+00  0.8387E+00  0.0000E+00  0.5054E-14  0.0000E+00  0.2459E-16
    -11.542  0.0000E+00  0.1855E+00  0.0000E+00  0.1118E-14  0.0000E+00  0.5440E-17
    -11.475  0.0000E+00 -0.8704E-01  0.0000E+00 -0.5245E-15  0.0000E+00 -0.2552E-17
    -11.409  0.0000E+00 -0.1079E+00  0.0000E+00 -0.6500E-15  0.0000E+00 -0.3163E-17
    -11.342  0.0000E+00 -0.5760E-01  0.0000E+00 -0.3471E-15  0.0000E+00 -0.1689E-17
    -11.275  0.0000E+00 -0.2048E-01  0.0000E+00 -0.1234E-15  0.0000E+00 -0.6004E-18
    -11.208  0.0000E+00 -0.5316E-02  0.0000E+00 -0.3204E-16  0.0000E+00 -0.1559E-18
    -11.141  0.0000E+00 -0.1045E-02  0.0000E+00 -0.6300E-17  0.0000E+00 -0.3065E-19
    -11.075  0.0000E+00 -0.1586E-03  0.0000E+00 -0.9556E-18  0.0000E+00 -0.4650E-20
    -11.008  0.0000E+00 -0.1875E-04  0.0000E+00 -0.1130E-18  0.0000E+00 -0.5497E-21
    -10.941  0.0000E+00 -0.1739E-05  0.0000E+00 -0.1048E-19  0.0000E+00 -0.5099E-22
    -10.874  0.0000E+00 -0.1271E-06  0.0000E+00 -0.7661E-21  0.0000E+00 -0.3728E-23
    -10.807  0.0000E+00 -0.7347E-08  0.0000E+00 -0.4427E-22  0.0000E+00 -0.2154E-24
    -10.740  0.0000E+00 -0.3364E-09  0.0000E+00 -0.2027E-23  0.0000E+00 -0.9863E-26
    -10.674  0.0000E+00 -0.1222E-10  0.0000E+00 -0.7367E-25  0.0000E+00 -0.3584E-27
    -10.607  0.0000E+00 -0.3521E-12  0.0000E+00 -0.2122E-26  0.0000E+00 -0.1032E-28
    -10.540  0.0000E+00 -0.8758E-14  0.0000E+00 -0.5278E-28  0.0000E+00 -0.2568E-30
    -10.473  0.0000E+00  0.0000E+00  0.0000E+00  0.0000E+00  0.0000E+00  0.0000E+00
    -10.406  0.0000E+00  0.0000E+00  0.0000E+00  0.0000E+00  0.0000E+00  0.0000E+00
    -10.340  0.0000E+00  0.0000E+00  0.0000E+00  0.0000E+00  0.0000E+00  0.0000E+00
    -10.273  0.0000E+00  0.0000E+00  0.0000E+00  0.0000E+00  0.0000E+00  0.0000E+00
    -10.206  0.0000E+00  0.0000E+00  0.0000E+00  0.0000E+00  0.0000E+00  0.0000E+00
    -10.139  0.0000E+00  0.0000E+00  0.0000E+00  0.0000E+00  0.0000E+00  0.0000E+00
    -10.072  0.0000E+00  0.0000E+00  0.0000E+00  0.0000E+00  0.0000E+00  0.0000E+00
    -10.005  0.0000E+00  0.0000E+00  0.0000E+00  0.0000E+00  0.0000E+00  0.0000E+00
     -9.939  0.0000E+00  0.0000E+00  0.0000E+00  0.0000E+00  0.0000E+00  0.0000E+00
     -9.872  0.0000E+00  0.0000E+00  0.0000E+00  0.0000E+00  0.0000E+00  0.0000E+00
     -9.805  0.0000E+00  0.0000E+00  0.0000E+00  0.0000E+00  0.0000E+00  0.0000E+00
     -9.738  0.0000E+00  0.0000E+00  0.0000E+00  0.0000E+00  0.0000E+00  0.0000E+00
     -9.671  0.0000E+00  0.0000E+00  0.0000E+00  0.0000E+00  0.0000E+00  0.0000E+00
     -9.605  0.0000E+00  0.0000E+00  0.0000E+00  0.0000E+00  0.0000E+00  0.0000E+00
     -9.538  0.0000E+00  0.0000E+00  0.0000E+00  0.0000E+00  0.0000E+00  0.0000E+00
     -9.471  0.0000E+00  0.0000E+00  0.0000E+00  0.0000E+00  0.0000E+00  0.0000E+00
     -9.404  0.0000E+00  0.0000E+00  0.0000E+00  0.0000E+00  0.0000E+00  0.0000E+00
     -9.337  0.0000E+00  0.0000E+00  0.0000E+00  0.0000E+00  0.0000E+00  0.0000E+00
     -9.271  0.0000E+00  0.0000E+00  0.0000E+00  0.0000E+00  0.0000E+00  0.0000E+00
     -9.204  0.0000E+00  0.0000E+00  0.0000E+00  0.0000E+00  0.0000E+00  0.0000E+00
     -9.137  0.0000E+00  0.0000E+00  0.0000E+00  0.0000E+00  0.0000E+00  0.0000E+00
     -9.070  0.0000E+00  0.0000E+00  0.0000E+00  0.0000E+00  0.0000E+00  0.0000E+00
     -9.003  0.0000E+00  0.0000E+00  0.0000E+00  0.0000E+00  0.0000E+00  0.0000E+00
     -8.936  0.0000E+00  0.0000E+00  0.0000E+00  0.0000E+00  0.0000E+00  0.0000E+00
     -8.870  0.0000E+00  0.0000E+00  0.0000E+00  0.0000E+00  0.0000E+00  0.0000E+00
     -8.803  0.0000E+00  0.0000E+00  0.0000E+00  0.0000E+00  0.0000E+00  0.0000E+00
     -8.736  0.0000E+00  0.0000E+00  0.0000E+00  0.0000E+00  0.0000E+00  0.0000E+00
     -8.669  0.0000E+00  0.0000E+00  0.0000E+00  0.0000E+00  0.0000E+00  0.0000E+00
     -8.602  0.0000E+00  0.0000E+00  0.0000E+00  0.0000E+00  0.0000E+00  0.0000E+00
     -8.536  0.0000E+00  0.0000E+00  0.0000E+00  0.0000E+00  0.0000E+00  0.0000E+00
     -8.469  0.0000E+00  0.0000E+00  0.0000E+00  0.0000E+00  0.0000E+00  0.0000E+00
     -8.402  0.0000E+00  0.0000E+00  0.0000E+00  0.0000E+00  0.0000E+00  0.0000E+00
     -8.335  0.0000E+00  0.0000E+00  0.0000E+00  0.0000E+00  0.0000E+00  0.0000E+00
     -8.268  0.0000E+00  0.0000E+00  0.0000E+00  0.0000E+00  0.0000E+00  0.0000E+00
     -8.202  0.0000E+00  0.0000E+00  0.0000E+00  0.0000E+00  0.0000E+00  0.0000E+00
     -8.135  0.0000E+00  0.0000E+00  0.0000E+00  0.0000E+00  0.0000E+00  0.0000E+00
     -8.068  0.0000E+00  0.0000E+00  0.0000E+00  0.0000E+00  0.0000E+00  0.0000E+00
     -8.001  0.0000E+00  0.0000E+00  0.0000E+00  0.0000E+00  0.0000E+00  0.0000E+00
     -7.934  0.0000E+00  0.0000E+00  0.0000E+00  0.0000E+00  0.0000E+00  0.0000E+00
     -7.867  0.0000E+00  0.0000E+00  0.0000E+00  0.0000E+00  0.0000E+00  0.0000E+00
     -7.801  0.0000E+00  0.0000E+00  0.0000E+00  0.0000E+00  0.0000E+00  0.0000E+00
     -7.734  0.0000E+00  0.0000E+00  0.0000E+00  0.0000E+00  0.0000E+00  0.0000E+00
     -7.667  0.0000E+00  0.0000E+00  0.0000E+00  0.0000E+00  0.0000E+00  0.0000E+00
     -7.600 -0.8533E-42  0.0000E+00 -0.4184E-26  0.0000E+00 -0.4304E-41  0.0000E+00
     -7.533 -0.1567E-39  0.0000E+00 -0.7682E-24  0.0000E+00 -0.7902E-39  0.0000E+00
     -7.467 -0.2307E-37  0.0000E+00 -0.1131E-21  0.0000E+00 -0.1163E-36  0.0000E+00
     -7.400 -0.2710E-35  0.0000E+00 -0.1329E-19  0.0000E+00 -0.1367E-34  0.0000E+00