    1    1   50    2
  0.1000000E+04  0.1000000E-08  0.1000000E-08  0.1000000E-08  0.5000000E-15
  1.000000000000000E-004
  CAR 
 C-Spin                                  
      4      1      7
 
  0.0000000E+00  0.0000000E+00  0.0000000E+00  0.1000000E+01
    1      -14.553212    -11.789619   1.000000   1.000000
    2       -5.992044     -3.504996   0.666667  -0.000000
    3       -5.992044     -3.504996   0.666667  -0.000000
    4       -5.992044     -3.504996   0.666667  -0.000000
    5       -0.463224     -0.046023   0.000000   0.000000
    6        1.007914      1.443936   0.000000   0.000000
    7        1.045045      1.490836   0.000000   0.000000
