 running on    4 total cores
 distrk:  each k-point on    4 cores,    1 groups
 distr:  one band on    4 cores,    1 groups
 using from now: INCAR     
 vasp.5.4.4.18Apr17-6-g9f103f2a35 (build May 18 2018 14:42:58) complex          
  
 POSCAR found type information on POSCAR  C 
 POSCAR found :  1 types and       1 ions
 scaLAPACK will be used
 LDA part: xc-table for Pade appr. of Perdew
 POSCAR, INCAR and KPOINTS ok, starting setup
 FFT: planning ...
 WAVECAR not read
 WARNING: random wavefunctions but no delay for mixing, default for NELMDL
 entering main loop
       N       E                     dE             d eps       ncg     rms          rms(c)
DAV:   1     0.120741984546E+02    0.12074E+02   -0.35973E+02    28   0.147E+02
DAV:   2     0.230850953752E+01   -0.97657E+01   -0.97671E+01    56   0.295E+01
DAV:   3    -0.778764539601E+00   -0.30873E+01   -0.19595E+01    42   0.207E+01
DAV:   4    -0.100208963160E+01   -0.22333E+00   -0.16645E+00    28   0.449E+00
DAV:   5    -0.100649757009E+01   -0.44079E-02   -0.43870E-02    56   0.759E-01    0.384E+00
DAV:   6     0.194448509287E+00    0.12009E+01   -0.30732E+00    35   0.706E+00    0.112E+00
DAV:   7    -0.476463077685E+00   -0.67091E+00   -0.37604E-01    28   0.318E+00    0.451E-01
DAV:   8    -0.103657370595E+01   -0.56011E+00   -0.32821E-01    28   0.206E+00    0.392E-01
DAV:   9    -0.116625604086E+01   -0.12968E+00   -0.27517E-02    28   0.853E-01    0.211E-01
DAV:  10    -0.124453911325E+01   -0.78283E-01   -0.10080E-02    28   0.459E-01    0.663E-02
DAV:  11    -0.131061596945E+01   -0.66077E-01   -0.26609E-02    42   0.548E-01    0.636E-02
DAV:  12    -0.131254484317E+01   -0.19289E-02   -0.37229E-04    28   0.910E-02    0.351E-02
DAV:  13    -0.131404187500E+01   -0.14970E-02   -0.52724E-04    28   0.963E-02    0.114E-02
DAV:  14    -0.131429231329E+01   -0.25044E-03   -0.68545E-05    28   0.380E-02    0.219E-02
DAV:  15    -0.131437312892E+01   -0.80816E-04   -0.24055E-05    42   0.238E-02
   1 F= -.13143731E+01 E0= -.12894825E+01  d E =-.131437E+01  mag=     1.9997
 curvature:   0.00 expect dE= 0.000E+00 dE for cont linesearch  0.000E+00
 trial: gam= 0.00000 g(F)=  0.000E+00 g(S)=  0.000E+00 ort = 0.000E+00 (trialstep = 0.100E+01)
 search vector abs. value=  0.100E-09
 reached required accuracy - stopping structural energy minimisation
 writing wavefunctions
