 vasp.5.4.4.18Apr17-6-g9f103f2a35 (build May 18 2018 14:42:58) complex          
  
 executed on             LinuxIFC date 2020.06.17  18:33:47
 running on    4 total cores
 distrk:  each k-point on    4 cores,    1 groups
 distr:  one band on NCORES_PER_BAND=   4 cores,    1 groups


--------------------------------------------------------------------------------------------------------


 INCAR:
 POTCAR:   PAW_PBE C 08Apr2002                    
 POTCAR:   PAW_PBE C 08Apr2002                    
   VRHFIN =C: s2p2                                                              
   LEXCH  = PE                                                                  
   EATOM  =   147.1560 eV,   10.8157 Ry                                         
                                                                                
   TITEL  = PAW_PBE C 08Apr2002                                                 
   LULTRA =        F    use ultrasoft PP ?                                      
   IUNSCR =        0    unscreen: 0-lin 1-nonlin 2-no                           
   RPACOR =     .000    partial core radius                                     
   POMASS =   12.011; ZVAL   =    4.000    mass and valenz                      
   RCORE  =    1.500    outmost cutoff radius                                   
   RWIGS  =    1.630; RWIGS  =     .863    wigner-seitz radius (au A)           
   ENMAX  =  400.000; ENMIN  =  300.000 eV                                      
   ICORE  =        2    local potential                                         
   LCOR   =        T    correct aug charges                                     
   LPAW   =        T    paw PP                                                  
   EAUG   =  644.873                                                            
   DEXC   =     .000                                                            
   RMAX   =    2.266    core radius for proj-oper                               
   RAUG   =    1.300    factor for augmentation sphere                          
   RDEP   =    1.501    radius for radial grids                                 
   RDEPT  =    1.300    core radius for aug-charge                              
   QCUT   =   -5.516; QGAM   =   11.032    optimization parameters              
                                                                                
   Description                                                                  
     l     E      TYP  RCUT    TYP  RCUT                                        
     0   .000     23  1.200                                                     
     0   .000     23  1.200                                                     
     1   .000     23  1.500                                                     
     1  2.500     23  1.500                                                     
     2   .000      7  1.500                                                     
  local pseudopotential read in
  atomic valenz-charges read in
  non local Contribution for L=           0  read in
    real space projection operators read in
  non local Contribution for L=           0  read in
    real space projection operators read in
  non local Contribution for L=           1  read in
    real space projection operators read in
  non local Contribution for L=           1  read in
    real space projection operators read in
    PAW grid and wavefunctions read in
 
   number of l-projection  operators is LMAX  =           4
   number of lm-projection operators is LMMAX =           8
 
 PAW_PBE C 08Apr2002                    :
 energy of atom  1       EATOM= -147.1560
 kinetic energy error for atom=    0.0288 (will be added to EATOM!!)
 
 
 POSCAR: C-Spin                                  
  positions in direct lattice
  No initial velocities read in
 exchange correlation table for  LEXCH =        8
   RHO(1)=    0.500       N(1)  =     2000
   RHO(2)=  100.500       N(2)  =     4000
 


--------------------------------------------------------------------------------------------------------


 ion  position               nearest neighbor table
   1  0.000  0.000  0.000-
 
  LATTYP: Found a simple cubic cell.
 ALAT       =    10.0000000000
  
  Lattice vectors:
  
 A1 = (  10.0000000000,   0.0000000000,   0.0000000000)
 A2 = (   0.0000000000,  10.0000000000,   0.0000000000)
 A3 = (   0.0000000000,   0.0000000000,  10.0000000000)


Analysis of symmetry for initial positions (statically):
=====================================================================
 Subroutine PRICEL returns:
 Original cell was already a primitive cell.
 

 Routine SETGRP: Setting up the symmetry group for a 
 simple cubic supercell.


 Subroutine GETGRP returns: Found 48 space group operations
 (whereof 48 operations were pure point group operations)
 out of a pool of 48 trial point group operations.


The static configuration has the point symmetry O_h .


Analysis of symmetry for dynamics (positions and initial velocities):
=====================================================================
 Subroutine PRICEL returns:
 Original cell was already a primitive cell.
 

 Routine SETGRP: Setting up the symmetry group for a 
 simple cubic supercell.


 Subroutine GETGRP returns: Found 48 space group operations
 (whereof 48 operations were pure point group operations)
 out of a pool of 48 trial point group operations.


The dynamic configuration has the point symmetry O_h .


Analysis of structural, dynamic, and magnetic symmetry:
=====================================================================
 Subroutine PRICEL returns:
 Original cell was already a primitive cell.
 

 Routine SETGRP: Setting up the symmetry group for a 
 simple cubic supercell.


 Subroutine GETGRP returns: Found 48 space group operations
 (whereof 48 operations were pure point group operations)
 out of a pool of 48 trial point group operations.


The magnetic configuration has the point symmetry O_h .


 Subroutine INISYM returns: Found 48 space group operations
 (whereof 48 operations are pure point group operations),
 and found     1 'primitive' translations

 
 
 KPOINTS: 1*1*1                                   

Automatic generation of k-mesh.
Space group operators:
 irot       det(A)        alpha          n_x          n_y          n_z        tau_x        tau_y        tau_z
    1     1.000000     0.000000     1.000000     0.000000     0.000000     0.000000     0.000000     0.000000
    2    -1.000000     0.000000     1.000000     0.000000     0.000000     0.000000     0.000000     0.000000
    3     1.000000   120.000000    -0.577350    -0.577350    -0.577350     0.000000     0.000000     0.000000
    4    -1.000000   120.000000    -0.577350    -0.577350    -0.577350     0.000000     0.000000     0.000000
    5     1.000000   120.000000     0.577350     0.577350     0.577350     0.000000     0.000000     0.000000
    6    -1.000000   120.000000     0.577350     0.577350     0.577350     0.000000     0.000000     0.000000
    7     1.000000    90.000000     0.000000     0.000000    -1.000000     0.000000     0.000000     0.000000
    8    -1.000000    90.000000     0.000000     0.000000    -1.000000     0.000000     0.000000     0.000000
    9     1.000000   180.000000     0.000000     0.707107     0.707107     0.000000     0.000000     0.000000
   10    -1.000000   180.000000     0.000000     0.707107     0.707107     0.000000     0.000000     0.000000
   11     1.000000    90.000000     0.000000     1.000000     0.000000     0.000000     0.000000     0.000000
   12    -1.000000    90.000000     0.000000     1.000000     0.000000     0.000000     0.000000     0.000000
   13     1.000000   180.000000     0.000000     0.000000     1.000000     0.000000     0.000000     0.000000
   14    -1.000000   180.000000     0.000000     0.000000     1.000000     0.000000     0.000000     0.000000
   15     1.000000   120.000000    -0.577350     0.577350     0.577350     0.000000     0.000000     0.000000
   16    -1.000000   120.000000    -0.577350     0.577350     0.577350     0.000000     0.000000     0.000000
   17     1.000000   120.000000    -0.577350     0.577350    -0.577350     0.000000     0.000000     0.000000
   18    -1.000000   120.000000    -0.577350     0.577350    -0.577350     0.000000     0.000000     0.000000
   19     1.000000    90.000000     0.000000     0.000000     1.000000     0.000000     0.000000     0.000000
   20    -1.000000    90.000000     0.000000     0.000000     1.000000     0.000000     0.000000     0.000000
   21     1.000000    90.000000    -1.000000     0.000000     0.000000     0.000000     0.000000     0.000000
   22    -1.000000    90.000000    -1.000000     0.000000     0.000000     0.000000     0.000000     0.000000
   23     1.000000   180.000000     0.707107     0.000000     0.707107     0.000000     0.000000     0.000000
   24    -1.000000   180.000000     0.707107     0.000000     0.707107     0.000000     0.000000     0.000000
   25     1.000000   120.000000     0.577350    -0.577350     0.577350     0.000000     0.000000     0.000000
   26    -1.000000   120.000000     0.577350    -0.577350     0.577350     0.000000     0.000000     0.000000
   27     1.000000   120.000000    -0.577350    -0.577350     0.577350     0.000000     0.000000     0.000000
   28    -1.000000   120.000000    -0.577350    -0.577350     0.577350     0.000000     0.000000     0.000000
   29     1.000000   180.000000     1.000000     0.000000     0.000000     0.000000     0.000000     0.000000
   30    -1.000000   180.000000     1.000000     0.000000     0.000000     0.000000     0.000000     0.000000
   31     1.000000    90.000000     0.000000    -1.000000     0.000000     0.000000     0.000000     0.000000
   32    -1.000000    90.000000     0.000000    -1.000000     0.000000     0.000000     0.000000     0.000000
   33     1.000000   180.000000     0.707107     0.707107     0.000000     0.000000     0.000000     0.000000
   34    -1.000000   180.000000     0.707107     0.707107     0.000000     0.000000     0.000000     0.000000
   35     1.000000    90.000000     1.000000     0.000000     0.000000     0.000000     0.000000     0.000000
   36    -1.000000    90.000000     1.000000     0.000000     0.000000     0.000000     0.000000     0.000000
   37     1.000000   120.000000     0.577350    -0.577350    -0.577350     0.000000     0.000000     0.000000
   38    -1.000000   120.000000     0.577350    -0.577350    -0.577350     0.000000     0.000000     0.000000
   39     1.000000   180.000000     0.000000     1.000000     0.000000     0.000000     0.000000     0.000000
   40    -1.000000   180.000000     0.000000     1.000000     0.000000     0.000000     0.000000     0.000000
   41     1.000000   120.000000     0.577350     0.577350    -0.577350     0.000000     0.000000     0.000000
   42    -1.000000   120.000000     0.577350     0.577350    -0.577350     0.000000     0.000000     0.000000
   43     1.000000   180.000000     0.000000    -0.707107     0.707107     0.000000     0.000000     0.000000
   44    -1.000000   180.000000     0.000000    -0.707107     0.707107     0.000000     0.000000     0.000000
   45     1.000000   180.000000     0.707107    -0.707107     0.000000     0.000000     0.000000     0.000000
   46    -1.000000   180.000000     0.707107    -0.707107     0.000000     0.000000     0.000000     0.000000
   47     1.000000   180.000000     0.707107     0.000000    -0.707107     0.000000     0.000000     0.000000
   48    -1.000000   180.000000     0.707107     0.000000    -0.707107     0.000000     0.000000     0.000000
 
 Subroutine IBZKPT returns following result:
 ===========================================
 
 Found      1 irreducible k-points:
 
 Following reciprocal coordinates:
            Coordinates               Weight
  0.000000  0.000000  0.000000      1.000000
 
 Following cartesian coordinates:
            Coordinates               Weight
  0.000000  0.000000  0.000000      1.000000
 


--------------------------------------------------------------------------------------------------------




 Dimension of arrays:
   k-points           NKPTS =      1   k-points in BZ     NKDIM =      1   number of bands    NBANDS=      7
   number of dos      NEDOS =    301   number of ions     NIONS =      1
   non local maximal  LDIM  =      4   non local SUM 2l+1 LMDIM =      8
   total plane-waves  NPLWV = 125000
   max r-space proj   IRMAX =      1   max aug-charges    IRDMAX=   1674
   dimension x,y,z NGX =    50 NGY =   50 NGZ =   50
   dimension x,y,z NGXF=   100 NGYF=  100 NGZF=  100
   support grid    NGXF=   100 NGYF=  100 NGZF=  100
   ions per type =               1
   NGX,Y,Z   is equivalent  to a cutoff of   8.31,  8.31,  8.31 a.u.
   NGXF,Y,Z  is equivalent  to a cutoff of  16.62, 16.62, 16.62 a.u.

 SYSTEM =  C-Spin                                  
 POSCAR =  C-Spin                                  

 Startparameter for this run:
   NWRITE =      2    write-flag & timer
   PREC   = normal    normal or accurate (medium, high low for compatibility)
   ISTART =      0    job   : 0-new  1-cont  2-samecut
   ICHARG =      2    charge: 1-file 2-atom 10-const
   ISPIN  =      2    spin polarized calculation?
   LNONCOLLINEAR =      F non collinear calculations
   LSORBIT =      F    spin-orbit coupling
   INIWAV =      1    electr: 0-lowe 1-rand  2-diag
   LASPH  =      F    aspherical Exc in radial PAW
   METAGGA=      F    non-selfconsistent MetaGGA calc.

 Electronic Relaxation 1
   ENCUT  =  400.0 eV  29.40 Ry    5.42 a.u.  16.31 16.31 16.31*2*pi/ulx,y,z
   ENINI  =  400.0     initial cutoff
   ENAUG  =  644.9 eV  augmentation charge cutoff
   NELM   =     60;   NELMIN=  2; NELMDL=  0     # of ELM steps 
   EDIFF  = 0.1E-03   stopping-criterion for ELM
   LREAL  =      F    real-space projection
   NLSPLINE    = F    spline interpolate recip. space projectors
   LCOMPAT=      F    compatible to vasp.4.4
   GGA_COMPAT  = T    GGA compatible to vasp.4.4-vasp.4.6
   LMAXPAW     = -100 max onsite density
   LMAXMIX     =    2 max onsite mixed and CHGCAR
   VOSKOWN=      0    Vosko Wilk Nusair interpolation
   ROPT   =    0.00000
 Ionic relaxation
   EDIFFG = -.1E-01   stopping-criterion for IOM
   NSW    =     50    number of steps for IOM
   NBLOCK =      1;   KBLOCK =     50    inner block; outer block 
   IBRION =      2    ionic relax: 0-MD 1-quasi-New 2-CG
   NFREE  =      1    steps in history (QN), initial steepest desc. (CG)
   ISIF   =      2    stress and relaxation
   IWAVPR =     11    prediction:  0-non 1-charg 2-wave 3-comb
   ISYM   =      2    0-nonsym 1-usesym 2-fastsym
   LCORR  =      T    Harris-Foulkes like correction to forces

   POTIM  = 0.5000    time-step for ionic-motion
   TEIN   =    0.0    initial temperature
   TEBEG  =    0.0;   TEEND  =   0.0 temperature during run
   SMASS  =  -3.00    Nose mass-parameter (am)
   estimated Nose-frequenzy (Omega)   =  0.10E-29 period in steps =****** mass=  -0.229E-26a.u.
   SCALEE = 1.0000    scale energy and forces
   NPACO  =    256;   APACO  = 16.0  distance and # of slots for P.C.
   PSTRESS=    0.0 pullay stress

  Mass of Ions in am
   POMASS =  12.01
  Ionic Valenz
   ZVAL   =   4.00
  Atomic Wigner-Seitz radii
   RWIGS  =   0.86
  virtual crystal weights 
   VCA    =   1.00
   NELECT =       4.0000    total number of electrons
   NUPDOWN=      -1.0000    fix difference up-down

 DOS related values:
   EMIN   =  10.00;   EMAX   =-10.00  energy-range for DOS
   EFERMI =   0.00
   ISMEAR =     1;   SIGMA  =   0.20  broadening in eV -4-tet -1-fermi 0-gaus

 Electronic relaxation 2 (details)
   IALGO  =     38    algorithm
   LDIAG  =      T    sub-space diagonalisation (order eigenvalues)
   LSUBROT=      F    optimize rotation matrix (better conditioning)
   TURBO    =      0    0=normal 1=particle mesh
   IRESTART =      0    0=no restart 2=restart with 2 vectors
   NREBOOT  =      0    no. of reboots
   NMIN     =      0    reboot dimension
   EREF     =   0.00    reference energy to select bands
   IMIX   =      4    mixing-type and parameters
     AMIX     =   0.40;   BMIX     =  1.00
     AMIX_MAG =   1.60;   BMIX_MAG =  1.00
     AMIN     =   0.10
     WC   =   100.;   INIMIX=   1;  MIXPRE=   1;  MAXMIX= -45

 Intra band minimization:
   WEIMIN = 0.0010     energy-eigenvalue tresh-hold
   EBREAK =  0.36E-05  absolut break condition
   DEPER  =   0.30     relativ break condition  

   TIME   =   0.40     timestep for ELM

  volume/ion in A,a.u.               =    1000.00      6748.33
  Fermi-wavevector in a.u.,A,eV,Ry     =   0.259873  0.491089  0.918857  0.067534
  Thomas-Fermi vector in A             =   1.087013
 
 Write flags
   LWAVE        =      T    write WAVECAR
   LDOWNSAMPLE  =      F    k-point downsampling of WAVECAR
   LCHARG       =      T    write CHGCAR
   LVTOT        =      F    write LOCPOT, total local potential
   LVHAR        =      F    write LOCPOT, Hartree potential only
   LELF         =      F    write electronic localiz. function (ELF)
   LORBIT       =      0    0 simple, 1 ext, 2 COOP (PROOUT), +10 PAW based schemes


 Dipole corrections
   LMONO  =      F    monopole corrections only (constant potential shift)
   LDIPOL =      F    correct potential (dipole corrections)
   IDIPOL =      0    1-x, 2-y, 3-z, 4-all directions 
   EPSILON=  1.0000000 bulk dielectric constant

 Exchange correlation treatment:
   GGA     =    --    GGA type
   LEXCH   =     8    internal setting for exchange type
   VOSKOWN=      0    Vosko Wilk Nusair interpolation
   LHFCALC =     F    Hartree Fock is set to
   LHFONE  =     F    Hartree Fock one center treatment
   AEXX    =    0.0000 exact exchange contribution

 Linear response parameters
   LEPSILON=     F    determine dielectric tensor
   LRPA    =     F    only Hartree local field effects (RPA)
   LNABLA  =     F    use nabla operator in PAW spheres
   LVEL    =     F    velocity operator in full k-point grid
   LINTERFAST=   F  fast interpolation
   KINTER  =     0    interpolate to denser k-point grid
   CSHIFT  =0.1000    complex shift for real part using Kramers Kronig
   OMEGAMAX=  -1.0    maximum frequency
   DEG_THRESHOLD= 0.2000000E-02 threshold for treating states as degnerate
   RTIME   =   -0.100 relaxation time in fs
  (WPLASMAI=    0.000 imaginary part of plasma frequency in eV, 0.658/RTIME)
   DFIELD  = 0.0000000 0.0000000 0.0000000 field for delta impulse in time
 
 Orbital magnetization related:
   ORBITALMAG=     F  switch on orbital magnetization
   LCHIMAG   =     F  perturbation theory with respect to B field
   DQ        =  0.001000  dq finite difference perturbation B field
   LLRAUG    =     F  two centre corrections for induced B field



--------------------------------------------------------------------------------------------------------


 conjugate gradient relaxation of ions
 charge density and potential will be updated during run
 spin polarized calculation
 Variant of blocked Davidson
 Davidson routine will perform the subspace rotation
 perform sub-space diagonalisation
    after iterative eigenvector-optimisation
 modified Broyden-mixing scheme, WC =      100.0
 initial mixing is a Kerker type mixing with AMIX =  0.4000 and BMIX =      1.0000
 Hartree-type preconditioning will be used
 using additional bands            5
 reciprocal scheme for non local part
 calculate Harris-corrections to forces 
   (improved forces if not selfconsistent)
 use gradient corrections 
 use of overlap-Matrix (Vanderbilt PP)
 Methfessel and Paxton  Order N= 1 SIGMA  =   0.20


--------------------------------------------------------------------------------------------------------


  energy-cutoff  :      400.00
  volume of cell :     1000.00
      direct lattice vectors                 reciprocal lattice vectors
    10.000000000  0.000000000  0.000000000     0.100000000  0.000000000  0.000000000
     0.000000000 10.000000000  0.000000000     0.000000000  0.100000000  0.000000000
     0.000000000  0.000000000 10.000000000     0.000000000  0.000000000  0.100000000

  length of vectors
    10.000000000 10.000000000 10.000000000     0.100000000  0.100000000  0.100000000


 
 k-points in units of 2pi/SCALE and weight: 1*1*1                                   
   0.00000000  0.00000000  0.00000000       1.000
 
 k-points in reciprocal lattice and weights: 1*1*1                                   
   0.00000000  0.00000000  0.00000000       1.000
 
 position of ions in fractional coordinates (direct lattice) 
   0.00000000  0.00000000  0.00000000
 
 position of ions in cartesian coordinates  (Angst):
   0.00000000  0.00000000  0.00000000
 


--------------------------------------------------------------------------------------------------------


 k-point  1 :   0.0000 0.0000 0.0000  plane waves:   18037

 maximum and minimum number of plane-waves per node :      4520     4501

 maximum number of plane-waves:     18037
 maximum index in each direction: 
   IXMAX=   16   IYMAX=   16   IZMAX=   16
   IXMIN=  -16   IYMIN=  -16   IZMIN=  -16


 parallel 3D FFT for wavefunctions:
    minimum data exchange during FFTs selected (reduces bandwidth)
 parallel 3D FFT for charge:
    minimum data exchange during FFTs selected (reduces bandwidth)


 total amount of memory used by VASP MPI-rank0    83364. kBytes
=======================================================================

   base      :      30000. kBytes
   nonl-proj :        361. kBytes
   fftplans  :      17904. kBytes
   grid      :      34080. kBytes
   one-center:          6. kBytes
   wavefun   :       1013. kBytes
 
     INWAV:  cpu time    0.0001: real time    0.0002
 Broyden mixing: mesh for mixing (old mesh)
   NGX = 33   NGY = 33   NGZ = 33
  (NGX  =100   NGY  =100   NGZ  =100)
  gives a total of  35937 points

 initial charge density was supplied:
 charge density of overlapping atoms calculated
 number of electron       4.0000000 magnetization       1.0000000
 keeping initial charge density in first step


--------------------------------------------------------------------------------------------------------


 Maximum index for augmentation-charges          347 (set IRDMAX)


--------------------------------------------------------------------------------------------------------


 First call to EWALD:  gamma=   0.177
 Maximum number of real-space cells 3x 3x 3
 Maximum number of reciprocal cells 3x 3x 3

    FEWALD:  cpu time    0.0010: real time    0.0010


--------------------------------------- Iteration      1(   1)  ---------------------------------------


    POTLOK:  cpu time    0.2906: real time    0.3065
    SETDIJ:  cpu time    0.0037: real time    0.0037
     EDDAV:  cpu time    0.0447: real time    0.0543
       DOS:  cpu time    0.0002: real time    0.0002
    --------------------------------------------
      LOOP:  cpu time    0.3392: real time    0.3647

 eigenvalue-minimisations  :    28
 total energy-change (2. order) : 0.1207420E+02  (-0.3597267E+02)
 number of electron       4.0000000 magnetization       1.0000000
 augmentation part        4.0000000 magnetization       1.0000000

 Free energy of the ion-electron system (eV)
  ---------------------------------------------------
  alpha Z        PSCENC =         0.08148016
  Ewald energy   TEWEN  =       -32.68518401
  -Hartree energ DENC   =       -86.94625647
  -exchange      EXHF   =         0.00000000
  -V(xc)+E(xc)   XCENC  =        11.33202780
  PAW double counting   =        37.73782621      -38.87930731
  entropy T*S    EENTRO =         0.00682938
  eigenvalues    EBANDS =       -25.70044118
  atomic energy  EATOM  =       147.12722387
  Solvation  Ediel_sol  =         0.00000000
  ---------------------------------------------------
  free energy    TOTEN  =        12.07419845 eV

  energy without entropy =       12.06736907  energy(sigma->0) =       12.07192199


--------------------------------------------------------------------------------------------------------




--------------------------------------- Iteration      1(   2)  ---------------------------------------


     EDDAV:  cpu time    0.0659: real time    0.0681
       DOS:  cpu time    0.0002: real time    0.0002
    --------------------------------------------
      LOOP:  cpu time    0.0660: real time    0.0682

 eigenvalue-minimisations  :    56
 total energy-change (2. order) :-0.9765689E+01  (-0.9767059E+01)
 number of electron       4.0000000 magnetization       1.0000000
 augmentation part        4.0000000 magnetization       1.0000000

 Free energy of the ion-electron system (eV)
  ---------------------------------------------------
  alpha Z        PSCENC =         0.08148016
  Ewald energy   TEWEN  =       -32.68518401
  -Hartree energ DENC   =       -86.94625647
  -exchange      EXHF   =         0.00000000
  -V(xc)+E(xc)   XCENC  =        11.33202780
  PAW double counting   =        37.73782621      -38.87930731
  entropy T*S    EENTRO =         0.00579820
  eigenvalues    EBANDS =       -35.46509892
  atomic energy  EATOM  =       147.12722387
  Solvation  Ediel_sol  =         0.00000000
  ---------------------------------------------------
  free energy    TOTEN  =         2.30850954 eV

  energy without entropy =        2.30271133  energy(sigma->0) =        2.30657680


--------------------------------------------------------------------------------------------------------




--------------------------------------- Iteration      1(   3)  ---------------------------------------


     EDDAV:  cpu time    0.0512: real time    0.0515
       DOS:  cpu time    0.0002: real time    0.0002
    --------------------------------------------
      LOOP:  cpu time    0.0514: real time    0.0517

 eigenvalue-minimisations  :    42
 total energy-change (2. order) :-0.3087274E+01  (-0.1959523E+01)
 number of electron       4.0000000 magnetization       1.0000000
 augmentation part        4.0000000 magnetization       1.0000000

 Free energy of the ion-electron system (eV)
  ---------------------------------------------------
  alpha Z        PSCENC =         0.08148016
  Ewald energy   TEWEN  =       -32.68518401
  -Hartree energ DENC   =       -86.94625647
  -exchange      EXHF   =         0.00000000
  -V(xc)+E(xc)   XCENC  =        11.33202780
  PAW double counting   =        37.73782621      -38.87930731
  entropy T*S    EENTRO =        -0.01568500
  eigenvalues    EBANDS =       -38.53088980
  atomic energy  EATOM  =       147.12722387
  Solvation  Ediel_sol  =         0.00000000
  ---------------------------------------------------
  free energy    TOTEN  =        -0.77876454 eV

  energy without entropy =       -0.76307954  energy(sigma->0) =       -0.77353621


--------------------------------------------------------------------------------------------------------




--------------------------------------- Iteration      1(   4)  ---------------------------------------


     EDDAV:  cpu time    0.0395: real time    0.0398
       DOS:  cpu time    0.0002: real time    0.0002
    --------------------------------------------
      LOOP:  cpu time    0.0397: real time    0.0400

 eigenvalue-minimisations  :    28
 total energy-change (2. order) :-0.2233251E+00  (-0.1664536E+00)
 number of electron       4.0000000 magnetization       1.0000000
 augmentation part        4.0000000 magnetization       1.0000000

 Free energy of the ion-electron system (eV)
  ---------------------------------------------------
  alpha Z        PSCENC =         0.08148016
  Ewald energy   TEWEN  =       -32.68518401
  -Hartree energ DENC   =       -86.94625647
  -exchange      EXHF   =         0.00000000
  -V(xc)+E(xc)   XCENC  =        11.33202780
  PAW double counting   =        37.73782621      -38.87930731
  entropy T*S    EENTRO =        -0.07465086
  eigenvalues    EBANDS =       -38.69524903
  atomic energy  EATOM  =       147.12722387
  Solvation  Ediel_sol  =         0.00000000
  ---------------------------------------------------
  free energy    TOTEN  =        -1.00208963 eV

  energy without entropy =       -0.92743877  energy(sigma->0) =       -0.97720601


--------------------------------------------------------------------------------------------------------




--------------------------------------- Iteration      1(   5)  ---------------------------------------


     EDDAV:  cpu time    0.0638: real time    0.0641
       DOS:  cpu time    0.0002: real time    0.0002
    CHARGE:  cpu time    0.0431: real time    0.0432
    MIXING:  cpu time    0.0084: real time    0.0083
    --------------------------------------------
      LOOP:  cpu time    0.1155: real time    0.1159

 eigenvalue-minimisations  :    56
 total energy-change (2. order) :-0.4407938E-02  (-0.4387024E-02)
 number of electron       4.0000000 magnetization       1.4528689
 augmentation part       -0.0134113 magnetization      -0.4396400

 Broyden mixing:
  rms(total) = 0.38422E+00    rms(broyden)= 0.38403E+00
  rms(prec ) = 0.38453E+00
  weight for this iteration     100.00

 Free energy of the ion-electron system (eV)
  ---------------------------------------------------
  alpha Z        PSCENC =         0.08148016
  Ewald energy   TEWEN  =       -32.68518401
  -Hartree energ DENC   =       -86.94625647
  -exchange      EXHF   =         0.00000000
  -V(xc)+E(xc)   XCENC  =        11.33202780
  PAW double counting   =        37.73782621      -38.87930731
  entropy T*S    EENTRO =        -0.07467180
  eigenvalues    EBANDS =       -38.69963603
  atomic energy  EATOM  =       147.12722387
  Solvation  Ediel_sol  =         0.00000000
  ---------------------------------------------------
  free energy    TOTEN  =        -1.00649757 eV

  energy without entropy =       -0.93182577  energy(sigma->0) =       -0.98160697


--------------------------------------------------------------------------------------------------------




--------------------------------------- Iteration      1(   6)  ---------------------------------------


    POTLOK:  cpu time    0.2620: real time    0.2627
    SETDIJ:  cpu time    0.0031: real time    0.0031
     EDDAV:  cpu time    0.0451: real time    0.0453
       DOS:  cpu time    0.0002: real time    0.0002
    CHARGE:  cpu time    0.0328: real time    0.0329
    MIXING:  cpu time    0.0089: real time    0.0090
    --------------------------------------------
      LOOP:  cpu time    0.3520: real time    0.3532

 eigenvalue-minimisations  :    35
 total energy-change (2. order) : 0.1200946E+01  (-0.3073187E+00)
 number of electron       4.0000000 magnetization       1.6638524
 augmentation part       -0.0070355 magnetization      -0.2234460

 Broyden mixing:
  rms(total) = 0.11247E+00    rms(broyden)= 0.11240E+00
  rms(prec ) = 0.13521E+00
  weight for this iteration     100.00

 eigenvalues of (default mixing * dielectric matrix)
  average eigenvalue GAMMA=   0.8561
  0.8561

 Free energy of the ion-electron system (eV)
  ---------------------------------------------------
  alpha Z        PSCENC =         0.08148016
  Ewald energy   TEWEN  =       -32.68518401
  -Hartree energ DENC   =       -87.24671927
  -exchange      EXHF   =         0.00000000
  -V(xc)+E(xc)   XCENC  =        12.91872120
  PAW double counting   =        37.71310328      -38.76513713
  entropy T*S    EENTRO =        -0.07467158
  eigenvalues    EBANDS =       -38.87436802
  atomic energy  EATOM  =       147.12722387
  Solvation  Ediel_sol  =         0.00000000
  ---------------------------------------------------
  free energy    TOTEN  =         0.19444851 eV

  energy without entropy =        0.26912009  energy(sigma->0) =        0.21933904


--------------------------------------------------------------------------------------------------------




--------------------------------------- Iteration      1(   7)  ---------------------------------------


    POTLOK:  cpu time    0.2606: real time    0.2614
    SETDIJ:  cpu time    0.0031: real time    0.0031
     EDDAV:  cpu time    0.0384: real time    0.0385
       DOS:  cpu time    0.0002: real time    0.0002
    CHARGE:  cpu time    0.0311: real time    0.0312
    MIXING:  cpu time    0.0089: real time    0.0089
    --------------------------------------------
      LOOP:  cpu time    0.3423: real time    0.3433

 eigenvalue-minimisations  :    28
 total energy-change (2. order) :-0.6709116E+00  (-0.3760383E-01)
 number of electron       4.0000000 magnetization       1.8457907
 augmentation part       -0.0058580 magnetization      -0.0430632

 Broyden mixing:
  rms(total) = 0.45136E-01    rms(broyden)= 0.45129E-01
  rms(prec ) = 0.55955E-01
  weight for this iteration     100.00

 eigenvalues of (default mixing * dielectric matrix)
  average eigenvalue GAMMA=   0.8580
  0.9568  0.7592

 Free energy of the ion-electron system (eV)
  ---------------------------------------------------
  alpha Z        PSCENC =         0.08148016
  Ewald energy   TEWEN  =       -32.68518401
  -Hartree energ DENC   =       -88.25638964
  -exchange      EXHF   =         0.00000000
  -V(xc)+E(xc)   XCENC  =        12.50391782
  PAW double counting   =        38.88108162      -40.00207955
  entropy T*S    EENTRO =        -0.07467180
  eigenvalues    EBANDS =       -38.05184156
  atomic energy  EATOM  =       147.12722387
  Solvation  Ediel_sol  =         0.00000000
  ---------------------------------------------------
  free energy    TOTEN  =        -0.47646308 eV

  energy without entropy =       -0.40179128  energy(sigma->0) =       -0.45157248


--------------------------------------------------------------------------------------------------------




--------------------------------------- Iteration      1(   8)  ---------------------------------------


    POTLOK:  cpu time    0.2666: real time    0.2673
    SETDIJ:  cpu time    0.0034: real time    0.0033
     EDDAV:  cpu time    0.0398: real time    0.0400
       DOS:  cpu time    0.0002: real time    0.0002
    CHARGE:  cpu time    0.0362: real time    0.0363
    MIXING:  cpu time    0.0100: real time    0.0100
    --------------------------------------------
      LOOP:  cpu time    0.3561: real time    0.3570

 eigenvalue-minimisations  :    28
 total energy-change (2. order) :-0.5601106E+00  (-0.3282110E-01)
 number of electron       4.0000000 magnetization       1.8891070
 augmentation part       -0.0092609 magnetization      -0.0025267

 Broyden mixing:
  rms(total) = 0.39231E-01    rms(broyden)= 0.39223E-01
  rms(prec ) = 0.41022E-01
  weight for this iteration     100.00

 eigenvalues of (default mixing * dielectric matrix)
  average eigenvalue GAMMA=   0.9686
  1.1606  1.1606  0.5846

 Free energy of the ion-electron system (eV)
  ---------------------------------------------------
  alpha Z        PSCENC =         0.08148016
  Ewald energy   TEWEN  =       -32.68518401
  -Hartree energ DENC   =       -88.89208900
  -exchange      EXHF   =         0.00000000
  -V(xc)+E(xc)   XCENC  =        12.14304481
  PAW double counting   =        39.45873156      -40.56193381
  entropy T*S    EENTRO =        -0.07467180
  eigenvalues    EBANDS =       -37.63317549
  atomic energy  EATOM  =       147.12722387
  Solvation  Ediel_sol  =         0.00000000
  ---------------------------------------------------
  free energy    TOTEN  =        -1.03657371 eV

  energy without entropy =       -0.96190191  energy(sigma->0) =       -1.01168311


--------------------------------------------------------------------------------------------------------




--------------------------------------- Iteration      1(   9)  ---------------------------------------


    POTLOK:  cpu time    0.2583: real time    0.2590
    SETDIJ:  cpu time    0.0032: real time    0.0033
     EDDAV:  cpu time    0.0397: real time    0.0398
       DOS:  cpu time    0.0001: real time    0.0002
    CHARGE:  cpu time    0.0361: real time    0.0362
    MIXING:  cpu time    0.0105: real time    0.0106
    --------------------------------------------
      LOOP:  cpu time    0.3482: real time    0.3491

 eigenvalue-minimisations  :    28
 total energy-change (2. order) :-0.1296823E+00  (-0.2751654E-02)
 number of electron       4.0000000 magnetization       1.9285048
 augmentation part       -0.0103362 magnetization       0.0358265

 Broyden mixing:
  rms(total) = 0.21105E-01    rms(broyden)= 0.21091E-01
  rms(prec ) = 0.25366E-01
  weight for this iteration     100.00

 eigenvalues of (default mixing * dielectric matrix)
  average eigenvalue GAMMA=   0.9826
  1.2110  1.2110  0.8375  0.6711

 Free energy of the ion-electron system (eV)
  ---------------------------------------------------
  alpha Z        PSCENC =         0.08148016
  Ewald energy   TEWEN  =       -32.68518401
  -Hartree energ DENC   =       -88.77413528
  -exchange      EXHF   =         0.00000000
  -V(xc)+E(xc)   XCENC  =        12.01034075
  PAW double counting   =        39.25852432      -40.37541162
  entropy T*S    EENTRO =        -0.07467180
  eigenvalues    EBANDS =       -37.73442243
  atomic energy  EATOM  =       147.12722387
  Solvation  Ediel_sol  =         0.00000000
  ---------------------------------------------------
  free energy    TOTEN  =        -1.16625604 eV

  energy without entropy =       -1.09158424  energy(sigma->0) =       -1.14136544


--------------------------------------------------------------------------------------------------------




--------------------------------------- Iteration      1(  10)  ---------------------------------------


    POTLOK:  cpu time    0.2580: real time    0.2589
    SETDIJ:  cpu time    0.0031: real time    0.0031
     EDDAV:  cpu time    0.0382: real time    0.0383
       DOS:  cpu time    0.0009: real time    0.0002
    CHARGE:  cpu time    0.0303: real time    0.0311
    MIXING:  cpu time    0.0112: real time    0.0112
    --------------------------------------------
      LOOP:  cpu time    0.3417: real time    0.3428

 eigenvalue-minimisations  :    28
 total energy-change (2. order) :-0.7828307E-01  (-0.1007997E-02)
 number of electron       4.0000000 magnetization       1.9887718
 augmentation part       -0.0107504 magnetization       0.0966220

 Broyden mixing:
  rms(total) = 0.66334E-02    rms(broyden)= 0.66331E-02
  rms(prec ) = 0.74058E-02
  weight for this iteration     100.00

 eigenvalues of (default mixing * dielectric matrix)
  average eigenvalue GAMMA=   1.1770
  1.6708  1.6708  1.2204  0.6615  0.6615

 Free energy of the ion-electron system (eV)
  ---------------------------------------------------
  alpha Z        PSCENC =         0.08148016
  Ewald energy   TEWEN  =       -32.68518401
  -Hartree energ DENC   =       -88.41853593
  -exchange      EXHF   =         0.00000000
  -V(xc)+E(xc)   XCENC  =        11.90355109
  PAW double counting   =        38.73253523      -39.83881938
  entropy T*S    EENTRO =        -0.07467180
  eigenvalues    EBANDS =       -38.07211834
  atomic energy  EATOM  =       147.12722387
  Solvation  Ediel_sol  =         0.00000000
  ---------------------------------------------------
  free energy    TOTEN  =        -1.24453911 eV

  energy without entropy =       -1.16986732  energy(sigma->0) =       -1.21964851


--------------------------------------------------------------------------------------------------------




--------------------------------------- Iteration      1(  11)  ---------------------------------------


    POTLOK:  cpu time    0.2606: real time    0.2614
    SETDIJ:  cpu time    0.0030: real time    0.0031
     EDDAV:  cpu time    0.0513: real time    0.0514
       DOS:  cpu time    0.0002: real time    0.0002
    CHARGE:  cpu time    0.0316: real time    0.0317
    MIXING:  cpu time    0.0120: real time    0.0121
    --------------------------------------------
      LOOP:  cpu time    0.3587: real time    0.3597

 eigenvalue-minimisations  :    42
 total energy-change (2. order) :-0.6607686E-01  (-0.2660948E-02)
 number of electron       4.0000000 magnetization       1.9914481
 augmentation part       -0.0112013 magnetization       0.0991256

 Broyden mixing:
  rms(total) = 0.63650E-02    rms(broyden)= 0.63647E-02
  rms(prec ) = 0.71275E-02
  weight for this iteration     100.00

 eigenvalues of (default mixing * dielectric matrix)
  average eigenvalue GAMMA=   1.1219
  1.8851  1.3366  1.3366  0.7822  0.7822  0.6085

 Free energy of the ion-electron system (eV)
  ---------------------------------------------------
  alpha Z        PSCENC =         0.08148016
  Ewald energy   TEWEN  =       -32.68518401
  -Hartree energ DENC   =       -88.18735172
  -exchange      EXHF   =         0.00000000
  -V(xc)+E(xc)   XCENC  =        11.83121522
  PAW double counting   =        38.41045112      -39.51640262
  entropy T*S    EENTRO =        -0.07467180
  eigenvalues    EBANDS =       -38.29737620
  atomic energy  EATOM  =       147.12722387
  Solvation  Ediel_sol  =         0.00000000
  ---------------------------------------------------
  free energy    TOTEN  =        -1.31061597 eV

  energy without entropy =       -1.23594417  energy(sigma->0) =       -1.28572537


--------------------------------------------------------------------------------------------------------




--------------------------------------- Iteration      1(  12)  ---------------------------------------


    POTLOK:  cpu time    0.2580: real time    0.2586
    SETDIJ:  cpu time    0.0031: real time    0.0031
     EDDAV:  cpu time    0.0374: real time    0.0375
       DOS:  cpu time    0.0002: real time    0.0002
    CHARGE:  cpu time    0.0308: real time    0.0309
    MIXING:  cpu time    0.0129: real time    0.0129
    --------------------------------------------
      LOOP:  cpu time    0.3424: real time    0.3432

 eigenvalue-minimisations  :    28
 total energy-change (2. order) :-0.1928874E-02  (-0.3722937E-04)
 number of electron       4.0000000 magnetization       1.9952226
 augmentation part       -0.0113232 magnetization       0.1028874

 Broyden mixing:
  rms(total) = 0.35062E-02    rms(broyden)= 0.35061E-02
  rms(prec ) = 0.42444E-02
  weight for this iteration     100.00

 eigenvalues of (default mixing * dielectric matrix)
  average eigenvalue GAMMA=   1.1292
  1.9852  1.0946  1.0946  1.3569  1.1148  0.6292  0.6292

 Free energy of the ion-electron system (eV)
  ---------------------------------------------------
  alpha Z        PSCENC =         0.08148016
  Ewald energy   TEWEN  =       -32.68518401
  -Hartree energ DENC   =       -88.20109223
  -exchange      EXHF   =         0.00000000
  -V(xc)+E(xc)   XCENC  =        11.83217147
  PAW double counting   =        38.45384227      -39.55819860
  entropy T*S    EENTRO =        -0.07467180
  eigenvalues    EBANDS =       -38.28811598
  atomic energy  EATOM  =       147.12722387
  Solvation  Ediel_sol  =         0.00000000
  ---------------------------------------------------
  free energy    TOTEN  =        -1.31254484 eV

  energy without entropy =       -1.23787304  energy(sigma->0) =       -1.28765424


--------------------------------------------------------------------------------------------------------




--------------------------------------- Iteration      1(  13)  ---------------------------------------


    POTLOK:  cpu time    0.2595: real time    0.2604
    SETDIJ:  cpu time    0.0030: real time    0.0030
     EDDAV:  cpu time    0.0375: real time    0.0375
       DOS:  cpu time    0.0002: real time    0.0002
    CHARGE:  cpu time    0.0309: real time    0.0310
    MIXING:  cpu time    0.0137: real time    0.0137
    --------------------------------------------
      LOOP:  cpu time    0.3448: real time    0.3458

 eigenvalue-minimisations  :    28
 total energy-change (2. order) :-0.1497032E-02  (-0.5272405E-04)
 number of electron       4.0000000 magnetization       1.9992747
 augmentation part       -0.0113443 magnetization       0.1068009

 Broyden mixing:
  rms(total) = 0.11365E-02    rms(broyden)= 0.11353E-02
  rms(prec ) = 0.17246E-02
  weight for this iteration     100.00

 eigenvalues of (default mixing * dielectric matrix)
  average eigenvalue GAMMA=   1.3714
  3.1306  2.2020  1.3372  1.3372  0.8642  0.8642  0.6180  0.6180

 Free energy of the ion-electron system (eV)
  ---------------------------------------------------
  alpha Z        PSCENC =         0.08148016
  Ewald energy   TEWEN  =       -32.68518401
  -Hartree energ DENC   =       -88.20321792
  -exchange      EXHF   =         0.00000000
  -V(xc)+E(xc)   XCENC  =        11.83165206
  PAW double counting   =        38.55920225      -39.66679574
  entropy T*S    EENTRO =        -0.07467180
  eigenvalues    EBANDS =       -38.28373076
  atomic energy  EATOM  =       147.12722387
  Solvation  Ediel_sol  =         0.00000000
  ---------------------------------------------------
  free energy    TOTEN  =        -1.31404187 eV

  energy without entropy =       -1.23937008  energy(sigma->0) =       -1.28915128


--------------------------------------------------------------------------------------------------------




--------------------------------------- Iteration      1(  14)  ---------------------------------------


    POTLOK:  cpu time    0.2610: real time    0.2619
    SETDIJ:  cpu time    0.0032: real time    0.0032
     EDDAV:  cpu time    0.0392: real time    0.0393
       DOS:  cpu time    0.0002: real time    0.0002
    CHARGE:  cpu time    0.0321: real time    0.0322
    MIXING:  cpu time    0.0153: real time    0.0153
    --------------------------------------------
      LOOP:  cpu time    0.3510: real time    0.3521

 eigenvalue-minimisations  :    28
 total energy-change (2. order) :-0.2504383E-03  (-0.6854491E-05)
 number of electron       4.0000000 magnetization       1.9998151
 augmentation part       -0.0113701 magnetization       0.1073076

 Broyden mixing:
  rms(total) = 0.21932E-02    rms(broyden)= 0.21931E-02
  rms(prec ) = 0.25442E-02
  weight for this iteration     100.00

 eigenvalues of (default mixing * dielectric matrix)
  average eigenvalue GAMMA=   1.2737
  3.0013  2.1176  1.2553  1.2553  1.0052  1.0052  0.6236  0.6236  0.5763

 Free energy of the ion-electron system (eV)
  ---------------------------------------------------
  alpha Z        PSCENC =         0.08148016
  Ewald energy   TEWEN  =       -32.68518401
  -Hartree energ DENC   =       -88.17668897
  -exchange      EXHF   =         0.00000000
  -V(xc)+E(xc)   XCENC  =        11.82937194
  PAW double counting   =        38.60170069      -39.70994288
  entropy T*S    EENTRO =        -0.07467180
  eigenvalues    EBANDS =       -38.30758132
  atomic energy  EATOM  =       147.12722387
  Solvation  Ediel_sol  =         0.00000000
  ---------------------------------------------------
  free energy    TOTEN  =        -1.31429231 eV

  energy without entropy =       -1.23962051  energy(sigma->0) =       -1.28940171


--------------------------------------------------------------------------------------------------------




--------------------------------------- Iteration      1(  15)  ---------------------------------------


    POTLOK:  cpu time    0.2575: real time    0.2583
    SETDIJ:  cpu time    0.0031: real time    0.0031
     EDDAV:  cpu time    0.0512: real time    0.0513
       DOS:  cpu time    0.0002: real time    0.0002
    --------------------------------------------
      LOOP:  cpu time    0.3120: real time    0.3128

 eigenvalue-minimisations  :    42
 total energy-change (2. order) :-0.8081563E-04  (-0.2405478E-05)
 number of electron       4.0000000 magnetization       1.9998151
 augmentation part       -0.0113701 magnetization       0.1073076

 Free energy of the ion-electron system (eV)
  ---------------------------------------------------
  alpha Z        PSCENC =         0.08148016
  Ewald energy   TEWEN  =       -32.68518401
  -Hartree energ DENC   =       -88.15647943
  -exchange      EXHF   =         0.00000000
  -V(xc)+E(xc)   XCENC  =        11.82740469
  PAW double counting   =        38.55566706      -39.66289381
  entropy T*S    EENTRO =        -0.07467180
  eigenvalues    EBANDS =       -38.32691988
  atomic energy  EATOM  =       147.12722387
  Solvation  Ediel_sol  =         0.00000000
  ---------------------------------------------------
  free energy    TOTEN  =        -1.31437313 eV

  energy without entropy =       -1.23970133  energy(sigma->0) =       -1.28948253


--------------------------------------------------------------------------------------------------------




 average (electrostatic) potential at core
  the test charge radii are     0.6991
  (the norm of the test charge is              1.0000)
       1 -61.4697
 
 
 
 E-fermi :  -5.9518     XC(G=0):  -0.5349     alpha+bet : -0.1004


 spin component 1

 k-point     1 :       0.0000    0.0000    0.0000
  band No.  band energies     occupation 
      1     -14.5532      1.00000
      2      -5.9920      0.66667
      3      -5.9920      0.66667
      4      -5.9920      0.66667
      5      -0.4632      0.00000
      6       1.0079      0.00000
      7       1.0450      0.00000

 spin component 2

 k-point     1 :       0.0000    0.0000    0.0000
  band No.  band energies     occupation 
      1     -11.7896      1.00000
      2      -3.5050     -0.00000
      3      -3.5050     -0.00000
      4      -3.5050     -0.00000
      5      -0.0460      0.00000
      6       1.4439      0.00000
      7       1.4908      0.00000


--------------------------------------------------------------------------------------------------------


 soft charge-density along one line, spin component           1
         0         1         2         3         4         5         6         7         8         9
 total charge-density along one line
 
 soft charge-density along one line, spin component           2
         0         1         2         3         4         5         6         7         8         9
 total charge-density along one line
 
 pseudopotential strength for first ion, spin component:           1
 10.566   0.000   0.032   0.000  -0.000   0.000   0.000   0.000  -0.000   0.000   0.000   0.000  -0.000   0.000   0.000   0.000
  0.032   0.000  -0.001   0.000   0.000   0.000  -0.000   0.000   0.000   0.000   0.000   0.000  -0.000   0.000   0.000   0.000
 -0.000   0.000   0.000   0.000  -4.588   0.000  -0.000   0.000   0.000   0.000  -0.030   0.000  -0.000   0.000   0.000   0.000
  0.000   0.000  -0.000   0.000  -0.000   0.000  -4.588   0.000   0.000   0.000  -0.000   0.000  -0.030   0.000   0.000   0.000
 -0.000   0.000   0.000   0.000   0.000   0.000   0.000   0.000  -4.588   0.000   0.000   0.000   0.000   0.000  -0.030   0.000
  0.000   0.000   0.000   0.000  -0.030   0.000  -0.000   0.000   0.000   0.000  -0.776   0.000  -0.000   0.000   0.000   0.000
 -0.000   0.000  -0.000   0.000  -0.000   0.000  -0.030   0.000   0.000   0.000  -0.000   0.000  -0.776   0.000   0.000   0.000
  0.000   0.000   0.000   0.000   0.000   0.000   0.000   0.000  -0.030   0.000   0.000   0.000   0.000   0.000  -0.776   0.000
 pseudopotential strength for first ion, spin component:           2
 10.061   0.000   0.006   0.000  -0.000   0.000   0.000   0.000  -0.000   0.000   0.000   0.000  -0.000   0.000   0.000   0.000
  0.006   0.000  -0.001   0.000   0.000   0.000  -0.000   0.000   0.000   0.000   0.000   0.000  -0.000   0.000   0.000   0.000
 -0.000   0.000   0.000   0.000  -4.550   0.000  -0.000   0.000   0.000   0.000   0.075   0.000  -0.000   0.000   0.000   0.000
  0.000   0.000  -0.000   0.000  -0.000   0.000  -4.550   0.000   0.000   0.000  -0.000   0.000   0.075   0.000   0.000   0.000
 -0.000   0.000   0.000   0.000   0.000   0.000   0.000   0.000  -4.550   0.000   0.000   0.000   0.000   0.000   0.075   0.000
  0.000   0.000   0.000   0.000   0.075   0.000  -0.000   0.000   0.000   0.000  -0.767   0.000  -0.000   0.000   0.000   0.000
 -0.000   0.000  -0.000   0.000  -0.000   0.000   0.075   0.000   0.000   0.000  -0.000   0.000  -0.767   0.000   0.000   0.000
  0.000   0.000   0.000   0.000   0.000   0.000   0.000   0.000   0.075   0.000   0.000   0.000   0.000   0.000  -0.767   0.000
 total augmentation occupancy for first ion, spin component:           1
  1.988   0.059   0.000   0.000   0.000   0.000   0.000   0.000
  0.059   0.009   0.000   0.000   0.000   0.000   0.000   0.000
  0.000   0.000   0.686  -0.000  -0.000   0.008   0.000   0.000
  0.000   0.000  -0.000   0.686   0.000  -0.000   0.008  -0.000
  0.000   0.000  -0.000   0.000   0.686   0.000   0.000   0.008
  0.000   0.000   0.008  -0.000   0.000   0.000  -0.000  -0.000
  0.000   0.000   0.000   0.008   0.000  -0.000   0.000   0.000
  0.000   0.000   0.000  -0.000   0.008  -0.000   0.000   0.000
 total augmentation occupancy for first ion, spin component:           2
  0.050  -0.114   0.000   0.000   0.000   0.000   0.000   0.000
 -0.114  -0.007   0.000   0.000   0.000   0.000   0.000   0.000
  0.000   0.000   0.686   0.000   0.000   0.008  -0.000  -0.000
  0.000   0.000   0.000   0.686  -0.000   0.000   0.008   0.000
  0.000   0.000   0.000  -0.000   0.686  -0.000  -0.000   0.008
  0.000   0.000   0.008   0.000  -0.000   0.000   0.000   0.000
  0.000   0.000  -0.000   0.008  -0.000   0.000   0.000  -0.000
  0.000   0.000  -0.000   0.000   0.008   0.000  -0.000   0.000


------------------------ aborting loop because EDIFF is reached ----------------------------------------


    CHARGE:  cpu time    0.0313: real time    0.0314
    FORLOC:  cpu time    0.0065: real time    0.0064
    FORNL :  cpu time    0.0091: real time    0.0091
    STRESS:  cpu time    0.0343: real time    0.0344
    FORHAR:  cpu time    0.0333: real time    0.0334
    MIXING:  cpu time    0.0161: real time    0.0161
    OFIELD:  cpu time    0.0001: real time    0.0001

  FORCE on cell =-STRESS in cart. coord.  units (eV):
  Direction    XX          YY          ZZ          XY          YZ          ZX
  --------------------------------------------------------------------------------------
  Alpha Z     0.08148     0.08148     0.08148
  Ewald     -10.89506   -10.89506   -10.89506     0.00000    -0.00000    -0.00000
  Hartree    29.38045    29.38045    29.38045    -0.00000    -0.00000    -0.00000
  E(xc)     -12.68502   -12.68502   -12.68502    -0.00000    -0.00000     0.00000
  Local     -62.28268   -62.28268   -62.28268     0.00000    -0.00000    -0.00000
  n-local     4.76572     4.76573     4.76575    -0.00003    -0.00000    -0.00000
  augment     0.11522     0.11522     0.11522     0.00000    -0.00000     0.00000
  Kinetic    51.34510    51.34503    51.34494     0.00011     0.00002     0.00001
  Fock        0.00000     0.00000     0.00000     0.00000     0.00000     0.00000
  -------------------------------------------------------------------------------------
  Total      -0.17485    -0.17485    -0.17485    -0.00000    -0.00000     0.00000
  in kB      -0.28014    -0.28014    -0.28014    -0.00000    -0.00000     0.00000
  external pressure =       -0.28 kB  Pullay stress =        0.00 kB


 VOLUME and BASIS-vectors are now :
 -----------------------------------------------------------------------------
  energy-cutoff  :      400.00
  volume of cell :     1000.00
      direct lattice vectors                 reciprocal lattice vectors
    10.000000000  0.000000000  0.000000000     0.100000000  0.000000000  0.000000000
     0.000000000 10.000000000  0.000000000     0.000000000  0.100000000  0.000000000
     0.000000000  0.000000000 10.000000000     0.000000000  0.000000000  0.100000000

  length of vectors
    10.000000000 10.000000000 10.000000000     0.100000000  0.100000000  0.100000000


 FORCES acting on ions
    electron-ion (+dipol)            ewald-force                    non-local-force                 convergence-correction
 -----------------------------------------------------------------------------------------------
   -.334E-16 0.476E-17 -.240E-16   -.860E-17 -.128E-16 0.634E-17   0.000E+00 0.000E+00 0.000E+00   0.119E-13 0.377E-14 0.130E-13
 -----------------------------------------------------------------------------------------------
   -.334E-16 0.476E-17 -.240E-16   -.860E-17 -.128E-16 0.634E-17   0.000E+00 0.000E+00 0.000E+00   0.119E-13 0.377E-14 0.130E-13
 
 
 POSITION                                       TOTAL-FORCE (eV/Angst)
 -----------------------------------------------------------------------------------
      0.00000      0.00000      0.00000         0.000000      0.000000      0.000000
 -----------------------------------------------------------------------------------
    total drift:                                0.000000      0.000000      0.000000


--------------------------------------------------------------------------------------------------------



  FREE ENERGIE OF THE ION-ELECTRON SYSTEM (eV)
  ---------------------------------------------------
  free  energy   TOTEN  =        -1.31437313 eV

  energy  without entropy=       -1.23970133  energy(sigma->0) =       -1.28948253
 


--------------------------------------------------------------------------------------------------------


    POTLOK:  cpu time    0.2624: real time    0.2631


--------------------------------------------------------------------------------------------------------




--------------------------------------------------------------------------------------------------------


  
 reached required accuracy - stopping structural energy minimisation
 writing wavefunctions
     LOOP+:  cpu time    7.0166: real time    7.2499
    4ORBIT:  cpu time    0.0000: real time    0.0000

volume of typ            1:     0.3 %
 
total charge     
 
# of ion       s       p       d       tot
------------------------------------------
    1        1.078   0.986   0.000   2.064
 
magnetization (x)
 
# of ion       s       p       d       tot
------------------------------------------
    1        0.024   0.986   0.000   1.009
 
orbital moment (x)
 
# of ion     s             p             d             tot
-----------------------------------------------------------------
    1     0.000000E+00 -0.256418E-06 -0.159760E-19 -0.256418E-06
 
orbital moment (y)
 
# of ion     s             p             d             tot
-----------------------------------------------------------------
    1     0.000000E+00  0.965197E-06  0.156750E-18  0.965197E-06
 
orbital moment (z)
 
# of ion     s             p             d             tot
-----------------------------------------------------------------
    1     0.000000E+00 -0.268433E-06  0.528952E-19 -0.268433E-06
 
orbital moment (x)
 
# of ion     s             p             d             tot
-----------------------------------------------------------------
    1     0.000000E+00  0.208314E-15  0.240181E-20  0.208317E-15
 
orbital moment (y)
 
# of ion     s             p             d             tot
-----------------------------------------------------------------
    1     0.000000E+00  0.959388E-15  0.150665E-20  0.959390E-15
 
orbital moment (z)
 
# of ion     s             p             d             tot
-----------------------------------------------------------------
    1     0.000000E+00 -0.838772E-16  0.167843E-19 -0.838605E-16
 

 total amount of memory used by VASP MPI-rank0    83364. kBytes
=======================================================================

   base      :      30000. kBytes
   nonl-proj :        361. kBytes
   fftplans  :      17904. kBytes
   grid      :      34080. kBytes
   one-center:          6. kBytes
   wavefun   :       1013. kBytes
 
  
  
 General timing and accounting informations for this job:
 ========================================================
  
                  Total CPU time used (sec):       11.411
                            User time (sec):        6.889
                          System time (sec):        4.522
                         Elapsed time (sec):       12.183
  
                   Maximum memory used (kb):      155360.
                   Average memory used (kb):           0.
  
                          Minor page faults:        68426
                          Major page faults:           67
                 Voluntary context switches:          659
