PROCAR new format
# of k-points:    1         # of bands:    7         # of ions:    1

 k-point     1 :    0.00000000 0.00000000 0.00000000     weight = 1.00000000

band     1 # energy  -14.55321192 # occ.  1.00000000
 
ion      s      p      d    tot
    1  0.551  0.000  0.000  0.551
 
band     2 # energy   -5.99204448 # occ.  0.66666669
 
ion      s      p      d    tot
    1  0.000  0.493  0.000  0.493
 
band     3 # energy   -5.99204447 # occ.  0.66666665
 
ion      s      p      d    tot
    1  0.000  0.493  0.000  0.493
 
band     4 # energy   -5.99204447 # occ.  0.66666665
 
ion      s      p      d    tot
    1  0.000  0.493  0.000  0.493
 
band     5 # energy   -0.46322366 # occ.  0.00000000
 
ion      s      p      d    tot
    1  0.013  0.000  0.000  0.013
 
band     6 # energy    1.00791354 # occ.  0.00000000
 
ion      s      p      d    tot
    1  0.018  0.000  0.000  0.018
 
band     7 # energy    1.04504477 # occ.  0.00000000
 
ion      s      p      d    tot
    1  0.000  0.024  0.000  0.024
 
# of k-points:    1         # of bands:    7         # of ions:    1

 k-point     1 :    0.00000000 0.00000000 0.00000000     weight = 1.00000000

band     1 # energy  -11.78961901 # occ.  1.00000000
 
ion      s      p      d    tot
    1  0.527  0.000  0.000  0.527
 
band     2 # energy   -3.50499592 # occ. -0.00000000
 
ion      s      p      d    tot
    1  0.000  0.440  0.000  0.440
 
band     3 # energy   -3.50499592 # occ. -0.00000000
 
ion      s      p      d    tot
    1  0.000  0.440  0.000  0.440
 
band     4 # energy   -3.50499588 # occ. -0.00000000
 
ion      s      p      d    tot
    1  0.000  0.440  0.000  0.440
 
band     5 # energy   -0.04602313 # occ.  0.00000000
 
ion      s      p      d    tot
    1  0.008  0.000  0.000  0.008
 
band     6 # energy    1.44393622 # occ.  0.00000000
 
ion      s      p      d    tot
    1  0.018  0.000  0.000  0.018
 
band     7 # energy    1.49083573 # occ.  0.00000000
 
ion      s      p      d    tot
    1  0.000  0.018  0.000  0.018
 
