fcc Au                                  
   4.15000000000000     
     0.000000    0.500000    0.500000
     0.500000    0.000000    0.500000
     0.500000    0.500000    0.000000
   Au
     1
Direct
  0.000000  0.000000  0.000000
 
   24   24   24
  86.645      83.241      74.485      63.422      52.262      41.471      30.922      21.236      13.652      8.8465    
  6.2829      4.9518      4.5350      4.9518      6.2829      8.8465      13.652      21.236      30.922      41.471    
  52.262      63.422      74.485      83.241      83.241      77.192      67.430      56.609      45.934      35.424    
  25.329      16.726      10.685      7.2387      5.4182      4.5849      4.5848      5.4181      7.2385      10.684    
  16.727      25.332      35.428      45.937      56.604      67.417      77.177      83.235      74.485      67.430    
  58.182      48.329      38.327      28.393      19.390      12.503      8.2260      5.9252      4.7173      4.3417    
  4.7172      5.9251      8.2256      12.502      19.391      28.397      38.332      48.330      58.174      67.415    
  74.472      77.177      63.422      56.609      48.329      39.329      30.022      21.186      13.968      9.1235    
  6.3965      4.8894      4.2095      4.2096      4.8896      6.3965      9.1229      13.967      21.185      30.024    
  39.332      48.331      56.607      63.418      67.415      67.417      52.262      45.934      38.327      30.022    
  21.818      14.785      9.7595      6.7614      5.0517      4.1529      3.8777      4.1530      5.0521      6.7619    
  9.7594      14.783      21.815      30.020      38.327      45.937      52.266      56.607      58.174      56.604    
  41.471      35.424      28.393      21.186      14.785      9.9899      6.9633      5.1641      4.1349      3.6811    
  3.6809      4.1348      5.1647      6.9648      9.9917      14.785      21.184      28.389      35.420      41.470    
  45.937      48.331      48.330      45.937      30.922      25.329      19.390      13.968      9.7595      6.9633    
  5.2039      4.1307      3.5797      3.4124      3.5793      4.1302      5.2039      6.9650      9.7631      13.972    
  19.391      25.325      30.914      35.420      38.327      39.332      38.332      35.428      21.236      16.726    
  12.503      9.1235      6.7614      5.1641      4.1307      3.5485      3.2930      3.2930      3.5480      4.1292    
  5.1623      6.7613      9.1269      12.509      16.731      21.236      25.325      28.389      30.020      30.024    
  28.397      25.332      13.652      10.685      8.2260      6.3965      5.0517      4.1349      3.5797      3.2930    
  3.2058      3.2935      3.5797      4.1331      5.0480      6.3931      8.2260      10.689      13.659      16.731    
  19.391      21.184      21.815      21.185      19.391      16.727      8.8465      7.2387      5.9252      4.8894    
  4.1529      3.6811      3.4124      3.2930      3.2935      3.4139      3.6828      4.1530      4.8861      5.9195    
  7.2341      8.8465      10.689      12.509      13.972      14.785      14.783      13.967      12.502      10.684    
  6.2829      5.4182      4.7173      4.2095      3.8777      3.6809      3.5793      3.5480      3.5797      3.6828    
  3.8814      4.2129      4.7172      5.4137      6.2762      7.2341      8.2260      9.1269      9.7631      9.9917    
  9.7594      9.1229      8.2256      7.2385      4.9518      4.5849      4.3417      4.2096      4.1530      4.1348    
  4.1302      4.1292      4.1331      4.1530      4.2129      4.3474      4.5894      4.9519      5.4137      5.9195    
  6.3931      6.7613      6.9650      6.9648      6.7619      6.3965      5.9251      5.4181      4.5350      4.5848    
  4.7172      4.8896      5.0521      5.1647      5.2039      5.1623      5.0480      4.8861      4.7172      4.5894    
  4.5417      4.5894      4.7172      4.8861      5.0480      5.1623      5.2039      5.1647      5.0521      4.8896    
  4.7172      4.5848      4.9518      5.4181      5.9251      6.3965      6.7619      6.9648      6.9650      6.7613    
  6.3931      5.9195      5.4137      4.9519      4.5894      4.3474      4.2129      4.1530      4.1331      4.1292    
  4.1302      4.1348      4.1530      4.2096      4.3417      4.5849      6.2829      7.2385      8.2256      9.1229    
  9.7594      9.9917      9.7631      9.1269      8.2260      7.2341      6.2762      5.4137      4.7172      4.2129    
  3.8814      3.6828      3.5797      3.5480      3.5793      3.6809      3.8777      4.2095      4.7173      5.4182    
  8.8465      10.684      12.502      13.967      14.783      14.785      13.972      12.509      10.689      8.8465    
  7.2341      5.9195      4.8861      4.1530      3.6828      3.4139      3.2935      3.2930      3.4124      3.6811    
  4.1529      4.8894      5.9252      7.2387      13.652      16.727      19.391      21.185      21.815      21.184    
  19.391      16.731      13.659      10.689      8.2260      6.3931      5.0480      4.1331      3.5797      3.2935    
  3.2058      3.2930      3.5797      4.1349      5.0517      6.3965      8.2260      10.685      21.236      25.332    
  28.397      30.024      30.020      28.389      25.325      21.236      16.731      12.509      9.1269      6.7613    
  5.1623      4.1292      3.5480      3.2930      3.2930      3.5485      4.1307      5.1641      6.7614      9.1235    
  12.503      16.726      30.922      35.428      38.332      39.332      38.327      35.420      30.914      25.325    
  19.391      13.972      9.7631      6.9650      5.2039      4.1302      3.5793      3.4124      3.5797      4.1307    
  5.2039      6.9633      9.7595      13.968      19.390      25.329      41.471      45.937      48.330      48.331    
  45.937      41.470      35.420      28.389      21.184      14.785      9.9917      6.9648      5.1647      4.1348    
  3.6809      3.6811      4.1349      5.1641      6.9633      9.9899      14.785      21.186      28.393      35.424    
  52.262      56.604      58.174      56.607      52.266      45.937      38.327      30.020      21.815      14.783    
  9.7594      6.7619      5.0521      4.1530      3.8777      4.1529      5.0517      6.7614      9.7595      14.785    
  21.818      30.022      38.327      45.934      63.422      67.417      67.415      63.418      56.607      48.331    
  39.332      30.024      21.185      13.967      9.1229      6.3965      4.8896      4.2096      4.2095      4.8894    
  6.3965      9.1235      13.968      21.186      30.022      39.329      48.329      56.609      74.485      77.177    
  74.472      67.415      58.174      48.330      38.332      28.397      19.391      12.502      8.2256      5.9251    
  4.7172      4.3417      4.7173      5.9252      8.2260      12.503      19.390      28.393      38.327      48.329    
  58.182      67.430      83.241      83.235      77.177      67.417      56.604      45.937      35.428      25.332    
  16.727      10.684      7.2385      5.4181      4.5848      4.5849      5.4182      7.2387      10.685      16.726    
  25.329      35.424      45.934      56.609      67.430      77.192      83.241      77.192      67.430      56.609    
  45.934      35.424      25.329      16.726      10.685      7.2387      5.4182      4.5849      4.5848      5.4181    
  7.2385      10.684      16.727      25.332      35.428      45.937      56.604      67.417      77.177      83.235    
  77.192      69.590      59.760      49.497      39.262      29.157      19.958      12.863      8.4254      6.0446    
  4.7980      4.4095      4.7980      6.0445      8.4249      12.863      19.961      29.164      39.270      49.497    
  59.746      69.567      77.174      80.109      67.430      59.760      50.748      41.274      31.628      22.426    
  14.798      9.5989      6.6632      5.0623      4.3358      4.3359      5.0624      6.6628      9.5979      14.798    
  22.428      31.633      41.280      50.747      59.749      67.416      72.018      72.024      56.609      49.497    
  41.274      32.478      23.752      16.128      10.556      7.1972      5.3231      4.3333      4.0289      4.3334    
  5.3232      7.1970      10.555      16.126      23.751      32.480      41.278      49.501      56.610      61.675    
  63.545      61.675      45.934      39.262      31.628      23.752      16.601      11.096      7.5683      5.5277    
  4.3618      3.8448      3.8448      4.3620      5.5283      7.5690      11.096      16.598      23.749      31.626    
  39.264      45.940      51.021      53.821      53.818      51.015      35.424      29.157      22.426      16.128    
  11.096      7.7022      5.6392      4.3897      3.7450      3.5491      3.7448      4.3897      5.6400      7.7040    
  11.098      16.128      22.423      29.153      35.421      40.494      43.809      44.966      43.809      40.494    
  25.329      19.958      14.798      10.556      7.5683      5.6392      4.4005      3.7015      3.3951      3.3949    
  3.7009      4.3996      5.6391      7.5703      10.560      14.802      19.959      25.325      30.116      33.680    
  35.574      35.576      33.686      30.123      16.726      12.863      9.5989      7.1972      5.5277      4.3897    
  3.7015      3.3478      3.2403      3.3478      3.7007      4.3876      5.5255      7.1970      9.6023      12.869    
  16.731      20.633      23.949      26.156      26.930      26.160      23.953      20.633      10.685      8.4254    
  6.6632      5.3231      4.3618      3.7450      3.3951      3.2403      3.2408      3.3959      3.7450      4.3596    
  5.3188      6.6593      8.4251      10.689      13.270      15.777      17.761      18.853      18.853      17.759    
  15.772      13.263      7.2387      6.0446      5.0623      4.3333      3.8448      3.5491      3.3949      3.3478    
  3.3959      3.5512      3.8470      4.3333      5.0586      6.0386      7.2340      8.6299      10.128      11.494    
  12.455      12.799      12.450      11.488      10.124      8.6300      5.4182      4.7980      4.3358      4.0289    
  3.8448      3.7448      3.7009      3.7007      3.7450      3.8470      4.0331      4.3395      4.7980      5.4137    
  6.1487      6.9255      7.6691      8.2737      8.6152      8.6136      8.2708      7.6687      6.9295      6.1551    
  4.5849      4.4095      4.3359      4.3334      4.3620      4.3897      4.3996      4.3876      4.3596      4.3333    
  4.3395      4.4154      4.5894      4.8649      5.2137      5.5814      5.9033      6.1217      6.1989      6.1227    
  5.9064      5.5864      5.2178      4.8649      4.5848      4.7980      5.0624      5.3232      5.5283      5.6400    
  5.6391      5.5255      5.3188      5.0586      4.7980      4.5894      4.4684      4.4418      4.4882      4.5693    
  4.6465      4.6923      4.6936      4.6496      4.5722      4.4882      4.4377      4.4620      5.4181      6.0445    
  6.6628      7.1970      7.5690      7.7040      7.5703      7.1970      6.6593      6.0386      5.4137      4.8649    
  4.4418      4.1538      3.9793      3.8840      3.8385      3.8257      3.8395      3.8840      3.9766      4.1489    
  4.4377      4.8649      7.2385      8.4249      9.5979      10.555      11.096      11.098      10.560      9.6023    
  8.4251      7.2340      6.1487      5.2137      4.4882      3.9793      3.6537      3.4665      3.3821      3.3818    
  3.4651      3.6509      3.9765      4.4882      5.2179      6.1551      10.684      12.863      14.798      16.126    
  16.598      16.128      14.802      12.869      10.689      8.6299      6.9255      5.5814      4.5693      3.8840    
  3.4665      3.2481      3.1806      3.2472      3.4653      3.8840      4.5720      5.5863      6.9296      8.6300    
  16.727      19.961      22.428      23.751      23.749      22.423      19.959      16.731      13.270      10.128    
  7.6691      5.9033      4.6465      3.8385      3.3821      3.1806      3.1804      3.3821      3.8398      4.6493    
  5.9061      7.6690      10.124      13.263      25.332      29.164      31.633      32.480      31.626      29.153    
  25.325      20.633      15.777      11.494      8.2737      6.1217      4.6923      3.8257      3.3818      3.2472    
  3.3821      3.8266      4.6936      6.1218      8.2709      11.489      15.772      20.633      35.428      39.270    
  41.280      41.278      39.264      35.421      30.116      23.949      17.761      12.455      8.6152      6.1989    
  4.6936      3.8395      3.4651      3.4653      3.8398      4.6936      6.1976      8.6124      12.452      17.760    
  23.952      30.123      45.937      49.497      50.747      49.501      45.940      40.494      33.680      26.156    
  18.853      12.799      8.6136      6.1227      4.6496      3.8840      3.6509      3.8840      4.6493      6.1218    
  8.6124      12.799      18.855      26.160      33.683      40.494      56.604      59.746      59.749      56.610    
  51.021      43.809      35.574      26.930      18.853      12.450      8.2708      5.9064      4.5722      3.9766    
  3.9765      4.5720      5.9061      8.2709      12.452      18.855      26.933      35.575      43.806      51.015    
  67.417      69.567      67.416      61.675      53.821      44.966      35.576      26.160      17.759      11.488    
  7.6687      5.5864      4.4882      4.1489      4.4882      5.5863      7.6690      11.489      17.760      26.160    
  35.575      44.963      53.819      61.675      77.177      77.174      72.018      63.545      53.818      43.809    
  33.686      23.953      15.772      10.124      6.9295      5.2178      4.4377      4.4377      5.2179      6.9296    
  10.124      15.772      23.952      33.683      43.806      53.819      63.550      72.024      83.235      80.109    
  72.024      61.675      51.015      40.494      30.123      20.633      13.263      8.6300      6.1551      4.8649    
  4.4620      4.8649      6.1551      8.6300      13.263      20.633      30.123      40.494      51.015      61.675    
  72.024      80.109      74.485      67.430      58.182      48.329      38.327      28.393      19.390      12.503    
  8.2260      5.9252      4.7173      4.3417      4.7172      5.9251      8.2256      12.502      19.391      28.397    
  38.332      48.330      58.174      67.415      74.472      77.177      67.430      59.760      50.748      41.274    
  31.628      22.426      14.798      9.5989      6.6632      5.0623      4.3358      4.3359      5.0624      6.6628    
  9.5979      14.798      22.428      31.633      41.280      50.747      59.749      67.416      72.018      72.024    
  58.182      50.748      42.284      33.315      24.420      16.601      10.841      7.3528      5.4190      4.3970    
  4.0820      4.3970      5.4190      7.3522      10.840      16.599      24.420      33.319      42.289      50.752    
  58.182      63.548      65.545      63.550      48.329      41.274      33.315      25.112      17.587      11.711    
  7.9058      5.7264      4.4858      3.9336      3.9336      4.4859      5.7267      7.9055      11.709      17.583    
  25.108      33.316      41.281      48.341      53.830      56.907      56.903      53.819      38.327      31.628    
  24.420      17.587      12.024      8.2173      5.9330      4.5648      3.8557      3.6398      3.8557      4.5652    
  5.9339      8.2180      12.023      17.583      24.415      31.626      38.332      43.817      47.457      48.738    
  47.448      43.806      28.393      22.426      16.601      11.711      8.2173      6.0058      4.6097      3.8192    
  3.4725      3.4724      3.8190      4.6097      6.0068      8.2193      11.713      16.600      22.423      28.390    
  33.683      37.625      39.730      39.729      37.624      33.683      19.390      14.798      10.841      7.9058    
  5.9330      4.6097      3.8086      3.3977      3.2728      3.3973      3.8077      4.6086      5.9330      7.9079    
  10.845      14.801      19.390      23.948      27.778      30.312      31.198      30.315      27.782      23.952    
  12.503      9.5989      7.3528      5.7264      4.5648      3.8192      3.3977      3.2116      3.2117      3.3976    
  3.8181      4.5624      5.7240      7.3524      9.6019      12.508      15.776      18.900      21.340      22.674    
  22.675      21.342      18.899      15.772      8.2260      6.6632      5.4190      4.4858      3.8557      3.4725    
  3.2728      3.2117      3.2737      3.4737      3.8557      4.4834      5.4145      6.6593      8.2256      10.128    
  12.174      14.022      15.309      15.770      15.307      14.017      12.168      10.124      5.9252      5.0623    
  4.3970      3.9336      3.6398      3.4724      3.3973      3.3976      3.4737      3.6423      3.9361      4.3970    
  5.0587      5.9195      6.9254      8.0249      9.1191      10.019      10.529      10.527      10.015      9.1152    
  8.0249      6.9296      4.7173      4.3358      4.0820      3.9336      3.8557      3.8190      3.8077      3.8181    
  3.8557      3.9361      4.0865      4.3396      4.7172      5.2137      5.7865      6.3624      6.8609      7.2071    
  7.3313      7.2058      6.8608      6.3656      5.7920      5.2179      4.3417      4.3359      4.3970      4.4859    
  4.5652      4.6097      4.6086      4.5624      4.4834      4.3970      4.3396      4.3474      4.4418      4.6183    
  4.8460      5.0777      5.2641      5.3675      5.3683      5.2666      5.0816      4.8494      4.6183      4.4377    
  4.7172      5.0624      5.4190      5.7267      5.9339      6.0068      5.9330      5.7240      5.4145      5.0587    
  4.7172      4.4418      4.2598      4.1695      4.1462      4.1568      4.1742      4.1824      4.1761      4.1590    
  4.1462      4.1661      4.2543      4.4377      5.9251      6.6628      7.3522      7.9055      8.2180      8.2193    
  7.9079      7.3524      6.6593      5.9195      5.2137      4.6183      4.1695      3.8635      3.6722      3.5636    
  3.5150      3.5153      3.5635      3.6702      3.8597      4.1662      4.6183      5.2178      8.2256      9.5979    
  10.840      11.709      12.023      11.713      10.845      9.6019      8.2256      6.9254      5.7865      4.8460    
  4.1462      3.6722      3.3797      3.2241      3.1753      3.2232      3.3778      3.6702      4.1462      4.8494    
  5.7920      6.9295      12.502      14.798      16.599      17.583      17.583      16.600      14.801      12.508    
  10.128      8.0249      6.3624      5.0777      4.1568      3.5636      3.2241      3.0721      3.0717      3.2233    
  3.5636      4.1588      5.0815      6.3657      8.0249      10.124      19.391      22.428      24.420      25.108    
  24.415      22.423      19.390      15.776      12.174      9.1191      6.8609      5.2641      4.1742      3.5150    
  3.1753      3.0717      3.1754      3.5158      4.1760      5.2661      6.8608      9.1156      12.168      15.772    
  28.397      31.633      33.319      33.316      31.626      28.390      23.948      18.900      14.022      10.019    
  7.2071      5.3675      4.1824      3.5153      3.2232      3.2233      3.5158      4.1831      5.3675      7.2051    
  10.015      14.018      18.899      23.953      38.332      41.280      42.289      41.281      38.332      33.683    
  27.778      21.340      15.309      10.529      7.3313      5.3683      4.1761      3.5635      3.3778      3.5636    
  4.1760      5.3675      7.3294      10.527      15.309      21.343      27.782      33.686      48.330      50.747    
  50.752      48.341      43.817      37.625      30.312      22.674      15.770      10.527      7.2058      5.2666    
  4.1590      3.6702      3.6702      4.1588      5.2661      7.2051      10.527      15.772      22.679      30.316    
  37.624      43.809      58.174      59.749      58.182      53.830      47.457      39.730      31.198      22.675    
  15.307      10.015      6.8608      5.0816      4.1462      3.8597      4.1462      5.0815      6.8608      10.015    
  15.309      22.679      31.200      39.727      47.448      53.818      67.415      67.416      63.548      56.907    
  48.738      39.729      30.315      21.342      14.017      9.1152      6.3656      4.8494      4.1661      4.1662    
  4.8494      6.3657      9.1156      14.018      21.343      30.316      39.727      48.734      56.903      63.545    
  74.472      72.018      65.545      56.903      47.448      37.624      27.782      18.899      12.168      8.0249    
  5.7920      4.6183      4.2543      4.6183      5.7920      8.0249      12.168      18.899      27.782      37.624    
  47.448      56.903      65.545      72.018      77.177      72.024      63.550      53.819      43.806      33.683    
  23.952      15.772      10.124      6.9296      5.2179      4.4377      4.4377      5.2178      6.9295      10.124    
  15.772      23.953      33.686      43.809      53.818      63.545      72.018      77.174      63.422      56.609    
  48.329      39.329      30.022      21.186      13.968      9.1235      6.3965      4.8894      4.2095      4.2096    
  4.8896      6.3965      9.1229      13.967      21.185      30.024      39.332      48.331      56.607      63.418    
  67.415      67.417      56.609      49.497      41.274      32.478      23.752      16.128      10.556      7.1972    
  5.3231      4.3333      4.0289      4.3334      5.3232      7.1970      10.555      16.126      23.751      32.480    
  41.278      49.501      56.610      61.675      63.545      61.675      48.329      41.274      33.315      25.112    
  17.587      11.711      7.9058      5.7264      4.4858      3.9336      3.9336      4.4859      5.7267      7.9055    
  11.709      17.583      25.108      33.316      41.281      48.341      53.830      56.907      56.903      53.819    
  39.329      32.478      25.112      18.100      12.356      8.4027      6.0368      4.6269      3.8948      3.6717    
  3.8948      4.6273      6.0377      8.4028      12.353      18.094      25.106      32.478      39.338      44.978    
  48.746      50.077      48.734      44.963      30.022      23.752      17.587      12.356      8.5822      6.2055    
  4.7242      3.8833      3.5143      3.5143      3.8834      4.7249      6.2071      8.5836      12.355      17.582    
  23.746      30.021      35.580      39.736      41.963      41.959      39.727      35.575      21.186      16.128    
  11.711      8.4027      6.2055      4.7587      3.8813      3.4316      3.2950      3.4314      3.8810      4.7590    
  6.2073      8.4054      11.713      16.126      21.181      26.156      30.314      33.062      34.021      33.062    
  30.316      26.160      13.968      10.556      7.9058      6.0368      4.7242      3.8813      3.4059      3.1963    
  3.1963      3.4054      3.8802      4.7232      6.0373      7.9083      10.560      13.970      17.758      21.339    
  24.113      25.622      25.624      24.118      21.343      17.760      9.1235      7.1972      5.7264      4.6269    
  3.8833      3.4316      3.1963      3.1243      3.1967      3.4316      3.8821      4.6245      5.7242      7.1972    
  9.1262      11.493      14.020      16.280      17.841      18.399      17.842      16.280      14.018      11.489    
  6.3965      5.3231      4.4858      3.8948      3.5143      3.2950      3.1963      3.1967      3.2962      3.5156    
  3.8947      4.4834      5.3190      6.3932      7.6686      9.1185      10.575      11.770      12.445      12.444    
  11.766      10.570      9.1156      7.6690      4.8894      4.3333      3.9336      3.6717      3.5143      3.4314    
  3.4054      3.4316      3.5156      3.6743      3.9361      4.3334      4.8862      5.5815      6.3623      7.1491    
  7.8575      8.3599      8.5415      8.3575      7.8549      7.1492      6.3657      5.5863      4.2095      4.0289    
  3.9336      3.8948      3.8834      3.8810      3.8802      3.8821      3.8947      3.9361      4.0332      4.2129    
  4.4882      4.8461      5.2460      5.6280      5.9275      6.0915      6.0914      5.9279      5.6305      5.2503    
  4.8494      4.4882      4.2096      4.3334      4.4859      4.6273      4.7249      4.7590      4.7232      4.6245    
  4.4834      4.3334      4.2129      4.1538      4.1695      4.2500      4.3666      4.4830      4.5669      4.5976    
  4.5685      4.4858      4.3691      4.2500      4.1662      4.1489      4.8896      5.3232      5.7267      6.0377    
  6.2071      6.2073      6.0373      5.7242      5.3190      4.8862      4.4882      4.1695      3.9470      3.8116    
  3.7391      3.7045      3.6914      3.6921      3.7058      3.7391      3.8091      3.9428      4.1661      4.4882    
  6.3965      7.1970      7.9055      8.4028      8.5836      8.4054      7.9083      7.1972      6.3932      5.5815    
  4.8461      4.2500      3.8116      3.5148      3.3293      3.2287      3.1970      3.2286      3.3281      3.5122    
  3.8092      4.2500      4.8494      5.5864      9.1229      10.555      11.709      12.353      12.355      11.713    
  10.560      9.1262      7.6686      6.3623      5.2460      4.3666      3.7391      3.3293      3.0892      2.9792    
  2.9788      3.0880      3.3281      3.7391      4.3692      5.2503      6.3656      7.6687      13.967      16.126    
  17.583      18.094      17.582      16.126      13.970      11.493      9.1185      7.1491      5.6280      4.4830    
  3.7045      3.2287      2.9792      2.9021      2.9789      3.2287      3.7057      4.4856      5.6304      7.1492    
  9.1152      11.488      21.185      23.751      25.108      25.106      23.746      21.181      17.758      14.020    
  10.575      7.8575      5.9275      4.5669      3.6914      3.1970      2.9788      2.9789      3.1974      3.6925    
  4.5681      5.9274      7.8550      10.570      14.017      17.759      30.024      32.480      33.316      32.478    
  30.021      26.156      21.339      16.280      11.770      8.3599      6.0915      4.5976      3.6921      3.2286    
  3.0880      3.2287      3.6925      4.5977      6.0903      8.3574      11.768      16.280      21.342      26.160    
  39.332      41.278      41.281      39.338      35.580      30.314      24.113      17.841      12.445      8.5415    
  6.0914      4.5685      3.7058      3.3281      3.3281      3.7057      4.5681      6.0903      8.5403      12.445    
  17.844      24.118      30.315      35.576      48.331      49.501      48.341      44.978      39.736      33.062    
  25.622      18.399      12.444      8.3575      5.9279      4.4858      3.7391      3.5122      3.7391      4.4856    
  5.9274      8.3574      12.445      18.403      25.627      33.062      39.729      44.966      56.607      56.610    
  53.830      48.746      41.963      34.021      25.624      17.842      11.766      7.8549      5.6305      4.3691    
  3.8091      3.8092      4.3692      5.6304      7.8550      11.768      17.844      25.627      34.021      41.959    
  48.738      53.821      63.418      61.675      56.907      50.077      41.959      33.062      24.118      16.280    
  10.570      7.1492      5.2503      4.2500      3.9428      4.2500      5.2503      7.1492      10.570      16.280    
  24.118      33.062      41.959      50.077      56.907      61.675      67.415      63.545      56.903      48.734    
  39.727      30.316      21.343      14.018      9.1156      6.3657      4.8494      4.1662      4.1661      4.8494    
  6.3656      9.1152      14.017      21.342      30.315      39.729      48.738      56.907      63.548      67.416    
  67.417      61.675      53.819      44.963      35.575      26.160      17.760      11.489      7.6690      5.5863    
  4.4882      4.1489      4.4882      5.5864      7.6687      11.488      17.759      26.160      35.576      44.966    
  53.821      61.675      67.416      69.567      52.262      45.934      38.327      30.022      21.818      14.785    
  9.7595      6.7614      5.0517      4.1529      3.8777      4.1530      5.0521      6.7619      9.7594      14.783    
  21.815      30.020      38.327      45.937      52.266      56.607      58.174      56.604      45.934      39.262    
  31.628      23.752      16.601      11.096      7.5683      5.5277      4.3618      3.8448      3.8448      4.3620    
  5.5283      7.5690      11.096      16.598      23.749      31.626      39.264      45.940      51.021      53.821    
  53.818      51.015      38.327      31.628      24.420      17.587      12.024      8.2173      5.9330      4.5648    
  3.8557      3.6398      3.8557      4.5652      5.9339      8.2180      12.023      17.583      24.415      31.626    
  38.332      43.817      47.457      48.738      47.448      43.806      30.022      23.752      17.587      12.356    
  8.5822      6.2055      4.7242      3.8833      3.5143      3.5143      3.8834      4.7249      6.2071      8.5836    
  12.355      17.582      23.746      30.021      35.580      39.736      41.963      41.959      39.727      35.575    
  21.818      16.601      12.024      8.5822      6.3017      4.8113      3.9070      3.4436      3.3029      3.4434    
  3.9070      4.8122      6.3041      8.5849      12.024      16.596      21.811      26.928      31.200      34.023    
  35.007      34.021      31.200      26.933      14.785      11.096      8.2173      6.2055      4.8113      3.9158    
  3.4115      3.1894      3.1893      3.4111      3.9153      4.8118      6.2079      8.2210      11.098      14.783    
  18.850      22.672      25.622      27.224      27.225      25.627      22.679      18.855      9.7595      7.5683    