fcc Au                                  
   4.15000000000000     
     0.000000    0.500000    0.500000
     0.500000    0.000000    0.500000
     0.500000    0.500000    0.000000
   Au
     1
Direct
  0.000000  0.000000  0.000000
 
   24   24   24
 0.86644610133E+02 0.83241007940E+02 0.74484591116E+02 0.63421771360E+02 0.52262388421E+02
 0.41471390176E+02 0.30921893188E+02 0.21236474091E+02 0.13651967805E+02 0.88464943806E+01
 0.62828684607E+01 0.49518036612E+01 0.45350416609E+01 0.49518036612E+01 0.62828684607E+01
 0.88464943806E+01 0.13651967805E+02 0.21236474091E+02 0.30921893188E+02 0.41471390176E+02
 0.52262388421E+02 0.63421771360E+02 0.74484591116E+02 0.83241007940E+02 0.83241007940E+02
 0.77191631212E+02 0.67430171603E+02 0.56608849324E+02 0.45934267164E+02 0.35423602627E+02
 0.25328765762E+02 0.16725883174E+02 0.10684504655E+02 0.72386686474E+01 0.54182390889E+01
 0.45848966794E+01 0.45848400605E+01 0.54181186413E+01 0.72385156134E+01 0.10684465060E+02
 0.16726801955E+02 0.25331864522E+02 0.35428374245E+02 0.45936785254E+02 0.56603966625E+02
 0.67417061439E+02 0.77176880197E+02 0.83234508328E+02 0.74484591116E+02 0.67430171603E+02
 0.58181893823E+02 0.48329288911E+02 0.38326796948E+02 0.28393038811E+02 0.19389703741E+02
 0.12502570982E+02 0.82260205842E+01 0.59252377526E+01 0.47172677029E+01 0.43417105655E+01
 0.47172417806E+01 0.59251203435E+01 0.82256107777E+01 0.12502223362E+02 0.19391017756E+02
 0.28397435586E+02 0.38332405717E+02 0.48330361632E+02 0.58173629959E+02 0.67415030982E+02
 0.74472416625E+02 0.77176880197E+02 0.63421771360E+02 0.56608849324E+02 0.48329288911E+02
 0.39329043697E+02 0.30022384578E+02 0.21185642760E+02 0.13967682302E+02 0.91235055646E+01
 0.63964978612E+01 0.48893943840E+01 0.42095281508E+01 0.42095876059E+01 0.48895529007E+01
 0.63964918690E+01 0.91228641334E+01 0.13966564773E+02 0.21185359357E+02 0.30024165752E+02
 0.39332046465E+02 0.48330677809E+02 0.56606719203E+02 0.63417741226E+02 0.67415030982E+02
 0.67417061439E+02 0.52262388421E+02 0.45934267164E+02 0.38326796948E+02 0.30022384578E+02
 0.21817697390E+02 0.14784667315E+02 0.97594624907E+01 0.67613834332E+01 0.50516951130E+01
 0.41529420169E+01 0.38777259263E+01 0.41530311240E+01 0.50520807413E+01 0.67619286457E+01
 0.97594313032E+01 0.14783339412E+02 0.21815327467E+02 0.30020407919E+02 0.38326854132E+02
 0.45936827320E+02 0.52266175884E+02 0.56606719203E+02 0.58173629959E+02 0.56603966625E+02
 0.41471390176E+02 0.35423602627E+02 0.28393038811E+02 0.21185642760E+02 0.14784667315E+02
 0.99899407753E+01 0.69632986094E+01 0.51641495490E+01 0.41348634345E+01 0.36810506241E+01
 0.36809339985E+01 0.41347901011E+01 0.51647300104E+01 0.69648352273E+01 0.99917484802E+01
 0.14785180640E+02 0.21183672774E+02 0.28389130628E+02 0.35419856047E+02 0.41469602614E+02
 0.45936827320E+02 0.48330677809E+02 0.48330361632E+02 0.45936785254E+02 0.30921893188E+02
 0.25328765762E+02 0.19389703741E+02 0.13967682302E+02 0.97594624907E+01 0.69632986094E+01
 0.52039152451E+01 0.41307346482E+01 0.35796571447E+01 0.34123784287E+01 0.35792906103E+01
 0.41301728658E+01 0.52039254328E+01 0.69650193419E+01 0.97631450678E+01 0.13971648000E+02
 0.19390999700E+02 0.25325328909E+02 0.30914332353E+02 0.35419856047E+02 0.38326854132E+02
 0.39332046465E+02 0.38332405717E+02 0.35428374245E+02 0.21236474091E+02 0.16725883174E+02
 0.12502570982E+02 0.91235055646E+01 0.67613834332E+01 0.51641495490E+01 0.41307346482E+01
 0.35484724636E+01 0.32929997501E+01 0.32929668876E+01 0.35479686695E+01 0.41292331289E+01
 0.51622985797E+01 0.67612500333E+01 0.91269169518E+01 0.12508750084E+02 0.16730932244E+02
 0.21236079976E+02 0.25325328909E+02 0.28389130628E+02 0.30020407919E+02 0.30024165752E+02
 0.28397435586E+02 0.25331864522E+02 0.13651967805E+02 0.10684504655E+02 0.82260205842E+01
 0.63964978612E+01 0.50516951130E+01 0.41348634345E+01 0.35796571447E+01 0.32929997501E+01
 0.32058318433E+01 0.32934924212E+01 0.35796524623E+01 0.41330762359E+01 0.50480099936E+01
 0.63930553473E+01 0.82260411889E+01 0.10689158984E+02 0.13658547904E+02 0.16730932244E+02
 0.19390999700E+02 0.21183672774E+02 0.21815327467E+02 0.21185359357E+02 0.19391017756E+02
 0.16726801955E+02 0.88464943806E+01 0.72386686474E+01 0.59252377526E+01 0.48893943840E+01
 0.41529420169E+01 0.36810506241E+01 0.34123784287E+01 0.32929668876E+01 0.32934924212E+01
 0.34139096917E+01 0.36828239778E+01 0.41529984290E+01 0.48860645258E+01 0.59194776057E+01
 0.72341094411E+01 0.88464858767E+01 0.10689158984E+02 0.12508750084E+02 0.13971648000E+02
 0.14785180640E+02 0.14783339412E+02 0.13966564773E+02 0.12502223362E+02 0.10684465060E+02
 0.62828684607E+01 0.54182390889E+01 0.47172677029E+01 0.42095281508E+01 0.38777259263E+01
 0.36809339985E+01 0.35792906103E+01 0.35479686695E+01 0.35796524623E+01 0.36828239778E+01
 0.38814044025E+01 0.42129109418E+01 0.47172419052E+01 0.54136891351E+01 0.62762434585E+01
 0.72341094411E+01 0.82260411889E+01 0.91269169518E+01 0.97631450678E+01 0.99917484802E+01
 0.97594313032E+01 0.91228641334E+01 0.82256107777E+01 0.72385156134E+01 0.49518036612E+01
 0.45848966794E+01 0.43417105655E+01 0.42095876059E+01 0.41530311240E+01 0.41347901011E+01
 0.41301728658E+01 0.41292331289E+01 0.41330762359E+01 0.41529984290E+01 0.42129109418E+01
 0.43473713625E+01 0.45893842872E+01 0.49518518114E+01 0.54136891351E+01 0.59194776057E+01
 0.63930553473E+01 0.67612500333E+01 0.69650193419E+01 0.69648352273E+01 0.67619286457E+01
 0.63964918690E+01 0.59251203435E+01 0.54181186413E+01 0.45350416609E+01 0.45848400605E+01
 0.47172417806E+01 0.48895529007E+01 0.50520807413E+01 0.51647300104E+01 0.52039254328E+01
 0.51622985797E+01 0.50480099936E+01 0.48860645258E+01 0.47172419052E+01 0.45893842872E+01
 0.45416993609E+01 0.45893842872E+01 0.47172419052E+01 0.48860645258E+01 0.50480099936E+01
 0.51622985797E+01 0.52039254328E+01 0.51647300104E+01 0.50520807413E+01 0.48895529007E+01
 0.47172417806E+01 0.45848400605E+01 0.49518036612E+01 0.54181186413E+01 0.59251203435E+01
 0.63964918690E+01 0.67619286457E+01 0.69648352273E+01 0.69650193419E+01 0.67612500333E+01
 0.63930553473E+01 0.59194776057E+01 0.54136891351E+01 0.49518518114E+01 0.45893842872E+01
 0.43473713625E+01 0.42129109418E+01 0.41529984290E+01 0.41330762359E+01 0.41292331289E+01
 0.41301728658E+01 0.41347901011E+01 0.41530311240E+01 0.42095876059E+01 0.43417105655E+01
 0.45848966794E+01 0.62828684607E+01 0.72385156134E+01 0.82256107777E+01 0.91228641334E+01
 0.97594313032E+01 0.99917484802E+01 0.97631450678E+01 0.91269169518E+01 0.82260411889E+01
 0.72341094411E+01 0.62762434585E+01 0.54136891351E+01 0.47172419052E+01 0.42129109418E+01
 0.38814044025E+01 0.36828239778E+01 0.35796524623E+01 0.35479686695E+01 0.35792906103E+01
 0.36809339985E+01 0.38777259263E+01 0.42095281508E+01 0.47172677029E+01 0.54182390889E+01
 0.88464943806E+01 0.10684465060E+02 0.12502223362E+02 0.13966564773E+02 0.14783339412E+02
 0.14785180640E+02 0.13971648000E+02 0.12508750084E+02 0.10689158984E+02 0.88464858767E+01
 0.72341094411E+01 0.59194776057E+01 0.48860645258E+01 0.41529984290E+01 0.36828239778E+01
 0.34139096917E+01 0.32934924212E+01 0.32929668876E+01 0.34123784287E+01 0.36810506241E+01
 0.41529420169E+01 0.48893943840E+01 0.59252377526E+01 0.72386686474E+01 0.13651967805E+02
 0.16726801955E+02 0.19391017756E+02 0.21185359357E+02 0.21815327467E+02 0.21183672774E+02
 0.19390999700E+02 0.16730932244E+02 0.13658547904E+02 0.10689158984E+02 0.82260411889E+01
 0.63930553473E+01 0.50480099936E+01 0.41330762359E+01 0.35796524623E+01 0.32934924212E+01
 0.32058318433E+01 0.32929997501E+01 0.35796571447E+01 0.41348634345E+01 0.50516951130E+01
 0.63964978612E+01 0.82260205842E+01 0.10684504655E+02 0.21236474091E+02 0.25331864522E+02
 0.28397435586E+02 0.30024165752E+02 0.30020407919E+02 0.28389130628E+02 0.25325328909E+02
 0.21236079976E+02 0.16730932244E+02 0.12508750084E+02 0.91269169518E+01 0.67612500333E+01
 0.51622985797E+01 0.41292331289E+01 0.35479686695E+01 0.32929668876E+01 0.32929997501E+01
 0.35484724636E+01 0.41307346482E+01 0.51641495490E+01 0.67613834332E+01 0.91235055646E+01
 0.12502570982E+02 0.16725883174E+02 0.30921893188E+02 0.35428374245E+02 0.38332405717E+02
 0.39332046465E+02 0.38326854132E+02 0.35419856047E+02 0.30914332353E+02 0.25325328909E+02
 0.19390999700E+02 0.13971648000E+02 0.97631450678E+01 0.69650193419E+01 0.52039254328E+01
 0.41301728658E+01 0.35792906103E+01 0.34123784287E+01 0.35796571447E+01 0.41307346482E+01
 0.52039152451E+01 0.69632986094E+01 0.97594624907E+01 0.13967682302E+02 0.19389703741E+02
 0.25328765762E+02 0.41471390176E+02 0.45936785254E+02 0.48330361632E+02 0.48330677809E+02
 0.45936827320E+02 0.41469602614E+02 0.35419856047E+02 0.28389130628E+02 0.21183672774E+02
 0.14785180640E+02 0.99917484802E+01 0.69648352273E+01 0.51647300104E+01 0.41347901011E+01
 0.36809339985E+01 0.36810506241E+01 0.41348634345E+01 0.51641495490E+01 0.69632986094E+01
 0.99899407753E+01 0.14784667315E+02 0.21185642760E+02 0.28393038811E+02 0.35423602627E+02
 0.52262388421E+02 0.56603966625E+02 0.58173629959E+02 0.56606719203E+02 0.52266175884E+02
 0.45936827320E+02 0.38326854132E+02 0.30020407919E+02 0.21815327467E+02 0.14783339412E+02
 0.97594313032E+01 0.67619286457E+01 0.50520807413E+01 0.41530311240E+01 0.38777259263E+01
 0.41529420169E+01 0.50516951130E+01 0.67613834332E+01 0.97594624907E+01 0.14784667315E+02
 0.21817697390E+02 0.30022384578E+02 0.38326796948E+02 0.45934267164E+02 0.63421771360E+02
 0.67417061439E+02 0.67415030982E+02 0.63417741226E+02 0.56606719203E+02 0.48330677809E+02
 0.39332046465E+02 0.30024165752E+02 0.21185359357E+02 0.13966564773E+02 0.91228641334E+01
 0.63964918690E+01 0.48895529007E+01 0.42095876059E+01 0.42095281508E+01 0.48893943840E+01
 0.63964978612E+01 0.91235055646E+01 0.13967682302E+02 0.21185642760E+02 0.30022384578E+02
 0.39329043697E+02 0.48329288911E+02 0.56608849324E+02 0.74484591116E+02 0.77176880197E+02
 0.74472416625E+02 0.67415030982E+02 0.58173629959E+02 0.48330361632E+02 0.38332405717E+02
 0.28397435586E+02 0.19391017756E+02 0.12502223362E+02 0.82256107777E+01 0.59251203435E+01
 0.47172417806E+01 0.43417105655E+01 0.47172677029E+01 0.59252377526E+01 0.82260205842E+01
 0.12502570982E+02 0.19389703741E+02 0.28393038811E+02 0.38326796948E+02 0.48329288911E+02
 0.58181893823E+02 0.67430171603E+02 0.83241007940E+02 0.83234508328E+02 0.77176880197E+02
 0.67417061439E+02 0.56603966625E+02 0.45936785254E+02 0.35428374245E+02 0.25331864522E+02
 0.16726801955E+02 0.10684465060E+02 0.72385156134E+01 0.54181186413E+01 0.45848400605E+01
 0.45848966794E+01 0.54182390889E+01 0.72386686474E+01 0.10684504655E+02 0.16725883174E+02
 0.25328765762E+02 0.35423602627E+02 0.45934267164E+02 0.56608849324E+02 0.67430171603E+02
 0.77191631212E+02 0.83241007940E+02 0.77191631212E+02 0.67430171603E+02 0.56608849324E+02
 0.45934267164E+02 0.35423602627E+02 0.25328765762E+02 0.16725883174E+02 0.10684504655E+02
 0.72386686474E+01 0.54182390889E+01 0.45848966794E+01 0.45848400605E+01 0.54181186413E+01
 0.72385156134E+01 0.10684465060E+02 0.16726801955E+02 0.25331864522E+02 0.35428374245E+02
 0.45936785254E+02 0.56603966625E+02 0.67417061439E+02 0.77176880197E+02 0.83234508328E+02
 0.77191631212E+02 0.69589574091E+02 0.59759530629E+02 0.49497277647E+02 0.39262328091E+02
 0.29157017871E+02 0.19958166428E+02 0.12863000594E+02 0.84253590267E+01 0.60446262182E+01
 0.47979797434E+01 0.44094859024E+01 0.47979703601E+01 0.60444574731E+01 0.84248513132E+01
 0.12862883476E+02 0.19960649528E+02 0.29163571688E+02 0.39269722231E+02 0.49497404317E+02
 0.59746272426E+02 0.69567077840E+02 0.77173960530E+02 0.80109446464E+02 0.67430171603E+02
 0.59759530629E+02 0.50748045623E+02 0.41273994888E+02 0.31627630605E+02 0.22425993317E+02
 0.14798282811E+02 0.95989307631E+01 0.66631820024E+01 0.50623361056E+01 0.43358220152E+01
 0.43358720679E+01 0.50623869418E+01 0.66628291469E+01 0.95978865517E+01 0.14797621724E+02
 0.22428143467E+02 0.31633436551E+02 0.41279635508E+02 0.50746885747E+02 0.59748987715E+02
 0.67416376927E+02 0.72017958274E+02 0.72024325251E+02 0.56608849324E+02 0.49497277647E+02
 0.41273994888E+02 0.32477895792E+02 0.23752183599E+02 0.16127953330E+02 0.10556231394E+02
 0.71972002079E+01 0.53230759160E+01 0.43333129964E+01 0.40288684820E+01 0.43333790338E+01
 0.53232497001E+01 0.71970201530E+01 0.10554999303E+02 0.16125983935E+02 0.23751228256E+02
 0.32479541305E+02 0.41277717516E+02 0.49500758948E+02 0.56610408594E+02 0.61675134512E+02
 0.63544789991E+02 0.61675022980E+02 0.45934267164E+02 0.39262328091E+02 0.31627630605E+02
 0.23752183599E+02 0.16600697092E+02 0.11096104938E+02 0.75683264652E+01 0.55277163338E+01
 0.43618103765E+01 0.38448163870E+01 0.38447812611E+01 0.43619547500E+01 0.55283387014E+01
 0.75689896671E+01 0.11095628715E+02 0.16598295329E+02 0.23748778603E+02 0.31625798831E+02
 0.39264420277E+02 0.45940107560E+02 0.51021494822E+02 0.53821152504E+02 0.53818403187E+02
 0.51015129279E+02 0.35423602627E+02 0.29157017871E+02 0.22425993317E+02 0.16127953330E+02
 0.11096104938E+02 0.77021948807E+01 0.56392341785E+01 0.43896734486E+01 0.37450041518E+01
 0.35490628986E+01 0.37448257961E+01 0.43896834746E+01 0.56400338964E+01 0.77039649183E+01
 0.11097867618E+02 0.16127971578E+02 0.22423489557E+02 0.29153374456E+02 0.35421265892E+02
 0.40494162802E+02 0.43809460109E+02 0.44965575299E+02 0.43808508800E+02 0.40494171168E+02
 0.25328765762E+02 0.19958166428E+02 0.14798282811E+02 0.10556231394E+02 0.75683264652E+01
 0.56392341785E+01 0.44004949362E+01 0.37015280866E+01 0.33951021444E+01 0.33949455888E+01
 0.37009442579E+01 0.43996386951E+01 0.56391436734E+01 0.75702829286E+01 0.10560171443E+02
 0.14802095174E+02 0.19959008823E+02 0.25325346452E+02 0.30116250047E+02 0.33679780034E+02
 0.35573990788E+02 0.35576362319E+02 0.33685651534E+02 0.30122521408E+02 0.16725883174E+02
 0.12863000594E+02 0.95989307631E+01 0.71972002079E+01 0.55277163338E+01 0.43896734486E+01
 0.37015280866E+01 0.33478198162E+01 0.32403311791E+01 0.33477704949E+01 0.37006994059E+01
 0.43876371473E+01 0.55254576086E+01 0.71969536212E+01 0.96023007649E+01 0.12868862728E+02
 0.16730508384E+02 0.20633214401E+02 0.23948763250E+02 0.26156122798E+02 0.26929947598E+02
 0.26160160460E+02 0.23952803881E+02 0.20633130768E+02 0.10684504655E+02 0.84253590267E+01
 0.66631820024E+01 0.53230759160E+01 0.43618103765E+01 0.37450041518E+01 0.33951021444E+01
 0.32403311791E+01 0.32407550333E+01 0.33959477769E+01 0.37450308388E+01 0.43596317778E+01
 0.53187793195E+01 0.66592637599E+01 0.84251004269E+01 0.10688845340E+02 0.13269634636E+02
 0.15776827359E+02 0.17760742197E+02 0.18853281399E+02 0.18852928526E+02 0.17758723163E+02
 0.15771966741E+02 0.13263246047E+02 0.72386686474E+01 0.60446262182E+01 0.50623361056E+01
 0.43333129964E+01 0.38448163870E+01 0.35490628986E+01 0.33949455888E+01 0.33477704949E+01
 0.33959477769E+01 0.35511845908E+01 0.38470445395E+01 0.43333476945E+01 0.50586307908E+01
 0.60385600454E+01 0.72340287391E+01 0.86299334698E+01 0.10128299444E+02 0.11494371944E+02
 0.12454661881E+02 0.12799043898E+02 0.12450349921E+02 0.11488072492E+02 0.10123697859E+02
 0.86299680764E+01 0.54182390889E+01 0.47979797434E+01 0.43358220152E+01 0.40288684820E+01
 0.38447812611E+01 0.37448257961E+01 0.37009442579E+01 0.37006994059E+01 0.37450308388E+01
 0.38470445395E+01 0.40331384313E+01 0.43395458753E+01 0.47979670066E+01 0.54136815043E+01
 0.61487411318E+01 0.69255236004E+01 0.76690616077E+01 0.82736632776E+01 0.86152226085E+01
 0.86136372229E+01 0.82707902889E+01 0.76686739785E+01 0.69295026075E+01 0.61550977183E+01
 0.45848966794E+01 0.44094859024E+01 0.43358720679E+01 0.43333790338E+01 0.43619547500E+01
 0.43896834746E+01 0.43996386951E+01 0.43876371473E+01 0.43596317778E+01 0.43333476945E+01
 0.43395458753E+01 0.44154268808E+01 0.45893783252E+01 0.48649362801E+01 0.52137219426E+01
 0.55814171577E+01 0.59032838329E+01 0.61216875376E+01 0.61989375147E+01 0.61227311466E+01
 0.59064033313E+01 0.55863657537E+01 0.52177664398E+01 0.48649135181E+01 0.45848400605E+01
 0.47979703601E+01 0.50623869418E+01 0.53232497001E+01 0.55283387014E+01 0.56400338964E+01
 0.56391436734E+01 0.55254576086E+01 0.53187793195E+01 0.50586307908E+01 0.47979670066E+01
 0.45893783252E+01 0.44683506445E+01 0.44417841325E+01 0.44881587782E+01 0.45692672386E+01
 0.46464657048E+01 0.46923169515E+01 0.46936082594E+01 0.46496344955E+01 0.45722158639E+01
 0.44881830053E+01 0.44376557504E+01 0.44620042000E+01 0.54181186413E+01 0.60444574731E+01
 0.66628291469E+01 0.71970201530E+01 0.75689896671E+01 0.77039649183E+01 0.75702829286E+01
 0.71969536212E+01 0.66592637599E+01 0.60385600454E+01 0.54136815043E+01 0.48649362801E+01
 0.44417841325E+01 0.41538461683E+01 0.39793269909E+01 0.38840033774E+01 0.38385359713E+01
 0.38257029904E+01 0.38394607143E+01 0.38839898534E+01 0.39766133512E+01 0.41489484121E+01
 0.44377223788E+01 0.48649135181E+01 0.72385156134E+01 0.84248513132E+01 0.95978865517E+01
 0.10554999303E+02 0.11095628715E+02 0.11097867618E+02 0.10560171443E+02 0.96023007649E+01
 0.84251004269E+01 0.72340287391E+01 0.61487411318E+01 0.52137219426E+01 0.44881587782E+01
 0.39793269909E+01 0.36537003277E+01 0.34664797620E+01 0.33820908348E+01 0.33817973629E+01
 0.34651056033E+01 0.36508897380E+01 0.39765407880E+01 0.44881644229E+01 0.52178854618E+01
 0.61550977183E+01 0.10684465060E+02 0.12862883476E+02 0.14797621724E+02 0.16125983935E+02
 0.16598295329E+02 0.16127971578E+02 0.14802095174E+02 0.12868862728E+02 0.10688845340E+02
 0.86299334698E+01 0.69255236004E+01 0.55814171577E+01 0.45692672386E+01 0.38840033774E+01
 0.34664797620E+01 0.32480879345E+01 0.31805574631E+01 0.32471760612E+01 0.34652691109E+01
 0.38839985888E+01 0.45719726197E+01 0.55863489934E+01 0.69296298421E+01 0.86299680764E+01
 0.16726801955E+02 0.19960649528E+02 0.22428143467E+02 0.23751228256E+02 0.23748778603E+02
 0.22423489557E+02 0.19959008823E+02 0.16730508384E+02 0.13269634636E+02 0.10128299444E+02
 0.76690616077E+01 0.59032838329E+01 0.46464657048E+01 0.38385359713E+01 0.33820908348E+01
 0.31805574631E+01 0.31803734769E+01 0.33820853914E+01 0.38398089407E+01 0.46493175189E+01
 0.59060876143E+01 0.76689615936E+01 0.10123907326E+02 0.13263246047E+02 0.25331864522E+02
 0.29163571688E+02 0.31633436551E+02 0.32479541305E+02 0.31625798831E+02 0.29153374456E+02
 0.25325346452E+02 0.20633214401E+02 0.15776827359E+02 0.11494371944E+02 0.82736632776E+01
 0.61216875376E+01 0.46923169515E+01 0.38257029904E+01 0.33817973629E+01 0.32471760612E+01
 0.33820853914E+01 0.38266241832E+01 0.46935722066E+01 0.61217623053E+01 0.82708850298E+01
 0.11488984960E+02 0.15771962502E+02 0.20633130768E+02 0.35428374245E+02 0.39269722231E+02
 0.41279635508E+02 0.41277717516E+02 0.39264420277E+02 0.35421265892E+02 0.30116250047E+02
 0.23948763250E+02 0.17760742197E+02 0.12454661881E+02 0.86152226085E+01 0.61989375147E+01
 0.46936082594E+01 0.38394607143E+01 0.34651056033E+01 0.34652691109E+01 0.38398089407E+01
 0.46935722066E+01 0.61976295736E+01 0.86123668144E+01 0.12451557945E+02 0.17759829283E+02
 0.23951732616E+02 0.30122521408E+02 0.45936785254E+02 0.49497404317E+02 0.50746885747E+02
 0.49500758948E+02 0.45940107560E+02 0.40494162802E+02 0.33679780034E+02 0.26156122798E+02
 0.18853281399E+02 0.12799043898E+02 0.86136372229E+01 0.61227311466E+01 0.46496344955E+01
 0.38839898534E+01 0.36508897380E+01 0.38839985888E+01 0.46493175189E+01 0.61217623053E+01
 0.86123668144E+01 0.12798802370E+02 0.18855414477E+02 0.26160220438E+02 0.33683206035E+02
 0.40494171168E+02 0.56603966625E+02 0.59746272426E+02 0.59748987715E+02 0.56610408594E+02
 0.51021494822E+02 0.43809460109E+02 0.35573990788E+02 0.26929947598E+02 0.18852928526E+02
 0.12450349921E+02 0.82707902889E+01 0.59064033313E+01 0.45722158639E+01 0.39766133512E+01
 0.39765407880E+01 0.45719726197E+01 0.59060876143E+01 0.82708850298E+01 0.12451557945E+02
 0.18855414477E+02 0.26932582333E+02 0.35574583894E+02 0.43806297321E+02 0.51015129279E+02
 0.67417061439E+02 0.69567077840E+02 0.67416376927E+02 0.61675134512E+02 0.53821152504E+02
 0.44965575299E+02 0.35576362319E+02 0.26160160460E+02 0.17758723163E+02 0.11488072492E+02
 0.76686739785E+01 0.55863657537E+01 0.44881830053E+01 0.41489484121E+01 0.44881644229E+01
 0.55863489934E+01 0.76689615936E+01 0.11488984960E+02 0.17759829283E+02 0.26160220438E+02
 0.35574583894E+02 0.44962804430E+02 0.53819258810E+02 0.61675022980E+02 0.77176880197E+02
 0.77173960530E+02 0.72017958274E+02 0.63544789991E+02 0.53818403187E+02 0.43808508800E+02
 0.33685651534E+02 0.23952803881E+02 0.15771966741E+02 0.10123697859E+02 0.69295026075E+01
 0.52177664398E+01 0.44376557504E+01 0.44377223788E+01 0.52178854618E+01 0.69296298421E+01
 0.10123907326E+02 0.15771962502E+02 0.23951732616E+02 0.33683206035E+02 0.43806297321E+02
 0.53819258810E+02 0.63549791303E+02 0.72024325251E+02 0.83234508328E+02 0.80109446464E+02
 0.72024325251E+02 0.61675022980E+02 0.51015129279E+02 0.40494171168E+02 0.30122521408E+02
 0.20633130768E+02 0.13263246047E+02 0.86299680764E+01 0.61550977183E+01 0.48649135181E+01
 0.44620042000E+01 0.48649135181E+01 0.61550977183E+01 0.86299680764E+01 0.13263246047E+02
 0.20633130768E+02 0.30122521408E+02 0.40494171168E+02 0.51015129279E+02 0.61675022980E+02
 0.72024325251E+02 0.80109446464E+02 0.74484591116E+02 0.67430171603E+02 0.58181893823E+02
 0.48329288911E+02 0.38326796948E+02 0.28393038811E+02 0.19389703741E+02 0.12502570982E+02
 0.82260205842E+01 0.59252377526E+01 0.47172677029E+01 0.43417105655E+01 0.47172417806E+01
 0.59251203435E+01 0.82256107777E+01 0.12502223362E+02 0.19391017756E+02 0.28397435586E+02
 0.38332405717E+02 0.48330361632E+02 0.58173629959E+02 0.67415030982E+02 0.74472416625E+02
 0.77176880197E+02 0.67430171603E+02 0.59759530629E+02 0.50748045623E+02 0.41273994888E+02
 0.31627630605E+02 0.22425993317E+02 0.14798282811E+02 0.95989307631E+01 0.66631820024E+01
 0.50623361056E+01 0.43358220152E+01 0.43358720679E+01 0.50623869418E+01 0.66628291469E+01
 0.95978865517E+01 0.14797621724E+02 0.22428143467E+02 0.31633436551E+02 0.41279635508E+02
 0.50746885747E+02 0.59748987715E+02 0.67416376927E+02 0.72017958274E+02 0.72024325251E+02
 0.58181893823E+02 0.50748045623E+02 0.42283567272E+02 0.33315252356E+02 0.24420204632E+02
 0.16600754172E+02 0.10841337668E+02 0.73527604618E+01 0.54190492420E+01 0.43969621739E+01
 0.40820175523E+01 0.43969795533E+01 0.54190430051E+01 0.73521683411E+01 0.10839589588E+02
 0.16598713607E+02 0.24420230308E+02 0.33318779614E+02 0.42288877229E+02 0.50751525082E+02
 0.58181880457E+02 0.63548312356E+02 0.65544607680E+02 0.63549791303E+02 0.48329288911E+02
 0.41273994888E+02 0.33315252356E+02 0.25111761822E+02 0.17587014089E+02 0.11711335860E+02
 0.79057555264E+01 0.57264047383E+01 0.44858322981E+01 0.39336284229E+01 0.39335844158E+01
 0.44859285891E+01 0.57267407902E+01 0.79054847472E+01 0.11709151194E+02 0.17582904091E+02
 0.25108151956E+02 0.33315845343E+02 0.41280861886E+02 0.48340623739E+02 0.53829853682E+02
 0.56907326401E+02 0.56903010346E+02 0.53819258810E+02 0.38326796948E+02 0.31627630605E+02
 0.24420204632E+02 0.17587014089E+02 0.12024145803E+02 0.82173258922E+01 0.59330238249E+01
 0.45648021800E+01 0.38556830350E+01 0.36398460362E+01 0.38556911939E+01 0.45651770444E+01
 0.59339392544E+01 0.82180008024E+01 0.12022882839E+02 0.17582874308E+02 0.24415149251E+02
 0.31626228359E+02 0.38332397562E+02 0.43816865843E+02 0.47456919656E+02 0.48737717252E+02
 0.47448432649E+02 0.43806297321E+02 0.28393038811E+02 0.22425993317E+02 0.16600754172E+02
 0.11711335860E+02 0.82173258922E+01 0.60057749272E+01 0.46096971160E+01 0.38192200023E+01
 0.34725113029E+01 0.34724227422E+01 0.38189999719E+01 0.46097398331E+01 0.60068064948E+01
 0.82193498603E+01 0.11712795433E+02 0.16599709859E+02 0.22422534560E+02 0.28389791980E+02
 0.33682677277E+02 0.37625481196E+02 0.39729750843E+02 0.39728634938E+02 0.37623768676E+02
 0.33683206035E+02 0.19389703741E+02 0.14798282811E+02 0.10841337668E+02 0.79057555264E+01
 0.59330238249E+01 0.46096971160E+01 0.38086193161E+01 0.33976516466E+01 0.32727560123E+01
 0.33973237936E+01 0.38077268502E+01 0.46086246798E+01 0.59330496951E+01 0.79079128967E+01
 0.10844995306E+02 0.14801181719E+02 0.19389676178E+02 0.23948492482E+02 0.27777735428E+02
 0.30312090367E+02 0.31197920396E+02 0.30315327227E+02 0.27782330834E+02 0.23951732616E+02
 0.12502570982E+02 0.95989307631E+01 0.73527604618E+01 0.57264047383E+01 0.45648021800E+01
 0.38192200023E+01 0.33976516466E+01 0.32115818890E+01 0.32117176355E+01 0.33976186418E+01
 0.38181411820E+01 0.45624273922E+01 0.57239568894E+01 0.73524236239E+01 0.96019233849E+01
 0.12507535477E+02 0.15775723463E+02 0.18899647830E+02 0.21339971356E+02 0.22673851076E+02
 0.22674991901E+02 0.21341804728E+02 0.18899197582E+02 0.15771962502E+02 0.82260205842E+01
 0.66631820024E+01 0.54190492420E+01 0.44858322981E+01 0.38556830350E+01 0.34725113029E+01
 0.32727560123E+01 0.32117176355E+01 0.32736844487E+01 0.34736902951E+01 0.38556869975E+01
 0.44833551650E+01 0.54145370870E+01 0.66592771655E+01 0.82256201264E+01 0.10127584522E+02
 0.12173509117E+02 0.14021548728E+02 0.15308999399E+02 0.15769618208E+02 0.15306602794E+02
 0.14016858648E+02 0.12167924723E+02 0.10123907326E+02 0.59252377526E+01 0.50623361056E+01
 0.43969621739E+01 0.39336284229E+01 0.36398460362E+01 0.34724227422E+01 0.33973237936E+01
 0.33976186418E+01 0.34736902951E+01 0.36423301460E+01 0.39360653459E+01 0.43969734889E+01
 0.50586675048E+01 0.59194865664E+01 0.69253683169E+01 0.80248676859E+01 0.91191224195E+01
 0.10019271239E+02 0.10529027419E+02 0.10526937691E+02 0.10014521019E+02 0.91152389862E+01
 0.80249094820E+01 0.69296298421E+01 0.47172677029E+01 0.43358220152E+01 0.40820175523E+01
 0.39335844158E+01 0.38556911939E+01 0.38189999719E+01 0.38077268502E+01 0.38181411820E+01
 0.38556869975E+01 0.39360653459E+01 0.40865190256E+01 0.43395528691E+01 0.47172484451E+01
 0.52137207441E+01 0.57865022438E+01 0.63623688748E+01 0.68608695874E+01 0.72070960829E+01
 0.73312744938E+01 0.72058115529E+01 0.68608348274E+01 0.63656383038E+01 0.57919995901E+01
 0.52178854618E+01 0.43417105655E+01 0.43358720679E+01 0.43969795533E+01 0.44859285891E+01
 0.45651770444E+01 0.46097398331E+01 0.46086246798E+01 0.45624273922E+01 0.44833551650E+01
 0.43969734889E+01 0.43395528691E+01 0.43473737563E+01 0.44417699107E+01 0.46182656872E+01
 0.48460346480E+01 0.50776999405E+01 0.52641399931E+01 0.53675054055E+01 0.53682610176E+01
 0.52666300409E+01 0.50816312272E+01 0.48493751156E+01 0.46182770224E+01 0.44377223788E+01
 0.47172417806E+01 0.50623869418E+01 0.54190430051E+01 0.57267407902E+01 0.59339392544E+01
 0.60068064948E+01 0.59330496951E+01 0.57239568894E+01 0.54145370870E+01 0.50586675048E+01
 0.47172484451E+01 0.44417699107E+01 0.42598003430E+01 0.41694967674E+01 0.41461553514E+01
 0.41568384300E+01 0.41741796112E+01 0.41823661704E+01 0.41760656131E+01 0.41589875835E+01
 0.41462027519E+01 0.41661311879E+01 0.42543414833E+01 0.44376557504E+01 0.59251203435E+01
 0.66628291469E+01 0.73521683411E+01 0.79054847472E+01 0.82180008024E+01 0.82193498603E+01
 0.79079128967E+01 0.73524236239E+01 0.66592771655E+01 0.59194865664E+01 0.52137207441E+01
 0.46182656872E+01 0.41694967674E+01 0.38634891651E+01 0.36721549385E+01 0.35636102443E+01
 0.35150383325E+01 0.35152965830E+01 0.35635093463E+01 0.36701942860E+01 0.38596961915E+01
 0.41661765417E+01 0.46182770224E+01 0.52177664398E+01 0.82256107777E+01 0.95978865517E+01
 0.10839589588E+02 0.11709151194E+02 0.12022882839E+02 0.11712795433E+02 0.10844995306E+02
 0.96019233849E+01 0.82256201264E+01 0.69253683169E+01 0.57865022438E+01 0.48460346480E+01
 0.41461553514E+01 0.36721549385E+01 0.33797140813E+01 0.32240568197E+01 0.31753416772E+01
 0.32231886667E+01 0.33778320937E+01 0.36701626939E+01 0.41461615094E+01 0.48494391743E+01
 0.57919995901E+01 0.69295026075E+01 0.12502223362E+02 0.14797621724E+02 0.16598713607E+02
 0.17582904091E+02 0.17582874308E+02 0.16599709859E+02 0.14801181719E+02 0.12507535477E+02
 0.10127584522E+02 0.80248676859E+01 0.63623688748E+01 0.50776999405E+01 0.41568384300E+01
 0.35636102443E+01 0.32240568197E+01 0.30721010740E+01 0.30717313964E+01 0.32233276601E+01
 0.35636253858E+01 0.41588103354E+01 0.50814961299E+01 0.63657180863E+01 0.80249094820E+01
 0.10123697859E+02 0.19391017756E+02 0.22428143467E+02 0.24420230308E+02 0.25108151956E+02
 0.24415149251E+02 0.22422534560E+02 0.19389676178E+02 0.15775723463E+02 0.12173509117E+02
 0.91191224195E+01 0.68608695874E+01 0.52641399931E+01 0.41741796112E+01 0.35150383325E+01
 0.31753416772E+01 0.30717313964E+01 0.31753947463E+01 0.35158101841E+01 0.41760417537E+01
 0.52661226058E+01 0.68608342180E+01 0.91156358410E+01 0.12167924723E+02 0.15771966741E+02
 0.28397435586E+02 0.31633436551E+02 0.33318779614E+02 0.33315845343E+02 0.31626228359E+02
 0.28389791980E+02 0.23948492482E+02 0.18899647830E+02 0.14021548728E+02 0.10019271239E+02
 0.72070960829E+01 0.53675054055E+01 0.41823661704E+01 0.35152965830E+01 0.32231886667E+01
 0.32233276601E+01 0.35158101841E+01 0.41830971141E+01 0.53674802840E+01 0.72051045088E+01
 0.10015378233E+02 0.14017873876E+02 0.18899197582E+02 0.23952803881E+02 0.38332405717E+02
 0.41279635508E+02 0.42288877229E+02 0.41280861886E+02 0.38332397562E+02 0.33682677277E+02
 0.27777735428E+02 0.21339971356E+02 0.15308999399E+02 0.10529027419E+02 0.73312744938E+01
 0.53682610176E+01 0.41760656131E+01 0.35635093463E+01 0.33778320937E+01 0.35636253858E+01
 0.41760417537E+01 0.53674802840E+01 0.73293986668E+01 0.10527060595E+02 0.15309040216E+02
 0.21343102371E+02 0.27782330834E+02 0.33685651534E+02 0.48330361632E+02 0.50746885747E+02
 0.50751525082E+02 0.48340623739E+02 0.43816865843E+02 0.37625481196E+02 0.30312090367E+02
 0.22673851076E+02 0.15769618208E+02 0.10526937691E+02 0.72058115529E+01 0.52666300409E+01
 0.41589875835E+01 0.36701942860E+01 0.36701626939E+01 0.41588103354E+01 0.52661226058E+01
 0.72051045088E+01 0.10527060595E+02 0.15772054537E+02 0.22678522763E+02 0.30315815644E+02