   1   1   1   0
  0.1786834E+02  0.2934493E-09  0.2934493E-09  0.2934493E-09  0.5000000E-15
  1.000000000000000E-004
  CAR 
 fcc Au                                  
     36.13113165     -6.41585919  301      4.86753481      1.00000000
     -6.416  0.0000E+00  0.0000E+00
     -6.274  0.0000E+00  0.0000E+00
     -6.132 -0.7078E-33 -0.1004E-33
     -5.990 -0.7583E-28 -0.1075E-28
     -5.849 -0.2948E-23 -0.4181E-24
     -5.707 -0.4150E-19 -0.5886E-20
     -5.565 -0.2049E-15 -0.2906E-16
     -5.423 -0.3718E-12 -0.5277E-13
     -5.281 -0.2407E-09 -0.3419E-10
     -5.139 -0.5488E-07 -0.7818E-08
     -4.998 -0.4300E-05 -0.6176E-06
     -4.856 -0.1092E-03 -0.1610E-04
     -4.714 -0.7413E-03 -0.1212E-03
     -4.572  0.3059E-03 -0.7786E-04
     -4.430  0.9677E-02  0.1295E-02
     -4.289  0.2747E-01  0.5191E-02
     -4.147  0.5048E-01  0.1235E-01
     -4.005  0.5665E-01  0.2038E-01
     -3.863  0.5951E-01  0.2882E-01
     -3.721  0.7612E-01  0.3962E-01
     -3.579  0.1048E+00  0.5448E-01
     -3.438  0.1037E+00  0.6919E-01
     -3.296  0.7192E-01  0.7939E-01
     -3.154  0.1064E+00  0.9448E-01
     -3.012  0.1721E+00  0.1189E+00
     -2.870  0.1558E+00  0.1410E+00
     -2.728  0.1137E+00  0.1571E+00
     -2.587  0.1721E+00  0.1815E+00
     -2.445  0.2035E+00  0.2104E+00
     -2.303  0.2005E+00  0.2388E+00
     -2.161  0.2743E+00  0.2777E+00
     -2.019  0.4169E+00  0.3368E+00
     -1.878  0.5677E+00  0.4174E+00
     -1.736  0.6551E+00  0.5103E+00
     -1.594  0.9348E+00  0.6428E+00
     -1.452  0.1241E+01  0.8188E+00
     -1.310  0.1577E+01  0.1042E+01
     -1.168  0.1889E+01  0.1310E+01
     -1.027  0.1940E+01  0.1585E+01
     -0.885  0.1853E+01  0.1848E+01
     -0.743  0.1657E+01  0.2083E+01
     -0.601  0.1623E+01  0.2314E+01
     -0.459  0.1331E+01  0.2502E+01
     -0.317  0.1363E+01  0.2695E+01
     -0.176  0.1826E+01  0.2954E+01
     -0.034  0.2042E+01  0.3244E+01
      0.108  0.2042E+01  0.3534E+01
      0.250  0.2085E+01  0.3829E+01
      0.392  0.2371E+01  0.4166E+01
      0.533  0.2431E+01  0.4510E+01
      0.675  0.2781E+01  0.4905E+01
      0.817  0.3392E+01  0.5386E+01
      0.959  0.2953E+01  0.5805E+01
      1.101  0.2016E+01  0.6090E+01
      1.243  0.1562E+01  0.6312E+01
      1.384  0.1708E+01  0.6554E+01
      1.526  0.1888E+01  0.6822E+01
      1.668  0.2252E+01  0.7141E+01
      1.810  0.2374E+01  0.7478E+01
      1.952  0.1944E+01  0.7754E+01
      2.094  0.2043E+01  0.8044E+01
      2.235  0.1942E+01  0.8319E+01
      2.377  0.1583E+01  0.8544E+01
      2.519  0.1813E+01  0.8801E+01
      2.661  0.1858E+01  0.9064E+01
      2.803  0.2358E+01  0.9399E+01
      2.944  0.2904E+01  0.9811E+01
      3.086  0.2591E+01  0.1018E+02
      3.228  0.1670E+01  0.1041E+02
      3.370  0.9579E+00  0.1055E+02
      3.512  0.4325E+00  0.1061E+02
      3.654  0.1306E+00  0.1063E+02
      3.795  0.1090E+00  0.1065E+02
      3.937  0.3532E+00  0.1070E+02
      4.079  0.4590E+00  0.1076E+02
      4.221  0.2908E+00  0.1080E+02
      4.363  0.1271E+00  0.1082E+02
      4.505  0.1997E+00  0.1085E+02
      4.646  0.4850E+00  0.1092E+02
      4.788  0.4339E+00  0.1098E+02
      4.930  0.2339E+00  0.1101E+02
      5.072  0.1799E+00  0.1104E+02
      5.214  0.1813E+00  0.1106E+02
      5.355  0.2655E+00  0.1110E+02
      5.497  0.4405E+00  0.1116E+02
      5.639  0.3423E+00  0.1121E+02
      5.781  0.2575E+00  0.1125E+02
      5.923  0.3197E+00  0.1129E+02
      6.065  0.2640E+00  0.1133E+02
      6.206  0.2251E+00  0.1136E+02
      6.348  0.2166E+00  0.1139E+02
      6.490  0.2976E+00  0.1144E+02
      6.632  0.3487E+00  0.1149E+02
      6.774  0.3302E+00  0.1153E+02
      6.916  0.2433E+00  0.1157E+02
      7.057  0.1462E+00  0.1159E+02
      7.199  0.2688E+00  0.1163E+02
      7.341  0.3737E+00  0.1168E+02
      7.483  0.2762E+00  0.1172E+02
      7.625  0.1727E+00  0.1174E+02
      7.766  0.2630E+00  0.1178E+02
      7.908  0.5690E+00  0.1186E+02
      8.050  0.5692E+00  0.1194E+02
      8.192  0.3358E+00  0.1199E+02
      8.334  0.1562E+00  0.1201E+02
      8.476  0.1744E+00  0.1204E+02
      8.617  0.3802E+00  0.1209E+02
      8.759  0.4482E+00  0.1215E+02
      8.901  0.3617E+00  0.1220E+02
      9.043  0.3029E+00  0.1225E+02
      9.185  0.1474E+00  0.1227E+02
      9.327  0.1041E+00  0.1228E+02
      9.468  0.2435E+00  0.1232E+02
      9.610  0.4271E+00  0.1238E+02
      9.752  0.4647E+00  0.1244E+02
      9.894  0.3554E+00  0.1249E+02
     10.036  0.3550E+00  0.1254E+02
     10.177  0.3292E+00  0.1259E+02
     10.319  0.3138E+00  0.1264E+02
     10.461  0.4406E+00  0.1270E+02
     10.603  0.4361E+00  0.1276E+02
     10.745  0.3704E+00  0.1281E+02
     10.887  0.3255E+00  0.1286E+02
     11.028  0.1899E+00  0.1289E+02
     11.170  0.1858E+00  0.1291E+02
     11.312  0.3982E+00  0.1297E+02
     11.454  0.4881E+00  0.1304E+02
     11.596  0.2214E+00  0.1307E+02
     11.738  0.3960E-01  0.1308E+02
     11.879  0.2420E+00  0.1311E+02
     12.021  0.4513E+00  0.1317E+02
     12.163  0.3407E+00  0.1322E+02
     12.305  0.3604E+00  0.1327E+02
     12.447  0.4465E+00  0.1334E+02
     12.588  0.3709E+00  0.1339E+02
     12.730  0.5649E+00  0.1347E+02
     12.872  0.5594E+00  0.1355E+02
     13.014  0.1559E+00  0.1357E+02
     13.156 -0.1210E-01  0.1357E+02
     13.298  0.1632E+00  0.1359E+02
     13.439  0.4857E+00  0.1366E+02
     13.581  0.5022E+00  0.1373E+02
     13.723  0.2957E+00  0.1377E+02
     13.865  0.3246E+00  0.1382E+02
     14.007  0.4794E+00  0.1389E+02
     14.149  0.4757E+00  0.1396E+02
     14.290  0.4833E+00  0.1402E+02
     14.432  0.4355E+00  0.1409E+02
     14.574  0.3056E+00  0.1413E+02
     14.716  0.4289E+00  0.1419E+02
     14.858  0.4850E+00  0.1426E+02
     14.999  0.3743E+00  0.1431E+02
     15.141  0.4923E+00  0.1438E+02
     15.283  0.7100E+00  0.1448E+02
     15.425  0.6707E+00  0.1458E+02
     15.567  0.3589E+00  0.1463E+02
     15.709  0.2859E+00  0.1467E+02
     15.850  0.3902E+00  0.1472E+02
     15.992  0.4197E+00  0.1478E+02
     16.134  0.6009E+00  0.1487E+02
     16.276  0.7817E+00  0.1498E+02
     16.418  0.8557E+00  0.1510E+02
     16.560  0.6221E+00  0.1519E+02
     16.701  0.2757E+00  0.1523E+02
     16.843  0.1764E+00  0.1525E+02
     16.985  0.3031E+00  0.1530E+02
     17.127  0.5328E+00  0.1537E+02
     17.269  0.5128E+00  0.1544E+02
     17.410  0.5482E+00  0.1552E+02
     17.552  0.5866E+00  0.1561E+02
     17.694  0.4942E+00  0.1568E+02
     17.836  0.4101E+00  0.1573E+02
     17.978  0.5658E+00  0.1581E+02
     18.120  0.6001E+00  0.1590E+02
     18.261  0.3735E+00  0.1595E+02
     18.403  0.4353E+00  0.1601E+02
     18.545  0.5849E+00  0.1610E+02
     18.687  0.5049E+00  0.1617E+02
     18.829  0.3727E+00  0.1622E+02
     18.971  0.5037E+00  0.1629E+02
     19.112  0.6058E+00  0.1638E+02
     19.254  0.3469E+00  0.1643E+02
     19.396  0.2129E+00  0.1646E+02
     19.538  0.4932E+00  0.1653E+02
     19.680  0.7900E+00  0.1664E+02
     19.821  0.6368E+00  0.1673E+02
     19.963  0.4977E+00  0.1680E+02
     20.105  0.6251E+00  0.1689E+02
     20.247  0.6715E+00  0.1698E+02
     20.389  0.5342E+00  0.1706E+02
     20.531  0.4738E+00  0.1713E+02
     20.672  0.4886E+00  0.1720E+02
     20.814  0.5926E+00  0.1728E+02
     20.956  0.5144E+00  0.1735E+02
     21.098  0.3191E+00  0.1740E+02
     21.240  0.2787E+00  0.1744E+02
     21.382  0.4336E+00  0.1750E+02
     21.523  0.8998E+00  0.1763E+02
     21.665  0.1075E+01  0.1778E+02
     21.807  0.7798E+00  0.1789E+02
     21.949  0.7708E+00  0.1800E+02
     22.091  0.7146E+00  0.1810E+02
     22.232  0.6679E+00  0.1820E+02
     22.374  0.8152E+00  0.1831E+02
     22.516  0.1020E+01  0.1846E+02
     22.658  0.1056E+01  0.1861E+02
     22.800  0.7823E+00  0.1872E+02
     22.942  0.6622E+00  0.1881E+02
     23.083  0.6170E+00  0.1890E+02
     23.225  0.6129E+00  0.1899E+02
     23.367  0.6719E+00  0.1908E+02
     23.509  0.6389E+00  0.1917E+02
     23.651  0.5614E+00  0.1925E+02
     23.793  0.7676E+00  0.1936E+02
     23.934  0.9369E+00  0.1949E+02
     24.076  0.7306E+00  0.1960E+02
     24.218  0.4274E+00  0.1966E+02
     24.360  0.3055E+00  0.1970E+02
     24.502  0.5241E+00  0.1978E+02
     24.643  0.7066E+00  0.1988E+02
     24.785  0.5391E+00  0.1995E+02
     24.927  0.4308E+00  0.2001E+02
     25.069  0.3163E+00  0.2006E+02
     25.211  0.2837E+00  0.2010E+02
     25.353  0.3867E+00  0.2015E+02
     25.494  0.6164E+00  0.2024E+02
     25.636  0.5601E+00  0.2032E+02
     25.778  0.3626E+00  0.2037E+02
     25.920  0.4110E+00  0.2043E+02
     26.062  0.4487E+00  0.2049E+02
     26.204  0.2823E+00  0.2053E+02
     26.345  0.1663E+00  0.2056E+02
     26.487  0.2718E+00  0.2060E+02
     26.629  0.3563E+00  0.2065E+02
     26.771  0.3126E+00  0.2069E+02
     26.913  0.5166E+00  0.2076E+02
     27.054  0.8305E+00  0.2088E+02
     27.196  0.6855E+00  0.2098E+02
     27.338  0.3242E+00  0.2102E+02
     27.480  0.2511E+00  0.2106E+02
     27.622  0.2765E+00  0.2110E+02
     27.764  0.1621E+00  0.2112E+02
     27.905  0.2646E+00  0.2116E+02
     28.047  0.6250E+00  0.2125E+02
     28.189  0.7085E+00  0.2135E+02
     28.331  0.4809E+00  0.2142E+02
     28.473  0.3520E+00  0.2147E+02
     28.614  0.5660E+00  0.2155E+02
     28.756  0.9596E+00  0.2168E+02
     28.898  0.1126E+01  0.2184E+02
     29.040  0.9285E+00  0.2197E+02
     29.182  0.7252E+00  0.2208E+02
     29.324  0.5932E+00  0.2216E+02
     29.465  0.4975E+00  0.2223E+02
     29.607  0.4819E+00  0.2230E+02
     29.749  0.5615E+00  0.2238E+02
     29.891  0.6698E+00  0.2248E+02
     30.033  0.7134E+00  0.2258E+02
     30.175  0.6523E+00  0.2267E+02
     30.316  0.8549E+00  0.2279E+02
     30.458  0.1023E+01  0.2294E+02
     30.600  0.8845E+00  0.2306E+02
     30.742  0.6187E+00  0.2315E+02
     30.884  0.5339E+00  0.2322E+02
     31.025  0.5549E+00  0.2330E+02
     31.167  0.5156E+00  0.2338E+02
     31.309  0.4877E+00  0.2345E+02
     31.451  0.4208E+00  0.2350E+02
     31.593  0.3401E+00  0.2355E+02
     31.735  0.4019E+00  0.2361E+02
     31.876  0.6065E+00  0.2370E+02
     32.018  0.5045E+00  0.2377E+02
     32.160  0.2046E+00  0.2380E+02
     32.302  0.1064E+00  0.2381E+02
     32.444  0.1043E+00  0.2383E+02
     32.586  0.1516E+00  0.2385E+02
     32.727  0.1496E+00  0.2387E+02
     32.869  0.1061E+00  0.2388E+02
     33.011  0.1143E+00  0.2390E+02
     33.153  0.2091E+00  0.2393E+02
     33.295  0.2038E+00  0.2396E+02
     33.436  0.4855E-01  0.2397E+02
     33.578 -0.1209E-01  0.2396E+02
     33.720 -0.1400E-02  0.2396E+02
     33.862  0.3317E-01  0.2397E+02
     34.004  0.7483E-01  0.2398E+02
     34.146  0.9716E-01  0.2399E+02
     34.287  0.5134E-01  0.2400E+02
     34.429  0.1328E-02  0.2400E+02
     34.571 -0.3080E-02  0.2400E+02
     34.713 -0.4007E-03  0.2400E+02
     34.855 -0.1459E-04  0.2400E+02
     34.997 -0.1775E-06  0.2400E+02
     35.138 -0.7558E-09  0.2400E+02
     35.280 -0.1147E-11  0.2400E+02
     35.422 -0.6388E-15  0.2400E+02
     35.564  0.0000E+00  0.2400E+02
     35.706  0.0000E+00  0.2400E+02
     35.847  0.0000E+00  0.2400E+02
     35.989  0.0000E+00  0.2400E+02
     36.131  0.0000E+00  0.2400E+02
     36.13113165     -6.41585919  301      4.86753481      1.00000000
     -6.416  0.0000E+00  0.0000E+00  0.0000E+00
     -6.274  0.0000E+00  0.0000E+00  0.0000E+00
     -6.132 -0.4584E-33 -0.3041E-35 -0.6834E-37
     -5.990 -0.4911E-28 -0.3258E-30 -0.7322E-32
     -5.849 -0.1909E-23 -0.1266E-25 -0.2846E-27
     -5.707 -0.2688E-19 -0.1783E-21 -0.4007E-23
     -5.565 -0.1327E-15 -0.8802E-18 -0.1978E-19
     -5.423 -0.2408E-12 -0.1598E-14 -0.3591E-16
     -5.281 -0.1559E-09 -0.1035E-11 -0.2326E-13
     -5.139 -0.3554E-07 -0.2361E-09 -0.5319E-11
     -4.998 -0.2784E-05 -0.1857E-07 -0.4232E-09
     -4.856 -0.7070E-04 -0.4835E-06 -0.1169E-07
     -4.714 -0.4794E-03 -0.3878E-05 -0.1270E-06
     -4.572  0.2086E-03 -0.8890E-05 -0.8030E-06
     -4.430  0.6296E-02  0.1326E-04 -0.1861E-05
     -4.289  0.1766E-01  0.2472E-03  0.8835E-05
     -4.147  0.3215E-01  0.7499E-03  0.4704E-04
     -4.005  0.3572E-01  0.1152E-02  0.1276E-03
     -3.863  0.3700E-01  0.1658E-02  0.2484E-03
     -3.721  0.4661E-01  0.2721E-02  0.4959E-03
     -3.579  0.6321E-01  0.4424E-02  0.1061E-02
     -3.438  0.6190E-01  0.4733E-02  0.1511E-02
     -3.296  0.4216E-01  0.3689E-02  0.1572E-02
     -3.154  0.6073E-01  0.6552E-02  0.3053E-02
     -3.012  0.9660E-01  0.1125E-01  0.6195E-02
     -2.870  0.8624E-01  0.1060E-01  0.6752E-02
     -2.728  0.6083E-01  0.8236E-02  0.7182E-02
     -2.587  0.8874E-01  0.1320E-01  0.1454E-01
     -2.445  0.1019E+00  0.1584E-01  0.2086E-01
     -2.303  0.9647E-01  0.1666E-01  0.2419E-01
     -2.161  0.1245E+00  0.2233E-01  0.4434E-01
     -2.019  0.1613E+00  0.2688E-01  0.1166E+00
     -1.878  0.1810E+00  0.2660E-01  0.2264E+00
     -1.736  0.1784E+00  0.2786E-01  0.3046E+00
     -1.594  0.2209E+00  0.4207E-01  0.4700E+00
     -1.452  0.2362E+00  0.4995E-01  0.7031E+00
     -1.310  0.2210E+00  0.5313E-01  0.1016E+01
     -1.168  0.2029E+00  0.5565E-01  0.1319E+01
     -1.027  0.1691E+00  0.5719E-01  0.1414E+01
     -0.885  0.1236E+00  0.5392E-01  0.1406E+01
     -0.743  0.8850E-01  0.5537E-01  0.1278E+01
     -0.601  0.5959E-01  0.5900E-01  0.1281E+01
     -0.459  0.2783E-01  0.5390E-01  0.1070E+01
     -0.317  0.1626E-01  0.6449E-01  0.1101E+01
     -0.176  0.1849E-01  0.8789E-01  0.1481E+01
     -0.034  0.1900E-01  0.8716E-01  0.1682E+01
      0.108  0.2233E-01  0.7393E-01  0.1710E+01
      0.250  0.3007E-01  0.7198E-01  0.1756E+01
      0.392  0.4163E-01  0.9696E-01  0.1976E+01
      0.533  0.4776E-01  0.9502E-01  0.2036E+01
      0.675  0.4576E-01  0.9547E-01  0.2374E+01
      0.817  0.4694E-01  0.1272E+00  0.2902E+01
      0.959  0.5056E-01  0.1267E+00  0.2494E+01
      1.101  0.4161E-01  0.8590E-01  0.1698E+01
      1.243  0.2246E-01  0.6301E-01  0.1337E+01
      1.384  0.1992E-01  0.7579E-01  0.1459E+01
      1.526  0.2602E-01  0.7580E-01  0.1626E+01
      1.668  0.3002E-01  0.7581E-01  0.1971E+01
      1.810  0.2827E-01  0.6556E-01  0.2109E+01
      1.952  0.1727E-01  0.3882E-01  0.1765E+01
      2.094  0.1763E-01  0.4811E-01  0.1851E+01
      2.235  0.2045E-01  0.5384E-01  0.1745E+01
      2.377  0.1385E-01  0.3536E-01  0.1447E+01
      2.519  0.1333E-01  0.3157E-01  0.1680E+01
      2.661  0.1831E-01  0.3337E-01  0.1718E+01
      2.803  0.1999E-01  0.2799E-01  0.2215E+01
      2.944  0.1608E-01  0.2050E-01  0.2770E+01
      3.086  0.8954E-02  0.1404E-01  0.2491E+01
      3.228  0.1747E-01  0.1603E-01  0.1583E+01
      3.370  0.4063E-01  0.2932E-01  0.8381E+00
      3.512  0.3875E-01  0.3792E-01  0.3111E+00
      3.654  0.1892E-01  0.2904E-01  0.5470E-01
      3.795  0.1283E-01  0.1431E-01  0.6658E-01
      3.937  0.4132E-01  0.2924E-01  0.2465E+00
      4.079  0.5729E-01  0.4373E-01  0.3066E+00
      4.221  0.4178E-01  0.3675E-01  0.1729E+00
      4.363  0.1979E-01  0.2316E-01  0.6200E-01
      4.505  0.2232E-01  0.4770E-01  0.8730E-01
      4.646  0.6604E-01  0.8921E-01  0.2439E+00
      4.788  0.7080E-01  0.6850E-01  0.2250E+00
      4.930  0.4347E-01  0.3787E-01  0.1145E+00
      5.072  0.3296E-01  0.3091E-01  0.8575E-01
      5.214  0.2927E-01  0.3610E-01  0.8231E-01
      5.355  0.4589E-01  0.5435E-01  0.1136E+00
      5.497  0.8562E-01  0.8508E-01  0.1864E+00
      5.639  0.6798E-01  0.6745E-01  0.1412E+00
      5.781  0.4177E-01  0.6090E-01  0.1002E+00
      5.923  0.4753E-01  0.8369E-01  0.1175E+00
      6.065  0.4604E-01  0.7131E-01  0.8727E-01
      6.206  0.5432E-01  0.4865E-01  0.7479E-01
      6.348  0.5938E-01  0.3842E-01  0.7565E-01
      6.490  0.7177E-01  0.6108E-01  0.1030E+00
      6.632  0.7338E-01  0.8244E-01  0.1164E+00
      6.774  0.6153E-01  0.9389E-01  0.9752E-01
      6.916  0.4878E-01  0.6905E-01  0.6808E-01
      7.057  0.3671E-01  0.3383E-01  0.4183E-01
      7.199  0.7601E-01  0.5648E-01  0.7604E-01
      7.341  0.1032E+00  0.8256E-01  0.1038E+00
      7.483  0.7962E-01  0.5947E-01  0.7621E-01
      7.625  0.5358E-01  0.3507E-01  0.4647E-01
      7.766  0.8863E-01  0.4941E-01  0.7009E-01
      7.908  0.2405E+00  0.6690E-01  0.1517E+00
      8.050  0.2487E+00  0.6220E-01  0.1467E+00
      8.192  0.1206E+00  0.6018E-01  0.8243E-01
      8.334  0.5482E-01  0.3337E-01  0.3135E-01
      8.476  0.8001E-01  0.2181E-01  0.3493E-01
      8.617  0.1361E+00  0.7340E-01  0.8345E-01
      8.759  0.1376E+00  0.1034E+00  0.9989E-01
      8.901  0.1021E+00  0.8666E-01  0.8614E-01
      9.043  0.1032E+00  0.6411E-01  0.6215E-01
      9.185  0.5721E-01  0.2908E-01  0.2421E-01
      9.327  0.6509E-02  0.4432E-01  0.2176E-01
      9.468  0.3837E-01  0.8476E-01  0.5223E-01
      9.610  0.1096E+00  0.1206E+00  0.8395E-01
      9.752  0.1237E+00  0.1316E+00  0.8498E-01
      9.894  0.9225E-01  0.1028E+00  0.6317E-01
     10.036  0.1090E+00  0.9578E-01  0.5764E-01
     10.177  0.1257E+00  0.7471E-01  0.4745E-01
     10.319  0.1069E+00  0.7446E-01  0.5429E-01
     10.461  0.1235E+00  0.1232E+00  0.7892E-01
     10.603  0.1122E+00  0.1339E+00  0.7043E-01
     10.745  0.7787E-01  0.1201E+00  0.7010E-01
     10.887  0.6378E-01  0.1041E+00  0.6782E-01
     11.028  0.4673E-01  0.5720E-01  0.3240E-01
     11.170  0.5389E-01  0.5432E-01  0.2351E-01
     11.312  0.1036E+00  0.1190E+00  0.6061E-01
     11.454  0.1346E+00  0.1463E+00  0.6510E-01
     11.596  0.7003E-01  0.6572E-01  0.1987E-01
     11.738  0.9548E-02  0.1529E-01  0.3177E-02
     11.879  0.5706E-01  0.8151E-01  0.3457E-01
     12.021  0.1181E+00  0.1378E+00  0.6414E-01
     12.163  0.9008E-01  0.9956E-01  0.5292E-01
     12.305  0.7183E-01  0.1144E+00  0.7158E-01
     12.447  0.7327E-01  0.1472E+00  0.9505E-01
     12.588  0.5876E-01  0.1332E+00  0.6600E-01
     12.730  0.8183E-01  0.2169E+00  0.8968E-01
     12.872  0.9148E-01  0.2031E+00  0.8787E-01
     13.014  0.3409E-01  0.5038E-01  0.2112E-01
     13.156  0.1466E-02 -0.7688E-02 -0.2108E-02
     13.298  0.1749E-01  0.6044E-01  0.3302E-01
     13.439  0.4289E-01  0.1952E+00  0.9089E-01
     13.581  0.5969E-01  0.1985E+00  0.8120E-01
     13.723  0.6448E-01  0.1028E+00  0.3254E-01
     13.865  0.7236E-01  0.1091E+00  0.3722E-01
     14.007  0.7064E-01  0.1781E+00  0.7690E-01
     14.149  0.3478E-01  0.1945E+00  0.8786E-01
     14.290  0.2910E-01  0.2022E+00  0.9235E-01
     14.432  0.3350E-01  0.1701E+00  0.9270E-01
     14.574  0.1718E-01  0.1103E+00  0.6963E-01
     14.716  0.2744E-01  0.1652E+00  0.7658E-01
     14.858  0.4367E-01  0.1866E+00  0.7720E-01
     14.999  0.4412E-01  0.1438E+00  0.4478E-01
     15.141  0.4901E-01  0.2110E+00  0.4510E-01
     15.283  0.4208E-01  0.3014E+00  0.1116E+00
     15.425  0.2252E-01  0.2726E+00  0.1358E+00
     15.567  0.5623E-02  0.1525E+00  0.6152E-01
     15.709  0.9358E-02  0.1226E+00  0.4572E-01
     15.850  0.2347E-01  0.1556E+00  0.7177E-01
     15.992  0.2917E-01  0.1594E+00  0.7308E-01
     16.134  0.3776E-01  0.2290E+00  0.1008E+00
     16.276  0.4359E-01  0.3189E+00  0.1205E+00
     16.418  0.4054E-01  0.3593E+00  0.1340E+00
     16.560  0.2897E-01  0.2534E+00  0.1028E+00
     16.701  0.1272E-01  0.1058E+00  0.5067E-01
     16.843  0.1043E-01  0.6571E-01  0.3568E-01
     16.985  0.1229E-01  0.1246E+00  0.5226E-01
     17.127  0.1386E-01  0.2146E+00  0.9329E-01
     17.269  0.1663E-01  0.1927E+00  0.8865E-01
     17.410  0.2602E-01  0.2049E+00  0.9118E-01
     17.552  0.2337E-01  0.2316E+00  0.1015E+00
     17.694  0.2123E-01  0.1999E+00  0.7946E-01
     17.836  0.1851E-01  0.1673E+00  0.6204E-01
     17.978  0.1996E-01  0.2210E+00  0.9470E-01
     18.120  0.1766E-01  0.2328E+00  0.1004E+00
     18.261  0.9946E-02  0.1391E+00  0.6494E-01
     18.403  0.1174E-01  0.1609E+00  0.7524E-01
     18.545  0.2025E-01  0.2023E+00  0.1064E+00
     18.687  0.2015E-01  0.1588E+00  0.9535E-01
     18.829  0.1473E-01  0.1243E+00  0.5769E-01
     18.971  0.1115E-01  0.1765E+00  0.8048E-01
     19.112  0.1079E-01  0.2002E+00  0.1007E+00
     19.254  0.7000E-02  0.1137E+00  0.5028E-01
     19.396  0.2059E-02  0.7979E-01  0.2492E-01
     19.538  0.3905E-02  0.1571E+00  0.7082E-01
     19.680  0.8901E-02  0.2193E+00  0.1076E+00
     19.821  0.1298E-01  0.1618E+00  0.7220E-01
     19.963  0.1520E-01  0.1190E+00  0.6434E-01
     20.105  0.1674E-01  0.1387E+00  0.9511E-01
     20.247  0.1568E-01  0.1653E+00  0.9370E-01
     20.389  0.1003E-01  0.1290E+00  0.6548E-01
     20.531  0.6426E-02  0.8005E-01  0.5635E-01
     20.672  0.5251E-02  0.8459E-01  0.5746E-01
     20.814  0.8136E-02  0.1279E+00  0.6212E-01
     20.956  0.8274E-02  0.1097E+00  0.5027E-01
     21.098  0.4418E-02  0.6016E-01  0.2775E-01
     21.240  0.3642E-02  0.2798E-01  0.2245E-01
     21.382  0.7490E-02  0.6570E-01  0.3851E-01
     21.523  0.2192E-01  0.2258E+00  0.9035E-01
     21.665  0.3284E-01  0.2995E+00  0.1155E+00
     21.807  0.2967E-01  0.1932E+00  0.9661E-01
     21.949  0.2855E-01  0.1487E+00  0.1065E+00
     22.091  0.1989E-01  0.1556E+00  0.9335E-01
     22.232  0.1399E-01  0.1744E+00  0.7930E-01
     22.374  0.2571E-01  0.1886E+00  0.1144E+00
     22.516  0.5061E-01  0.1978E+00  0.1746E+00
     22.658  0.5721E-01  0.1953E+00  0.1823E+00
     22.800  0.3628E-01  0.1628E+00  0.1292E+00
     22.942  0.1910E-01  0.1674E+00  0.1003E+00
     23.083  0.1557E-01  0.1747E+00  0.6711E-01
     23.225  0.1046E-01  0.1760E+00  0.4219E-01
     23.367  0.6751E-02  0.1937E+00  0.6476E-01
     23.509  0.7159E-02  0.2045E+00  0.7904E-01
     23.651  0.1021E-01  0.1571E+00  0.7756E-01
     23.793  0.1940E-01  0.1471E+00  0.1264E+00
     23.934  0.2463E-01  0.1689E+00  0.1555E+00
     24.076  0.1931E-01  0.1252E+00  0.1408E+00
     24.218  0.7626E-02  0.6360E-01  0.1063E+00
     24.360  0.3430E-02  0.6088E-01  0.7508E-01
     24.502  0.1111E-01  0.1309E+00  0.1001E+00
     24.643  0.1464E-01  0.1701E+00  0.1264E+00
     24.785  0.6485E-02  0.1222E+00  0.7401E-01
     24.927  0.3505E-02  0.1003E+00  0.3570E-01
     25.069  0.4171E-02  0.6971E-01  0.3270E-01
     25.211  0.4546E-02  0.5218E-01  0.4071E-01
     25.353  0.1005E-01  0.5881E-01  0.7379E-01
     25.494  0.2333E-01  0.8439E-01  0.1481E+00
     25.636  0.2499E-01  0.8369E-01  0.1434E+00
     25.778  0.1025E-01  0.9612E-01  0.5812E-01
     25.920  0.9110E-02  0.1453E+00  0.2703E-01
     26.062  0.1511E-01  0.1611E+00  0.2377E-01
     26.204  0.7615E-02  0.8530E-01  0.1525E-01
     26.345  0.4203E-03  0.2537E-01  0.1766E-01
     26.487  0.9661E-03  0.6803E-01  0.3619E-01
     26.629  0.2601E-02  0.9474E-01  0.5150E-01
     26.771  0.3217E-02  0.5687E-01  0.4566E-01
     26.913  0.1191E-01  0.7976E-01  0.6866E-01
     27.054  0.2819E-01  0.1477E+00  0.1215E+00
     27.196  0.2440E-01  0.1512E+00  0.9473E-01
     27.338  0.6336E-02  0.6306E-01  0.4256E-01
     27.480 -0.5738E-03  0.1554E-01  0.4691E-01
     27.622  0.7792E-04  0.1983E-01  0.5063E-01
     27.764  0.6410E-03  0.1585E-01  0.2654E-01
     27.905  0.2491E-02  0.4203E-01  0.4426E-01
     28.047  0.5670E-02  0.7914E-01  0.1136E+00
     28.189  0.3828E-02  0.6285E-01  0.1442E+00
     28.331  0.1859E-02  0.3457E-01  0.1078E+00
     28.473  0.5390E-02  0.2570E-01  0.7770E-01
     28.614  0.1351E-01  0.4075E-01  0.1161E+00
     28.756  0.1897E-01  0.4914E-01  0.2206E+00
     28.898  0.1453E-01  0.5827E-01  0.2879E+00
     29.040  0.9048E-02  0.7351E-01  0.2541E+00
     29.182  0.6613E-02  0.4794E-01  0.2268E+00
     29.324  0.4900E-02  0.2688E-01  0.1852E+00
     29.465  0.4335E-02  0.3217E-01  0.1375E+00
     29.607  0.4425E-02  0.3226E-01  0.1432E+00
     29.749  0.5224E-02  0.4221E-01  0.1479E+00
     29.891  0.5966E-02  0.5153E-01  0.1611E+00
     30.033  0.8652E-02  0.4292E-01  0.1772E+00
     30.175  0.1347E-01  0.2933E-01  0.1417E+00
     30.316  0.2498E-01  0.2479E-01  0.1848E+00
     30.458  0.3352E-01  0.3404E-01  0.2496E+00
     30.600  0.3127E-01  0.4512E-01  0.2138E+00
     30.742  0.1789E-01  0.3960E-01  0.1186E+00
     30.884  0.1108E-01  0.2286E-01  0.9329E-01
     31.025  0.1350E-01  0.1702E-01  0.1173E+00
     31.167  0.1383E-01  0.1590E-01  0.1134E+00
     31.309  0.1475E-01  0.1912E-01  0.1007E+00
     31.451  0.1647E-01  0.2221E-01  0.8701E-01
     31.593  0.7782E-02  0.1180E-01  0.6478E-01
     31.735  0.5661E-02  0.9395E-02  0.6167E-01
     31.876  0.1509E-01  0.2138E-01  0.8285E-01
     32.018  0.1295E-01  0.1766E-01  0.6814E-01
     32.160  0.4247E-02  0.5663E-02  0.3100E-01
     32.302  0.6956E-02  0.8912E-02  0.1481E-01
     32.444  0.1028E-01  0.1043E-01  0.1136E-01
     32.586  0.1110E-01  0.8918E-02  0.1604E-01
     32.727  0.4877E-02  0.4540E-02  0.1506E-01
     32.869  0.1614E-03  0.8531E-03  0.9417E-02
     33.011 -0.1426E-03  0.2443E-03  0.7533E-02
     33.153  0.1951E-03  0.1537E-02  0.1100E-01
     33.295  0.1884E-03  0.1995E-02  0.9247E-02
     33.436  0.1829E-04  0.5194E-03  0.1838E-02
     33.578 -0.1066E-04 -0.9655E-04 -0.4973E-03
     33.720 -0.1794E-05 -0.3945E-04 -0.1605E-03
     33.862 -0.8216E-07 -0.2403E-04  0.2281E-03
     34.004 -0.5365E-09  0.1211E-03  0.1482E-02
     34.146  0.3925E-08  0.5041E-03  0.3357E-02
     34.287  0.3355E-08  0.4022E-03  0.2163E-02
     34.429  0.3394E-09  0.3632E-04  0.1186E-03
     34.571 -0.1906E-09 -0.2287E-04 -0.1246E-03
     34.713 -0.3027E-10 -0.3529E-05 -0.1745E-04
     34.855 -0.1204E-11 -0.1387E-06 -0.6574E-06
     34.997 -0.1539E-13 -0.1762E-08 -0.8159E-08
     35.138 -0.6752E-16 -0.7704E-11 -0.3517E-10
     35.280 -0.1043E-18 -0.1188E-13 -0.5377E-13
     35.422 -0.5797E-22 -0.6602E-17 -0.2992E-16
     35.564  0.0000E+00  0.0000E+00  0.0000E+00
     35.706  0.0000E+00  0.0000E+00  0.0000E+00
     35.847  0.0000E+00  0.0000E+00  0.0000E+00
     35.989  0.0000E+00  0.0000E+00  0.0000E+00
     36.131  0.0000E+00  0.0000E+00  0.0000E+00
