    1    1    1    1
  0.1786834E+02  0.2934493E-09  0.2934493E-09  0.2934493E-09  0.5000000E-15
  1.000000000000000E-004
  CAR 
 fcc Au                                  
     11    110     12
 
  0.5000000E-01  0.5000000E-01  0.5000000E-01  0.2000000E-02
    1       -4.415859   1.000000
    2        0.448860   1.000000
    3        0.505426   1.000000
    4        0.505426   1.000000
    5        1.886392   1.000000
    6        1.886392   1.000000
    7       20.337391   0.000000
    8       23.125936   0.000000
    9       23.877654   0.000000
   10       23.877654   0.000000
   11       28.594592   0.000000
   12       31.214719   0.000000
 
  0.1500000E+00  0.5000000E-01  0.5000000E-01  0.6000000E-02
    1       -3.980780   1.000000
    2        0.310313   1.000000
    3        0.632991   1.000000
    4        0.661450   1.000000
    5        1.745459   1.000000
    6        1.930369   1.000000
    7       20.497492   0.000000
    8       21.239252   0.000000
    9       23.428535   0.000000
   10       24.745166   0.000000
   11       27.818229   0.000000
   12       30.411792   0.000000
 
  0.2500000E+00  0.5000000E-01  0.5000000E-01  0.6000000E-02
    1       -3.033831   1.000000
    2        0.210149   1.000000
    3        0.773752   1.000000
    4        0.792245   1.000000
    5        1.757536   1.000000
    6        2.127736   1.000000
    7       17.215479   0.000000
    8       21.107524   0.000000
    9       23.471038   0.000000
   10       25.778164   0.000000
   11       26.050909   0.000000
   12       28.258045   0.000000
 
  0.3500000E+00  0.5000000E-01  0.5000000E-01  0.6000000E-02
    1       -2.172067   1.000000
    2        0.610971   1.000000
    3        0.687483   1.000000
    4        0.852225   1.000000
    5        2.207344   1.000000
    6        2.653753   1.000000
    7       13.223462   0.000000
    8       20.479377   0.000000
    9       22.486218   0.000000
   10       24.563133   0.000000
   11       27.183052   0.000000
   12       28.157025   0.000000
 
  0.4500000E+00  0.5000000E-01  0.5000000E-01  0.6000000E-02
    1       -1.947168   1.000000
    2        0.470544   1.000000
    3        0.534303   1.000000
    4        2.271918   1.000000
    5        2.749981   1.000000
    6        3.535675   1.000000
    7        9.504750  -0.000000
    8       19.789834   0.000000
    9       21.618271   0.000000
   10       22.695059   0.000000
   11       28.767343   0.000000
   12       28.958046   0.000000
 
 -0.4500000E+00  0.5000000E-01  0.5000000E-01  0.6000000E-02
    1       -1.938306   1.000000
    2        0.410236   1.000000
    3        0.498250   1.000000
    4        2.615289   1.000000
    5        3.011398   1.000000
    6        4.497670   1.012609
    7        7.830102  -0.000000
    8       19.604266   0.000000
    9       21.682532   0.000000
   10       21.811008   0.000000
   11       29.181040   0.000000
   12       29.247454   0.000000
 
 -0.3500000E+00  0.5000000E-01  0.5000000E-01  0.6000000E-02
    1       -1.975623   1.000000
    2        0.498631   1.000000
    3        0.598994   1.000000
    4        1.747030   1.000000
    5        2.822304   1.000000
    6        2.987073   1.000000
    7       10.663770   0.000000
    8       20.022644   0.000000
    9       22.050586   0.000000
   10       22.844386   0.000000
   11       28.704403   0.000000
   12       28.916447   0.000000
 
 -0.2500000E+00  0.5000000E-01  0.5000000E-01  0.6000000E-02
    1       -2.392070   1.000000
    2        0.450455   1.000000
    3        0.706361   1.000000
    4        0.756699   1.000000
    5        2.128145   1.000000
    6        2.366562   1.000000
    7       14.553914   0.000000
    8       20.860967   0.000000
    9       22.923030   0.000000
   10       24.696609   0.000000
   11       26.838553   0.000000
   12       28.663724   0.000000
 
 -0.1500000E+00  0.5000000E-01  0.5000000E-01  0.6000000E-02
    1       -3.382965   1.000000
    2        0.197228   1.000000
    3        0.765724   1.000000
    4        0.776035   1.000000
    5        1.717592   1.000000
    6        2.011718   1.000000
    7       18.508616   0.000000
    8       21.261143   0.000000
    9       23.473036   0.000000
   10       25.138300   0.000000
   11       26.567072   0.000000
   12       29.234668   0.000000
 
 -0.5000000E-01  0.5000000E-01  0.5000000E-01  0.6000000E-02
    1       -4.194746   1.000000
    2        0.350913   1.000000
    3        0.592344   1.000000
    4        0.596344   1.000000
    5        1.768803   1.000000
    6        1.938840   1.000000
    7       20.533486   0.000000
    8       22.216438   0.000000
    9       23.558980   0.000000
   10       23.969942   0.000000
   11       28.988997   0.000000
   12       30.526094   0.000000
 
  0.1500000E+00  0.1500000E+00  0.5000000E-01  0.6000000E-02
    1       -3.764602   1.000000
    2        0.154768   1.000000
    3        0.776226   1.000000
    4        0.779153   1.000000
    5        1.571735   1.000000
    6        2.037317   1.000000
    7       20.777942   0.000000
    8       21.394409   0.000000
    9       22.808906   0.000000
   10       23.523727   0.000000
   11       27.990983   0.000000
   12       29.955964   0.000000
 
  0.2500000E+00  0.1500000E+00  0.5000000E-01  0.1200000E-01
    1       -2.978797   1.000000
    2       -0.068649   1.000000
    3        0.870050   1.000000
    4        1.036175   1.000000
    5        1.527952   1.000000
    6        2.240936   1.000000
    7       18.748215   0.000000
    8       20.567315   0.000000
    9       22.582694   0.000000
   10       23.795670   0.000000
   11       25.961277   0.000000
   12       29.173769   0.000000
 
  0.3500000E+00  0.1500000E+00  0.5000000E-01  0.1200000E-01
    1       -2.004098   1.000000
    2        0.016105   1.000000
    3        0.596955   1.000000
    4        1.045405   1.000000
    5        2.137056   1.000000
    6        2.778610   1.000000
    7       14.779331   0.000000
    8       19.993211   0.000000
    9       21.543717   0.000000
   10       23.429921   0.000000
   11       27.017980   0.000000
   12       28.915410   0.000000
 
  0.4500000E+00  0.1500000E+00  0.5000000E-01  0.1200000E-01
    1       -1.620586   1.000000
    2        0.322640   1.000000
    3        0.821965   1.000000
    4        0.972532   1.000000
    5        2.811865   1.000000
    6        3.920778   1.000000
    7       10.874675   0.000000
    8       19.605207   0.000000
    9       20.217692   0.000000
   10       22.201545   0.000000
   11       28.880867   0.000000
   12       29.880190   0.000000
 
 -0.4500000E+00  0.1500000E+00  0.5000000E-01  0.1200000E-01
    1       -1.593960   1.000000
    2        0.205238   1.000000
    3        0.774334   1.000000
    4        1.671493   1.000000
    5        2.967450   1.000000
    6        5.819656  -0.000000
    7        7.836835  -0.000000
    8       19.188816   0.000000
    9       19.823385   0.000000
   10       21.565609   0.000000
   11       29.211980   0.000000
   12       30.313122   0.000000
 
 -0.3500000E+00  0.1500000E+00  0.5000000E-01  0.1200000E-01
    1       -1.582144   1.000000
    2        0.277652   1.000000
    3        0.797142   1.000000
    4        1.371666   1.000000
    5        2.680959   1.000000
    6        4.603582   1.034239
    7        9.752023  -0.000000
    8       18.759954   0.000000
    9       20.434016   0.000000
   10       22.384962   0.000000
   11       28.501834   0.000000
   12       29.925286   0.000000
 
 -0.2500000E+00  0.1500000E+00  0.5000000E-01  0.1200000E-01
    1       -1.768937   1.000000
    2        0.276305   1.000000
    3        0.560423   1.000000
    4        0.969065   1.000000
    5        2.051130   1.000000
    6        3.282755   1.000000
    7       13.468796   0.000000
    8       18.961654   0.000000
    9       21.545955   0.000000
   10       24.254774   0.000000
   11       26.802486   0.000000
   12       29.053705   0.000000
 
 -0.1500000E+00  0.1500000E+00  0.5000000E-01  0.1200000E-01
    1       -2.637390   1.000000
    2       -0.027605   1.000000
    3        0.775487   1.000000
    4        1.057036   1.000000
    5        1.521029   1.000000
    6        2.484362   1.000000
    7       17.353367   0.000000
    8       19.578834   0.000000
    9       23.185397   0.000000
   10       24.163717   0.000000
   11       27.149529   0.000000
   12       27.934887   0.000000
 
 -0.5000000E-01  0.1500000E+00  0.5000000E-01  0.1200000E-01
    1       -3.565044   1.000000
    2        0.160427   1.000000
    3        0.780207   1.000000
    4        0.788265   1.000000
    5        1.607949   1.000000
    6        2.047511   1.000000
    7       19.778278   0.000000
    8       20.917605   0.000000
    9       22.997344   0.000000
   10       24.799641   0.000000
   11       26.919864   0.000000
   12       29.770635   0.000000
 
  0.2500000E+00  0.2500000E+00  0.5000000E-01  0.6000000E-02
    1       -2.450804   1.000000
    2       -0.396006   1.000000
    3        1.015013   1.000000
    4        1.386593   1.000000
    5        1.567041   1.000000
    6        2.350617   1.000000
    7       19.158991   0.000000
    8       20.235893   0.000000
    9       21.547704   0.000000
   10       22.346101   0.000000
   11       23.044535   0.000000
   12       30.771584   0.000000
 
  0.3500000E+00  0.2500000E+00  0.5000000E-01  0.1200000E-01
    1       -1.677503   1.000000
    2       -0.601624   1.000000
    3        0.781221   1.000000
    4        1.708524   1.000000
    5        2.176689   1.000000
    6        2.799029   1.000000
    7       16.463168   0.000000
    8       18.387052   0.000000
    9       20.018813   0.000000
   10       22.623368   0.000000
   11       24.011290   0.000000
   12       30.786071   0.000000
 
  0.4500000E+00  0.2500000E+00  0.5000000E-01  0.1200000E-01
    1       -1.222413   1.000000
    2       -0.355292   1.000000
    3        0.555981   1.000000
    4        1.588184   1.000000
    5        2.890164   1.000000
    6        4.174140   1.000005
    7       12.505391   0.000000
    8       17.692215   0.000000
    9       18.331358   0.000000
   10       22.323813   0.000000
   11       27.115806   0.000000
   12       30.634102   0.000000
 
 -0.4500000E+00  0.2500000E+00  0.5000000E-01  0.1200000E-01
    1       -1.109917   1.000000
    2       -0.108486   1.000000
    3        0.753072   1.000000
    4        1.406013   1.000000
    5        2.999646   1.000000
    6        6.531534  -0.000000
    7        9.031128  -0.000000
    8       16.425026   0.000000
    9       18.396672   0.000000
   10       22.005054   0.000000
   11       29.722400   0.000000
   12       31.084208   0.000000
 
 -0.3500000E+00  0.2500000E+00  0.5000000E-01  0.1200000E-01
    1       -0.953882   1.000000
    2       -0.050214   1.000000
    3        0.781237   1.000000
    4        1.310647   1.000000
    5        2.641102   1.000000
    6        6.375029  -0.000000
    7        9.516926  -0.000000
    8       15.380760   0.000000
    9       19.567594   0.000000
   10       22.188930   0.000000
   11       28.964504   0.000000
   12       31.255076   0.000000
 
 -0.2500000E+00  0.2500000E+00  0.5000000E-01  0.1200000E-01
    1       -0.886076   1.000000
    2        0.010063   1.000000
    3        0.261043   1.000000
    4        1.385676   1.000000
    5        2.012313   1.000000
    6        4.618341   1.035390
    7       12.816225   0.000000
    8       15.284586   0.000000
    9       20.898582   0.000000
   10       23.445637   0.000000
   11       26.951529   0.000000
   12       31.011432   0.000000
 
 -0.1500000E+00  0.2500000E+00  0.5000000E-01  0.1200000E-01
    1       -1.630179   1.000000
    2       -0.097158   1.000000
    3        0.532992   1.000000
    4        1.270517   1.000000
    5        1.649895   1.000000
    6        3.364042   1.000000
    7       14.903637   0.000000
    8       17.470047   0.000000
    9       21.989503   0.000000
   10       24.896958   0.000000
   11       25.765758   0.000000
   12       29.534391   0.000000
 
 -0.5000000E-01  0.2500000E+00  0.5000000E-01  0.1200000E-01
    1       -2.552298   1.000000
    2        0.141438   1.000000
    3        0.749868   1.000000
    4        0.881552   1.000000
    5        1.819045   1.000000
    6        2.415136   1.000000
    7       15.975490   0.000000
    8       20.709388   0.000000
    9       22.589294   0.000000
   10       24.995359   0.000000
   11       26.518562   0.000000
   12       28.160280   0.000000
 
  0.3500000E+00  0.3500000E+00  0.5000000E-01  0.6000000E-02
    1       -1.524421   1.000000
    2       -0.950487   1.000000
    3        1.613880   1.000000
    4        2.193633   1.000000
    5        2.611817   1.000000
    6        2.729774   1.000000
    7       16.367170   0.000000
    8       17.464950   0.000000
    9       17.600442   0.000000
   10       21.523528   0.000000
   11       23.411028   0.000000
   12       33.195276   0.000000
 
  0.4500000E+00  0.3500000E+00  0.5000000E-01  0.1200000E-01
    1       -1.374657   1.000000
    2       -1.050844   1.000000
    3        1.650403   1.000000
    4        2.470299   1.000000
    5        2.904610   1.000000
    6        4.249536   1.000056
    7       13.624277   0.000000
    8       15.774421   0.000000
    9       16.410857   0.000000
   10       22.487869   0.000000
   11       24.347459   0.000000
   12       32.717531   0.000000
 
 -0.4500000E+00  0.3500000E+00  0.5000000E-01  0.1200000E-01
    1       -1.216795   1.000000
    2       -0.755507   1.000000
    3        1.321059   1.000000
    4        2.192242   1.000000
    5        3.087165   1.000000
    6        6.753122  -0.000000
    7       10.565647   0.000000
    8       14.011853   0.000000
    9       16.541228   0.000000
   10       22.723441   0.000000
   11       27.010913   0.000000
   12       31.713671   0.000000
 
 -0.3500000E+00  0.3500000E+00  0.5000000E-01  0.1200000E-01
    1       -0.948864   1.000000
    2       -0.279829   1.000000
    3        0.817002   1.000000
    4        1.890757   1.000000
    5        2.797375   1.000000
    6        7.907983  -0.000000
    7       10.014420  -0.000000
    8       12.378167   0.000000
    9       17.795888   0.000000
   10       22.565521   0.000000
   11       30.248358   0.000000
   12       30.587718   0.000000
 
 -0.2500000E+00  0.3500000E+00  0.5000000E-01  0.1200000E-01
    1       -0.694398   1.000000
    2       -0.005605   1.000000
    3        0.362339   1.000000
    4        1.562659   1.000000
    5        2.421182   1.000000
    6        6.191350  -0.000000
    7       11.323389   0.000000
    8       13.372902   0.000000
    9       19.534870   0.000000
   10       22.526019   0.000000
   11       28.741857   0.000000
   12       31.539865   0.000000
 
 -0.1500000E+00  0.3500000E+00  0.5000000E-01  0.1200000E-01
    1       -1.247679   1.000000
    2        0.187516   1.000000
    3        0.664815   1.000000
    4        1.106260   1.000000
    5        2.344183   1.000000
    6        4.617041   1.035344
    7       11.254477   0.000000
    8       17.006970   0.000000
    9       20.700097   0.000000
   10       22.947989   0.000000
   11       27.658743   0.000000
   12       30.419731   0.000000
 
 -0.5000000E-01  0.3500000E+00  0.5000000E-01  0.1200000E-01
    1       -1.908359   1.000000
    2        0.502963   1.000000
    3        0.729191   1.000000
    4        0.997887   1.000000
    5        2.468905   1.000000
    6        3.127594   1.000000
    7       11.997614   0.000000
    8       20.101826   0.000000
    9       21.403846   0.000000
   10       23.491044   0.000000
   11       27.983387   0.000000
   12       28.807568   0.000000
 
  0.4500000E+00  0.4500000E+00  0.5000000E-01  0.6000000E-02
    1       -1.612933   1.000000
    2       -1.318868   1.000000
    3        2.813878   1.000000
    4        2.836764   1.000000
    5        3.117288   1.000000
    6        4.807060   0.743383
    7       12.172036   0.000000
    8       15.168155   0.000000
    9       15.510289   0.000000
   10       21.792511   0.000000
   11       24.041767   0.000000
   12       34.061157   0.000000
 
 -0.4500000E+00  0.4500000E+00  0.5000000E-01  0.1200000E-01
    1       -1.542959   1.000000
    2       -1.272112   1.000000
    3        2.492661   1.000000
    4        2.769486   1.000000
    5        3.251160   1.000000
    6        6.764048  -0.000000
    7       10.340418   0.000000
    8       14.142570   0.000000
    9       15.104369   0.000000
   10       22.678566   0.000000
   11       24.613288   0.000000
   12       33.206610   0.000000
 
 -0.3500000E+00  0.4500000E+00  0.5000000E-01  0.1200000E-01
    1       -1.264886   1.000000
    2       -0.840721   1.000000
    3        1.590813   1.000000
    4        2.346485   1.000000
    5        3.086699   1.000000
    6        8.177672  -0.000000
    7        9.649253  -0.000000
    8       12.764590   0.000000
    9       16.209266   0.000000
   10       22.877838   0.000000
   11       27.001196   0.000000
   12       31.921508   0.000000
 
 -0.2500000E+00  0.4500000E+00  0.5000000E-01  0.1200000E-01
    1       -0.983219   1.000000
    2       -0.235226   1.000000
    3        0.777691   1.000000
    4        1.687807   1.000000
    5        2.909229   1.000000
    6        7.927254  -0.000000
    7        8.635966  -0.000000
    8       14.330262   0.000000
    9       17.995659   0.000000
   10       22.337787   0.000000
   11       29.975176   0.000000
   12       30.862176   0.000000
 
 -0.1500000E+00  0.4500000E+00  0.5000000E-01  0.1200000E-01
    1       -1.292863   1.000000
    2        0.050423   1.000000
    3        1.018653   1.000000
    4        1.236284   1.000000
    5        2.854432   1.000000
    6        6.575875  -0.000000
    7        8.017698  -0.000000
    8       17.395335   0.000000
    9       19.641277   0.000000
   10       21.763308   0.000000
   11       29.177878   0.000000
   12       30.834685   0.000000
 
 -0.5000000E-01  0.4500000E+00  0.5000000E-01  0.1200000E-01
    1       -1.817848   1.000000
    2        0.356966   1.000000
    3        0.605443   1.000000
    4        2.063497   1.000000
    5        2.927774   1.000000
    6        4.562691   1.026560
    7        8.540913  -0.000000
    8       19.664945   0.000000
    9       20.823563   0.000000
   10       21.962181   0.000000
   11       29.058717   0.000000
   12       29.569954   0.000000
 
 -0.4500000E+00 -0.4500000E+00  0.5000000E-01  0.6000000E-02
    1       -1.681428   1.000000
    2       -1.397470   1.000000
    3        2.915759   1.000000
    4        3.086254   1.000000
    5        3.259839   1.000000
    6        6.042678  -0.000000
    7       10.526095   0.000000
    8       14.700377   0.000000
    9       15.069371   0.000000
   10       21.887481   0.000000
   11       24.171334   0.000000
   12       33.875129   0.000000
 
 -0.3500000E+00 -0.4500000E+00  0.5000000E-01  0.1200000E-01
    1       -1.471968   1.000000
    2       -1.196623   1.000000
    3        2.162009   1.000000
    4        2.714950   1.000000
    5        3.111274   1.000000
    6        5.511736  -0.000026
    7       11.880823   0.000000
    8       14.688989   0.000000
    9       15.537631   0.000000
   10       22.596635   0.000000
   11       24.522308   0.000000
   12       33.123686   0.000000
 
 -0.2500000E+00 -0.4500000E+00  0.5000000E-01  0.1200000E-01
    1       -1.168929   1.000000
    2       -0.585557   1.000000
    3        0.917942   1.000000
    4        1.912264   1.000000
    5        3.042061   1.000000
    6        5.361826  -0.001314
    7       11.481722   0.000000
    8       15.853718   0.000000
    9       17.201098   0.000000
   10       22.489911   0.000000
   11       27.045888   0.000000
   12       31.282075   0.000000
 
 -0.1500000E+00 -0.4500000E+00  0.5000000E-01  0.1200000E-01
    1       -1.338497   1.000000
    2        0.098312   1.000000
    3        0.784106   1.000000
    4        1.137397   1.000000
    5        2.983494   1.000000
    6        5.099767  -0.034779
    7        9.869649  -0.000000
    8       18.465287   0.000000
    9       18.991612   0.000000
   10       21.813092   0.000000
   11       29.398943   0.000000
   12       30.966602   0.000000
 
 -0.3500000E+00 -0.3500000E+00  0.5000000E-01  0.6000000E-02
    1       -1.520571   1.000000
    2       -1.166551   1.000000
    3        2.329786   1.000000
    4        2.566258   1.000000
    5        2.918594   1.000000
    6        3.513185   1.000000
    7       14.317769   0.000000
    8       16.083720   0.000000
    9       16.336888   0.000000
   10       21.638915   0.000000
   11       23.783554   0.000000
   12       34.131132   0.000000
 
 -0.2500000E+00 -0.3500000E+00  0.5000000E-01  0.1200000E-01
    1       -1.373334   1.000000
    2       -0.847066   1.000000
    3        1.095223   1.000000
    4        2.099718   1.000000
    5        2.617103   1.000000
    6        3.318971   1.000000
    7       15.144462   0.000000
    8       17.101527   0.000000
    9       17.947411   0.000000
   10       22.462640   0.000000
   11       24.126961   0.000000
   12       31.853519   0.000000
 
 -0.1500000E+00 -0.3500000E+00  0.5000000E-01  0.1200000E-01
    1       -1.508107   1.000000
    2       -0.139379   1.000000
    3        0.448890   1.000000
    4        1.287039   1.000000
    5        2.582811   1.000000
    6        3.303040   1.000000
    7       13.617724   0.000000
    8       18.948061   0.000000
    9       20.129598   0.000000
   10       22.465870   0.000000
   11       27.166441   0.000000
   12       29.817833   0.000000
 
 -0.2500000E+00 -0.2500000E+00  0.5000000E-01  0.6000000E-02
    1       -1.825734   1.000000
    2       -0.686865   1.000000
    3        1.101075   1.000000
    4        1.779808   1.000000
    5        2.013268   1.000000
    6        2.538872   1.000000
    7       17.894824   0.000000
    8       18.798663   0.000000
    9       19.887536   0.000000
   10       21.601797   0.000000
   11       22.957489   0.000000
   12       31.883619   0.000000
 
 -0.1500000E+00 -0.2500000E+00  0.5000000E-01  0.1200000E-01
    1       -2.294131   1.000000
    2       -0.333926   1.000000
    3        0.798264   1.000000
    4        1.346680   1.000000
    5        1.744478   1.000000
    6        2.486276   1.000000
    7       17.656268   0.000000
    8       19.623056   0.000000
    9       21.889053   0.000000
   10       22.909776   0.000000
   11       24.524240   0.000000
   12       29.782403   0.000000
 
 -0.1500000E+00 -0.1500000E+00  0.5000000E-01  0.6000000E-02
    1       -3.157442   1.000000
    2       -0.105239   1.000000
    3        0.999594   1.000000
    4        1.047153   1.000000
    5        1.391504   1.000000
    6        2.178937   1.000000
    7       20.187450   0.000000
    8       21.492359   0.000000
    9       21.640340   0.000000
   10       22.785789   0.000000
   11       25.569475   0.000000
   12       30.078714   0.000000
 
  0.1500000E+00  0.1500000E+00  0.1500000E+00  0.2000000E-02
    1       -3.777186   1.000000
    2        0.299382   1.000000
    3        0.676862   1.000000
    4        0.676862   1.000000
    5        1.839320   1.000000
    6        1.839320   1.000000
    7       19.641009   0.000000
    8       21.172429   0.000000
    9       24.364317   0.000000
   10       24.364317   0.000000
   11       27.484806   0.000000
   12       29.722558   0.000000
 
  0.2500000E+00  0.1500000E+00  0.1500000E+00  0.6000000E-02
    1       -3.178985   1.000000
    2        0.111492   1.000000
    3        0.798840   1.000000
    4        0.869434   1.000000
    5        1.557548   1.000000
    6        2.196905   1.000000
    7       18.543060   0.000000
    8       20.372085   0.000000
    9       23.224565   0.000000
   10       25.284190   0.000000
   11       26.375939   0.000000
   12       28.983277   0.000000
 
  0.3500000E+00  0.1500000E+00  0.1500000E+00  0.6000000E-02
    1       -2.168097   1.000000
    2       -0.029846   1.000000
    3        0.706565   1.000000
    4        1.130429   1.000000
    5        1.477068   1.000000
    6        2.879943   1.000000
    7       16.073461   0.000000
    8       18.550802   0.000000
    9       22.919419   0.000000
   10       24.684223   0.000000
   11       26.511519   0.000000
   12       28.581230   0.000000
 
  0.4500000E+00  0.1500000E+00  0.1500000E+00  0.6000000E-02
    1       -1.512673   1.000000
    2        0.320066   1.000000
    3        0.687257   1.000000
    4        0.944951   1.000000
    5        2.094777   1.000000
    6        3.877417   1.000000
    7       12.294559   0.000000
    8       17.950360   0.000000
    9       21.425496   0.000000
   10       23.729660   0.000000
   11       26.957088   0.000000
   12       29.687724   0.000000
 
 -0.4500000E+00  0.1500000E+00  0.1500000E+00  0.6000000E-02
    1       -1.473204   1.000000
    2        0.192622   1.000000
    3        0.843590   1.000000
    4        1.466873   1.000000
    5        2.720211   1.000000
    6        5.471401  -0.000084
    7        8.799502  -0.000000
    8       18.009941   0.000000
    9       20.766733   0.000000
   10       21.531739   0.000000
   11       29.037527   0.000000
   12       29.952853   0.000000
 
 -0.3500000E+00  0.1500000E+00  0.1500000E+00  0.6000000E-02
    1       -1.508215   1.000000
    2        0.169580   1.000000
    3        0.887574   1.000000
    4        1.301338   1.000000
    5        3.036926   1.000000
    6        5.459077  -0.000118
    7        8.643348  -0.000000
    8       18.801688   0.000000
    9       20.309380   0.000000
   10       20.877909   0.000000
   11       30.005677   0.000000
   12       30.133517   0.000000
 
 -0.2500000E+00  0.1500000E+00  0.1500000E+00  0.6000000E-02
    1       -1.591882   1.000000
    2        0.271031   1.000000
    3        0.469924   1.000000
    4        1.036876   1.000000
    5        2.898306   1.000000
    6        3.409816   1.000000
    7       12.171983   0.000000
    8       20.068952   0.000000
    9       20.138543   0.000000
   10       21.638141   0.000000
   11       28.919652   0.000000
   12       30.019234   0.000000
 
 -0.1500000E+00  0.1500000E+00  0.1500000E+00  0.6000000E-02
    1       -2.190168   1.000000
    2       -0.213208   1.000000
    3        0.710195   1.000000
    4        1.159758   1.000000
    5        2.074101   1.000000
    6        2.488819   1.000000
    7       16.212771   0.000000
    8       20.715155   0.000000
    9       21.283994   0.000000
   10       22.778017   0.000000
   11       25.786152   0.000000
   12       30.069485   0.000000
 
  0.2500000E+00  0.2500000E+00  0.1500000E+00  0.6000000E-02
    1       -2.830481   1.000000
    2        0.010802   1.000000
    3        0.816729   1.000000
    4        0.936228   1.000000
    5        1.732867   1.000000
    6        2.236346   1.000000
    7       17.364677   0.000000
    8       21.345376   0.000000
    9       22.169876   0.000000
   10       24.531288   0.000000
   11       25.988880   0.000000
   12       29.427401   0.000000
 
  0.3500000E+00  0.2500000E+00  0.1500000E+00  0.1200000E-01
    1       -2.004133   1.000000
    2       -0.223012   1.000000
    3        0.620840   1.000000
    4        1.319959   1.000000
    5        1.718224   1.000000
    6        2.860295   1.000000
    7       16.201892   0.000000
    8       18.576858   0.000000
    9       21.967732   0.000000
   10       23.939915   0.000000
   11       26.067182   0.000000
   12       28.740961   0.000000
 
  0.4500000E+00  0.2500000E+00  0.1500000E+00  0.1200000E-01
    1       -1.114316   1.000000
    2       -0.199796   1.000000
    3        0.264122   1.000000
    4        1.532493   1.000000
    5        1.999885   1.000000
    6        3.963358   1.000000
    7       13.830368   0.000000
    8       16.376519   0.000000
    9       20.442324   0.000000
   10       24.511262   0.000000
   11       26.063082   0.000000
   12       30.058141   0.000000
 
 -0.4500000E+00  0.2500000E+00  0.1500000E+00  0.1200000E-01
    1       -0.979119   1.000000
    2       -0.033194   1.000000
    3        0.560409   1.000000
    4        1.354125   1.000000
    5        2.632188   1.000000
    6        5.590480  -0.000002
    7       10.353795   0.000000
    8       16.150177   0.000000
    9       19.026809   0.000000
   10       23.164769   0.000000
   11       28.039762   0.000000
   12       31.559015   0.000000
 
 -0.3500000E+00  0.2500000E+00  0.1500000E+00  0.1200000E-01
    1       -1.042054   1.000000
    2       -0.115496   1.000000
    3        0.871863   1.000000
    4        1.289855   1.000000
    5        2.896090   1.000000
    6        7.239643  -0.000000
    7        8.086175  -0.000000
    8       16.725065   0.000000
    9       18.021845   0.000000
   10       22.704384   0.000000
   11       28.834072   0.000000
   12       32.089876   0.000000
 
 -0.2500000E+00  0.2500000E+00  0.1500000E+00  0.1200000E-01
    1       -1.088326   1.000000
    2       -0.027024   1.000000
    3        0.329388   1.000000
    4        1.469010   1.000000
    5        2.745662   1.000000
    6        4.868790   0.494689
    7       11.340691   0.000000
    8       16.994906   0.000000
    9       18.593187   0.000000
   10       23.095372   0.000000
   11       27.981492   0.000000
   12       30.471116   0.000000
 
 -0.1500000E+00  0.2500000E+00  0.1500000E+00  0.1200000E-01
    1       -1.414379   1.000000
    2       -0.434463   1.000000
    3        0.462673   1.000000
    4        1.645076   1.000000
    5        2.094942   1.000000
    6        3.342012   1.000000
    7       15.055866   0.000000
    8       17.450337   0.000000
    9       20.170134   0.000000
   10       23.809753   0.000000
   11       25.438595   0.000000