 running on    4 total cores
 distrk:  each k-point on    4 cores,    1 groups
 distr:  one band on    1 cores,    4 groups
 using from now: INCAR     
 vasp.5.4.4.18Apr17-6-g9f103f2a35 (build May 18 2018 14:42:58) complex          
  
 POSCAR found type information on POSCAR  Au
 POSCAR found :  1 types and       1 ions
 scaLAPACK will be used
 LDA part: xc-table for Ceperly-Alder, standard interpolation
 POSCAR, INCAR and KPOINTS ok, starting setup
 FFT: planning ...
 WAVECAR not read
 entering main loop
       N       E                     dE             d eps       ncg     rms          rms(c)
DAV:   1     0.304542318946E+02    0.30454E+02   -0.35522E+03  3220   0.427E+02
DAV:   2    -0.434055433821E+01   -0.34795E+02   -0.32474E+02  3000   0.143E+02
DAV:   3    -0.467753942566E+01   -0.33699E+00   -0.33677E+00  3248   0.145E+01
DAV:   4    -0.467841807429E+01   -0.87865E-03   -0.87862E-03  3088   0.783E-01
DAV:   5    -0.467842421722E+01   -0.61429E-05   -0.61431E-05  2924   0.645E-02    0.315E+00
DAV:   6    -0.437840052856E+01    0.30002E+00   -0.87786E-01  3120   0.895E+00    0.762E-01
DAV:   7    -0.435848659866E+01    0.19914E-01   -0.43372E-02  3188   0.164E+00    0.294E-01
DAV:   8    -0.435411580046E+01    0.43708E-02   -0.17091E-03  2972   0.450E-01    0.118E-02
DAV:   9    -0.435411504151E+01    0.75896E-06   -0.11160E-05  1744   0.223E-02
   1 F= -.43541150E+01 E0= -.43543950E+01  d E =0.839935E-03
 writing wavefunctions
