 vasp.5.4.4.18Apr17-6-g9f103f2a35 (build May 18 2018 14:42:58) complex          
  
 executed on             LinuxIFC date 2020.06.30  13:40:59
 running on    4 total cores
 distrk:  each k-point on    4 cores,    1 groups
 distr:  one band on NCORES_PER_BAND=   1 cores,    4 groups


--------------------------------------------------------------------------------------------------------


 INCAR:
 POTCAR:   PAW Au 04Feb1998                       
 POTCAR:   PAW Au 04Feb1998                       
   VRHFIN =Au: s1d10                                                            
   LEXCH  = CA                                                                  
   EATOM  =   929.4667 eV,   68.3139 Ry                                         
                                                                                
   TITEL  = PAW Au 04Feb1998                                                    
   LULTRA =        F    use ultrasoft PP ?                                      
   IUNSCR =        1    unscreen: 0-lin 1-nonlin 2-no                           
   RPACOR =    2.330    partial core radius                                     
   POMASS =  196.966; ZVAL   =   11.000    mass and valenz                      
   RCORE  =    2.500    outmost cutoff radius                                   
   RWIGS  =    2.840; RWIGS  =    1.503    wigner-seitz radius (au A)           
   ENMAX  =  229.869; ENMIN  =  172.402 eV                                      
   RCLOC  =    1.964    cutoff for local pot                                    
   LCOR   =        T    correct aug charges                                     
   LPAW   =        T    paw PP                                                  
   EAUG   =  356.670                                                            
   DEXC   =    -.020                                                            
   RMAX   =    3.041    core radius for proj-oper                               
   RDEP   =    2.598    core radius for depl-charge                             
   QCUT   =   -4.110; QGAM   =    8.221    optimization parameters              
                                                                                
   Description                                                                  
     l     E      TYP  RCUT    TYP  RCUT                                        
     2   .000     23  2.500                                                     
     2   .000     23  2.500                                                     
     0   .000     23  2.500                                                     
     0   .000     23  2.500                                                     
     1  -.200     23  2.500                                                     
     1   .000     23  2.500                                                     
     3   .000      7   .000                                                     
  local pseudopotential read in
  partial core-charges read in
  atomic valenz-charges read in
  non local Contribution for L=           2  read in
    real space projection operators read in
  non local Contribution for L=           2  read in
    real space projection operators read in
  non local Contribution for L=           0  read in
    real space projection operators read in
  non local Contribution for L=           0  read in
    real space projection operators read in
  non local Contribution for L=           1  read in
    real space projection operators read in
  non local Contribution for L=           1  read in
    real space projection operators read in
    PAW grid and wavefunctions read in
 
   number of l-projection  operators is LMAX  =           6
   number of lm-projection operators is LMMAX =          18
 
 PAW Au 04Feb1998                       :
 energy of atom  1       EATOM= -929.4667
 kinetic energy error for atom=    0.0706 (will be added to EATOM!!)
 
 
 POSCAR: FCC Au Bulk                             
  positions in direct lattice
  No initial velocities read in
 exchange correlation table for  LEXCH =        2
   RHO(1)=    0.500       N(1)  =     2000
   RHO(2)=  100.500       N(2)  =     4000
 


--------------------------------------------------------------------------------------------------------


 ion  position               nearest neighbor table
   1  0.000  0.000  0.000-
 
  LATTYP: Found a face centered cubic cell.
 ALAT       =     4.1500000000
  
  Lattice vectors:
  
 A1 = (   0.0000000000,   2.0750000000,   2.0750000000)
 A2 = (   2.0750000000,   0.0000000000,   2.0750000000)
 A3 = (   2.0750000000,   2.0750000000,   0.0000000000)


Analysis of symmetry for initial positions (statically):
=====================================================================
 Subroutine PRICEL returns:
 Original cell was already a primitive cell.
 

 Routine SETGRP: Setting up the symmetry group for a 
 face centered cubic supercell.


 Subroutine GETGRP returns: Found 48 space group operations
 (whereof 48 operations were pure point group operations)
 out of a pool of 48 trial point group operations.


The static configuration has the point symmetry O_h .


Analysis of symmetry for dynamics (positions and initial velocities):
=====================================================================
 Subroutine PRICEL returns:
 Original cell was already a primitive cell.
 

 Routine SETGRP: Setting up the symmetry group for a 
 face centered cubic supercell.


 Subroutine GETGRP returns: Found 48 space group operations
 (whereof 48 operations were pure point group operations)
 out of a pool of 48 trial point group operations.


The dynamic configuration has the point symmetry O_h .


 Subroutine INISYM returns: Found 48 space group operations
 (whereof 48 operations are pure point group operations),
 and found     1 'primitive' translations

 
 
 KPOINTS: 10x10x10                                

Automatic generation of k-mesh.
Space group operators:
 irot       det(A)        alpha          n_x          n_y          n_z        tau_x        tau_y        tau_z
    1     1.000000     0.000000     1.000000     0.000000     0.000000     0.000000     0.000000     0.000000
    2    -1.000000     0.000000     1.000000     0.000000     0.000000     0.000000     0.000000     0.000000
    3     1.000000   120.000000    -0.577350    -0.577350    -0.577350     0.000000     0.000000     0.000000
    4    -1.000000   120.000000    -0.577350    -0.577350    -0.577350     0.000000     0.000000     0.000000
    5     1.000000   120.000000     0.577350     0.577350     0.577350     0.000000     0.000000     0.000000
    6    -1.000000   120.000000     0.577350     0.577350     0.577350     0.000000     0.000000     0.000000
    7     1.000000    90.000000     0.000000     0.000000    -1.000000     0.000000     0.000000     0.000000
    8    -1.000000    90.000000     0.000000     0.000000    -1.000000     0.000000     0.000000     0.000000
    9     1.000000   180.000000     0.000000     0.707107     0.707107     0.000000     0.000000     0.000000
   10    -1.000000   180.000000     0.000000     0.707107     0.707107     0.000000     0.000000     0.000000
   11     1.000000    90.000000     0.000000     1.000000     0.000000     0.000000     0.000000     0.000000
   12    -1.000000    90.000000     0.000000     1.000000     0.000000     0.000000     0.000000     0.000000
   13     1.000000   180.000000     0.000000     0.000000     1.000000     0.000000     0.000000     0.000000
   14    -1.000000   180.000000     0.000000     0.000000     1.000000     0.000000     0.000000     0.000000
   15     1.000000   120.000000    -0.577350     0.577350     0.577350     0.000000     0.000000     0.000000
   16    -1.000000   120.000000    -0.577350     0.577350     0.577350     0.000000     0.000000     0.000000
   17     1.000000   120.000000    -0.577350     0.577350    -0.577350     0.000000     0.000000     0.000000
   18    -1.000000   120.000000    -0.577350     0.577350    -0.577350     0.000000     0.000000     0.000000
   19     1.000000    90.000000     0.000000     0.000000     1.000000     0.000000     0.000000     0.000000
   20    -1.000000    90.000000     0.000000     0.000000     1.000000     0.000000     0.000000     0.000000
   21     1.000000    90.000000    -1.000000     0.000000     0.000000     0.000000     0.000000     0.000000
   22    -1.000000    90.000000    -1.000000     0.000000     0.000000     0.000000     0.000000     0.000000
   23     1.000000   180.000000     0.707107     0.000000     0.707107     0.000000     0.000000     0.000000
   24    -1.000000   180.000000     0.707107     0.000000     0.707107     0.000000     0.000000     0.000000
   25     1.000000   120.000000     0.577350    -0.577350     0.577350     0.000000     0.000000     0.000000
   26    -1.000000   120.000000     0.577350    -0.577350     0.577350     0.000000     0.000000     0.000000
   27     1.000000   120.000000    -0.577350    -0.577350     0.577350     0.000000     0.000000     0.000000
   28    -1.000000   120.000000    -0.577350    -0.577350     0.577350     0.000000     0.000000     0.000000
   29     1.000000   180.000000     1.000000     0.000000     0.000000     0.000000     0.000000     0.000000
   30    -1.000000   180.000000     1.000000     0.000000     0.000000     0.000000     0.000000     0.000000
   31     1.000000    90.000000     0.000000    -1.000000     0.000000     0.000000     0.000000     0.000000
   32    -1.000000    90.000000     0.000000    -1.000000     0.000000     0.000000     0.000000     0.000000
   33     1.000000   180.000000     0.707107     0.707107     0.000000     0.000000     0.000000     0.000000
   34    -1.000000   180.000000     0.707107     0.707107     0.000000     0.000000     0.000000     0.000000
   35     1.000000    90.000000     1.000000     0.000000     0.000000     0.000000     0.000000     0.000000
   36    -1.000000    90.000000     1.000000     0.000000     0.000000     0.000000     0.000000     0.000000
   37     1.000000   120.000000     0.577350    -0.577350    -0.577350     0.000000     0.000000     0.000000
   38    -1.000000   120.000000     0.577350    -0.577350    -0.577350     0.000000     0.000000     0.000000
   39     1.000000   180.000000     0.000000     1.000000     0.000000     0.000000     0.000000     0.000000
   40    -1.000000   180.000000     0.000000     1.000000     0.000000     0.000000     0.000000     0.000000
   41     1.000000   120.000000     0.577350     0.577350    -0.577350     0.000000     0.000000     0.000000
   42    -1.000000   120.000000     0.577350     0.577350    -0.577350     0.000000     0.000000     0.000000
   43     1.000000   180.000000     0.000000    -0.707107     0.707107     0.000000     0.000000     0.000000
   44    -1.000000   180.000000     0.000000    -0.707107     0.707107     0.000000     0.000000     0.000000
   45     1.000000   180.000000     0.707107    -0.707107     0.000000     0.000000     0.000000     0.000000
   46    -1.000000   180.000000     0.707107    -0.707107     0.000000     0.000000     0.000000     0.000000
   47     1.000000   180.000000     0.707107     0.000000    -0.707107     0.000000     0.000000     0.000000
   48    -1.000000   180.000000     0.707107     0.000000    -0.707107     0.000000     0.000000     0.000000
 
 Subroutine IBZKPT returns following result:
 ===========================================
 
 Found    110 irreducible k-points:
 
 Following reciprocal coordinates:
            Coordinates               Weight
  0.050000  0.050000  0.050000     96.000000
  0.150000  0.050000  0.050000    288.000000
  0.250000  0.050000  0.050000    288.000000
  0.350000  0.050000  0.050000    288.000000
  0.450000  0.050000  0.050000    288.000000
 -0.450000  0.050000  0.050000    288.000000
 -0.350000  0.050000  0.050000    288.000000
 -0.250000  0.050000  0.050000    288.000000
 -0.150000  0.050000  0.050000    288.000000
 -0.050000  0.050000  0.050000    288.000000
  0.150000  0.150000  0.050000    288.000000
  0.250000  0.150000  0.050000    576.000000
  0.350000  0.150000  0.050000    576.000000
  0.450000  0.150000  0.050000    576.000000
 -0.450000  0.150000  0.050000    576.000000
 -0.350000  0.150000  0.050000    576.000000
 -0.250000  0.150000  0.050000    576.000000
 -0.150000  0.150000  0.050000    576.000000
 -0.050000  0.150000  0.050000    576.000000
  0.250000  0.250000  0.050000    288.000000
  0.350000  0.250000  0.050000    576.000000
  0.450000  0.250000  0.050000    576.000000
 -0.450000  0.250000  0.050000    576.000000
 -0.350000  0.250000  0.050000    576.000000
 -0.250000  0.250000  0.050000    576.000000
 -0.150000  0.250000  0.050000    576.000000
 -0.050000  0.250000  0.050000    576.000000
  0.350000  0.350000  0.050000    288.000000
  0.450000  0.350000  0.050000    576.000000
 -0.450000  0.350000  0.050000    576.000000
 -0.350000  0.350000  0.050000    576.000000
 -0.250000  0.350000  0.050000    576.000000
 -0.150000  0.350000  0.050000    576.000000
 -0.050000  0.350000  0.050000    576.000000
  0.450000  0.450000  0.050000    288.000000
 -0.450000  0.450000  0.050000    576.000000
 -0.350000  0.450000  0.050000    576.000000
 -0.250000  0.450000  0.050000    576.000000
 -0.150000  0.450000  0.050000    576.000000
 -0.050000  0.450000  0.050000    576.000000
 -0.450000 -0.450000  0.050000    288.000000
 -0.350000 -0.450000  0.050000    576.000000
 -0.250000 -0.450000  0.050000    576.000000
 -0.150000 -0.450000  0.050000    576.000000
 -0.350000 -0.350000  0.050000    288.000000
 -0.250000 -0.350000  0.050000    576.000000
 -0.150000 -0.350000  0.050000    576.000000
 -0.250000 -0.250000  0.050000    288.000000
 -0.150000 -0.250000  0.050000    576.000000
 -0.150000 -0.150000  0.050000    288.000000
  0.150000  0.150000  0.150000     96.000000
  0.250000  0.150000  0.150000    288.000000
  0.350000  0.150000  0.150000    288.000000
  0.450000  0.150000  0.150000    288.000000
 -0.450000  0.150000  0.150000    288.000000
 -0.350000  0.150000  0.150000    288.000000
 -0.250000  0.150000  0.150000    288.000000
 -0.150000  0.150000  0.150000    288.000000
  0.250000  0.250000  0.150000    288.000000
  0.350000  0.250000  0.150000    576.000000
  0.450000  0.250000  0.150000    576.000000
 -0.450000  0.250000  0.150000    576.000000
 -0.350000  0.250000  0.150000    576.000000
 -0.250000  0.250000  0.150000    576.000000
 -0.150000  0.250000  0.150000    576.000000
  0.350000  0.350000  0.150000    288.000000
  0.450000  0.350000  0.150000    576.000000
 -0.450000  0.350000  0.150000    576.000000
 -0.350000  0.350000  0.150000    576.000000
 -0.250000  0.350000  0.150000    576.000000
 -0.150000  0.350000  0.150000    576.000000
  0.450000  0.450000  0.150000    288.000000
 -0.450000  0.450000  0.150000    576.000000
 -0.350000  0.450000  0.150000    576.000000
 -0.250000  0.450000  0.150000    576.000000
 -0.150000  0.450000  0.150000    576.000000
 -0.450000 -0.450000  0.150000    288.000000
 -0.350000 -0.450000  0.150000    576.000000
 -0.250000 -0.450000  0.150000    576.000000
 -0.350000 -0.350000  0.150000    288.000000
 -0.250000 -0.350000  0.150000    576.000000
 -0.250000 -0.250000  0.150000    288.000000
  0.250000  0.250000  0.250000     96.000000
  0.350000  0.250000  0.250000    288.000000
  0.450000  0.250000  0.250000    288.000000
 -0.450000  0.250000  0.250000    288.000000
 -0.350000  0.250000  0.250000    288.000000
 -0.250000  0.250000  0.250000    288.000000
  0.350000  0.350000  0.250000    288.000000
  0.450000  0.350000  0.250000    576.000000
 -0.450000  0.350000  0.250000    576.000000
 -0.350000  0.350000  0.250000    576.000000
 -0.250000  0.350000  0.250000    576.000000
  0.450000  0.450000  0.250000    288.000000
 -0.450000  0.450000  0.250000    576.000000
 -0.350000  0.450000  0.250000    576.000000
 -0.250000  0.450000  0.250000    576.000000
 -0.450000 -0.450000  0.250000    288.000000
 -0.350000 -0.450000  0.250000    576.000000
 -0.350000 -0.350000  0.250000    288.000000
  0.350000  0.350000  0.350000     96.000000
  0.450000  0.350000  0.350000    288.000000
 -0.450000  0.350000  0.350000    288.000000
 -0.350000  0.350000  0.350000    288.000000
  0.450000  0.450000  0.350000    288.000000
 -0.450000  0.450000  0.350000    576.000000
 -0.350000  0.450000  0.350000    576.000000
 -0.450000 -0.450000  0.350000    288.000000
  0.450000  0.450000  0.450000     96.000000
 -0.450000  0.450000  0.450000    288.000000
 
 Following cartesian coordinates:
            Coordinates               Weight
  0.050000  0.050000  0.050000     96.000000
 -0.050000  0.150000  0.150000    288.000000
 -0.150000  0.250000  0.250000    288.000000
 -0.250000  0.350000  0.350000    288.000000
 -0.350000  0.450000  0.450000    288.000000
  0.550000 -0.450000 -0.450000    288.000000
  0.450000 -0.350000 -0.350000    288.000000
  0.350000 -0.250000 -0.250000    288.000000
  0.250000 -0.150000 -0.150000    288.000000
  0.150000 -0.050000 -0.050000    288.000000
  0.050000  0.050000  0.250000    288.000000
 -0.050000  0.150000  0.350000    576.000000
 -0.150000  0.250000  0.450000    576.000000
 -0.250000  0.350000  0.550000    576.000000
  0.650000 -0.550000 -0.350000    576.000000
  0.550000 -0.450000 -0.250000    576.000000
  0.450000 -0.350000 -0.150000    576.000000
  0.350000 -0.250000 -0.050000    576.000000
  0.250000 -0.150000  0.050000    576.000000
  0.050000  0.050000  0.450000    288.000000
 -0.050000  0.150000  0.550000    576.000000
 -0.150000  0.250000  0.650000    576.000000
  0.750000 -0.650000 -0.250000    576.000000
  0.650000 -0.550000 -0.150000    576.000000
  0.550000 -0.450000 -0.050000    576.000000
  0.450000 -0.350000  0.050000    576.000000
  0.350000 -0.250000  0.150000    576.000000
  0.050000  0.050000  0.650000    288.000000
 -0.050000  0.150000  0.750000    576.000000
  0.850000 -0.750000 -0.150000    576.000000
  0.750000 -0.650000 -0.050000    576.000000
  0.650000 -0.550000  0.050000    576.000000
  0.550000 -0.450000  0.150000    576.000000
  0.450000 -0.350000  0.250000    576.000000
  0.050000  0.050000  0.850000    288.000000
  0.950000 -0.850000 -0.050000    576.000000
  0.850000 -0.750000  0.050000    576.000000
  0.750000 -0.650000  0.150000    576.000000
  0.650000 -0.550000  0.250000    576.000000
  0.550000 -0.450000  0.350000    576.000000
  0.050000  0.050000 -0.950000    288.000000
 -0.050000  0.150000 -0.850000    576.000000
 -0.150000  0.250000 -0.750000    576.000000
 -0.250000  0.350000 -0.650000    576.000000
  0.050000  0.050000 -0.750000    288.000000
 -0.050000  0.150000 -0.650000    576.000000
 -0.150000  0.250000 -0.550000    576.000000
  0.050000  0.050000 -0.550000    288.000000
 -0.050000  0.150000 -0.450000    576.000000
  0.050000  0.050000 -0.350000    288.000000
  0.150000  0.150000  0.150000     96.000000
  0.050000  0.250000  0.250000    288.000000
 -0.050000  0.350000  0.350000    288.000000
 -0.150000  0.450000  0.450000    288.000000
  0.750000 -0.450000 -0.450000    288.000000
  0.650000 -0.350000 -0.350000    288.000000
  0.550000 -0.250000 -0.250000    288.000000
  0.450000 -0.150000 -0.150000    288.000000
  0.150000  0.150000  0.350000    288.000000
  0.050000  0.250000  0.450000    576.000000
 -0.050000  0.350000  0.550000    576.000000
  0.850000 -0.550000 -0.350000    576.000000
  0.750000 -0.450000 -0.250000    576.000000
  0.650000 -0.350000 -0.150000    576.000000
  0.550000 -0.250000 -0.050000    576.000000
  0.150000  0.150000  0.550000    288.000000
  0.050000  0.250000  0.650000    576.000000
  0.950000 -0.650000 -0.250000    576.000000
  0.850000 -0.550000 -0.150000    576.000000
  0.750000 -0.450000 -0.050000    576.000000
  0.650000 -0.350000  0.050000    576.000000
  0.150000  0.150000  0.750000    288.000000
  1.050000 -0.750000 -0.150000    576.000000
  0.950000 -0.650000 -0.050000    576.000000
  0.850000 -0.550000  0.050000    576.000000
  0.750000 -0.450000  0.150000    576.000000
  0.150000  0.150000 -1.050000    288.000000
  0.050000  0.250000 -0.950000    576.000000
 -0.050000  0.350000 -0.850000    576.000000
  0.150000  0.150000 -0.850000    288.000000
  0.050000  0.250000 -0.750000    576.000000
  0.150000  0.150000 -0.650000    288.000000
  0.250000  0.250000  0.250000     96.000000
  0.150000  0.350000  0.350000    288.000000
  0.050000  0.450000  0.450000    288.000000
  0.950000 -0.450000 -0.450000    288.000000
  0.850000 -0.350000 -0.350000    288.000000
  0.750000 -0.250000 -0.250000    288.000000
  0.250000  0.250000  0.450000    288.000000
  0.150000  0.350000  0.550000    576.000000
  1.050000 -0.550000 -0.350000    576.000000
  0.950000 -0.450000 -0.250000    576.000000
  0.850000 -0.350000 -0.150000    576.000000
  0.250000  0.250000  0.650000    288.000000
  1.150000 -0.650000 -0.250000    576.000000
  1.050000 -0.550000 -0.150000    576.000000
  0.950000 -0.450000 -0.050000    576.000000
  0.250000  0.250000 -1.150000    288.000000
  0.150000  0.350000 -1.050000    576.000000
  0.250000  0.250000 -0.950000    288.000000
  0.350000  0.350000  0.350000     96.000000
  0.250000  0.450000  0.450000    288.000000
  1.150000 -0.450000 -0.450000    288.000000
  1.050000 -0.350000 -0.350000    288.000000
  0.350000  0.350000  0.550000    288.000000
  1.250000 -0.550000 -0.350000    576.000000
  1.150000 -0.450000 -0.250000    576.000000
  0.350000  0.350000 -1.250000    288.000000
  0.450000  0.450000  0.450000     96.000000
  1.350000 -0.450000 -0.450000    288.000000
 


--------------------------------------------------------------------------------------------------------




 Dimension of arrays:
   k-points           NKPTS =    110   k-points in BZ     NKDIM =    110   number of bands    NBANDS=     12
   number of dos      NEDOS =    301   number of ions     NIONS =      1
   non local maximal  LDIM  =      6   non local SUM 2l+1 LMDIM =     18
   total plane-waves  NPLWV =   1728
   max r-space proj   IRMAX =      1   max aug-charges    IRDMAX=   6113
   dimension x,y,z NGX =    12 NGY =   12 NGZ =   12
   dimension x,y,z NGXF=    24 NGYF=   24 NGZF=   24
   support grid    NGXF=    24 NGYF=   24 NGZF=   24
   ions per type =               1
   NGX,Y,Z   is equivalent  to a cutoff of   6.80,  6.80,  6.80 a.u.
   NGXF,Y,Z  is equivalent  to a cutoff of  13.60, 13.60, 13.60 a.u.

 SYSTEM =  fcc Au                                  
 POSCAR =  FCC Au Bulk                             

 Startparameter for this run:
   NWRITE =      2    write-flag & timer
   PREC   = normal    normal or accurate (medium, high low for compatibility)
   ISTART =      0    job   : 0-new  1-cont  2-samecut
   ICHARG =      2    charge: 1-file 2-atom 10-const
   ISPIN  =      1    spin polarized calculation?
   LNONCOLLINEAR =      F non collinear calculations
   LSORBIT =      F    spin-orbit coupling
   INIWAV =      1    electr: 0-lowe 1-rand  2-diag
   LASPH  =      F    aspherical Exc in radial PAW
   METAGGA=      F    non-selfconsistent MetaGGA calc.

 Electronic Relaxation 1
   ENCUT  =  229.9 eV  16.89 Ry    4.11 a.u.   3.63  3.63  3.63*2*pi/ulx,y,z
   ENINI  =  229.9     initial cutoff
   ENAUG  =  356.7 eV  augmentation charge cutoff
   NELM   =     60;   NELMIN=  2; NELMDL= -5     # of ELM steps 
   EDIFF  = 0.1E-03   stopping-criterion for ELM
   LREAL  =      F    real-space projection
   NLSPLINE    = F    spline interpolate recip. space projectors
   LCOMPAT=      F    compatible to vasp.4.4
   GGA_COMPAT  = T    GGA compatible to vasp.4.4-vasp.4.6
   LMAXPAW     = -100 max onsite density
   LMAXMIX     =    2 max onsite mixed and CHGCAR
   VOSKOWN=      0    Vosko Wilk Nusair interpolation
   ROPT   =    0.00000
 Ionic relaxation
   EDIFFG = 0.1E-02   stopping-criterion for IOM
   NSW    =      0    number of steps for IOM
   NBLOCK =      1;   KBLOCK =      1    inner block; outer block 
   IBRION =     -1    ionic relax: 0-MD 1-quasi-New 2-CG
   NFREE  =      0    steps in history (QN), initial steepest desc. (CG)
   ISIF   =      2    stress and relaxation
   IWAVPR =     10    prediction:  0-non 1-charg 2-wave 3-comb
   ISYM   =      2    0-nonsym 1-usesym 2-fastsym
   LCORR  =      T    Harris-Foulkes like correction to forces

   POTIM  = 0.5000    time-step for ionic-motion
   TEIN   =    0.0    initial temperature
   TEBEG  =    0.0;   TEEND  =   0.0 temperature during run
   SMASS  =  -3.00    Nose mass-parameter (am)
   estimated Nose-frequenzy (Omega)   =  0.10E-29 period in steps =****** mass=  -0.197E-27a.u.
   SCALEE = 1.0000    scale energy and forces
   NPACO  =    256;   APACO  = 16.0  distance and # of slots for P.C.
   PSTRESS=    0.0 pullay stress

  Mass of Ions in am
   POMASS = 196.97
  Ionic Valenz
   ZVAL   =  11.00
  Atomic Wigner-Seitz radii
   RWIGS  =   1.50
  virtual crystal weights 
   VCA    =   1.00
   NELECT =      11.0000    total number of electrons
   NUPDOWN=      -1.0000    fix difference up-down

 DOS related values:
   EMIN   =  10.00;   EMAX   =-10.00  energy-range for DOS
   EFERMI =   0.00
   ISMEAR =     1;   SIGMA  =   0.20  broadening in eV -4-tet -1-fermi 0-gaus

 Electronic relaxation 2 (details)
   IALGO  =     38    algorithm
   LDIAG  =      T    sub-space diagonalisation (order eigenvalues)
   LSUBROT=      F    optimize rotation matrix (better conditioning)
   TURBO    =      0    0=normal 1=particle mesh
   IRESTART =      0    0=no restart 2=restart with 2 vectors
   NREBOOT  =      0    no. of reboots
   NMIN     =      0    reboot dimension
   EREF     =   0.00    reference energy to select bands
   IMIX   =      4    mixing-type and parameters
     AMIX     =   0.40;   BMIX     =  1.00
     AMIX_MAG =   1.60;   BMIX_MAG =  1.00
     AMIN     =   0.10
     WC   =   100.;   INIMIX=   1;  MIXPRE=   1;  MAXMIX= -45

 Intra band minimization:
   WEIMIN = 0.0000     energy-eigenvalue tresh-hold
   EBREAK =  0.21E-05  absolut break condition
   DEPER  =   0.30     relativ break condition  

   TIME   =   0.40     timestep for ELM

  volume/ion in A,a.u.               =      17.87       120.58
  Fermi-wavevector in a.u.,A,eV,Ry     =   1.392657  2.631741 26.388427  1.939495
  Thomas-Fermi vector in A             =   2.516379
 
 Write flags
   LWAVE        =      T    write WAVECAR
   LDOWNSAMPLE  =      F    k-point downsampling of WAVECAR
   LCHARG       =      T    write CHGCAR
   LVTOT        =      F    write LOCPOT, total local potential
   LVHAR        =      F    write LOCPOT, Hartree potential only
   LELF         =      F    write electronic localiz. function (ELF)
   LORBIT       =      0    0 simple, 1 ext, 2 COOP (PROOUT), +10 PAW based schemes


 Dipole corrections
   LMONO  =      F    monopole corrections only (constant potential shift)
   LDIPOL =      F    correct potential (dipole corrections)
   IDIPOL =      0    1-x, 2-y, 3-z, 4-all directions 
   EPSILON=  1.0000000 bulk dielectric constant

 Exchange correlation treatment:
   GGA     =    --    GGA type
   LEXCH   =     2    internal setting for exchange type
   VOSKOWN=      0    Vosko Wilk Nusair interpolation
   LHFCALC =     F    Hartree Fock is set to
   LHFONE  =     F    Hartree Fock one center treatment
   AEXX    =    0.0000 exact exchange contribution

 Linear response parameters
   LEPSILON=     F    determine dielectric tensor
   LRPA    =     F    only Hartree local field effects (RPA)
   LNABLA  =     F    use nabla operator in PAW spheres
   LVEL    =     F    velocity operator in full k-point grid
   LINTERFAST=   F  fast interpolation
   KINTER  =     0    interpolate to denser k-point grid
   CSHIFT  =0.1000    complex shift for real part using Kramers Kronig
   OMEGAMAX=  -1.0    maximum frequency
   DEG_THRESHOLD= 0.2000000E-02 threshold for treating states as degnerate
   RTIME   =   -0.100 relaxation time in fs
  (WPLASMAI=    0.000 imaginary part of plasma frequency in eV, 0.658/RTIME)
   DFIELD  = 0.0000000 0.0000000 0.0000000 field for delta impulse in time
 
 Orbital magnetization related:
   ORBITALMAG=     F  switch on orbital magnetization
   LCHIMAG   =     F  perturbation theory with respect to B field
   DQ        =  0.001000  dq finite difference perturbation B field
   LLRAUG    =     F  two centre corrections for induced B field



--------------------------------------------------------------------------------------------------------


 Static calculation
 charge density and potential will be updated during run
 non-spin polarized calculation
 Variant of blocked Davidson
 Davidson routine will perform the subspace rotation
 perform sub-space diagonalisation
    after iterative eigenvector-optimisation
 modified Broyden-mixing scheme, WC =      100.0
 initial mixing is a Kerker type mixing with AMIX =  0.4000 and BMIX =      1.0000
 Hartree-type preconditioning will be used
 using additional bands            6
 reciprocal scheme for non local part
 use partial core corrections
 calculate Harris-corrections to forces 
   (improved forces if not selfconsistent)
 use of overlap-Matrix (Vanderbilt PP)
 Methfessel and Paxton  Order N= 1 SIGMA  =   0.20


--------------------------------------------------------------------------------------------------------


  energy-cutoff  :      229.87
  volume of cell :       17.87
      direct lattice vectors                 reciprocal lattice vectors
     0.000000000  2.075000000  2.075000000    -0.240963855  0.240963855  0.240963855
     2.075000000  0.000000000  2.075000000     0.240963855 -0.240963855  0.240963855
     2.075000000  2.075000000  0.000000000     0.240963855  0.240963855 -0.240963855

  length of vectors
     2.934493142  2.934493142  2.934493142     0.417361640  0.417361640  0.417361640


 
 k-points in units of 2pi/SCALE and weight: 10x10x10                                
   0.05000000  0.05000000  0.05000000       0.002
  -0.05000000  0.15000000  0.15000000       0.006
  -0.15000000  0.25000000  0.25000000       0.006
  -0.25000000  0.35000000  0.35000000       0.006
  -0.35000000  0.45000000  0.45000000       0.006
   0.55000000 -0.45000000 -0.45000000       0.006
   0.45000000 -0.35000000 -0.35000000       0.006
   0.35000000 -0.25000000 -0.25000000       0.006
   0.25000000 -0.15000000 -0.15000000       0.006
   0.15000000 -0.05000000 -0.05000000       0.006
   0.05000000  0.05000000  0.25000000       0.006
  -0.05000000  0.15000000  0.35000000       0.012
  -0.15000000  0.25000000  0.45000000       0.012
  -0.25000000  0.35000000  0.55000000       0.012
   0.65000000 -0.55000000 -0.35000000       0.012
   0.55000000 -0.45000000 -0.25000000       0.012
   0.45000000 -0.35000000 -0.15000000       0.012
   0.35000000 -0.25000000 -0.05000000       0.012
   0.25000000 -0.15000000  0.05000000       0.012
   0.05000000  0.05000000  0.45000000       0.006
  -0.05000000  0.15000000  0.55000000       0.012
  -0.15000000  0.25000000  0.65000000       0.012
   0.75000000 -0.65000000 -0.25000000       0.012
   0.65000000 -0.55000000 -0.15000000       0.012
   0.55000000 -0.45000000 -0.05000000       0.012
   0.45000000 -0.35000000  0.05000000       0.012
   0.35000000 -0.25000000  0.15000000       0.012
   0.05000000  0.05000000  0.65000000       0.006
  -0.05000000  0.15000000  0.75000000       0.012
   0.85000000 -0.75000000 -0.15000000       0.012
   0.75000000 -0.65000000 -0.05000000       0.012
   0.65000000 -0.55000000  0.05000000       0.012
   0.55000000 -0.45000000  0.15000000       0.012
   0.45000000 -0.35000000  0.25000000       0.012
   0.05000000  0.05000000  0.85000000       0.006
   0.95000000 -0.85000000 -0.05000000       0.012
   0.85000000 -0.75000000  0.05000000       0.012
   0.75000000 -0.65000000  0.15000000       0.012
   0.65000000 -0.55000000  0.25000000       0.012
   0.55000000 -0.45000000  0.35000000       0.012
   0.05000000  0.05000000 -0.95000000       0.006
  -0.05000000  0.15000000 -0.85000000       0.012
  -0.15000000  0.25000000 -0.75000000       0.012
  -0.25000000  0.35000000 -0.65000000       0.012
   0.05000000  0.05000000 -0.75000000       0.006
  -0.05000000  0.15000000 -0.65000000       0.012
  -0.15000000  0.25000000 -0.55000000       0.012
   0.05000000  0.05000000 -0.55000000       0.006
  -0.05000000  0.15000000 -0.45000000       0.012
   0.05000000  0.05000000 -0.35000000       0.006
   0.15000000  0.15000000  0.15000000       0.002
   0.05000000  0.25000000  0.25000000       0.006
  -0.05000000  0.35000000  0.35000000       0.006
  -0.15000000  0.45000000  0.45000000       0.006
   0.75000000 -0.45000000 -0.45000000       0.006
   0.65000000 -0.35000000 -0.35000000       0.006
   0.55000000 -0.25000000 -0.25000000       0.006
   0.45000000 -0.15000000 -0.15000000       0.006
   0.15000000  0.15000000  0.35000000       0.006
   0.05000000  0.25000000  0.45000000       0.012
  -0.05000000  0.35000000  0.55000000       0.012
   0.85000000 -0.55000000 -0.35000000       0.012
   0.75000000 -0.45000000 -0.25000000       0.012
   0.65000000 -0.35000000 -0.15000000       0.012
   0.55000000 -0.25000000 -0.05000000       0.012
   0.15000000  0.15000000  0.55000000       0.006
   0.05000000  0.25000000  0.65000000       0.012
   0.95000000 -0.65000000 -0.25000000       0.012
   0.85000000 -0.55000000 -0.15000000       0.012
   0.75000000 -0.45000000 -0.05000000       0.012
   0.65000000 -0.35000000  0.05000000       0.012
   0.15000000  0.15000000  0.75000000       0.006
   1.05000000 -0.75000000 -0.15000000       0.012
   0.95000000 -0.65000000 -0.05000000       0.012
   0.85000000 -0.55000000  0.05000000       0.012
   0.75000000 -0.45000000  0.15000000       0.012
   0.15000000  0.15000000 -1.05000000       0.006
   0.05000000  0.25000000 -0.95000000       0.012
  -0.05000000  0.35000000 -0.85000000       0.012
   0.15000000  0.15000000 -0.85000000       0.006
   0.05000000  0.25000000 -0.75000000       0.012
   0.15000000  0.15000000 -0.65000000       0.006
   0.25000000  0.25000000  0.25000000       0.002
   0.15000000  0.35000000  0.35000000       0.006
   0.05000000  0.45000000  0.45000000       0.006
   0.95000000 -0.45000000 -0.45000000       0.006
   0.85000000 -0.35000000 -0.35000000       0.006
   0.75000000 -0.25000000 -0.25000000       0.006
   0.25000000  0.25000000  0.45000000       0.006
   0.15000000  0.35000000  0.55000000       0.012
   1.05000000 -0.55000000 -0.35000000       0.012
   0.95000000 -0.45000000 -0.25000000       0.012
   0.85000000 -0.35000000 -0.15000000       0.012
   0.25000000  0.25000000  0.65000000       0.006
   1.15000000 -0.65000000 -0.25000000       0.012
   1.05000000 -0.55000000 -0.15000000       0.012
   0.95000000 -0.45000000 -0.05000000       0.012
   0.25000000  0.25000000 -1.15000000       0.006
   0.15000000  0.35000000 -1.05000000       0.012
   0.25000000  0.25000000 -0.95000000       0.006
   0.35000000  0.35000000  0.35000000       0.002
   0.25000000  0.45000000  0.45000000       0.006
   1.15000000 -0.45000000 -0.45000000       0.006
   1.05000000 -0.35000000 -0.35000000       0.006
   0.35000000  0.35000000  0.55000000       0.006
   1.25000000 -0.55000000 -0.35000000       0.012
   1.15000000 -0.45000000 -0.25000000       0.012
   0.35000000  0.35000000 -1.25000000       0.006
   0.45000000  0.45000000  0.45000000       0.002
   1.35000000 -0.45000000 -0.45000000       0.006
 
 k-points in reciprocal lattice and weights: 10x10x10                                
   0.05000000  0.05000000  0.05000000       0.002
   0.15000000  0.05000000  0.05000000       0.006
   0.25000000  0.05000000  0.05000000       0.006
   0.35000000  0.05000000  0.05000000       0.006
   0.45000000  0.05000000  0.05000000       0.006
  -0.45000000  0.05000000  0.05000000       0.006
  -0.35000000  0.05000000  0.05000000       0.006
  -0.25000000  0.05000000  0.05000000       0.006
  -0.15000000  0.05000000  0.05000000       0.006
  -0.05000000  0.05000000  0.05000000       0.006
   0.15000000  0.15000000  0.05000000       0.006
   0.25000000  0.15000000  0.05000000       0.012
   0.35000000  0.15000000  0.05000000       0.012
   0.45000000  0.15000000  0.05000000       0.012
  -0.45000000  0.15000000  0.05000000       0.012
  -0.35000000  0.15000000  0.05000000       0.012
  -0.25000000  0.15000000  0.05000000       0.012
  -0.15000000  0.15000000  0.05000000       0.012
  -0.05000000  0.15000000  0.05000000       0.012
   0.25000000  0.25000000  0.05000000       0.006
   0.35000000  0.25000000  0.05000000       0.012
   0.45000000  0.25000000  0.05000000       0.012
  -0.45000000  0.25000000  0.05000000       0.012
  -0.35000000  0.25000000  0.05000000       0.012
  -0.25000000  0.25000000  0.05000000       0.012
  -0.15000000  0.25000000  0.05000000       0.012
  -0.05000000  0.25000000  0.05000000       0.012
   0.35000000  0.35000000  0.05000000       0.006
   0.45000000  0.35000000  0.05000000       0.012
  -0.45000000  0.35000000  0.05000000       0.012
  -0.35000000  0.35000000  0.05000000       0.012
  -0.25000000  0.35000000  0.05000000       0.012
  -0.15000000  0.35000000  0.05000000       0.012
  -0.05000000  0.35000000  0.05000000       0.012
   0.45000000  0.45000000  0.05000000       0.006
  -0.45000000  0.45000000  0.05000000       0.012
  -0.35000000  0.45000000  0.05000000       0.012
  -0.25000000  0.45000000  0.05000000       0.012
  -0.15000000  0.45000000  0.05000000       0.012
  -0.05000000  0.45000000  0.05000000       0.012
  -0.45000000 -0.45000000  0.05000000       0.006
  -0.35000000 -0.45000000  0.05000000       0.012
  -0.25000000 -0.45000000  0.05000000       0.012
  -0.15000000 -0.45000000  0.05000000       0.012
  -0.35000000 -0.35000000  0.05000000       0.006
  -0.25000000 -0.35000000  0.05000000       0.012
  -0.15000000 -0.35000000  0.05000000       0.012
  -0.25000000 -0.25000000  0.05000000       0.006
  -0.15000000 -0.25000000  0.05000000       0.012
  -0.15000000 -0.15000000  0.05000000       0.006
   0.15000000  0.15000000  0.15000000       0.002
   0.25000000  0.15000000  0.15000000       0.006
   0.35000000  0.15000000  0.15000000       0.006
   0.45000000  0.15000000  0.15000000       0.006
  -0.45000000  0.15000000  0.15000000       0.006
  -0.35000000  0.15000000  0.15000000       0.006
  -0.25000000  0.15000000  0.15000000       0.006
  -0.15000000  0.15000000  0.15000000       0.006
   0.25000000  0.25000000  0.15000000       0.006
   0.35000000  0.25000000  0.15000000       0.012
   0.45000000  0.25000000  0.15000000       0.012
  -0.45000000  0.25000000  0.15000000       0.012
  -0.35000000  0.25000000  0.15000000       0.012
  -0.25000000  0.25000000  0.15000000       0.012
  -0.15000000  0.25000000  0.15000000       0.012
   0.35000000  0.35000000  0.15000000       0.006
   0.45000000  0.35000000  0.15000000       0.012
  -0.45000000  0.35000000  0.15000000       0.012
  -0.35000000  0.35000000  0.15000000       0.012
  -0.25000000  0.35000000  0.15000000       0.012
  -0.15000000  0.35000000  0.15000000       0.012
   0.45000000  0.45000000  0.15000000       0.006
  -0.45000000  0.45000000  0.15000000       0.012
  -0.35000000  0.45000000  0.15000000       0.012
  -0.25000000  0.45000000  0.15000000       0.012
  -0.15000000  0.45000000  0.15000000       0.012
  -0.45000000 -0.45000000  0.15000000       0.006
  -0.35000000 -0.45000000  0.15000000       0.012
  -0.25000000 -0.45000000  0.15000000       0.012
  -0.35000000 -0.35000000  0.15000000       0.006
  -0.25000000 -0.35000000  0.15000000       0.012
  -0.25000000 -0.25000000  0.15000000       0.006
   0.25000000  0.25000000  0.25000000       0.002
   0.35000000  0.25000000  0.25000000       0.006
   0.45000000  0.25000000  0.25000000       0.006
  -0.45000000  0.25000000  0.25000000       0.006
  -0.35000000  0.25000000  0.25000000       0.006
  -0.25000000  0.25000000  0.25000000       0.006
   0.35000000  0.35000000  0.25000000       0.006
   0.45000000  0.35000000  0.25000000       0.012
  -0.45000000  0.35000000  0.25000000       0.012
  -0.35000000  0.35000000  0.25000000       0.012
  -0.25000000  0.35000000  0.25000000       0.012
   0.45000000  0.45000000  0.25000000       0.006
  -0.45000000  0.45000000  0.25000000       0.012
  -0.35000000  0.45000000  0.25000000       0.012
  -0.25000000  0.45000000  0.25000000       0.012
  -0.45000000 -0.45000000  0.25000000       0.006
  -0.35000000 -0.45000000  0.25000000       0.012
  -0.35000000 -0.35000000  0.25000000       0.006
   0.35000000  0.35000000  0.35000000       0.002
   0.45000000  0.35000000  0.35000000       0.006
  -0.45000000  0.35000000  0.35000000       0.006
  -0.35000000  0.35000000  0.35000000       0.006
   0.45000000  0.45000000  0.35000000       0.006
  -0.45000000  0.45000000  0.35000000       0.012
  -0.35000000  0.45000000  0.35000000       0.012
  -0.45000000 -0.45000000  0.35000000       0.006
   0.45000000  0.45000000  0.45000000       0.002
  -0.45000000  0.45000000  0.45000000       0.006
 
 position of ions in fractional coordinates (direct lattice) 
   0.00000000  0.00000000  0.00000000
 
 position of ions in cartesian coordinates  (Angst):
   0.00000000  0.00000000  0.00000000
 


--------------------------------------------------------------------------------------------------------


 k-point  1 :   0.0500 0.0500 0.0500  plane waves:     141
 k-point  2 :   0.1500 0.0500 0.0500  plane waves:     148
 k-point  3 :   0.2500 0.0500 0.0500  plane waves:     147
 k-point  4 :   0.3500 0.0500 0.0500  plane waves:     146
 k-point  5 :   0.4500 0.0500 0.0500  plane waves:     147
 k-point  6 :  -0.4500 0.0500 0.0500  plane waves:     141
 k-point  7 :  -0.3500 0.0500 0.0500  plane waves:     146
 k-point  8 :  -0.2500 0.0500 0.0500  plane waves:     145
 k-point  9 :  -0.1500 0.0500 0.0500  plane waves:     147
 k-point 10 :  -0.0500 0.0500 0.0500  plane waves:     146
 k-point 11 :   0.1500 0.1500 0.0500  plane waves:     148
 k-point 12 :   0.2500 0.1500 0.0500  plane waves:     144
 k-point 13 :   0.3500 0.1500 0.0500  plane waves:     145
 k-point 14 :   0.4500 0.1500 0.0500  plane waves:     145
 k-point 15 :  -0.4500 0.1500 0.0500  plane waves:     139
 k-point 16 :  -0.3500 0.1500 0.0500  plane waves:     142
 k-point 17 :  -0.2500 0.1500 0.0500  plane waves:     145
 k-point 18 :  -0.1500 0.1500 0.0500  plane waves:     144
 k-point 19 :  -0.0500 0.1500 0.0500  plane waves:     146
 k-point 20 :   0.2500 0.2500 0.0500  plane waves:     143
 k-point 21 :   0.3500 0.2500 0.0500  plane waves:     140
 k-point 22 :   0.4500 0.2500 0.0500  plane waves:     142
 k-point 23 :  -0.4500 0.2500 0.0500  plane waves:     141
 k-point 24 :  -0.3500 0.2500 0.0500  plane waves:     139
 k-point 25 :  -0.2500 0.2500 0.0500  plane waves:     141
 k-point 26 :  -0.1500 0.2500 0.0500  plane waves:     142
 k-point 27 :  -0.0500 0.2500 0.0500  plane waves:     145
 k-point 28 :   0.3500 0.3500 0.0500  plane waves:     137
 k-point 29 :   0.4500 0.3500 0.0500  plane waves:     138
 k-point 30 :  -0.4500 0.3500 0.0500  plane waves:     139
 k-point 31 :  -0.3500 0.3500 0.0500  plane waves:     139
 k-point 32 :  -0.2500 0.3500 0.0500  plane waves:     139
 k-point 33 :  -0.1500 0.3500 0.0500  plane waves:     141
 k-point 34 :  -0.0500 0.3500 0.0500  plane waves:     144
 k-point 35 :   0.4500 0.4500 0.0500  plane waves:     135
 k-point 36 :  -0.4500 0.4500 0.0500  plane waves:     139
 k-point 37 :  -0.3500 0.4500 0.0500  plane waves:     137
 k-point 38 :  -0.2500 0.4500 0.0500  plane waves:     138
 k-point 39 :  -0.1500 0.4500 0.0500  plane waves:     140
 k-point 40 :  -0.0500 0.4500 0.0500  plane waves:     143
 k-point 41 :  -0.4500-0.4500 0.0500  plane waves:     142
 k-point 42 :  -0.3500-0.4500 0.0500  plane waves:     137
 k-point 43 :  -0.2500-0.4500 0.0500  plane waves:     140
 k-point 44 :  -0.1500-0.4500 0.0500  plane waves:     142
 k-point 45 :  -0.3500-0.3500 0.0500  plane waves:     135
 k-point 46 :  -0.2500-0.3500 0.0500  plane waves:     141
 k-point 47 :  -0.1500-0.3500 0.0500  plane waves:     142
 k-point 48 :  -0.2500-0.2500 0.0500  plane waves:     141
 k-point 49 :  -0.1500-0.2500 0.0500  plane waves:     142
 k-point 50 :  -0.1500-0.1500 0.0500  plane waves:     145
 k-point 51 :   0.1500 0.1500 0.1500  plane waves:     150
 k-point 52 :   0.2500 0.1500 0.1500  plane waves:     143
 k-point 53 :   0.3500 0.1500 0.1500  plane waves:     142
 k-point 54 :   0.4500 0.1500 0.1500  plane waves:     143
 k-point 55 :  -0.4500 0.1500 0.1500  plane waves:     142
 k-point 56 :  -0.3500 0.1500 0.1500  plane waves:     142
 k-point 57 :  -0.2500 0.1500 0.1500  plane waves:     144
 k-point 58 :  -0.1500 0.1500 0.1500  plane waves:     140
 k-point 59 :   0.2500 0.2500 0.1500  plane waves:     145
 k-point 60 :   0.3500 0.2500 0.1500  plane waves:     141
 k-point 61 :   0.4500 0.2500 0.1500  plane waves:     143
 k-point 62 :  -0.4500 0.2500 0.1500  plane waves:     140
 k-point 63 :  -0.3500 0.2500 0.1500  plane waves:     141
 k-point 64 :  -0.2500 0.2500 0.1500  plane waves:     141
 k-point 65 :  -0.1500 0.2500 0.1500  plane waves:     145
 k-point 66 :   0.3500 0.3500 0.1500  plane waves:     141
 k-point 67 :   0.4500 0.3500 0.1500  plane waves:     142
 k-point 68 :  -0.4500 0.3500 0.1500  plane waves:     141
 k-point 69 :  -0.3500 0.3500 0.1500  plane waves:     141
 k-point 70 :  -0.2500 0.3500 0.1500  plane waves:     139
 k-point 71 :  -0.1500 0.3500 0.1500  plane waves:     143
 k-point 72 :   0.4500 0.4500 0.1500  plane waves:     139
 k-point 73 :  -0.4500 0.4500 0.1500  plane waves:     138
 k-point 74 :  -0.3500 0.4500 0.1500  plane waves:     139
 k-point 75 :  -0.2500 0.4500 0.1500  plane waves:     143
 k-point 76 :  -0.1500 0.4500 0.1500  plane waves:     140
 k-point 77 :  -0.4500-0.4500 0.1500  plane waves:     138
 k-point 78 :  -0.3500-0.4500 0.1500  plane waves:     138
 k-point 79 :  -0.2500-0.4500 0.1500  plane waves:     139
 k-point 80 :  -0.3500-0.3500 0.1500  plane waves:     137
 k-point 81 :  -0.2500-0.3500 0.1500  plane waves:     140
 k-point 82 :  -0.2500-0.2500 0.1500  plane waves:     141
 k-point 83 :   0.2500 0.2500 0.2500  plane waves:     150
 k-point 84 :   0.3500 0.2500 0.2500  plane waves:     145
 k-point 85 :   0.4500 0.2500 0.2500  plane waves:     142
 k-point 86 :  -0.4500 0.2500 0.2500  plane waves:     138
 k-point 87 :  -0.3500 0.2500 0.2500  plane waves:     138
 k-point 88 :  -0.2500 0.2500 0.2500  plane waves:     143
 k-point 89 :   0.3500 0.3500 0.2500  plane waves:     145
 k-point 90 :   0.4500 0.3500 0.2500  plane waves:     142
 k-point 91 :  -0.4500 0.3500 0.2500  plane waves:     140
 k-point 92 :  -0.3500 0.3500 0.2500  plane waves:     140
 k-point 93 :  -0.2500 0.3500 0.2500  plane waves:     139
 k-point 94 :   0.4500 0.4500 0.2500  plane waves:     142
 k-point 95 :  -0.4500 0.4500 0.2500  plane waves:     141
 k-point 96 :  -0.3500 0.4500 0.2500  plane waves:     142
 k-point 97 :  -0.2500 0.4500 0.2500  plane waves:     144
 k-point 98 :  -0.4500-0.4500 0.2500  plane waves:     137
 k-point 99 :  -0.3500-0.4500 0.2500  plane waves:     139
 k-point ** :  -0.3500-0.3500 0.2500  plane waves:     136
 k-point ** :   0.3500 0.3500 0.3500  plane waves:     144
 k-point ** :   0.4500 0.3500 0.3500  plane waves:     144
 k-point ** :  -0.4500 0.3500 0.3500  plane waves:     140
 k-point ** :  -0.3500 0.3500 0.3500  plane waves:     141
 k-point ** :   0.4500 0.4500 0.3500  plane waves:     143
 k-point ** :  -0.4500 0.4500 0.3500  plane waves:     140
 k-point ** :  -0.3500 0.4500 0.3500  plane waves:     141
 k-point ** :  -0.4500-0.4500 0.3500  plane waves:     138
 k-point ** :   0.4500 0.4500 0.4500  plane waves:     147
 k-point ** :  -0.4500 0.4500 0.4500  plane waves:     142

 maximum and minimum number of plane-waves per node :       150      135

 maximum number of plane-waves:       150
 maximum index in each direction: 
   IXMAX=    4   IYMAX=    4   IZMAX=    3
   IXMIN=   -4   IYMIN=   -4   IZMIN=   -4


 serial   3D FFT for wavefunctions
 parallel 3D FFT for charge:
    minimum data exchange during FFTs selected (reduces bandwidth)


 total amount of memory used by VASP MPI-rank0    33902. kBytes
=======================================================================

   base      :      30000. kBytes
   nonl-proj :       2410. kBytes
   fftplans  :        238. kBytes
   grid      :        331. kBytes
   one-center:         15. kBytes
   wavefun   :        908. kBytes
 
     INWAV:  cpu time    0.0000: real time    0.0000
 Broyden mixing: mesh for mixing (old mesh)
   NGX =  7   NGY =  7   NGZ =  7
  (NGX  = 24   NGY  = 24   NGZ  = 24)
  gives a total of    343 points

 initial charge density was supplied:
 charge density of overlapping atoms calculated
 number of electron      11.0000000 magnetization 
 keeping initial charge density in first step


--------------------------------------------------------------------------------------------------------


 Maximum index for augmentation-charges         1413 (set IRDMAX)


--------------------------------------------------------------------------------------------------------


 First call to EWALD:  gamma=   0.678
 Maximum number of real-space cells 3x 3x 3
 Maximum number of reciprocal cells 3x 3x 3

    FEWALD:  cpu time    0.0014: real time    0.0014


--------------------------------------- Iteration      1(   1)  ---------------------------------------


    POTLOK:  cpu time    0.0017: real time    0.0028
    SETDIJ:  cpu time    0.0018: real time    0.0018
     EDDAV:  cpu time    0.2559: real time    0.2616
       DOS:  cpu time    0.0014: real time    0.0014
    --------------------------------------------
      LOOP:  cpu time    0.2610: real time    0.2677

 eigenvalue-minimisations  :  3220
 total energy-change (2. order) : 0.3045423E+02  (-0.3552214E+03)
 number of electron      11.0000000 magnetization 
 augmentation part       11.0000000 magnetization 

 Free energy of the ion-electron system (eV)
  ---------------------------------------------------
  alpha Z        PSCENC =       102.85672616
  Ewald energy   TEWEN  =      -962.47537394
  -Hartree energ DENC   =      -129.00886909
  -exchange      EXHF   =         0.00000000
  -V(xc)+E(xc)   XCENC  =        16.16665490
  PAW double counting   =       746.10209728     -725.46159323
  entropy T*S    EENTRO =        -0.00038669
  eigenvalues    EBANDS =        52.87882670
  atomic energy  EATOM  =       929.39614979
  Solvation  Ediel_sol  =         0.00000000
  ---------------------------------------------------
  free energy    TOTEN  =        30.45423189 eV

  energy without entropy =       30.45461858  energy(sigma->0) =       30.45436079


--------------------------------------------------------------------------------------------------------




--------------------------------------- Iteration      1(   2)  ---------------------------------------


     EDDAV:  cpu time    0.2338: real time    0.2392
       DOS:  cpu time    0.0013: real time    0.0013
    --------------------------------------------
      LOOP:  cpu time    0.2351: real time    0.2406

 eigenvalue-minimisations  :  3000
 total energy-change (2. order) :-0.3479479E+02  (-0.3247368E+02)
 number of electron      11.0000000 magnetization 
 augmentation part       11.0000000 magnetization 

 Free energy of the ion-electron system (eV)
  ---------------------------------------------------
  alpha Z        PSCENC =       102.85672616
  Ewald energy   TEWEN  =      -962.47537394
  -Hartree energ DENC   =      -129.00886909
  -exchange      EXHF   =         0.00000000
  -V(xc)+E(xc)   XCENC  =        16.16665490
  PAW double counting   =       746.10209728     -725.46159323
  entropy T*S    EENTRO =         0.00017282
  eigenvalues    EBANDS =        18.08348096
  atomic energy  EATOM  =       929.39614979
  Solvation  Ediel_sol  =         0.00000000
  ---------------------------------------------------
  free energy    TOTEN  =        -4.34055434 eV

  energy without entropy =       -4.34072716  energy(sigma->0) =       -4.34061194


--------------------------------------------------------------------------------------------------------




--------------------------------------- Iteration      1(   3)  ---------------------------------------


     EDDAV:  cpu time    0.2175: real time    0.2292
       DOS:  cpu time    0.0015: real time    0.0014
    --------------------------------------------
      LOOP:  cpu time    0.2189: real time    0.2306

 eigenvalue-minimisations  :  3248
 total energy-change (2. order) :-0.3369851E+00  (-0.3367659E+00)
 number of electron      11.0000000 magnetization 
 augmentation part       11.0000000 magnetization 

 Free energy of the ion-electron system (eV)
  ---------------------------------------------------
  alpha Z        PSCENC =       102.85672616
  Ewald energy   TEWEN  =      -962.47537394
  -Hartree energ DENC   =      -129.00886909
  -exchange      EXHF   =         0.00000000
  -V(xc)+E(xc)   XCENC  =        16.16665490
  PAW double counting   =       746.10209728     -725.46159323
  entropy T*S    EENTRO =        -0.00007469
  eigenvalues    EBANDS =        17.74674338
  atomic energy  EATOM  =       929.39614979
  Solvation  Ediel_sol  =         0.00000000
  ---------------------------------------------------
  free energy    TOTEN  =        -4.67753943 eV

  energy without entropy =       -4.67746474  energy(sigma->0) =       -4.67751453


--------------------------------------------------------------------------------------------------------




--------------------------------------- Iteration      1(   4)  ---------------------------------------


     EDDAV:  cpu time    0.2135: real time    0.2185
       DOS:  cpu time    0.0015: real time    0.0015
    --------------------------------------------
      LOOP:  cpu time    0.2150: real time    0.2200

 eigenvalue-minimisations  :  3088
 total energy-change (2. order) :-0.8786486E-03  (-0.8786221E-03)
 number of electron      11.0000000 magnetization 
 augmentation part       11.0000000 magnetization 

 Free energy of the ion-electron system (eV)
  ---------------------------------------------------
  alpha Z        PSCENC =       102.85672616
  Ewald energy   TEWEN  =      -962.47537394
  -Hartree energ DENC   =      -129.00886909
  -exchange      EXHF   =         0.00000000
  -V(xc)+E(xc)   XCENC  =        16.16665490
  PAW double counting   =       746.10209728     -725.46159323
  entropy T*S    EENTRO =        -0.00007499
  eigenvalues    EBANDS =        17.74586503
  atomic energy  EATOM  =       929.39614979
  Solvation  Ediel_sol  =         0.00000000
  ---------------------------------------------------
  free energy    TOTEN  =        -4.67841807 eV

  energy without entropy =       -4.67834309  energy(sigma->0) =       -4.67839308


--------------------------------------------------------------------------------------------------------




--------------------------------------- Iteration      1(   5)  ---------------------------------------


     EDDAV:  cpu time    0.2111: real time    0.2160
       DOS:  cpu time    0.0015: real time    0.0015
    CHARGE:  cpu time    0.0040: real time    0.0040
    MIXING:  cpu time    0.0003: real time    0.0003
    --------------------------------------------
      LOOP:  cpu time    0.2169: real time    0.2217

 eigenvalue-minimisations  :  2924
 total energy-change (2. order) :-0.6142929E-05  (-0.6143112E-05)
 number of electron      11.0000033 magnetization 
 augmentation part        3.8263888 magnetization 

 Broyden mixing:
  rms(total) = 0.31463E+00    rms(broyden)= 0.31433E+00
  rms(prec ) = 0.13023E+01
  weight for this iteration     100.00

 Free energy of the ion-electron system (eV)
  ---------------------------------------------------
  alpha Z        PSCENC =       102.85672616
  Ewald energy   TEWEN  =      -962.47537394
  -Hartree energ DENC   =      -129.00886909
  -exchange      EXHF   =         0.00000000
  -V(xc)+E(xc)   XCENC  =        16.16665490
  PAW double counting   =       746.10209728     -725.46159323
  entropy T*S    EENTRO =        -0.00007499
  eigenvalues    EBANDS =        17.74585889
  atomic energy  EATOM  =       929.39614979
  Solvation  Ediel_sol  =         0.00000000
  ---------------------------------------------------
  free energy    TOTEN  =        -4.67842422 eV

  energy without entropy =       -4.67834923  energy(sigma->0) =       -4.67839922


--------------------------------------------------------------------------------------------------------




--------------------------------------- Iteration      1(   6)  ---------------------------------------


    POTLOK:  cpu time    0.0015: real time    0.0016
    SETDIJ:  cpu time    0.0012: real time    0.0012
     EDDAV:  cpu time    0.2326: real time    0.2381
       DOS:  cpu time    0.0015: real time    0.0015
    CHARGE:  cpu time    0.0044: real time    0.0045
    MIXING:  cpu time    0.0004: real time    0.0004
    --------------------------------------------
      LOOP:  cpu time    0.2417: real time    0.2472

 eigenvalue-minimisations  :  3120
 total energy-change (2. order) : 0.3000237E+00  (-0.8778586E-01)
 number of electron      11.0000035 magnetization 
 augmentation part        3.9776208 magnetization 

 Broyden mixing:
  rms(total) = 0.76238E-01    rms(broyden)= 0.76183E-01
  rms(prec ) = 0.29641E+00
  weight for this iteration     100.00

 eigenvalues of (default mixing * dielectric matrix)
  average eigenvalue GAMMA=   1.2033
  1.2033

 Free energy of the ion-electron system (eV)
  ---------------------------------------------------
  alpha Z        PSCENC =       102.85672616
  Ewald energy   TEWEN  =      -962.47537394
  -Hartree energ DENC   =      -120.74027855
  -exchange      EXHF   =         0.00000000
  -V(xc)+E(xc)   XCENC  =        15.74820913
  PAW double counting   =       736.59541876     -717.12231536
  entropy T*S    EENTRO =         0.00087048
  eigenvalues    EBANDS =        11.36219302
  atomic energy  EATOM  =       929.39614979
  Solvation  Ediel_sol  =         0.00000000
  ---------------------------------------------------
  free energy    TOTEN  =        -4.37840053 eV

  energy without entropy =       -4.37927100  energy(sigma->0) =       -4.37869069


--------------------------------------------------------------------------------------------------------




--------------------------------------- Iteration      1(   7)  ---------------------------------------


    POTLOK:  cpu time    0.0014: real time    0.0015
    SETDIJ:  cpu time    0.0011: real time    0.0012
     EDDAV:  cpu time    0.2206: real time    0.2252
       DOS:  cpu time    0.0015: real time    0.0014
    CHARGE:  cpu time    0.0041: real time    0.0042
    MIXING:  cpu time    0.0004: real time    0.0004
    --------------------------------------------
      LOOP:  cpu time    0.2291: real time    0.2338

 eigenvalue-minimisations  :  3188
 total energy-change (2. order) : 0.1991393E-01  (-0.4337222E-02)
 number of electron      11.0000035 magnetization 
 augmentation part        4.0081555 magnetization 

 Broyden mixing:
  rms(total) = 0.29351E-01    rms(broyden)= 0.29338E-01
  rms(prec ) = 0.68281E-01
  weight for this iteration     100.00

 eigenvalues of (default mixing * dielectric matrix)
  average eigenvalue GAMMA=   1.7682
  1.1808  2.3557

 Free energy of the ion-electron system (eV)
  ---------------------------------------------------
  alpha Z        PSCENC =       102.85672616
  Ewald energy   TEWEN  =      -962.47537394
  -Hartree energ DENC   =      -118.48994546
  -exchange      EXHF   =         0.00000000
  -V(xc)+E(xc)   XCENC  =        15.62962243
  PAW double counting   =       738.53092977     -719.77138748
  entropy T*S    EENTRO =         0.00083704
  eigenvalues    EBANDS =         9.96395510
  atomic energy  EATOM  =       929.39614979
  Solvation  Ediel_sol  =         0.00000000
  ---------------------------------------------------
  free energy    TOTEN  =        -4.35848660 eV

  energy without entropy =       -4.35932363  energy(sigma->0) =       -4.35876561


--------------------------------------------------------------------------------------------------------




--------------------------------------- Iteration      1(   8)  ---------------------------------------


    POTLOK:  cpu time    0.0015: real time    0.0016
    SETDIJ:  cpu time    0.0014: real time    0.0014
     EDDAV:  cpu time    0.2194: real time    0.2241
       DOS:  cpu time    0.0014: real time    0.0014
    CHARGE:  cpu time    0.0040: real time    0.0040
    MIXING:  cpu time    0.0004: real time    0.0004
    --------------------------------------------
      LOOP:  cpu time    0.2281: real time    0.2330

 eigenvalue-minimisations  :  2972
 total energy-change (2. order) : 0.4370798E-02  (-0.1709114E-03)
 number of electron      11.0000035 magnetization 
 augmentation part        4.0072414 magnetization 

 Broyden mixing:
  rms(total) = 0.11769E-02    rms(broyden)= 0.11705E-02
  rms(prec ) = 0.31016E-02
  weight for this iteration     100.00

 eigenvalues of (default mixing * dielectric matrix)
  average eigenvalue GAMMA=   1.6648
  1.1979  1.3302  2.4663

 Free energy of the ion-electron system (eV)
  ---------------------------------------------------
  alpha Z        PSCENC =       102.85672616
  Ewald energy   TEWEN  =      -962.47537394
  -Hartree energ DENC   =      -117.78188920
  -exchange      EXHF   =         0.00000000
  -V(xc)+E(xc)   XCENC  =        15.58739460
  PAW double counting   =       744.37371661     -726.21700380
  entropy T*S    EENTRO =         0.00083985
  eigenvalues    EBANDS =         9.90532415
  atomic energy  EATOM  =       929.39614979
  Solvation  Ediel_sol  =         0.00000000
  ---------------------------------------------------
  free energy    TOTEN  =        -4.35411580 eV

  energy without entropy =       -4.35495565  energy(sigma->0) =       -4.35439575


--------------------------------------------------------------------------------------------------------




--------------------------------------- Iteration      1(   9)  ---------------------------------------


    POTLOK:  cpu time    0.0020: real time    0.0017
    SETDIJ:  cpu time    0.0009: real time    0.0013
     EDDAV:  cpu time    0.1692: real time    0.1745
       DOS:  cpu time    0.0014: real time    0.0014
    --------------------------------------------
      LOOP:  cpu time    0.1735: real time    0.1788

 eigenvalue-minimisations  :  1744
 total energy-change (2. order) : 0.7589565E-06  (-0.1115987E-05)
 number of electron      11.0000035 magnetization 
 augmentation part        4.0072414 magnetization 

 Free energy of the ion-electron system (eV)
  ---------------------------------------------------
  alpha Z        PSCENC =       102.85672616
  Ewald energy   TEWEN  =      -962.47537394
  -Hartree energ DENC   =      -117.75186379
  -exchange      EXHF   =         0.00000000
  -V(xc)+E(xc)   XCENC  =        15.58567782
  PAW double counting   =       744.97316837     -726.82586928
  entropy T*S    EENTRO =         0.00083993
  eigenvalues    EBANDS =         9.88642990
  atomic energy  EATOM  =       929.39614979
  Solvation  Ediel_sol  =         0.00000000
  ---------------------------------------------------
  free energy    TOTEN  =        -4.35411504 eV

  energy without entropy =       -4.35495498  energy(sigma->0) =       -4.35439502


--------------------------------------------------------------------------------------------------------




 average (electrostatic) potential at core
  the test charge radii are     1.2098
  (the norm of the test charge is              1.0000)
       1 -46.2806
 
 
 
 E-fermi :   4.8675     XC(G=0): -12.7115     alpha+bet : -9.8152


 k-point     1 :       0.0500    0.0500    0.0500
  band No.  band energies     occupation 
      1      -4.4159      2.00000
      2       0.4489      2.00000
      3       0.5054      2.00000
      4       0.5054      2.00000
      5       1.8864      2.00000
      6       1.8864      2.00000
      7      20.3374      0.00000
      8      23.1259      0.00000
      9      23.8777      0.00000
     10      23.8777      0.00000
     11      28.5946      0.00000
     12      31.2147      0.00000

 k-point     2 :       0.1500    0.0500    0.0500
  band No.  band energies     occupation 
      1      -3.9808      2.00000
      2       0.3103      2.00000
      3       0.6330      2.00000
      4       0.6614      2.00000
      5       1.7455      2.00000
      6       1.9304      2.00000
      7      20.4975      0.00000
      8      21.2393      0.00000
      9      23.4285      0.00000
     10      24.7452      0.00000
     11      27.8182      0.00000
     12      30.4118      0.00000

 k-point     3 :       0.2500    0.0500    0.0500
  band No.  band energies     occupation 
      1      -3.0338      2.00000
      2       0.2101      2.00000
      3       0.7738      2.00000
      4       0.7922      2.00000
      5       1.7575      2.00000
      6       2.1277      2.00000
      7      17.2155      0.00000
      8      21.1075      0.00000
      9      23.4710      0.00000
     10      25.7782      0.00000
     11      26.0509      0.00000
     12      28.2580      0.00000

 k-point     4 :       0.3500    0.0500    0.0500
  band No.  band energies     occupation 
      1      -2.1721      2.00000
      2       0.6110      2.00000
      3       0.6875      2.00000
      4       0.8522      2.00000
      5       2.2073      2.00000
      6       2.6538      2.00000
      7      13.2235      0.00000
      8      20.4794      0.00000
      9      22.4862      0.00000
     10      24.5631      0.00000
     11      27.1831      0.00000
     12      28.1570      0.00000

 k-point     5 :       0.4500    0.0500    0.0500
  band No.  band energies     occupation 
      1      -1.9472      2.00000
      2       0.4705      2.00000
      3       0.5343      2.00000
      4       2.2719      2.00000
      5       2.7500      2.00000
      6       3.5357      2.00000
      7       9.5048     -0.00000
      8      19.7898      0.00000
      9      21.6183      0.00000
     10      22.6951      0.00000
     11      28.7673      0.00000
     12      28.9580      0.00000

 k-point     6 :      -0.4500    0.0500    0.0500
  band No.  band energies     occupation 
      1      -1.9383      2.00000
      2       0.4102      2.00000
      3       0.4982      2.00000
      4       2.6153      2.00000
      5       3.0114      2.00000
      6       4.4977      2.02522
      7       7.8301     -0.00000
      8      19.6043      0.00000
      9      21.6825      0.00000
     10      21.8110      0.00000
     11      29.1810      0.00000
     12      29.2475      0.00000

 k-point     7 :      -0.3500    0.0500    0.0500
  band No.  band energies     occupation 
      1      -1.9756      2.00000
      2       0.4986      2.00000
      3       0.5990      2.00000
      4       1.7470      2.00000
      5       2.8223      2.00000
      6       2.9871      2.00000
      7      10.6638      0.00000
      8      20.0226      0.00000
      9      22.0506      0.00000
     10      22.8444      0.00000
     11      28.7044      0.00000
     12      28.9164      0.00000

 k-point     8 :      -0.2500    0.0500    0.0500
  band No.  band energies     occupation 
      1      -2.3921      2.00000
      2       0.4505      2.00000
      3       0.7064      2.00000
      4       0.7567      2.00000
      5       2.1281      2.00000
      6       2.3666      2.00000
      7      14.5539      0.00000
      8      20.8610      0.00000
      9      22.9230      0.00000
     10      24.6966      0.00000
     11      26.8386      0.00000
     12      28.6637      0.00000

 k-point     9 :      -0.1500    0.0500    0.0500
  band No.  band energies     occupation 
      1      -3.3830      2.00000
      2       0.1972      2.00000
      3       0.7657      2.00000
      4       0.7760      2.00000
      5       1.7176      2.00000
      6       2.0117      2.00000
      7      18.5086      0.00000
      8      21.2611      0.00000
      9      23.4730      0.00000
     10      25.1383      0.00000
     11      26.5671      0.00000
     12      29.2347      0.00000

 k-point    10 :      -0.0500    0.0500    0.0500
  band No.  band energies     occupation 
      1      -4.1947      2.00000
      2       0.3509      2.00000
      3       0.5923      2.00000
      4       0.5963      2.00000
      5       1.7688      2.00000
      6       1.9388      2.00000
      7      20.5335      0.00000
      8      22.2164      0.00000
      9      23.5590      0.00000
     10      23.9699      0.00000
     11      28.9890      0.00000
     12      30.5261      0.00000

 k-point    11 :       0.1500    0.1500    0.0500
  band No.  band energies     occupation 
      1      -3.7646      2.00000
      2       0.1548      2.00000
      3       0.7762      2.00000
      4       0.7792      2.00000
      5       1.5717      2.00000
      6       2.0373      2.00000
      7      20.7779      0.00000
      8      21.3944      0.00000
      9      22.8089      0.00000
     10      23.5237      0.00000
     11      27.9910      0.00000
     12      29.9560      0.00000

 k-point    12 :       0.2500    0.1500    0.0500
  band No.  band energies     occupation 
      1      -2.9788      2.00000
      2      -0.0686      2.00000
      3       0.8701      2.00000
      4       1.0362      2.00000
      5       1.5280      2.00000
      6       2.2409      2.00000
      7      18.7482      0.00000
      8      20.5673      0.00000
      9      22.5827      0.00000
     10      23.7957      0.00000
     11      25.9613      0.00000
     12      29.1738      0.00000

 k-point    13 :       0.3500    0.1500    0.0500
  band No.  band energies     occupation 
      1      -2.0041      2.00000
      2       0.0161      2.00000
      3       0.5970      2.00000
      4       1.0454      2.00000
      5       2.1371      2.00000
      6       2.7786      2.00000
      7      14.7793      0.00000
      8      19.9932      0.00000
      9      21.5437      0.00000
     10      23.4299      0.00000
     11      27.0180      0.00000
     12      28.9154      0.00000

 k-point    14 :       0.4500    0.1500    0.0500
  band No.  band energies     occupation 
      1      -1.6206      2.00000
      2       0.3226      2.00000
      3       0.8220      2.00000
      4       0.9725      2.00000
      5       2.8119      2.00000
      6       3.9208      2.00000
      7      10.8747      0.00000
      8      19.6052      0.00000
      9      20.2177      0.00000
     10      22.2015      0.00000
     11      28.8809      0.00000
     12      29.8802      0.00000

 k-point    15 :      -0.4500    0.1500    0.0500
  band No.  band energies     occupation 
      1      -1.5940      2.00000
      2       0.2052      2.00000
      3       0.7743      2.00000
      4       1.6715      2.00000
      5       2.9674      2.00000
      6       5.8197     -0.00000
      7       7.8368     -0.00000
      8      19.1888      0.00000
      9      19.8234      0.00000
     10      21.5656      0.00000
     11      29.2120      0.00000
     12      30.3131      0.00000

 k-point    16 :      -0.3500    0.1500    0.0500
  band No.  band energies     occupation 
      1      -1.5821      2.00000
      2       0.2777      2.00000
      3       0.7971      2.00000
      4       1.3717      2.00000
      5       2.6810      2.00000
      6       4.6036      2.06848
      7       9.7520     -0.00000
      8      18.7600      0.00000
      9      20.4340      0.00000
     10      22.3850      0.00000
     11      28.5018      0.00000
     12      29.9253      0.00000

 k-point    17 :      -0.2500    0.1500    0.0500
  band No.  band energies     occupation 
      1      -1.7689      2.00000
      2       0.2763      2.00000
      3       0.5604      2.00000
      4       0.9691      2.00000
      5       2.0511      2.00000
      6       3.2828      2.00000
      7      13.4688      0.00000
      8      18.9617      0.00000
      9      21.5460      0.00000
     10      24.2548      0.00000
     11      26.8025      0.00000
     12      29.0537      0.00000

 k-point    18 :      -0.1500    0.1500    0.0500
  band No.  band energies     occupation 
      1      -2.6374      2.00000
      2      -0.0276      2.00000
      3       0.7755      2.00000
      4       1.0570      2.00000
      5       1.5210      2.00000
      6       2.4844      2.00000
      7      17.3534      0.00000
      8      19.5788      0.00000
      9      23.1854      0.00000
     10      24.1637      0.00000
     11      27.1495      0.00000
     12      27.9349      0.00000

 k-point    19 :      -0.0500    0.1500    0.0500
  band No.  band energies     occupation 
      1      -3.5650      2.00000
      2       0.1604      2.00000
      3       0.7802      2.00000
      4       0.7883      2.00000
      5       1.6079      2.00000
      6       2.0475      2.00000
      7      19.7783      0.00000
      8      20.9176      0.00000
      9      22.9973      0.00000
     10      24.7996      0.00000
     11      26.9199      0.00000
     12      29.7706      0.00000

 k-point    20 :       0.2500    0.2500    0.0500
  band No.  band energies     occupation 
      1      -2.4508      2.00000
      2      -0.3960      2.00000
      3       1.0150      2.00000
      4       1.3866      2.00000
      5       1.5670      2.00000
      6       2.3506      2.00000
      7      19.1590      0.00000
      8      20.2359      0.00000
      9      21.5477      0.00000
     10      22.3461      0.00000
     11      23.0445      0.00000
     12      30.7716      0.00000

 k-point    21 :       0.3500    0.2500    0.0500
  band No.  band energies     occupation 
      1      -1.6775      2.00000
      2      -0.6016      2.00000
      3       0.7812      2.00000
      4       1.7085      2.00000
      5       2.1767      2.00000
      6       2.7990      2.00000
      7      16.4632      0.00000
      8      18.3871      0.00000
      9      20.0188      0.00000
     10      22.6234      0.00000
     11      24.0113      0.00000
     12      30.7861      0.00000

 k-point    22 :       0.4500    0.2500    0.0500
  band No.  band energies     occupation 
      1      -1.2224      2.00000
      2      -0.3553      2.00000
      3       0.5560      2.00000
      4       1.5882      2.00000
      5       2.8902      2.00000
      6       4.1741      2.00001
      7      12.5054      0.00000
      8      17.6922      0.00000
      9      18.3314      0.00000
     10      22.3238      0.00000
     11      27.1158      0.00000
     12      30.6341      0.00000

 k-point    23 :      -0.4500    0.2500    0.0500
  band No.  band energies     occupation 
      1      -1.1099      2.00000
      2      -0.1085      2.00000
      3       0.7531      2.00000
      4       1.4060      2.00000
      5       2.9996      2.00000
      6       6.5315     -0.00000
      7       9.0311     -0.00000
      8      16.4250      0.00000
      9      18.3967      0.00000
     10      22.0051      0.00000
     11      29.7224      0.00000
     12      31.0842      0.00000

 k-point    24 :      -0.3500    0.2500    0.0500
  band No.  band energies     occupation 
      1      -0.9539      2.00000
      2      -0.0502      2.00000
      3       0.7812      2.00000
      4       1.3106      2.00000
      5       2.6411      2.00000
      6       6.3750     -0.00000
      7       9.5169     -0.00000
      8      15.3808      0.00000
      9      19.5676      0.00000
     10      22.1889      0.00000
     11      28.9645      0.00000
     12      31.2551      0.00000

 k-point    25 :      -0.2500    0.2500    0.0500
  band No.  band energies     occupation 
      1      -0.8861      2.00000
      2       0.0101      2.00000
      3       0.2610      2.00000
      4       1.3857      2.00000
      5       2.0123      2.00000
      6       4.6183      2.07078
      7      12.8162      0.00000
      8      15.2846      0.00000
      9      20.8986      0.00000
     10      23.4456      0.00000
     11      26.9515      0.00000
     12      31.0114      0.00000

 k-point    26 :      -0.1500    0.2500    0.0500
  band No.  band energies     occupation 
      1      -1.6302      2.00000
      2      -0.0972      2.00000
      3       0.5330      2.00000
      4       1.2705      2.00000
      5       1.6499      2.00000
      6       3.3640      2.00000
      7      14.9036      0.00000
      8      17.4700      0.00000
      9      21.9895      0.00000
     10      24.8970      0.00000
     11      25.7658      0.00000
     12      29.5344      0.00000

 k-point    27 :      -0.0500    0.2500    0.0500
  band No.  band energies     occupation 
      1      -2.5523      2.00000
      2       0.1414      2.00000
      3       0.7499      2.00000
      4       0.8816      2.00000
      5       1.8190      2.00000
      6       2.4151      2.00000
      7      15.9755      0.00000
      8      20.7094      0.00000
      9      22.5893      0.00000
     10      24.9954      0.00000
     11      26.5186      0.00000
     12      28.1603      0.00000

 k-point    28 :       0.3500    0.3500    0.0500
  band No.  band energies     occupation 
      1      -1.5244      2.00000
      2      -0.9505      2.00000
      3       1.6139      2.00000
      4       2.1936      2.00000
      5       2.6118      2.00000
      6       2.7298      2.00000
      7      16.3672      0.00000
      8      17.4649      0.00000
      9      17.6004      0.00000
     10      21.5235      0.00000
     11      23.4110      0.00000
     12      33.1953      0.00000

 k-point    29 :       0.4500    0.3500    0.0500
  band No.  band energies     occupation 
      1      -1.3747      2.00000
      2      -1.0508      2.00000
      3       1.6504      2.00000
      4       2.4703      2.00000
      5       2.9046      2.00000
      6       4.2495      2.00011
      7      13.6243      0.00000
      8      15.7744      0.00000
      9      16.4109      0.00000
     10      22.4879      0.00000
     11      24.3475      0.00000
     12      32.7175      0.00000

 k-point    30 :      -0.4500    0.3500    0.0500
  band No.  band energies     occupation 
      1      -1.2168      2.00000
      2      -0.7555      2.00000
      3       1.3211      2.00000
      4       2.1922      2.00000
      5       3.0872      2.00000
      6       6.7531     -0.00000
      7      10.5656      0.00000
      8      14.0119      0.00000
      9      16.5412      0.00000
     10      22.7234      0.00000
     11      27.0109      0.00000
     12      31.7137      0.00000

 k-point    31 :      -0.3500    0.3500    0.0500
  band No.  band energies     occupation 
      1      -0.9489      2.00000
      2      -0.2798      2.00000
      3       0.8170      2.00000
      4       1.8908      2.00000
      5       2.7974      2.00000
      6       7.9080     -0.00000
      7      10.0144     -0.00000
      8      12.3782      0.00000
      9      17.7959      0.00000
     10      22.5655      0.00000
     11      30.2484      0.00000
     12      30.5877      0.00000

 k-point    32 :      -0.2500    0.3500    0.0500
  band No.  band energies     occupation 
      1      -0.6944      2.00000
      2      -0.0056      2.00000
      3       0.3623      2.00000
      4       1.5627      2.00000
      5       2.4212      2.00000
      6       6.1913     -0.00000
      7      11.3234      0.00000
      8      13.3729      0.00000
      9      19.5349      0.00000
     10      22.5260      0.00000
     11      28.7419      0.00000
     12      31.5399      0.00000

 k-point    33 :      -0.1500    0.3500    0.0500
  band No.  band energies     occupation 
      1      -1.2477      2.00000
      2       0.1875      2.00000
[...]
      1      -0.9460      2.00000
      2      -0.4452      2.00000
      3       0.7516      2.00000
      4       1.9644      2.00000
      5       3.0087      2.00000
      6       7.4880     -0.00000
      7       9.8490     -0.00000
      8      13.9590      0.00000
      9      16.3527      0.00000
     10      23.6423      0.00000
     11      28.4790      0.00000
     12      30.4268      0.00000

 k-point    94 :       0.4500    0.4500    0.2500
  band No.  band energies     occupation 
      1      -1.3065      2.00000
      2      -0.0335      2.00000
      3       0.5795      2.00000
      4       1.2876      2.00000
      5       3.0469      2.00000
      6       4.5361      2.04088
      7      11.1017      0.00000
      8      18.2663      0.00000
      9      19.0497      0.00000
     10      21.4719      0.00000
     11      29.0117      0.00000
     12      30.7448      0.00000

 k-point    95 :      -0.4500    0.4500    0.2500
  band No.  band energies     occupation 
      1      -0.9515      2.00000
      2      -0.2842      2.00000
      3       0.5033      2.00000
      4       1.7580      2.00000
      5       2.9232      2.00000
      6       6.0907     -0.00000
      7      10.4778      0.00000
      8      15.7158      0.00000
      9      17.0993      0.00000
     10      23.3178      0.00000
     11      28.2473      0.00000
     12      30.5065      0.00000

 k-point    96 :      -0.3500    0.4500    0.2500
  band No.  band energies     occupation 
      1      -0.5849      2.00000
      2      -0.2351      2.00000
      3       0.1875      2.00000
      4       1.8629      2.00000
      5       3.0496      2.00000
      6       7.8336     -0.00000
      7      10.8370      0.00000
      8      12.6548      0.00000
      9      15.3970      0.00000
     10      25.9106      0.00000
     11      27.5284      0.00000
     12      30.5856      0.00000

 k-point    97 :      -0.2500    0.4500    0.2500
  band No.  band energies     occupation 
      1      -0.6985      2.00000
      2      -0.2286      2.00000
      3       0.3345      2.00000
      4       1.8203      2.00000
      5       3.2461      2.00000
      6       9.0157     -0.00000
      7      10.5479      0.00000
      8      11.8413      0.00000
      9      14.4420      0.00000
     10      26.6346      0.00000
     11      28.1231      0.00000
     12      29.3811      0.00000

 k-point    98 :      -0.4500   -0.4500    0.2500
  band No.  band energies     occupation 
      1      -1.1432      2.00000
      2      -0.4756      2.00000
      3       1.0837      2.00000
      4       1.8982      2.00000
      5       3.0218      2.00000
      6       7.3582     -0.00000
      7       9.4896     -0.00000
      8      14.0890      0.00000
      9      17.6584      0.00000
     10      22.0452      0.00000
     11      28.6822      0.00000
     12      31.7901      0.00000

 k-point    99 :      -0.3500   -0.4500    0.2500
  band No.  band energies     occupation 
      1      -0.9795      2.00000
      2      -0.5143      2.00000
      3       0.9429      2.00000
      4       2.0374      2.00000
      5       3.0596      2.00000
      6       8.6513     -0.00000
      7       9.6623     -0.00000
      8      12.3791      0.00000
      9      16.0426      0.00000
     10      23.8617      0.00000
     11      28.6744      0.00000
     12      30.3104      0.00000

 k-point   100 :      -0.3500   -0.3500    0.2500
  band No.  band energies     occupation 
      1      -1.1571      2.00000
      2      -0.5618      2.00000
      3       1.2676      2.00000
      4       2.1334      2.00000
      5       2.9137      2.00000
      6       8.4972     -0.00000
      7       9.3418     -0.00000
      8      12.4127      0.00000
      9      17.3783      0.00000
     10      22.2393      0.00000
     11      28.6196      0.00000
     12      32.0009      0.00000

 k-point   101 :       0.3500    0.3500    0.3500
  band No.  band energies     occupation 
      1      -2.1089      2.00000
      2       0.5951      2.00000
      3       0.5951      2.00000
      4       1.4681      2.00000
      5       2.5506      2.00000
      6       2.5506      2.00000
      7      11.8791      0.00000
      8      20.2423      0.00000
      9      23.2436      0.00000
     10      23.2436      0.00000
     11      28.4398      0.00000
     12      28.4671      0.00000

 k-point   102 :       0.4500    0.3500    0.3500
  band No.  band energies     occupation 
      1      -1.7769      2.00000
      2       0.4305      2.00000
      3       0.6985      2.00000
      4       1.3829      2.00000
      5       2.4537      2.00000
      6       3.7432      2.00000
      7      10.8052      0.00000
      8      19.4388      0.00000
      9      21.0231      0.00000
     10      23.2555      0.00000
     11      27.9529      0.00000
     12      29.1685      0.00000

 k-point   103 :      -0.4500    0.3500    0.3500
  band No.  band energies     occupation 
      1      -1.1097      2.00000
      2       0.0953      2.00000
      3       0.8613      2.00000
      4       1.1198      2.00000
      5       2.4329      2.00000
      6       5.4044     -0.00098
      7      10.3135     -0.00000
      8      16.1223      0.00000
      9      21.2325      0.00000
     10      21.5417      0.00000
     11      28.5159      0.00000
     12      30.4611      0.00000

 k-point   104 :      -0.3500    0.3500    0.3500
  band No.  band energies     occupation 
      1      -0.8526      2.00000
      2      -0.0551      2.00000
      3       0.6077      2.00000
      4       1.6916      2.00000
      5       2.5669      2.00000
      6       6.9946     -0.00000
      7      10.6720      0.00000
      8      12.7005      0.00000
      9      19.3204      0.00000
     10      21.7955      0.00000
     11      30.2555      0.00000
     12      31.2702      0.00000

 k-point   105 :       0.4500    0.4500    0.3500
  band No.  band energies     occupation 
      1      -1.7709      2.00000
      2       0.3503      2.00000
      3       0.6994      2.00000
      4       1.5640      2.00000
      5       2.9932      2.00000
      6       4.0837      2.00000
      7       9.5819     -0.00000
      8      19.8496      0.00000
      9      21.0638      0.00000
     10      21.5183      0.00000
     11      29.4477      0.00000
     12      29.6285      0.00000

 k-point   106 :      -0.4500    0.4500    0.3500
  band No.  band energies     occupation 
      1      -1.3305      2.00000
      2       0.0778      2.00000
      3       0.9739      2.00000
      4       1.1847      2.00000
      5       2.8645      2.00000
      6       5.7844     -0.00000
      7       8.8396     -0.00000
      8      18.0665      0.00000
      9      19.0753      0.00000
     10      22.2622      0.00000
     11      28.7672      0.00000
     12      31.0712      0.00000

 k-point   107 :      -0.3500    0.4500    0.3500
  band No.  band energies     occupation 
      1      -0.7722      2.00000
      2      -0.2272      2.00000
      3       0.6080      2.00000
      4       1.5484      2.00000
      5       2.8270      2.00000
      6       7.5280     -0.00000
      7       8.9132     -0.00000
      8      14.7436      0.00000
      9      17.6618      0.00000
     10      23.2882      0.00000
     11      28.8107      0.00000
     12      32.5113      0.00000

 k-point   108 :      -0.4500   -0.4500    0.3500
  band No.  band energies     occupation 
      1      -1.2217      2.00000
      2       0.0033      2.00000
      3       1.0404      2.00000
      4       1.1497      2.00000
      5       2.9527      2.00000
      6       7.0161     -0.00000
      7       7.8874     -0.00000
      8      16.8610      0.00000
      9      19.7900      0.00000
     10      21.1392      0.00000
     11      30.2913      0.00000
     12      30.5539      0.00000

 k-point   109 :       0.4500    0.4500    0.4500
  band No.  band energies     occupation 
      1      -2.0027      2.00000
      2       0.4661      2.00000
      3       0.4661      2.00000
      4       2.9451      2.00000
      5       2.9451      2.00000
      6       3.5588      2.00000
      7       8.4752     -0.00000
      8      19.6329      0.00000
      9      22.1845      0.00000
     10      22.1845      0.00000
     11      28.9828      0.00000
     12      28.9828      0.00000

 k-point   110 :      -0.4500    0.4500    0.4500
  band No.  band energies     occupation 
      1      -1.7585      2.00000
      2       0.3115      2.00000
      3       0.6279      2.00000
      4       2.0726      2.00000
      5       2.9284      2.00000
      6       5.2734     -0.01454
      7       7.8435     -0.00000
      8      19.4175      0.00000
      9      20.7155      0.00000
     10      21.6023      0.00000
     11      29.3586      0.00000
     12      29.5112      0.00000


--------------------------------------------------------------------------------------------------------


 soft charge-density along one line, spin component           1
         0         1         2         3         4         5         6         7         8         9
 total charge-density along one line
 
 pseudopotential strength for first ion, spin component:           1
-10.008   0.000  -0.000   0.000   0.000   0.000  -0.000   0.000  -0.000   0.000  -0.066   0.000   0.000   0.000  -0.000   0.000
 -0.000   0.000 -10.008   0.000  -0.000   0.000  -0.000   0.000   0.000   0.000   0.000   0.000  -0.066   0.000   0.000   0.000
  0.000   0.000  -0.000   0.000  -9.991   0.000  -0.000   0.000  -0.000   0.000  -0.000   0.000   0.000   0.000  -0.068   0.000
 -0.000   0.000  -0.000   0.000  -0.000   0.000 -10.008   0.000  -0.000   0.000   0.000   0.000   0.000   0.000   0.000   0.000
 -0.000   0.000   0.000   0.000  -0.000   0.000  -0.000   0.000  -9.991   0.000   0.000   0.000  -0.000   0.000   0.000   0.000
 -0.066   0.000   0.000   0.000  -0.000   0.000   0.000   0.000   0.000   0.000   0.279   0.000  -0.000   0.000   0.000   0.000
  0.000   0.000  -0.066   0.000   0.000   0.000   0.000   0.000  -0.000   0.000  -0.000   0.000   0.279   0.000  -0.000   0.000
 -0.000   0.000   0.000   0.000  -0.068   0.000   0.000   0.000   0.000   0.000   0.000   0.000  -0.000   0.000   0.280   0.000
  0.000   0.000   0.000   0.000   0.000   0.000  -0.066   0.000   0.000   0.000  -0.000   0.000  -0.000   0.000  -0.000   0.000
  0.000   0.000  -0.000   0.000   0.000   0.000   0.000   0.000  -0.068   0.000  -0.000   0.000   0.000   0.000   0.000   0.000
  0.000   0.000   0.000   0.000   0.000   0.000   0.000   0.000   0.000   0.000   0.000   0.000   0.000   0.000  -0.000   0.000
 -0.000   0.000  -0.000   0.000  -0.000   0.000  -0.000   0.000  -0.000   0.000   0.000   0.000   0.000   0.000   0.000   0.000
  0.000   0.000   0.000   0.000  -0.000   0.000   0.000   0.000  -0.000   0.000  -0.000   0.000  -0.000   0.000   0.000   0.000
  0.000   0.000   0.000   0.000   0.000   0.000   0.000   0.000   0.000   0.000  -0.000   0.000  -0.000   0.000  -0.000   0.000
  0.000   0.000   0.000   0.000  -0.000   0.000   0.000   0.000   0.000   0.000  -0.000   0.000  -0.000   0.000   0.000   0.000
 -0.000   0.000  -0.000   0.000   0.000   0.000  -0.000   0.000   0.000   0.000   0.000   0.000   0.000   0.000  -0.000   0.000
 -0.000   0.000  -0.000   0.000  -0.000   0.000  -0.000   0.000  -0.000   0.000   0.000   0.000   0.000   0.000   0.000   0.000
 -0.000   0.000  -0.000   0.000   0.000   0.000  -0.000   0.000  -0.000   0.000   0.000   0.000   0.000   0.000  -0.000   0.000
 total augmentation occupancy for first ion, spin component:           1
  1.903  -0.000  -0.000  -0.000   0.000  -0.049  -0.000   0.000   0.000  -0.000   0.000   0.000   0.000   0.000   0.000   0.000
 -0.000   1.903  -0.000   0.000  -0.000   0.000  -0.049   0.000  -0.000   0.000  -0.000   0.000   0.000   0.000   0.000   0.000
  0.000   0.000   1.950   0.000   0.000   0.000   0.000  -0.093   0.000  -0.000   0.000   0.000   0.000   0.000   0.000   0.000
  0.000  -0.000   0.000   1.903   0.000  -0.000   0.000   0.000  -0.049   0.000  -0.000   0.000   0.000   0.000   0.000   0.000
  0.000   0.000   0.000   0.000   1.950   0.000   0.000   0.000  -0.000  -0.093   0.000  -0.000   0.000   0.000   0.000   0.000
 -0.049   0.000   0.000  -0.000  -0.000   0.177  -0.000  -0.000   0.000  -0.000   0.000   0.000   0.000   0.000   0.000   0.000
 -0.000  -0.049  -0.000   0.000  -0.000  -0.000   0.177   0.000  -0.000   0.000  -0.000   0.000   0.000   0.000   0.000   0.000
  0.000   0.000  -0.093  -0.000   0.000  -0.000   0.000   0.142  -0.000   0.000  -0.000   0.000   0.000   0.000   0.000   0.000
  0.000   0.000  -0.000  -0.049  -0.000   0.000  -0.000   0.000   0.177  -0.000  -0.000   0.000   0.000   0.000   0.000   0.000
  0.000   0.000   0.000  -0.000  -0.093  -0.000  -0.000   0.000  -0.000   0.142   0.000   0.000   0.000   0.000   0.000   0.000
  0.000   0.000   0.000   0.000   0.000   0.000   0.000  -0.000   0.000   0.000   1.053  -0.353   0.000   0.000   0.000   0.000
  0.000   0.000   0.000   0.000   0.000   0.000   0.000   0.000   0.000   0.000  -0.353   0.222   0.000   0.000   0.000   0.000
  0.000   0.000   0.000   0.000   0.000   0.000   0.000   0.000   0.000   0.000   0.000   0.000   0.149  -0.000   0.000  -0.011
  0.000   0.000   0.000   0.000   0.000   0.000   0.000   0.000   0.000   0.000   0.000   0.000   0.000   0.149   0.000   0.000
  0.000   0.000   0.000   0.000   0.000   0.000   0.000   0.000   0.000   0.000   0.000   0.000  -0.000   0.000   0.149   0.000
  0.000   0.000   0.000   0.000   0.000   0.000   0.000   0.000   0.000   0.000   0.000   0.000  -0.011   0.000  -0.000   0.001
  0.000   0.000   0.000   0.000   0.000   0.000   0.000   0.000   0.000   0.000   0.000   0.000   0.000  -0.011  -0.000   0.000
  0.000   0.000   0.000   0.000   0.000   0.000   0.000   0.000   0.000   0.000   0.000   0.000   0.000  -0.000  -0.011   0.000


------------------------ aborting loop because EDIFF is reached ----------------------------------------


    CHARGE:  cpu time    0.0040: real time    0.0040
    FORLOC:  cpu time    0.0003: real time    0.0002
    FORNL :  cpu time    0.0090: real time    0.0090
    STRESS:  cpu time    0.0569: real time    0.0571
    FORCOR:  cpu time    0.0010: real time    0.0010
    FORHAR:  cpu time    0.0007: real time    0.0007
    MIXING:  cpu time    0.0002: real time    0.0003
    OFIELD:  cpu time    0.0000: real time    0.0000

  FORCE on cell =-STRESS in cart. coord.  units (eV):
  Direction    XX          YY          ZZ          XY          YZ          ZX
  --------------------------------------------------------------------------------------
  Alpha Z   102.85673   102.85673   102.85673
  Ewald    -320.82514  -320.82514  -320.82514    -0.00000    -0.00000     0.00000
  Hartree    39.25621    39.25621    39.25621    -0.00000    -0.00000    -0.00000
  E(xc)     -48.83272   -48.83272   -48.83272     0.00001     0.00001     0.00001
  Local      80.19836    80.19836    80.19836     0.00020     0.00020     0.00020
  n-local   -50.39390   -47.63926   -51.41666     0.59552    -0.69008     0.00501
  augment    42.55035    42.55035    42.55035    -0.00003    -0.00003    -0.00003
  Kinetic   153.13019   151.94763   154.09218    -0.47668     0.26562     0.00598
  Fock        0.00000     0.00000     0.00000     0.00000     0.00000     0.00000
  -------------------------------------------------------------------------------------
  Total      -1.55615    -1.55615    -1.55615     0.00000     0.00000     0.00000
  in kB    -139.53287  -139.53287  -139.53287     0.00000     0.00000     0.00000
  external pressure =     -139.53 kB  Pullay stress =        0.00 kB


 VOLUME and BASIS-vectors are now :
 -----------------------------------------------------------------------------
  energy-cutoff  :      229.87
  volume of cell :       17.87
      direct lattice vectors                 reciprocal lattice vectors
     0.000000000  2.075000000  2.075000000    -0.240963855  0.240963855  0.240963855
     2.075000000  0.000000000  2.075000000     0.240963855 -0.240963855  0.240963855
     2.075000000  2.075000000  0.000000000     0.240963855  0.240963855 -0.240963855

  length of vectors
     2.934493142  2.934493142  2.934493142     0.417361640  0.417361640  0.417361640


 FORCES acting on ions
    electron-ion (+dipol)            ewald-force                    non-local-force                 convergence-correction
 -----------------------------------------------------------------------------------------------
   -.494E-14 0.314E-14 0.796E-15   -.738E-15 0.128E-14 -.907E-15   -.265E-22 0.000E+00 -.265E-22   0.221E-14 -.476E-14 -.474E-14
 -----------------------------------------------------------------------------------------------
   -.494E-14 0.314E-14 0.796E-15   -.738E-15 0.128E-14 -.907E-15   -.265E-22 0.000E+00 -.265E-22   0.221E-14 -.476E-14 -.474E-14
 
 
 POSITION                                       TOTAL-FORCE (eV/Angst)
 -----------------------------------------------------------------------------------
      0.00000      0.00000      0.00000         0.000000     -0.000000     -0.000000
 -----------------------------------------------------------------------------------
    total drift:                               -0.000000     -0.000000     -0.000000


--------------------------------------------------------------------------------------------------------



  FREE ENERGIE OF THE ION-ELECTRON SYSTEM (eV)
  ---------------------------------------------------
  free  energy   TOTEN  =        -4.35411504 eV

  energy  without entropy=       -4.35495498  energy(sigma->0) =       -4.35439502
 


--------------------------------------------------------------------------------------------------------


    POTLOK:  cpu time    0.0030: real time    0.0030


--------------------------------------------------------------------------------------------------------


 writing wavefunctions
     LOOP+:  cpu time    2.1823: real time    2.2397
    4ORBIT:  cpu time    0.0000: real time    0.0000

volume of typ            1:    79.6 %
 
total charge     
 
# of ion       s       p       d       tot
------------------------------------------
    1        0.575   0.404   8.850   9.829
 
orbital moment (x)
 
# of ion     s             p             d             tot
-----------------------------------------------------------------
    1     0.000000E+00 -0.200637E-08  0.667106E-08  0.466469E-08
 
orbital moment (y)
 
# of ion     s             p             d             tot
-----------------------------------------------------------------
    1     0.000000E+00 -0.415062E-08  0.105251E-08 -0.309811E-08
 
orbital moment (z)
 
# of ion     s             p             d             tot
-----------------------------------------------------------------
    1     0.000000E+00  0.426674E-08  0.681274E-08  0.110795E-07
 

 total amount of memory used by VASP MPI-rank0    33902. kBytes
=======================================================================

   base      :      30000. kBytes
   nonl-proj :       2410. kBytes
   fftplans  :        238. kBytes
   grid      :        331. kBytes
   one-center:         15. kBytes
   wavefun   :        908. kBytes
 
  
  
 General timing and accounting informations for this job:
 ========================================================
  
                  Total CPU time used (sec):        2.796
                            User time (sec):        2.261
                          System time (sec):        0.535
                         Elapsed time (sec):        2.906
  
                   Maximum memory used (kb):       58932.
                   Average memory used (kb):           0.
  
                          Minor page faults:        21827
                          Major page faults:            0
                 Voluntary context switches:         1720
