PROCAR new format
# of k-points:  110         # of bands:   12         # of ions:    1

 k-point     1 :    0.05000000 0.05000000 0.05000000     weight = 0.00200000

band     1 # energy   -4.41585919 # occ.  2.00000000
 
ion      s      p      d    tot
    1  0.648  0.004  0.000  0.652
 
band     2 # energy    0.44885965 # occ.  2.00000000
 
ion      s      p      d    tot
    1  0.000  0.001  0.938  0.939
 
band     3 # energy    0.50542639 # occ.  2.00000000
 
ion      s      p      d    tot
    1  0.000  0.000  0.941  0.941
 
band     4 # energy    0.50542639 # occ.  2.00000000
 
ion      s      p      d    tot
    1  0.000  0.000  0.941  0.941
 
band     5 # energy    1.88639169 # occ.  2.00000000
 
ion      s      p      d    tot
    1  0.000  0.000  0.964  0.964
 
band     6 # energy    1.88639169 # occ.  2.00000000
 
ion      s      p      d    tot
    1  0.000  0.000  0.964  0.964
 
band     7 # energy   20.33739054 # occ.  0.00000000
 
ion      s      p      d    tot
    1  0.000  0.001  0.011  0.012
 
band     8 # energy   23.12593609 # occ.  0.00000000
 
ion      s      p      d    tot
    1  0.015  0.229  0.014  0.258
 
band     9 # energy   23.87765377 # occ.  0.00000000
 
ion      s      p      d    tot
    1  0.000  0.248  0.008  0.256
 
band    10 # energy   23.87765377 # occ.  0.00000000
 
ion      s      p      d    tot
    1  0.000  0.248  0.008  0.256
 
band    11 # energy   28.59459187 # occ.  0.00000000
 
ion      s      p      d    tot
    1  0.050  0.063  0.016  0.128
 
band    12 # energy   31.21471884 # occ.  0.00000000
 
ion      s      p      d    tot
    1  0.013  0.131  0.352  0.496
 

 k-point     2 :    0.15000000 0.05000000 0.05000000     weight = 0.00600000

band     1 # energy   -3.98077977 # occ.  2.00000000
 
ion      s      p      d    tot
    1  0.624  0.026  0.004  0.654
 
band     2 # energy    0.31031299 # occ.  2.00000000
 
ion      s      p      d    tot
    1  0.000  0.005  0.924  0.930
 
band     3 # energy    0.63299097 # occ.  2.00000000
 
ion      s      p      d    tot
    1  0.000  0.000  0.941  0.942
 
band     4 # energy    0.66144963 # occ.  2.00000000
 
ion      s      p      d    tot
    1  0.001  0.004  0.936  0.940
 
band     5 # energy    1.74545893 # occ.  2.00000000
 
ion      s      p      d    tot
    1  0.000  0.000  0.958  0.958
 
band     6 # energy    1.93036912 # occ.  2.00000000
 
ion      s      p      d    tot
    1  0.000  0.000  0.962  0.963
 
band     7 # energy   20.49749245 # occ.  0.00000000
 
ion      s      p      d    tot
    1  0.011  0.083  0.101  0.195
 
band     8 # energy   21.23925247 # occ.  0.00000000
 
ion      s      p      d    tot
    1  0.041  0.163  0.027  0.230
 
band     9 # energy   23.42853529 # occ.  0.00000000
 
ion      s      p      d    tot
    1  0.001  0.307  0.051  0.358
 
band    10 # energy   24.74516638 # occ.  0.00000000
 
ion      s      p      d    tot
    1  0.000  0.246  0.034  0.280
 
band    11 # energy   27.81822916 # occ.  0.00000000
 
ion      s      p      d    tot
    1  0.002  0.276  0.128  0.406
 
band    12 # energy   30.41179220 # occ.  0.00000000
 
ion      s      p      d    tot
    1  0.001  0.152  0.204  0.357
 

 k-point     3 :    0.25000000 0.05000000 0.05000000     weight = 0.00600000

band     1 # energy   -3.03383118 # occ.  2.00000000
 
ion      s      p      d    tot
    1  0.551  0.061  0.058  0.670
 
band     2 # energy    0.21014919 # occ.  2.00000000
 
ion      s      p      d    tot
    1  0.016  0.033  0.851  0.900
 
band     3 # energy    0.77375186 # occ.  2.00000000
 
ion      s      p      d    tot
    1  0.002  0.007  0.927  0.936
 
band     4 # energy    0.79224498 # occ.  2.00000000
 
ion      s      p      d    tot
    1  0.000  0.000  0.941  0.941
 
band     5 # energy    1.75753553 # occ.  2.00000000
 
ion      s      p      d    tot
    1  0.000  0.001  0.951  0.952
 
band     6 # energy    2.12773596 # occ.  2.00000000
 
ion      s      p      d    tot
    1  0.003  0.003  0.953  0.959
 
band     7 # energy   17.21547859 # occ.  0.00000000
 
ion      s      p      d    tot
    1  0.107  0.295  0.154  0.555
 
band     8 # energy   21.10752402 # occ.  0.00000000
 
ion      s      p      d    tot
    1  0.006  0.044  0.103  0.153
 
band     9 # energy   23.47103841 # occ.  0.00000000
 
ion      s      p      d    tot
    1  0.003  0.389  0.098  0.490
 
band    10 # energy   25.77816388 # occ.  0.00000000
 
ion      s      p      d    tot
    1  0.000  0.389  0.108  0.497
 
band    11 # energy   26.05090851 # occ.  0.00000000
 
ion      s      p      d    tot
    1  0.021  0.180  0.033  0.233
 
band    12 # energy   28.25804466 # occ.  0.00000000
 
ion      s      p      d    tot
    1  0.000  0.180  0.206  0.386
 

 k-point     4 :    0.35000000 0.05000000 0.05000000     weight = 0.00600000

band     1 # energy   -2.17206682 # occ.  2.00000000
 
ion      s      p      d    tot
    1  0.368  0.046  0.333  0.747
 
band     2 # energy    0.61097056 # occ.  2.00000000
 
ion      s      p      d    tot
    1  0.011  0.013  0.901  0.925
 
band     3 # energy    0.68748312 # occ.  2.00000000
 
ion      s      p      d    tot
    1  0.000  0.000  0.936  0.936
 
band     4 # energy    0.85222458 # occ.  2.00000000
 
ion      s      p      d    tot
    1  0.093  0.134  0.586  0.813
 
band     5 # energy    2.20734387 # occ.  2.00000000
 
ion      s      p      d    tot
    1  0.000  0.002  0.955  0.957
 
band     6 # energy    2.65375293 # occ.  2.00000000
 
ion      s      p      d    tot
    1  0.017  0.015  0.923  0.954
 
band     7 # energy   13.22346188 # occ.  0.00000000
 
ion      s      p      d    tot
    1  0.197  0.295  0.192  0.685
 
band     8 # energy   20.47937723 # occ.  0.00000000
 
ion      s      p      d    tot
    1  0.001  0.046  0.069  0.116
 
band     9 # energy   22.48621764 # occ.  0.00000000
 
ion      s      p      d    tot
    1  0.010  0.472  0.082  0.564
 
band    10 # energy   24.56313260 # occ.  0.00000000
 
ion      s      p      d    tot
    1  0.000  0.545  0.075  0.620
 
band    11 # energy   27.18305152 # occ.  0.00000000
 
ion      s      p      d    tot
    1  0.032  0.070  0.137  0.239
 
band    12 # energy   28.15702477 # occ.  0.00000000
 
ion      s      p      d    tot
    1  0.000  0.002  0.343  0.345
 

 k-point     5 :    0.45000000 0.05000000 0.05000000     weight = 0.00600000

band     1 # energy   -1.94716848 # occ.  2.00000000
 
ion      s      p      d    tot
    1  0.221  0.010  0.585  0.817
 
band     2 # energy    0.47054395 # occ.  2.00000000
 
ion      s      p      d    tot
    1  0.000  0.001  0.928  0.930
 
band     3 # energy    0.53430275 # occ.  2.00000000
 
ion      s      p      d    tot
    1  0.000  0.000  0.932  0.932
 
band     4 # energy    2.27191797 # occ.  2.00000000
 
ion      s      p      d    tot
    1  0.055  0.185  0.571  0.811
 
band     5 # energy    2.74998108 # occ.  2.00000000
 
ion      s      p      d    tot
    1  0.000  0.001  0.968  0.969
 
band     6 # energy    3.53567472 # occ.  2.00000000
 
ion      s      p      d    tot
    1  0.080  0.173  0.580  0.832
 
band     7 # energy    9.50475020 # occ. -0.00000000
 
ion      s      p      d    tot
    1  0.331  0.186  0.263  0.780
 
band     8 # energy   19.78983430 # occ.  0.00000000
 
ion      s      p      d    tot
    1  0.000  0.031  0.028  0.059
 
band     9 # energy   21.61827123 # occ.  0.00000000
 
ion      s      p      d    tot
    1  0.010  0.498  0.040  0.548
 
band    10 # energy   22.69505888 # occ.  0.00000000
 
ion      s      p      d    tot
    1  0.000  0.522  0.026  0.548
 
band    11 # energy   28.76734272 # occ.  0.00000000
 
ion      s      p      d    tot
    1  0.021  0.009  0.370  0.400
 
band    12 # energy   28.95804642 # occ.  0.00000000
 
ion      s      p      d    tot
    1  0.000  0.005  0.488  0.493
 

 k-point     6 :   -0.45000000 0.05000000 0.05000000     weight = 0.00600000

band     1 # energy   -1.93830600 # occ.  2.00000000
 
ion      s      p      d    tot
    1  0.193  0.003  0.633  0.830
 
band     2 # energy    0.41023581 # occ.  2.00000000
 
ion      s      p      d    tot
    1  0.000  0.001  0.927  0.928
 
band     3 # energy    0.49824989 # occ.  2.00000000
 
ion      s      p      d    tot
    1  0.000  0.001  0.931  0.931
 
band     4 # energy    2.61528895 # occ.  2.00000000
 
ion      s      p      d    tot
    1  0.002  0.095  0.800  0.897
 
band     5 # energy    3.01139817 # occ.  2.00000000
 
ion      s      p      d    tot
    1  0.000  0.000  0.976  0.976
 
band     6 # energy    4.49767019 # occ.  2.02521735
 
ion      s      p      d    tot
    1  0.013  0.449  0.191  0.653
 
band     7 # energy    7.83010205 # occ. -0.00000000
 
ion      s      p      d    tot
    1  0.480  0.019  0.370  0.870
 
band     8 # energy   19.60426608 # occ.  0.00000000
 
ion      s      p      d    tot
    1  0.000  0.023  0.016  0.039
 
band     9 # energy   21.68253230 # occ.  0.00000000
 
ion      s      p      d    tot
    1  0.011  0.504  0.027  0.542
 
band    10 # energy   21.81100778 # occ.  0.00000000
 
ion      s      p      d    tot
    1  0.000  0.520  0.015  0.535
 
band    11 # energy   29.18103982 # occ.  0.00000000
 
ion      s      p      d    tot
    1  0.000  0.002  0.489  0.491
 
band    12 # energy   29.24745392 # occ.  0.00000000
 
ion      s      p      d    tot
    1  0.002  0.001  0.497  0.501
 

 k-point     7 :   -0.35000000 0.05000000 0.05000000     weight = 0.00600000

band     1 # energy   -1.97562254 # occ.  2.00000000
 
ion      s      p      d    tot
    1  0.254  0.018  0.530  0.802
 
band     2 # energy    0.49863124 # occ.  2.00000000
 
ion      s      p      d    tot
    1  0.000  0.000  0.930  0.930
 
band     3 # energy    0.59899421 # occ.  2.00000000
 
ion      s      p      d    tot
    1  0.000  0.002  0.932  0.934
 
band     4 # energy    1.74703050 # occ.  2.00000000
 
ion      s      p      d    tot
    1  0.093  0.190  0.504  0.787
 
band     5 # energy    2.82230379 # occ.  2.00000000
 
ion      s      p      d    tot
    1  0.000  0.001  0.970  0.972
 
band     6 # energy    2.98707325 # occ.  2.00000000
 
ion      s      p      d    tot
    1  0.062  0.095  0.729  0.887
 
band     7 # energy   10.66376970 # occ.  0.00000000
 
ion      s      p      d    tot
    1  0.278  0.239  0.230  0.746
 
band     8 # energy   20.02264379 # occ.  0.00000000
 
ion      s      p      d    tot
    1  0.000  0.022  0.029  0.051
 
band     9 # energy   22.05058604 # occ.  0.00000000
 
ion      s      p      d    tot
    1  0.000  0.517  0.058  0.576
 
band    10 # energy   22.84438596 # occ.  0.00000000
 
ion      s      p      d    tot
    1  0.014  0.500  0.059  0.573
 
band    11 # energy   28.70440336 # occ.  0.00000000
 
ion      s      p      d    tot
    1  0.006  0.030  0.383  0.420
 
band    12 # energy   28.91644663 # occ.  0.00000000
 
ion      s      p      d    tot
    1  0.000  0.004  0.352  0.356
 

 k-point     8 :   -0.25000000 0.05000000 0.05000000     weight = 0.00600000

band     1 # energy   -2.39206965 # occ.  2.00000000
 
ion      s      p      d    tot
    1  0.440  0.059  0.215  0.714
 
band     2 # energy    0.45045451 # occ.  2.00000000
 
ion      s      p      d    tot
    1  0.062  0.083  0.710  0.855
 
band     3 # energy    0.70636061 # occ.  2.00000000
 
ion      s      p      d    tot
    1  0.006  0.013  0.905  0.924
 
band     4 # energy    0.75669855 # occ.  2.00000000
 
ion      s      p      d    tot
    1  0.000  0.003  0.935  0.938
 
band     5 # energy    2.12814500 # occ.  2.00000000
 
ion      s      p      d    tot
    1  0.012  0.012  0.923  0.947
 
band     6 # energy    2.36656179 # occ.  2.00000000
 
ion      s      p      d    tot
    1  0.000  0.002  0.961  0.963
 
band     7 # energy   14.55391443 # occ.  0.00000000
 
ion      s      p      d    tot
    1  0.164  0.306  0.180  0.649
 
band     8 # energy   20.86096669 # occ.  0.00000000
 
ion      s      p      d    tot
    1  0.001  0.019  0.069  0.088
 
band     9 # energy   22.92302966 # occ.  0.00000000
 
ion      s      p      d    tot
    1  0.000  0.488  0.127  0.615
 
band    10 # energy   24.69660850 # occ.  0.00000000
 
ion      s      p      d    tot
    1  0.025  0.476  0.096  0.597
 
band    11 # energy   26.83855281 # occ.  0.00000000
 
ion      s      p      d    tot
    1  0.010  0.140  0.122  0.272
 
band    12 # energy   28.66372381 # occ.  0.00000000
 
ion      s      p      d    tot
    1  0.000  0.028  0.179  0.207
 

 k-point     9 :   -0.15000000 0.05000000 0.05000000     weight = 0.00600000

band     1 # energy   -3.38296498 # occ.  2.00000000
 
ion      s      p      d    tot
    1  0.584  0.051  0.026  0.661
 
band     2 # energy    0.19722826 # occ.  2.00000000
 
ion      s      p      d    tot
    1  0.007  0.017  0.890  0.914
 
band     3 # energy    0.76572424 # occ.  2.00000000
 
ion      s      p      d    tot
    1  0.001  0.004  0.934  0.939
 
band     4 # energy    0.77603464 # occ.  2.00000000
 
ion      s      p      d    tot
    1  0.000  0.004  0.937  0.941
 
band     5 # energy    1.71759198 # occ.  2.00000000
 
ion      s      p      d    tot
    1  0.002  0.002  0.948  0.952
 
band     6 # energy    2.01171812 # occ.  2.00000000
 
ion      s      p      d    tot
    1  0.000  0.001  0.960  0.961
 
band     7 # energy   18.50861610 # occ.  0.00000000
 
ion      s      p      d    tot
    1  0.080  0.275  0.141  0.496
 
band     8 # energy   21.26114277 # occ.  0.00000000
 
ion      s      p      d    tot
    1  0.007  0.006  0.068  0.082
 
band     9 # energy   23.47303559 # occ.  0.00000000
 
ion      s      p      d    tot
    1  0.000  0.389  0.119  0.508
 
band    10 # energy   25.13829966 # occ.  0.00000000
 
ion      s      p      d    tot
    1  0.001  0.250  0.067  0.317
 
band    11 # energy   26.56707176 # occ.  0.00000000
 
ion      s      p      d    tot
    1  0.024  0.332  0.061  0.417
 
band    12 # energy   29.23466798 # occ.  0.00000000
 
ion      s      p      d    tot
    1  0.000  0.106  0.150  0.256
 

 k-point    10 :   -0.05000000 0.05000000 0.05000000     weight = 0.00600000

band     1 # energy   -4.19474623 # occ.  2.00000000
 
ion      s      p      d    tot
    1  0.636  0.015  0.001  0.653
 
band     2 # energy    0.35091261 # occ.  2.00000000
 
ion      s      p      d    tot
    1  0.000  0.001  0.933  0.935
 
band     3 # energy    0.59234354 # occ.  2.00000000
 
ion      s      p      d    tot
    1  0.000  0.002  0.939  0.941
 
band     4 # energy    0.59634360 # occ.  2.00000000
 
ion      s      p      d    tot
    1  0.000  0.002  0.939  0.941
 
band     5 # energy    1.76880317 # occ.  2.00000000
 
ion      s      p      d    tot
    1  0.000  0.000  0.959  0.960
 
band     6 # energy    1.93883982 # occ.  2.00000000
 
ion      s      p      d    tot
    1  0.000  0.000  0.965  0.965
 
band     7 # energy   20.53348554 # occ.  0.00000000
 
ion      s      p      d    tot
    1  0.000  0.006  0.044  0.050
 
band     8 # energy   22.21643787 # occ.  0.00000000
 
ion      s      p      d    tot
    1  0.034  0.212  0.031  0.277
 
band     9 # energy   23.55897985 # occ.  0.00000000
 
ion      s      p      d    tot
    1  0.000  0.292  0.045  0.337
 
band    10 # energy   23.96994200 # occ.  0.00000000
 
ion      s      p      d    tot
    1  0.003  0.248  0.028  0.279
 
band    11 # energy   28.98899677 # occ.  0.00000000
 
ion      s      p      d    tot
    1  0.002  0.258  0.104  0.364
 
band    12 # energy   30.52609382 # occ.  0.00000000
 
ion      s      p      d    tot
    1  0.000  0.145  0.299  0.445
 

 k-point    11 :    0.15000000 0.15000000 0.05000000     weight = 0.00600000

band     1 # energy   -3.76460205 # occ.  2.00000000
 
ion      s      p      d    tot
    1  0.612  0.037  0.005  0.654
 
band     2 # energy    0.15476802 # occ.  2.00000000
 
ion      s      p      d    tot
    1  0.000  0.001  0.926  0.928
 
band     3 # energy    0.77622618 # occ.  2.00000000
 
ion      s      p      d    tot
    1  0.000  0.005  0.935  0.940
 
band     4 # energy    0.77915342 # occ.  2.00000000
 
ion      s      p      d    tot
    1  0.000  0.005  0.936  0.941
 
band     5 # energy    1.57173500 # occ.  2.00000000
 
ion      s      p      d    tot
    1  0.003  0.001  0.946  0.950
 
band     6 # energy    2.03731656 # occ.  2.00000000
 
ion      s      p      d    tot
    1  0.000  0.000  0.965  0.965
 
band     7 # energy   20.77794182 # occ.  0.00000000
 
ion      s      p      d    tot
    1  0.011  0.081  0.114  0.205
 
band     8 # energy   21.39440928 # occ.  0.00000000
 
ion      s      p      d    tot
    1  0.043  0.144  0.046  0.234
 
band     9 # energy   22.80890563 # occ.  0.00000000
 
ion      s      p      d    tot
    1  0.000  0.361  0.099  0.460
 
band    10 # energy   23.52372736 # occ.  0.00000000
 
ion      s      p      d    tot
    1  0.008  0.251  0.070  0.329
 
band    11 # energy   27.99098287 # occ.  0.00000000
 
ion      s      p      d    tot
    1  0.050  0.479  0.064  0.592
 
band    12 # energy   29.95596373 # occ.  0.00000000
 
ion      s      p      d    tot
    1  0.000  0.107  0.170  0.277
 

 k-point    12 :    0.25000000 0.15000000 0.05000000     weight = 0.01200000

band     1 # energy   -2.97879679 # occ.  2.00000000
 
ion      s      p      d    tot
    1  0.557  0.071  0.034  0.662
 
band     2 # energy   -0.06864934 # occ.  2.00000000
 
ion      s      p      d    tot
    1  0.001  0.008  0.906  0.915
 
band     3 # energy    0.87005015 # occ.  2.00000000
 
ion      s      p      d    tot
    1  0.000  0.007  0.927  0.934
 
band     4 # energy    1.03617465 # occ.  2.00000000
 
ion      s      p      d    tot
    1  0.000  0.006  0.935  0.942
 
band     5 # energy    1.52795177 # occ.  2.00000000
 
ion      s      p      d    tot
    1  0.013  0.009  0.917  0.939
 
band     6 # energy    2.24093589 # occ.  2.00000000
 
ion      s      p      d    tot
    1  0.003  0.002  0.959  0.964
 
band     7 # energy   18.74821472 # occ.  0.00000000
 
ion      s      p      d    tot
    1  0.089  0.289  0.124  0.503
 
band     8 # energy   20.56731488 # occ.  0.00000000
 
ion      s      p      d    tot
    1  0.009  0.237  0.191  0.437
 
band     9 # energy   22.58269449 # occ.  0.00000000
 
ion      s      p      d    tot
    1  0.000  0.200  0.085  0.285
 
band    10 # energy   23.79567034 # occ.  0.00000000
 
ion      s      p      d    tot
    1  0.003  0.145  0.119  0.267
 
band    11 # energy   25.96127746 # occ.  0.00000000
 
ion      s      p      d    tot
    1  0.090  0.554  0.024  0.669
 
band    12 # energy   29.17376930 # occ.  0.00000000
 
ion      s      p      d    tot
    1  0.002  0.107  0.151  0.260
 

 k-point    13 :    0.35000000 0.15000000 0.05000000     weight = 0.01200000

band     1 # energy   -2.00409834 # occ.  2.00000000
 
ion      s      p      d    tot
    1  0.412  0.079  0.223  0.714
 
band     2 # energy    0.01610483 # occ.  2.00000000
 
ion      s      p      d    tot
    1  0.038  0.054  0.781  0.873
 
band     3 # energy    0.59695528 # occ.  2.00000000
 
ion      s      p      d    tot
    1  0.000  0.006  0.915  0.922
 
band     4 # energy    1.04540490 # occ.  2.00000000
 
ion      s      p      d    tot
    1  0.002  0.007  0.930  0.938
 
band     5 # energy    2.13705569 # occ.  2.00000000
 
ion      s      p      d    tot
    1  0.024  0.024  0.887  0.936
 
band     6 # energy    2.77860978 # occ.  2.00000000
 
ion      s      p      d    tot
    1  0.028  0.020  0.904  0.952
 
band     7 # energy   14.77933143 # occ.  0.00000000
 
ion      s      p      d    tot
    1  0.164  0.323  0.162  0.649
 
band     8 # energy   19.99321129 # occ.  0.00000000
 
ion      s      p      d    tot
    1  0.012  0.316  0.175  0.503
 
band     9 # energy   21.54371747 # occ.  0.00000000
 
ion      s      p      d    tot
    1  0.010  0.188  0.089  0.287
 
band    10 # energy   23.42992109 # occ.  0.00000000
 
ion      s      p      d    tot
    1  0.045  0.325  0.153  0.523
 
band    11 # energy   27.01797999 # occ.  0.00000000
 
ion      s      p      d    tot
    1  0.015  0.356  0.019  0.389
 
band    12 # energy   28.91541017 # occ.  0.00000000
 
ion      s      p      d    tot
    1  0.010  0.016  0.224  0.250
 

 k-point    14 :    0.45000000 0.15000000 0.05000000     weight = 0.01200000

band     1 # energy   -1.62058582 # occ.  2.00000000
 
ion      s      p      d    tot
    1  0.220  0.032  0.556  0.808
 
band     2 # energy    0.32263971 # occ.  2.00000000
 
ion      s      p      d    tot
    1  0.000  0.007  0.906  0.913
 
band     3 # energy    0.82196498 # occ.  2.00000000
 
ion      s      p      d    tot
    1  0.022  0.051  0.819  0.893
 
band     4 # energy    0.97253206 # occ.  2.00000000
 
ion      s      p      d    tot
    1  0.043  0.081  0.744  0.868
 
band     5 # energy    2.81186507 # occ.  2.00000000
 
ion      s      p      d    tot
    1  0.004  0.011  0.948  0.963
 
band     6 # energy    3.92077824 # occ.  2.00000000
 
ion      s      p      d    tot
    1  0.118  0.125  0.623  0.865
 
band     7 # energy   10.87467493 # occ.  0.00000000
 
ion      s      p      d    tot
    1  0.265  0.264  0.201  0.730
 
band     8 # energy   19.60520730 # occ.  0.00000000
 
ion      s      p      d    tot
    1  0.009  0.297  0.136  0.442
 
band     9 # energy   20.21769207 # occ.  0.00000000
 
ion      s      p      d    tot
    1  0.027  0.276  0.094  0.397
 
band    10 # energy   22.20154507 # occ.  0.00000000
 
ion      s      p      d    tot
    1  0.022  0.394  0.087  0.504
 
band    11 # energy   28.88086680 # occ.  0.00000000
 
ion      s      p      d    tot
    1  0.007  0.060  0.243  0.310
 
band    12 # energy   29.88019035 # occ.  0.00000000
 
ion      s      p      d    tot
    1  0.008  0.057  0.306  0.371
 

 k-point    15 :   -0.45000000 0.15000000 0.05000000     weight = 0.01200000

band     1 # energy   -1.59395999 # occ.  2.00000000
 
ion      s      p      d    tot
    1  0.165  0.018  0.652  0.835
 
band     2 # energy    0.20523837 # occ.  2.00000000
 
ion      s      p      d    tot
    1  0.000  0.007  0.903  0.910
 
band     3 # energy    0.77433395 # occ.  2.00000000
 
ion      s      p      d    tot
    1  0.000  0.004  0.928  0.932
 
band     4 # energy    1.67149299 # occ.  2.00000000
 
ion      s      p      d    tot
    1  0.003  0.136  0.715  0.853
 
band     5 # energy    2.96744993 # occ.  2.00000000
 
ion      s      p      d    tot
    1  0.000  0.000  0.973  0.974
 
band     6 # energy    5.81965624 # occ. -0.00000000
 
ion      s      p      d    tot
    1  0.025  0.388  0.297  0.711
 
band     7 # energy    7.83683505 # occ. -0.00000000
 
ion      s      p      d    tot
    1  0.477  0.039  0.332  0.849
 
band     8 # energy   19.18881574 # occ.  0.00000000
 
ion      s      p      d    tot
    1  0.020  0.248  0.125  0.393
 
band     9 # energy   19.82338499 # occ.  0.00000000
 
ion      s      p      d    tot
    1  0.027  0.365  0.099  0.491
 
band    10 # energy   21.56560861 # occ.  0.00000000
 
ion      s      p      d    tot
    1  0.003  0.389  0.021  0.413
 
band    11 # energy   29.21198027 # occ.  0.00000000
 
ion      s      p      d    tot
    1  0.017  0.003  0.417  0.437
 
band    12 # energy   30.31312242 # occ.  0.00000000
 
ion      s      p      d    tot
    1  0.002  0.007  0.347  0.356
 

 k-point    16 :   -0.35000000 0.15000000 0.05000000     weight = 0.01200000

band     1 # energy   -1.58214371 # occ.  2.00000000
 
ion      s      p      d    tot
    1  0.192  0.026  0.604  0.822
 
band     2 # energy    0.27765181 # occ.  2.00000000
 
ion      s      p      d    tot
    1  0.000  0.005  0.909  0.915
 
band     3 # energy    0.79714238 # occ.  2.00000000
 
ion      s      p      d    tot
    1  0.000  0.005  0.927  0.932
 
band     4 # energy    1.37166642 # occ.  2.00000000
 
ion      s      p      d    tot
    1  0.038  0.149  0.640  0.827
 
band     5 # energy    2.68095886 # occ.  2.00000000
 
ion      s      p      d    tot
    1  0.001  0.007  0.956  0.963
 
band     6 # energy    4.60358249 # occ.  2.06847857
 
ion      s      p      d    tot
    1  0.138  0.167  0.529  0.834
 
band     7 # energy    9.75202268 # occ. -0.00000000
 
ion      s      p      d    tot
    1  0.303  0.221  0.235  0.759
 
band     8 # energy   18.75995350 # occ.  0.00000000
 
ion      s      p      d    tot
    1  0.026  0.341  0.148  0.516
 
band     9 # energy   20.43401592 # occ.  0.00000000
 
ion      s      p      d    tot
    1  0.020  0.206  0.064  0.289
 
band    10 # energy   22.38496201 # occ.  0.00000000
 
ion      s      p      d    tot
    1  0.002  0.455  0.052  0.509
 
band    11 # energy   28.50183396 # occ.  0.00000000
 
ion      s      p      d    tot
    1  0.019  0.023  0.296  0.338
 
band    12 # energy   29.92528567 # occ.  0.00000000
 
ion      s      p      d    tot
    1  0.000  0.026  0.374  0.400
 

 k-point    17 :   -0.25000000 0.15000000 0.05000000     weight = 0.01200000

band     1 # energy   -1.76893682 # occ.  2.00000000
 
ion      s      p      d    tot
    1  0.344  0.067  0.338  0.748
 
band     2 # energy    0.27630547 # occ.  2.00000000
 
ion      s      p      d    tot
    1  0.048  0.065  0.759  0.871
 
band     3 # energy    0.56042270 # occ.  2.00000000
 
ion      s      p      d    tot
    1  0.012  0.036  0.845  0.892
 
band     4 # energy    0.96906513 # occ.  2.00000000
 
ion      s      p      d    tot
    1  0.004  0.006  0.924  0.934
 
band     5 # energy    2.05113035 # occ.  2.00000000
 
ion      s      p      d    tot
    1  0.006  0.010  0.930  0.947
 
band     6 # energy    3.28275537 # occ.  2.00000000
 
ion      s      p      d    tot
    1  0.064  0.040  0.831  0.935
 
band     7 # energy   13.46879631 # occ.  0.00000000
 
ion      s      p      d    tot
    1  0.197  0.308  0.172  0.677
 
band     8 # energy   18.96165443 # occ.  0.00000000
 
ion      s      p      d    tot
    1  0.023  0.339  0.191  0.553
 
band     9 # energy   21.54595498 # occ.  0.00000000
 
ion      s      p      d    tot
    1  0.016  0.170  0.043  0.229
 
band    10 # energy   24.25477421 # occ.  0.00000000
 
ion      s      p      d    tot
    1  0.012  0.418  0.120  0.549
 
band    11 # energy   26.80248557 # occ.  0.00000000
 
ion      s      p      d    tot
    1  0.004  0.161  0.090  0.255
 
band    12 # energy   29.05370532 # occ.  0.00000000
 
ion      s      p      d    tot
    1  0.007  0.077  0.308  0.391
 

 k-point    18 :   -0.15000000 0.15000000 0.05000000     weight = 0.01200000

band     1 # energy   -2.63738989 # occ.  2.00000000
 
ion      s      p      d    tot
    1  0.527  0.081  0.063  0.671
 
band     2 # energy   -0.02760465 # occ.  2.00000000
 
ion      s      p      d    tot
    1  0.003  0.019  0.886  0.908
 
band     3 # energy    0.77548671 # occ.  2.00000000
 
ion      s      p      d    tot
    1  0.002  0.012  0.913  0.927
 
band     4 # energy    1.05703578 # occ.  2.00000000
 
ion      s      p      d    tot
    1  0.000  0.002  0.940  0.943
 
band     5 # energy    1.52102928 # occ.  2.00000000
 
ion      s      p      d    tot
    1  0.005  0.005  0.932  0.942
 
band     6 # energy    2.48436235 # occ.  2.00000000
 
ion      s      p      d    tot
    1  0.016  0.010  0.932  0.958
 
band     7 # energy   17.35336698 # occ.  0.00000000
 
ion      s      p      d    tot
    1  0.126  0.298  0.125  0.549
 
band     8 # energy   19.57883398 # occ.  0.00000000
 
ion      s      p      d    tot
    1  0.010  0.294  0.230  0.534
 
band     9 # energy   23.18539656 # occ.  0.00000000
 
ion      s      p      d    tot
    1  0.007  0.176  0.045  0.227
 
band    10 # energy   24.16371693 # occ.  0.00000000
 
ion      s      p      d    tot
    1  0.013  0.138  0.062  0.213
 
band    11 # energy   27.14952850 # occ.  0.00000000
 
ion      s      p      d    tot
    1  0.026  0.588  0.027  0.641
 
band    12 # energy   27.93488710 # occ.  0.00000000
 
ion      s      p      d    tot
    1  0.000  0.105  0.228  0.332
 

 k-point    19 :   -0.05000000 0.15000000 0.05000000     weight = 0.01200000

band     1 # energy   -3.56504441 # occ.  2.00000000
 
ion      s      p      d    tot
    1  0.599  0.045  0.012  0.656
 
band     2 # energy    0.16042701 # occ.  2.00000000
 
ion      s      p      d    tot
    1  0.001  0.007  0.915  0.923
 
band     3 # energy    0.78020685 # occ.  2.00000000
 
ion      s      p      d    tot
    1  0.001  0.006  0.930  0.938
 
band     4 # energy    0.78826517 # occ.  2.00000000
 
ion      s      p      d    tot
    1  0.000  0.003  0.939  0.941
 
band     5 # energy    1.60794947 # occ.  2.00000000
 
ion      s      p      d    tot
    1  0.002  0.001  0.947  0.951
 
band     6 # energy    2.04751106 # occ.  2.00000000
 
ion      s      p      d    tot
    1  0.001  0.001  0.961  0.963
 
band     7 # energy   19.77827831 # occ.  0.00000000
 
ion      s      p      d    tot
    1  0.062  0.241  0.115  0.419
 
band     8 # energy   20.91760508 # occ.  0.00000000
 
ion      s      p      d    tot
    1  0.013  0.082  0.113  0.207
 
band     9 # energy   22.99734371 # occ.  0.00000000
 
ion      s      p      d    tot
    1  0.000  0.305  0.055  0.361
 
band    10 # energy   24.79964094 # occ.  0.00000000
 
ion      s      p      d    tot
    1  0.000  0.222  0.081  0.304
 
band    11 # energy   26.91986368 # occ.  0.00000000
 
ion      s      p      d    tot
    1  0.026  0.345  0.052  0.424
 
band    12 # energy   29.77063509 # occ.  0.00000000
 
ion      s      p      d    tot
    1  0.011  0.293  0.183  0.487
 

 k-point    20 :    0.25000000 0.25000000 0.05000000     weight = 0.00600000

band     1 # energy   -2.45080402 # occ.  2.00000000
 
ion      s      p      d    tot
    1  0.499  0.091  0.081  0.671
 
band     2 # energy   -0.39600567 # occ.  2.00000000
 
ion      s      p      d    tot
    1  0.000  0.002  0.909  0.911
 