<?xml version="1.0" encoding="ISO-8859-1"?>
<modeling>
 <generator>
  <i name="program" type="string">vasp </i>
  <i name="version" type="string">5.4.4.18Apr17-6-g9f103f2a35  </i>
  <i name="subversion" type="string">(build May 18 2018 14:42:58) complex            parallel </i>
  <i name="platform" type="string">LinuxIFC </i>
  <i name="date" type="string">2020 06 30 </i>
  <i name="time" type="string">13:40:59 </i>
 </generator>
 <incar>
  <i type="string" name="SYSTEM"> fcc Au</i>
  <i type="string" name="PREC">normal</i>
  <v name="RWIGS">      1.50300000</v>
  <v type="int" name="KPOINT_BSE">    -1     0     0     0</v>
 </incar>
 <structure name="primitive_cell" >
  <crystal>
   <varray name="basis" >
    <v>       0.00000000       2.07500000       2.07500000 </v>
    <v>       2.07500000       0.00000000       2.07500000 </v>
    <v>       2.07500000       2.07500000       0.00000000 </v>
   </varray>
   <i name="volume">     17.86834375 </i>
   <varray name="rec_basis" >
    <v>      -0.24096386       0.24096386       0.24096386 </v>
    <v>       0.24096386      -0.24096386       0.24096386 </v>
    <v>       0.24096386       0.24096386      -0.24096386 </v>
   </varray>
  </crystal>
  <varray name="positions" >
   <v>       0.00000000       0.00000000       0.00000000 </v>
  </varray>
 </structure>
 <varray name="primitive_index" >
  <v type="int" >        1 </v>
 </varray>
 <kpoints>
  <generation param="Monkhorst-Pack">
   <v type="int" name="divisions">      10       10       10 </v>
   <v name="usershift">      0.00000000       0.00000000       0.00000000 </v>
   <v name="genvec1">      0.10000000       0.00000000       0.00000000 </v>
   <v name="genvec2">      0.00000000       0.10000000       0.00000000 </v>
   <v name="genvec3">      0.00000000       0.00000000       0.10000000 </v>
   <v name="shift">      0.50000000       0.50000000       0.50000000 </v>
  </generation>
  <varray name="kpointlist" >
   <v>       0.05000000       0.05000000       0.05000000 </v>
   <v>       0.15000000       0.05000000       0.05000000 </v>
   <v>       0.25000000       0.05000000       0.05000000 </v>
   <v>       0.35000000       0.05000000       0.05000000 </v>
   <v>       0.45000000       0.05000000       0.05000000 </v>
   <v>      -0.45000000       0.05000000       0.05000000 </v>
   <v>      -0.35000000       0.05000000       0.05000000 </v>
   <v>      -0.25000000       0.05000000       0.05000000 </v>
   <v>      -0.15000000       0.05000000       0.05000000 </v>
   <v>      -0.05000000       0.05000000       0.05000000 </v>
   <v>       0.15000000       0.15000000       0.05000000 </v>
   <v>       0.25000000       0.15000000       0.05000000 </v>
   <v>       0.35000000       0.15000000       0.05000000 </v>
   <v>       0.45000000       0.15000000       0.05000000 </v>
   <v>      -0.45000000       0.15000000       0.05000000 </v>
   <v>      -0.35000000       0.15000000       0.05000000 </v>
   <v>      -0.25000000       0.15000000       0.05000000 </v>
   <v>      -0.15000000       0.15000000       0.05000000 </v>
   <v>      -0.05000000       0.15000000       0.05000000 </v>
   <v>       0.25000000       0.25000000       0.05000000 </v>
   <v>       0.35000000       0.25000000       0.05000000 </v>
   <v>       0.45000000       0.25000000       0.05000000 </v>
   <v>      -0.45000000       0.25000000       0.05000000 </v>
   <v>      -0.35000000       0.25000000       0.05000000 </v>
   <v>      -0.25000000       0.25000000       0.05000000 </v>
   <v>      -0.15000000       0.25000000       0.05000000 </v>
   <v>      -0.05000000       0.25000000       0.05000000 </v>
   <v>       0.35000000       0.35000000       0.05000000 </v>
   <v>       0.45000000       0.35000000       0.05000000 </v>
   <v>      -0.45000000       0.35000000       0.05000000 </v>
   <v>      -0.35000000       0.35000000       0.05000000 </v>
   <v>      -0.25000000       0.35000000       0.05000000 </v>
   <v>      -0.15000000       0.35000000       0.05000000 </v>
   <v>      -0.05000000       0.35000000       0.05000000 </v>
   <v>       0.45000000       0.45000000       0.05000000 </v>
   <v>      -0.45000000       0.45000000       0.05000000 </v>
   <v>      -0.35000000       0.45000000       0.05000000 </v>
   <v>      -0.25000000       0.45000000       0.05000000 </v>
   <v>      -0.15000000       0.45000000       0.05000000 </v>
   <v>      -0.05000000       0.45000000       0.05000000 </v>
   <v>      -0.45000000      -0.45000000       0.05000000 </v>
   <v>      -0.35000000      -0.45000000       0.05000000 </v>
   <v>      -0.25000000      -0.45000000       0.05000000 </v>
   <v>      -0.15000000      -0.45000000       0.05000000 </v>
   <v>      -0.35000000      -0.35000000       0.05000000 </v>
   <v>      -0.25000000      -0.35000000       0.05000000 </v>
   <v>      -0.15000000      -0.35000000       0.05000000 </v>
   <v>      -0.25000000      -0.25000000       0.05000000 </v>
   <v>      -0.15000000      -0.25000000       0.05000000 </v>
   <v>      -0.15000000      -0.15000000       0.05000000 </v>
   <v>       0.15000000       0.15000000       0.15000000 </v>
   <v>       0.25000000       0.15000000       0.15000000 </v>
   <v>       0.35000000       0.15000000       0.15000000 </v>
   <v>       0.45000000       0.15000000       0.15000000 </v>
   <v>      -0.45000000       0.15000000       0.15000000 </v>
   <v>      -0.35000000       0.15000000       0.15000000 </v>
   <v>      -0.25000000       0.15000000       0.15000000 </v>
   <v>      -0.15000000       0.15000000       0.15000000 </v>
   <v>       0.25000000       0.25000000       0.15000000 </v>
   <v>       0.35000000       0.25000000       0.15000000 </v>
   <v>       0.45000000       0.25000000       0.15000000 </v>
   <v>      -0.45000000       0.25000000       0.15000000 </v>
   <v>      -0.35000000       0.25000000       0.15000000 </v>
   <v>      -0.25000000       0.25000000       0.15000000 </v>
   <v>      -0.15000000       0.25000000       0.15000000 </v>
   <v>       0.35000000       0.35000000       0.15000000 </v>
   <v>       0.45000000       0.35000000       0.15000000 </v>
   <v>      -0.45000000       0.35000000       0.15000000 </v>
   <v>      -0.35000000       0.35000000       0.15000000 </v>
   <v>      -0.25000000       0.35000000       0.15000000 </v>
   <v>      -0.15000000       0.35000000       0.15000000 </v>
   <v>       0.45000000       0.45000000       0.15000000 </v>
   <v>      -0.45000000       0.45000000       0.15000000 </v>
   <v>      -0.35000000       0.45000000       0.15000000 </v>
   <v>      -0.25000000       0.45000000       0.15000000 </v>
   <v>      -0.15000000       0.45000000       0.15000000 </v>
   <v>      -0.45000000      -0.45000000       0.15000000 </v>
   <v>      -0.35000000      -0.45000000       0.15000000 </v>
   <v>      -0.25000000      -0.45000000       0.15000000 </v>
   <v>      -0.35000000      -0.35000000       0.15000000 </v>
   <v>      -0.25000000      -0.35000000       0.15000000 </v>
   <v>      -0.25000000      -0.25000000       0.15000000 </v>
   <v>       0.25000000       0.25000000       0.25000000 </v>
   <v>       0.35000000       0.25000000       0.25000000 </v>
   <v>       0.45000000       0.25000000       0.25000000 </v>
   <v>      -0.45000000       0.25000000       0.25000000 </v>
   <v>      -0.35000000       0.25000000       0.25000000 </v>
   <v>      -0.25000000       0.25000000       0.25000000 </v>
   <v>       0.35000000       0.35000000       0.25000000 </v>
   <v>       0.45000000       0.35000000       0.25000000 </v>
   <v>      -0.45000000       0.35000000       0.25000000 </v>
   <v>      -0.35000000       0.35000000       0.25000000 </v>
   <v>      -0.25000000       0.35000000       0.25000000 </v>
   <v>       0.45000000       0.45000000       0.25000000 </v>
   <v>      -0.45000000       0.45000000       0.25000000 </v>
   <v>      -0.35000000       0.45000000       0.25000000 </v>
   <v>      -0.25000000       0.45000000       0.25000000 </v>
   <v>      -0.45000000      -0.45000000       0.25000000 </v>
   <v>      -0.35000000      -0.45000000       0.25000000 </v>
   <v>      -0.35000000      -0.35000000       0.25000000 </v>
   <v>       0.35000000       0.35000000       0.35000000 </v>
   <v>       0.45000000       0.35000000       0.35000000 </v>
   <v>      -0.45000000       0.35000000       0.35000000 </v>
   <v>      -0.35000000       0.35000000       0.35000000 </v>
   <v>       0.45000000       0.45000000       0.35000000 </v>
   <v>      -0.45000000       0.45000000       0.35000000 </v>
   <v>      -0.35000000       0.45000000       0.35000000 </v>
   <v>      -0.45000000      -0.45000000       0.35000000 </v>
   <v>       0.45000000       0.45000000       0.45000000 </v>
   <v>      -0.45000000       0.45000000       0.45000000 </v>
  </varray>
  <varray name="weights" >
   <v>       0.00200000 </v>
   <v>       0.00600000 </v>
   <v>       0.00600000 </v>
   <v>       0.00600000 </v>
   <v>       0.00600000 </v>
   <v>       0.00600000 </v>
   <v>       0.00600000 </v>
   <v>       0.00600000 </v>
   <v>       0.00600000 </v>
   <v>       0.00600000 </v>
   <v>       0.00600000 </v>
   <v>       0.01200000 </v>
   <v>       0.01200000 </v>
   <v>       0.01200000 </v>
   <v>       0.01200000 </v>
   <v>       0.01200000 </v>
   <v>       0.01200000 </v>
   <v>       0.01200000 </v>
   <v>       0.01200000 </v>
   <v>       0.00600000 </v>
   <v>       0.01200000 </v>
   <v>       0.01200000 </v>
   <v>       0.01200000 </v>
   <v>       0.01200000 </v>
   <v>       0.01200000 </v>
   <v>       0.01200000 </v>
   <v>       0.01200000 </v>
   <v>       0.00600000 </v>
   <v>       0.01200000 </v>
   <v>       0.01200000 </v>
   <v>       0.01200000 </v>
   <v>       0.01200000 </v>
   <v>       0.01200000 </v>
   <v>       0.01200000 </v>
   <v>       0.00600000 </v>
   <v>       0.01200000 </v>
   <v>       0.01200000 </v>
   <v>       0.01200000 </v>
   <v>       0.01200000 </v>
   <v>       0.01200000 </v>
   <v>       0.00600000 </v>
   <v>       0.01200000 </v>
   <v>       0.01200000 </v>
   <v>       0.01200000 </v>
   <v>       0.00600000 </v>
   <v>       0.01200000 </v>
   <v>       0.01200000 </v>
   <v>       0.00600000 </v>
   <v>       0.01200000 </v>
   <v>       0.00600000 </v>
   <v>       0.00200000 </v>
   <v>       0.00600000 </v>
   <v>       0.00600000 </v>
   <v>       0.00600000 </v>
   <v>       0.00600000 </v>
   <v>       0.00600000 </v>
   <v>       0.00600000 </v>
   <v>       0.00600000 </v>
   <v>       0.00600000 </v>
   <v>       0.01200000 </v>
   <v>       0.01200000 </v>
   <v>       0.01200000 </v>
   <v>       0.01200000 </v>
   <v>       0.01200000 </v>
   <v>       0.01200000 </v>
   <v>       0.00600000 </v>
   <v>       0.01200000 </v>
   <v>       0.01200000 </v>
   <v>       0.01200000 </v>
   <v>       0.01200000 </v>
   <v>       0.01200000 </v>
   <v>       0.00600000 </v>
   <v>       0.01200000 </v>
   <v>       0.01200000 </v>
   <v>       0.01200000 </v>
   <v>       0.01200000 </v>
   <v>       0.00600000 </v>
   <v>       0.01200000 </v>
   <v>       0.01200000 </v>
   <v>       0.00600000 </v>
   <v>       0.01200000 </v>
   <v>       0.00600000 </v>
   <v>       0.00200000 </v>
   <v>       0.00600000 </v>
   <v>       0.00600000 </v>
   <v>       0.00600000 </v>
   <v>       0.00600000 </v>
   <v>       0.00600000 </v>
   <v>       0.00600000 </v>
   <v>       0.01200000 </v>
   <v>       0.01200000 </v>
   <v>       0.01200000 </v>
   <v>       0.01200000 </v>
   <v>       0.00600000 </v>
   <v>       0.01200000 </v>
   <v>       0.01200000 </v>
   <v>       0.01200000 </v>
   <v>       0.00600000 </v>
   <v>       0.01200000 </v>
   <v>       0.00600000 </v>
   <v>       0.00200000 </v>
   <v>       0.00600000 </v>
   <v>       0.00600000 </v>
   <v>       0.00600000 </v>
   <v>       0.00600000 </v>
   <v>       0.01200000 </v>
   <v>       0.01200000 </v>
   <v>       0.00600000 </v>
   <v>       0.00200000 </v>
   <v>       0.00600000 </v>
  </varray>
 </kpoints>
 <parameters>
  <separator name="general" >
   <i type="string" name="SYSTEM">fcc Au</i>
   <i type="logical" name="LCOMPAT"> F  </i>
  </separator>
  <separator name="electronic" >
   <i type="string" name="PREC">normal</i>
   <i name="ENMAX">    229.86900000</i>
   <i name="ENAUG">    356.67000000</i>
   <i name="EDIFF">      0.00010000</i>
   <i type="int" name="IALGO">    38</i>
   <i type="int" name="IWAVPR">    10</i>
   <i type="int" name="NBANDS">    12</i>
   <i name="NELECT">     11.00000000</i>
   <i type="int" name="TURBO">     0</i>
   <i type="int" name="IRESTART">     0</i>
   <i type="int" name="NREBOOT">     0</i>
   <i type="int" name="NMIN">     0</i>
   <i name="EREF">      0.00000000</i>
   <separator name="electronic smearing" >
    <i type="int" name="ISMEAR">     1</i>
    <i name="SIGMA">      0.20000000</i>
    <i name="KSPACING">      0.50000000</i>
    <i type="logical" name="KGAMMA"> T  </i>
   </separator>
   <separator name="electronic projectors" >
    <i type="logical" name="LREAL"> F  </i>
    <v name="ROPT">      0.00000000</v>
    <i type="int" name="LMAXPAW">  -100</i>
    <i type="int" name="LMAXMIX">     2</i>
    <i type="logical" name="NLSPLINE"> F  </i>
   </separator>
   <separator name="electronic startup" >
    <i type="int" name="ISTART">     0</i>
    <i type="int" name="ICHARG">     2</i>
    <i type="int" name="INIWAV">     1</i>
   </separator>
   <separator name="electronic spin" >
    <i type="int" name="ISPIN">     1</i>
    <i type="logical" name="LNONCOLLINEAR"> F  </i>
    <v name="MAGMOM">      1.00000000</v>
    <i name="NUPDOWN">     -1.00000000</i>
    <i type="logical" name="LSORBIT"> F  </i>
    <v name="SAXIS">      0.00000000      0.00000000      1.00000000</v>
    <i type="logical" name="LSPIRAL"> F  </i>
    <v name="QSPIRAL">      0.00000000      0.00000000      0.00000000</v>
    <i type="logical" name="LZEROZ"> F  </i>
   </separator>
   <separator name="electronic exchange-correlation" >
    <i type="logical" name="LASPH"> F  </i>
    <i type="logical" name="LMETAGGA"> F  </i>
   </separator>
   <separator name="electronic convergence" >
    <i type="int" name="NELM">    60</i>
    <i type="int" name="NELMDL">    -5</i>
    <i type="int" name="NELMIN">     2</i>
    <i name="ENINI">    229.86900000</i>
    <separator name="electronic convergence detail" >
     <i type="logical" name="LDIAG"> T  </i>
     <i type="logical" name="LSUBROT"> F  </i>
     <i name="WEIMIN">      0.00000000</i>
     <i name="EBREAK">      0.00000208</i>
     <i name="DEPER">      0.30000000</i>
     <i type="int" name="NRMM">     4</i>
     <i name="TIME">      0.40000000</i>
    </separator>
   </separator>
   <separator name="electronic mixer" >
    <i name="AMIX">      0.40000000</i>
    <i name="BMIX">      1.00000000</i>
    <i name="AMIN">      0.10000000</i>
    <i name="AMIX_MAG">      1.60000000</i>
    <i name="BMIX_MAG">      1.00000000</i>
    <separator name="electronic mixer details" >
     <i type="int" name="IMIX">     4</i>
     <i type="logical" name="MIXFIRST"> F  </i>
     <i type="int" name="MAXMIX">   -45</i>
     <i name="WC">    100.00000000</i>
     <i type="int" name="INIMIX">     1</i>
     <i type="int" name="MIXPRE">     1</i>
     <i type="int" name="MREMOVE">     5</i>
    </separator>
   </separator>
   <separator name="electronic dipolcorrection" >
    <i type="logical" name="LDIPOL"> F  </i>
    <i type="logical" name="LMONO"> F  </i>
    <i type="int" name="IDIPOL">     0</i>
    <i name="EPSILON">      1.00000000</i>
    <v name="DIPOL">   -100.00000000   -100.00000000   -100.00000000</v>
    <i name="EFIELD">      0.00000000</i>
   </separator>
  </separator>
  <separator name="grids" >
   <i type="int" name="NGX">    12</i>
   <i type="int" name="NGY">    12</i>
   <i type="int" name="NGZ">    12</i>
   <i type="int" name="NGXF">    24</i>
   <i type="int" name="NGYF">    24</i>
   <i type="int" name="NGZF">    24</i>
   <i type="logical" name="ADDGRID"> F  </i>
  </separator>
  <separator name="ionic" >
   <i type="int" name="NSW">     0</i>
   <i type="int" name="IBRION">    -1</i>
   <i type="int" name="MDALGO">     0</i>
   <i type="int" name="ISIF">     2</i>
   <i name="PSTRESS">      0.00000000</i>
   <i name="EDIFFG">      0.00100000</i>
   <i type="int" name="NFREE">     0</i>
   <i name="POTIM">      0.50000000</i>
   <i name="SMASS">     -3.00000000</i>
   <i name="SCALEE">      1.00000000</i>
  </separator>
  <separator name="ionic md" >
   <i name="TEBEG">      0.00010000</i>
   <i name="TEEND">      0.00010000</i>
   <i type="int" name="NBLOCK">     1</i>
   <i type="int" name="KBLOCK">     1</i>
   <i type="int" name="NPACO">   256</i>
   <i name="APACO">     16.00000000</i>
  </separator>
  <separator name="symmetry" >
   <i type="int" name="ISYM">     2</i>
   <i name="SYMPREC">      0.00001000</i>
  </separator>
  <separator name="dos" >
   <i type="int" name="LORBIT">     0</i>
   <v name="RWIGS">      1.50300000</v>
   <i type="int" name="NEDOS">   301</i>
   <i name="EMIN">     10.00000000</i>
   <i name="EMAX">    -10.00000000</i>
   <i name="EFERMI">      0.00000000</i>
  </separator>
  <separator name="writing" >
   <i type="int" name="NWRITE">     2</i>
   <i type="logical" name="LWAVE"> T  </i>
   <i type="logical" name="LDOWNSAMPLE"> F  </i>
   <i type="logical" name="LCHARG"> T  </i>
   <i type="logical" name="LPARD"> F  </i>
   <i type="logical" name="LVTOT"> F  </i>
   <i type="logical" name="LVHAR"> F  </i>
   <i type="logical" name="LELF"> F  </i>
   <i type="logical" name="LOPTICS"> F  </i>
   <v name="STM">      0.00000000      0.00000000      0.00000000      0.00000000      0.00000000      0.00000000      0.00000000</v>
  </separator>
  <separator name="performance" >
   <i type="int" name="NPAR">     4</i>
   <i type="int" name="NSIM">     4</i>
   <i type="int" name="NBLK">    -1</i>
   <i type="logical" name="LPLANE"> T  </i>
   <i type="logical" name="LSCALAPACK"> T  </i>
   <i type="logical" name="LSCAAWARE"> F  </i>
   <i type="logical" name="LSCALU"> F  </i>
   <i type="logical" name="LASYNC"> F  </i>
   <i type="logical" name="LORBITALREAL"> F  </i>
  </separator>
  <separator name="miscellaneous" >
   <i type="int" name="IDIOT">     3</i>
   <i type="int" name="ISPECIAL">     0</i>
   <i type="logical" name="LMUSIC"> F  </i>
   <v name="POMASS">    196.96600000</v>
   <v name="DARWINR">      0.00000000</v>
   <v name="DARWINV">      1.00000000</v>
   <i type="logical" name="LCORR"> T  </i>
  </separator>
  <i type="logical" name="GGA_COMPAT"> T  </i>
  <i type="logical" name="LBERRY"> F  </i>
  <i type="int" name="ICORELEVEL">     0</i>
  <i type="logical" name="LDAU"> F  </i>
  <i type="int" name="I_CONSTRAINED_M">     0</i>
  <separator name="electronic exchange-correlation" >
   <i type="string" name="GGA">--</i>
   <i type="int" name="VOSKOWN">     0</i>
   <i type="logical" name="LHFCALC"> F  </i>
   <i type="string" name="PRECFOCK"></i>
   <i type="logical" name="LSYMGRAD"> F  </i>
   <i type="logical" name="LHFONE"> F  </i>
   <i type="logical" name="LRHFCALC"> F  </i>
   <i type="logical" name="LTHOMAS"> F  </i>
   <i type="logical" name="LMODELHF"> F  </i>
   <i name="ENCUT4O">     -1.00000000</i>
   <i type="int" name="EXXOEP">     0</i>
   <i type="int" name="FOURORBIT">     0</i>
   <i name="AEXX">      0.00000000</i>
   <i name="HFALPHA">      0.00000000</i>
   <i name="MCALPHA">      0.00000000</i>
   <i name="ALDAX">      1.00000000</i>
   <i name="AGGAX">      1.00000000</i>
   <i name="ALDAC">      1.00000000</i>
   <i name="AGGAC">      1.00000000</i>
   <i type="int" name="NKREDX">     1</i>
   <i type="int" name="NKREDY">     1</i>
   <i type="int" name="NKREDZ">     1</i>
   <i type="logical" name="SHIFTRED"> F  </i>
   <i type="logical" name="ODDONLY"> F  </i>
   <i type="logical" name="EVENONLY"> F  </i>
   <i type="int" name="LMAXFOCK">     0</i>
   <i type="int" name="NMAXFOCKAE">     0</i>
   <i type="logical" name="LFOCKAEDFT"> F  </i>
   <i name="HFSCREEN">      0.00000000</i>
   <i name="HFSCREENC">      0.00000000</i>
   <i type="int" name="NBANDSGWLOW">     0</i>
  </separator>
  <separator name="vdW DFT" >
   <i type="logical" name="LUSE_VDW"> F  </i>
   <i name="Zab_VDW">     -0.84910000</i>
   <i name="PARAM1">      0.12340000</i>
   <i name="PARAM2">      1.00000000</i>
   <i name="PARAM3">      0.00000000</i>
  </separator>
  <separator name="model GW" >
   <i type="int" name="MODEL_GW">     0</i>
   <i name="MODEL_EPS0">     10.72100625</i>
   <i name="MODEL_ALPHA">      1.00000000</i>
  </separator>
  <separator name="linear response parameters" >
   <i type="logical" name="LEPSILON"> F  </i>
   <i type="logical" name="LRPA"> F  </i>
   <i type="logical" name="LNABLA"> F  </i>
   <i type="logical" name="LVEL"> F  </i>
   <i type="int" name="KINTER">     0</i>
   <i name="CSHIFT">      0.10000000</i>
   <i name="OMEGAMAX">     -1.00000000</i>
   <i name="DEG_THRESHOLD">      0.00200000</i>
   <i name="RTIME">     -0.10000000</i>
   <i name="WPLASMAI">      0.00000000</i>
   <v name="DFIELD">      0.00000000      0.00000000      0.00000000</v>
   <v name="WPLASMA">      0.00000000      0.00000000      0.00000000      0.00000000      0.00000000      0.00000000      0.00000000      0.00000000      0.00000000</v>
  </separator>
  <separator name="orbital magnetization" >
   <i type="logical" name="NUCIND"> F  </i>
   <v name="MAGPOS">      0.00000000      0.00000000      0.00000000</v>
   <i type="logical" name="LNICSALL"> T  </i>
   <i type="logical" name="ORBITALMAG"> F  </i>
   <i type="logical" name="LMAGBLOCH"> F  </i>
   <i type="logical" name="LCHIMAG"> F  </i>
   <i type="logical" name="LGAUGE"> T  </i>
   <i type="int" name="MAGATOM">     0</i>
   <v name="MAGDIPOL">      0.00000000      0.00000000      0.00000000</v>
   <v name="AVECCONST">      0.00000000      0.00000000      0.00000000</v>
  </separator>
  <separator name="response functions" >
   <i type="logical" name="LADDER"> F  </i>
   <i type="logical" name="LRPAFORCE"> F  </i>
   <i type="logical" name="LFXC"> F  </i>
   <i type="logical" name="LHARTREE"> T  </i>
   <i type="int" name="IBSE">     0</i>
   <v type="int" name="KPOINT">    -1     0     0     0</v>
   <i type="logical" name="LTCTE"> F  </i>
   <i type="logical" name="LTETE"> F  </i>
   <i type="logical" name="LTRIPLET"> F  </i>
   <i type="logical" name="LFXCEPS"> F  </i>
   <i type="logical" name="LFXHEG"> F  </i>
   <i type="int" name="NATURALO">     2</i>
   <i type="logical" name="L2ORDER"> F  </i>
   <i type="logical" name="LMP2LT"> F  </i>
   <i type="logical" name="LUSEW"> F  </i>
   <i name="ENCUTGW">     -2.00000000</i>
   <i name="ENCUTGWSOFT">     -2.00000000</i>
   <i name="ENCUTLF">     -1.00000000</i>
   <i type="int" name="LMAXMP2">    -1</i>
   <i name="SCISSOR">      0.00000000</i>
   <i type="int" name="NOMEGA">     0</i>
   <i type="int" name="NOMEGAR">     0</i>
   <i type="int" name="NBANDSGW">    -1</i>
   <i type="int" name="NBANDSO">    -1</i>
   <i type="int" name="NBANDSV">    -1</i>
   <i type="int" name="NELM">     1</i>
   <i type="int" name="NELMHF">     1</i>
   <i type="int" name="DIM">     3</i>
   <i type="int" name="ANTIRES">     0</i>
   <i name="OMEGAMAX">    -30.00000000</i>
   <i name="OMEGAMIN">    -30.00000000</i>
   <i name="OMEGATL">   -200.00000000</i>
   <i type="int" name="OMEGAGRID">   140</i>
   <i name="CSHIFT">     -0.10000000</i>
   <i type="logical" name="SELFENERGY"> F  </i>
   <i type="logical" name="LSPECTRAL"> F  </i>
   <i type="logical" name="LSPECTRALGW"> F  </i>
   <i type="logical" name="LSINGLES"> F  </i>
   <i type="logical" name="LFERMIGW"> F  </i>
   <i type="logical" name="ODDONLYGW"> F  </i>
   <i type="logical" name="EVENONLYGW"> F  </i>
   <i type="int" name="NKREDLFX">     1</i>
   <i type="int" name="NKREDLFY">     1</i>
   <i type="int" name="NKREDLFZ">     1</i>
   <i type="int" name="MAXMEM">  2800</i>
   <i type="int" name="TELESCOPE">     0</i>
   <i type="int" name="TAUPAR">     1</i>
   <i type="int" name="OMEGAPAR">    -1</i>
   <i name="LAMBDA">      1.00000000</i>
  </separator>
  <separator name="External order field" >
   <i name="OFIELD_KAPPA">      0.00000000</i>
   <v name="OFIELD_K">      0.00000000      0.00000000      0.00000000</v>
   <i name="OFIELD_Q6_NEAR">      0.00000000</i>
   <i name="OFIELD_Q6_FAR">      0.00000000</i>
   <i name="OFIELD_A">      0.00000000</i>
  </separator>
 </parameters>
 <atominfo>
  <atoms>       1 </atoms>
  <types>       1 </types>
  <array name="atoms" >
   <dimension dim="1">ion</dimension>
   <field type="string">element</field>
   <field type="int">atomtype</field>
   <set>
    <rc><c>Au</c><c>   1</c></rc>
   </set>
  </array>
  <array name="atomtypes" >
   <dimension dim="1">type</dimension>
   <field type="int">atomspertype</field>
   <field type="string">element</field>
   <field>mass</field>
   <field>valence</field>
   <field type="string">pseudopotential</field>
   <set>
    <rc><c>   1</c><c>Au</c><c>    196.96600000</c><c>     11.00000000</c><c> PAW Au 04Feb1998                       </c></rc>
   </set>
  </array>
 </atominfo>
 <structure name="initialpos" >
  <crystal>
   <varray name="basis" >
    <v>       0.00000000       2.07500000       2.07500000 </v>
    <v>       2.07500000       0.00000000       2.07500000 </v>
    <v>       2.07500000       2.07500000       0.00000000 </v>
   </varray>
   <i name="volume">     17.86834375 </i>
   <varray name="rec_basis" >
    <v>      -0.24096386       0.24096386       0.24096386 </v>
    <v>       0.24096386      -0.24096386       0.24096386 </v>
    <v>       0.24096386       0.24096386      -0.24096386 </v>
   </varray>
  </crystal>
  <varray name="positions" >
   <v>       0.00000000       0.00000000       0.00000000 </v>
  </varray>
 </structure>
 <calculation>
  <scstep>
   <time name="dav">    0.26    0.26</time>
   <time name="total">    0.26    0.27</time>
   <energy>
    <i name="alphaZ">    102.85672616 </i>
    <i name="ewald">   -962.47537394 </i>
    <i name="hartreedc">   -129.00886909 </i>
    <i name="XCdc">     16.16665490 </i>
    <i name="pawpsdc">    746.10209728 </i>
    <i name="pawaedc">   -725.46159323 </i>
    <i name="eentropy">     -0.00038669 </i>
    <i name="bandstr">     52.87882670 </i>
    <i name="atom">    929.39614979 </i>
    <i name="e_fr_energy">     30.45423189 </i>
    <i name="e_wo_entrp">     30.45461858 </i>
    <i name="e_0_energy">     30.45436079 </i>
   </energy>
  </scstep>
  <scstep>
   <time name="dav">    0.23    0.24</time>
   <time name="total">    0.24    0.24</time>
   <energy>
    <i name="e_fr_energy">     -4.34055434 </i>
    <i name="e_wo_entrp">     -4.34072716 </i>
    <i name="e_0_energy">     -4.34061194 </i>
   </energy>
  </scstep>
  <scstep>
   <time name="dav">    0.22    0.23</time>
   <time name="total">    0.22    0.23</time>
   <energy>
    <i name="e_fr_energy">     -4.67753943 </i>
    <i name="e_wo_entrp">     -4.67746474 </i>
    <i name="e_0_energy">     -4.67751453 </i>
   </energy>
  </scstep>
  <scstep>
   <time name="dav">    0.21    0.22</time>
   <time name="total">    0.22    0.22</time>
   <energy>
    <i name="e_fr_energy">     -4.67841807 </i>
    <i name="e_wo_entrp">     -4.67834309 </i>
    <i name="e_0_energy">     -4.67839308 </i>
   </energy>
  </scstep>
  <scstep>
   <time name="dav">    0.21    0.22</time>
   <time name="total">    0.22    0.22</time>
   <energy>
    <i name="e_fr_energy">     -4.67842422 </i>
    <i name="e_wo_entrp">     -4.67834923 </i>
    <i name="e_0_energy">     -4.67839922 </i>
   </energy>
  </scstep>
  <scstep>
   <time name="dav">    0.23    0.24</time>
   <time name="total">    0.24    0.25</time>
   <energy>
    <i name="e_fr_energy">     -4.37840053 </i>
    <i name="e_wo_entrp">     -4.37927100 </i>
    <i name="e_0_energy">     -4.37869069 </i>
   </energy>
  </scstep>
  <scstep>
   <time name="dav">    0.22    0.23</time>
   <time name="total">    0.23    0.23</time>
   <energy>
    <i name="e_fr_energy">     -4.35848660 </i>
    <i name="e_wo_entrp">     -4.35932363 </i>
    <i name="e_0_energy">     -4.35876561 </i>
   </energy>
  </scstep>
  <scstep>
   <time name="dav">    0.22    0.22</time>
   <time name="total">    0.23    0.23</time>
   <energy>
    <i name="e_fr_energy">     -4.35411580 </i>
    <i name="e_wo_entrp">     -4.35495565 </i>
    <i name="e_0_energy">     -4.35439575 </i>
   </energy>
  </scstep>
  <scstep>
   <time name="dav">    0.17    0.17</time>
   <time name="total">    0.17    0.18</time>
   <energy>
    <i name="alphaZ">    102.85672616 </i>
    <i name="ewald">   -962.47537394 </i>
    <i name="hartreedc">   -117.75186379 </i>
    <i name="XCdc">     15.58567782 </i>
    <i name="pawpsdc">    744.97316837 </i>
    <i name="pawaedc">   -726.82586928 </i>
    <i name="eentropy">      0.00083993 </i>
    <i name="bandstr">      9.88642990 </i>
    <i name="atom">    929.39614979 </i>
    <i name="e_fr_energy">     -4.35411504 </i>
    <i name="e_wo_entrp">     -4.35495498 </i>
    <i name="e_0_energy">     -4.35439502 </i>
   </energy>
  </scstep>
  <structure>
   <crystal>
    <varray name="basis" >
     <v>       0.00000000       2.07500000       2.07500000 </v>
     <v>       2.07500000       0.00000000       2.07500000 </v>
     <v>       2.07500000       2.07500000       0.00000000 </v>
    </varray>
    <i name="volume">     17.86834375 </i>
    <varray name="rec_basis" >
     <v>      -0.24096386       0.24096386       0.24096386 </v>
     <v>       0.24096386      -0.24096386       0.24096386 </v>
     <v>       0.24096386       0.24096386      -0.24096386 </v>
    </varray>
   </crystal>
   <varray name="positions" >
    <v>       0.00000000       0.00000000       0.00000000 </v>
   </varray>
  </structure>
  <varray name="forces" >
   <v>       0.00000000      -0.00000000      -0.00000000 </v>
  </varray>
  <varray name="stress" >
   <v>    -139.53287340       0.00000000       0.00000000 </v>
   <v>       0.00000000    -139.53287340      -0.00000000 </v>
   <v>       0.00000000       0.00000000    -139.53287340 </v>
  </varray>
  <energy>
   <i name="e_fr_energy">     -4.35411504 </i>
   <i name="e_wo_entrp">     -4.35439502 </i>
   <i name="e_0_energy">      0.00083993 </i>
  </energy>
  <time name="totalsc">    2.18    2.24</time>
  <eigenvalues>
   <array>
    <dimension dim="1">band</dimension>
    <dimension dim="2">kpoint</dimension>
    <dimension dim="3">spin</dimension>
    <field>eigene</field>
    <field>occ</field>
    <set>
     <set comment="spin 1">
      <set comment="kpoint 1">
       <r>   -4.4159    1.0000 </r>
       <r>    0.4489    1.0000 </r>
       <r>    0.5054    1.0000 </r>
       <r>    0.5054    1.0000 </r>
       <r>    1.8864    1.0000 </r>
       <r>    1.8864    1.0000 </r>
       <r>   20.3374    0.0000 </r>
       <r>   23.1259    0.0000 </r>
       <r>   23.8777    0.0000 </r>
       <r>   23.8777    0.0000 </r>
       <r>   28.5946    0.0000 </r>
       <r>   31.2147    0.0000 </r>
      </set>
      <set comment="kpoint 2">
       <r>   -3.9808    1.0000 </r>
       <r>    0.3103    1.0000 </r>
       <r>    0.6330    1.0000 </r>
       <r>    0.6614    1.0000 </r>
       <r>    1.7455    1.0000 </r>
       <r>    1.9304    1.0000 </r>
       <r>   20.4975    0.0000 </r>
       <r>   21.2393    0.0000 </r>
       <r>   23.4285    0.0000 </r>
       <r>   24.7452    0.0000 </r>
       <r>   27.8182    0.0000 </r>
       <r>   30.4118    0.0000 </r>
      </set>
      <set comment="kpoint 3">
       <r>   -3.0338    1.0000 </r>
       <r>    0.2101    1.0000 </r>
       <r>    0.7738    1.0000 </r>
       <r>    0.7922    1.0000 </r>
       <r>    1.7575    1.0000 </r>
       <r>    2.1277    1.0000 </r>
       <r>   17.2155    0.0000 </r>
       <r>   21.1075    0.0000 </r>
       <r>   23.4710    0.0000 </r>
       <r>   25.7782    0.0000 </r>
       <r>   26.0509    0.0000 </r>
       <r>   28.2580    0.0000 </r>
      </set>
      <set comment="kpoint 4">
       <r>   -2.1721    1.0000 </r>
       <r>    0.6110    1.0000 </r>
       <r>    0.6875    1.0000 </r>
       <r>    0.8522    1.0000 </r>
       <r>    2.2073    1.0000 </r>
       <r>    2.6538    1.0000 </r>
       <r>   13.2235    0.0000 </r>
       <r>   20.4794    0.0000 </r>
       <r>   22.4862    0.0000 </r>
       <r>   24.5631    0.0000 </r>
       <r>   27.1831    0.0000 </r>
       <r>   28.1570    0.0000 </r>
      </set>
      <set comment="kpoint 5">
       <r>   -1.9472    1.0000 </r>
       <r>    0.4705    1.0000 </r>
       <r>    0.5343    1.0000 </r>
       <r>    2.2719    1.0000 </r>
       <r>    2.7500    1.0000 </r>
       <r>    3.5357    1.0000 </r>
       <r>    9.5048   -0.0000 </r>
       <r>   19.7898    0.0000 </r>
       <r>   21.6183    0.0000 </r>
       <r>   22.6951    0.0000 </r>
       <r>   28.7673    0.0000 </r>
       <r>   28.9580    0.0000 </r>
      </set>
      <set comment="kpoint 6">
       <r>   -1.9383    1.0000 </r>
       <r>    0.4102    1.0000 </r>
       <r>    0.4982    1.0000 </r>
       <r>    2.6153    1.0000 </r>
       <r>    3.0114    1.0000 </r>
       <r>    4.4977    1.0126 </r>
       <r>    7.8301   -0.0000 </r>
       <r>   19.6043    0.0000 </r>
       <r>   21.6825    0.0000 </r>
       <r>   21.8110    0.0000 </r>
       <r>   29.1810    0.0000 </r>
       <r>   29.2475    0.0000 </r>
      </set>
      <set comment="kpoint 7">
       <r>   -1.9756    1.0000 </r>
       <r>    0.4986    1.0000 </r>
       <r>    0.5990    1.0000 </r>
       <r>    1.7470    1.0000 </r>
       <r>    2.8223    1.0000 </r>
       <r>    2.9871    1.0000 </r>
       <r>   10.6638    0.0000 </r>
       <r>   20.0226    0.0000 </r>
       <r>   22.0506    0.0000 </r>
       <r>   22.8444    0.0000 </r>
       <r>   28.7044    0.0000 </r>
       <r>   28.9164    0.0000 </r>
      </set>
      <set comment="kpoint 8">
       <r>   -2.3921    1.0000 </r>
       <r>    0.4505    1.0000 </r>
       <r>    0.7064    1.0000 </r>
       <r>    0.7567    1.0000 </r>
       <r>    2.1281    1.0000 </r>
       <r>    2.3666    1.0000 </r>
       <r>   14.5539    0.0000 </r>
       <r>   20.8610    0.0000 </r>
       <r>   22.9230    0.0000 </r>
       <r>   24.6966    0.0000 </r>
       <r>   26.8386    0.0000 </r>
       <r>   28.6637    0.0000 </r>
      </set>
      <set comment="kpoint 9">
       <r>   -3.3830    1.0000 </r>
       <r>    0.1972    1.0000 </r>
       <r>    0.7657    1.0000 </r>
       <r>    0.7760    1.0000 </r>
       <r>    1.7176    1.0000 </r>
       <r>    2.0117    1.0000 </r>
       <r>   18.5086    0.0000 </r>
       <r>   21.2611    0.0000 </r>
       <r>   23.4730    0.0000 </r>
       <r>   25.1383    0.0000 </r>
       <r>   26.5671    0.0000 </r>
       <r>   29.2347    0.0000 </r>
      </set>
      <set comment="kpoint 10">
       <r>   -4.1947    1.0000 </r>
       <r>    0.3509    1.0000 </r>
       <r>    0.5923    1.0000 </r>
       <r>    0.5963    1.0000 </r>
       <r>    1.7688    1.0000 </r>
       <r>    1.9388    1.0000 </r>
       <r>   20.5335    0.0000 </r>
       <r>   22.2164    0.0000 </r>
       <r>   23.5590    0.0000 </r>
       <r>   23.9699    0.0000 </r>
       <r>   28.9890    0.0000 </r>
       <r>   30.5261    0.0000 </r>
      </set>
      <set comment="kpoint 11">
       <r>   -3.7646    1.0000 </r>
       <r>    0.1548    1.0000 </r>
       <r>    0.7762    1.0000 </r>
       <r>    0.7792    1.0000 </r>
       <r>    1.5717    1.0000 </r>
       <r>    2.0373    1.0000 </r>
       <r>   20.7779    0.0000 </r>
       <r>   21.3944    0.0000 </r>
       <r>   22.8089    0.0000 </r>
       <r>   23.5237    0.0000 </r>
       <r>   27.9910    0.0000 </r>
       <r>   29.9560    0.0000 </r>
      </set>
      <set comment="kpoint 12">
       <r>   -2.9788    1.0000 </r>
       <r>   -0.0686    1.0000 </r>
       <r>    0.8701    1.0000 </r>
       <r>    1.0362    1.0000 </r>
       <r>    1.5280    1.0000 </r>
       <r>    2.2409    1.0000 </r>
       <r>   18.7482    0.0000 </r>
       <r>   20.5673    0.0000 </r>
       <r>   22.5827    0.0000 </r>
       <r>   23.7957    0.0000 </r>
       <r>   25.9613    0.0000 </r>
       <r>   29.1738    0.0000 </r>
      </set>
      <set comment="kpoint 13">
       <r>   -2.0041    1.0000 </r>
       <r>    0.0161    1.0000 </r>
       <r>    0.5970    1.0000 </r>
       <r>    1.0454    1.0000 </r>
       <r>    2.1371    1.0000 </r>
       <r>    2.7786    1.0000 </r>
       <r>   14.7793    0.0000 </r>
       <r>   19.9932    0.0000 </r>
       <r>   21.5437    0.0000 </r>
       <r>   23.4299    0.0000 </r>
       <r>   27.0180    0.0000 </r>
       <r>   28.9154    0.0000 </r>
      </set>
      <set comment="kpoint 14">
       <r>   -1.6206    1.0000 </r>
       <r>    0.3226    1.0000 </r>
       <r>    0.8220    1.0000 </r>
       <r>    0.9725    1.0000 </r>
       <r>    2.8119    1.0000 </r>
       <r>    3.9208    1.0000 </r>
       <r>   10.8747    0.0000 </r>
       <r>   19.6052    0.0000 </r>
       <r>   20.2177    0.0000 </r>
       <r>   22.2015    0.0000 </r>
       <r>   28.8809    0.0000 </r>
       <r>   29.8802    0.0000 </r>
      </set>
      <set comment="kpoint 15">
       <r>   -1.5940    1.0000 </r>
       <r>    0.2052    1.0000 </r>
       <r>    0.7743    1.0000 </r>
       <r>    1.6715    1.0000 </r>
       <r>    2.9674    1.0000 </r>
       <r>    5.8197   -0.0000 </r>
       <r>    7.8368   -0.0000 </r>
       <r>   19.1888    0.0000 </r>
       <r>   19.8234    0.0000 </r>
       <r>   21.5656    0.0000 </r>
       <r>   29.2120    0.0000 </r>
       <r>   30.3131    0.0000 </r>
      </set>
      <set comment="kpoint 16">
       <r>   -1.5821    1.0000 </r>
       <r>    0.2777    1.0000 </r>
       <r>    0.7971    1.0000 </r>
       <r>    1.3717    1.0000 </r>
       <r>    2.6810    1.0000 </r>
       <r>    4.6036    1.0342 </r>
       <r>    9.7520   -0.0000 </r>
       <r>   18.7600    0.0000 </r>
       <r>   20.4340    0.0000 </r>
       <r>   22.3850    0.0000 </r>
       <r>   28.5018    0.0000 </r>
       <r>   29.9253    0.0000 </r>
      </set>
      <set comment="kpoint 17">
       <r>   -1.7689    1.0000 </r>
       <r>    0.2763    1.0000 </r>
       <r>    0.5604    1.0000 </r>
       <r>    0.9691    1.0000 </r>
       <r>    2.0511    1.0000 </r>
       <r>    3.2828    1.0000 </r>
       <r>   13.4688    0.0000 </r>
       <r>   18.9617    0.0000 </r>
       <r>   21.5460    0.0000 </r>
       <r>   24.2548    0.0000 </r>
       <r>   26.8025    0.0000 </r>
       <r>   29.0537    0.0000 </r>
      </set>
      <set comment="kpoint 18">
       <r>   -2.6374    1.0000 </r>
       <r>   -0.0276    1.0000 </r>
       <r>    0.7755    1.0000 </r>
       <r>    1.0570    1.0000 </r>
       <r>    1.5210    1.0000 </r>
       <r>    2.4844    1.0000 </r>
       <r>   17.3534    0.0000 </r>
       <r>   19.5788    0.0000 </r>
       <r>   23.1854    0.0000 </r>
       <r>   24.1637    0.0000 </r>
       <r>   27.1495    0.0000 </r>
       <r>   27.9349    0.0000 </r>
      </set>
      <set comment="kpoint 19">
       <r>   -3.5650    1.0000 </r>
       <r>    0.1604    1.0000 </r>
       <r>    0.7802    1.0000 </r>
       <r>    0.7883    1.0000 </r>
       <r>    1.6079    1.0000 </r>
       <r>    2.0475    1.0000 </r>
       <r>   19.7783    0.0000 </r>
       <r>   20.9176    0.0000 </r>
       <r>   22.9973    0.0000 </r>
       <r>   24.7996    0.0000 </r>
       <r>   26.9199    0.0000 </r>
       <r>   29.7706    0.0000 </r>
      </set>
      <set comment="kpoint 20">
       <r>   -2.4508    1.0000 </r>
       <r>   -0.3960    1.0000 </r>
       <r>    1.0150    1.0000 </r>
       <r>    1.3866    1.0000 </r>
       <r>    1.5670    1.0000 </r>
       <r>    2.3506    1.0000 </r>
       <r>   19.1590    0.0000 </r>
       <r>   20.2359    0.0000 </r>
       <r>   21.5477    0.0000 </r>
       <r>   22.3461    0.0000 </r>
       <r>   23.0445    0.0000 </r>
       <r>   30.7716    0.0000 </r>
      </set>
      <set comment="kpoint 21">
       <r>   -1.6775    1.0000 </r>
       <r>   -0.6016    1.0000 </r>
       <r>    0.7812    1.0000 </r>
       <r>    1.7085    1.0000 </r>
       <r>    2.1767    1.0000 </r>
       <r>    2.7990    1.0000 </r>
       <r>   16.4632    0.0000 </r>
       <r>   18.3871    0.0000 </r>
       <r>   20.0188    0.0000 </r>
       <r>   22.6234    0.0000 </r>
       <r>   24.0113    0.0000 </r>
       <r>   30.7861    0.0000 </r>
      </set>
      <set comment="kpoint 22">
       <r>   -1.2224    1.0000 </r>
       <r>   -0.3553    1.0000 </r>
       <r>    0.5560    1.0000 </r>
       <r>    1.5882    1.0000 </r>
       <r>    2.8902    1.0000 </r>
       <r>    4.1741    1.0000 </r>
       <r>   12.5054    0.0000 </r>
       <r>   17.6922    0.0000 </r>
       <r>   18.3314    0.0000 </r>
       <r>   22.3238    0.0000 </r>
       <r>   27.1158    0.0000 </r>
       <r>   30.6341    0.0000 </r>
      </set>
      <set comment="kpoint 23">
       <r>   -1.1099    1.0000 </r>
       <r>   -0.1085    1.0000 </r>
       <r>    0.7531    1.0000 </r>
       <r>    1.4060    1.0000 </r>
       <r>    2.9996    1.0000 </r>
       <r>    6.5315   -0.0000 </r>
       <r>    9.0311   -0.0000 </r>
       <r>   16.4250    0.0000 </r>
       <r>   18.3967    0.0000 </r>
       <r>   22.0051    0.0000 </r>
       <r>   29.7224    0.0000 </r>
       <r>   31.0842    0.0000 </r>
      </set>
      <set comment="kpoint 24">
       <r>   -0.9539    1.0000 </r>
       <r>   -0.0502    1.0000 </r>
       <r>    0.7812    1.0000 </r>
       <r>    1.3106    1.0000 </r>
       <r>    2.6411    1.0000 </r>
       <r>    6.3750   -0.0000 </r>
       <r>    9.5169   -0.0000 </r>
       <r>   15.3808    0.0000 </r>
       <r>   19.5676    0.0000 </r>
       <r>   22.1889    0.0000 </r>
       <r>   28.9645    0.0000 </r>
       <r>   31.2551    0.0000 </r>
      </set>
      <set comment="kpoint 25">
       <r>   -0.8861    1.0000 </r>
       <r>    0.0101    1.0000 </r>
       <r>    0.2610    1.0000 </r>
       <r>    1.3857    1.0000 </r>
       <r>    2.0123    1.0000 </r>
       <r>    4.6183    1.0354 </r>
       <r>   12.8162    0.0000 </r>
       <r>   15.2846    0.0000 </r>
       <r>   20.8986    0.0000 </r>
       <r>   23.4456    0.0000 </r>
       <r>   26.9515    0.0000 </r>
       <r>   31.0114    0.0000 </r>
      </set>
      <set comment="kpoint 26">
       <r>   -1.6302    1.0000 </r>
       <r>   -0.0972    1.0000 </r>
       <r>    0.5330    1.0000 </r>
       <r>    1.2705    1.0000 </r>
       <r>    1.6499    1.0000 </r>
       <r>    3.3640    1.0000 </r>
       <r>   14.9036    0.0000 </r>
       <r>   17.4700    0.0000 </r>
       <r>   21.9895    0.0000 </r>
       <r>   24.8970    0.0000 </r>
       <r>   25.7658    0.0000 </r>
       <r>   29.5344    0.0000 </r>
      </set>
      <set comment="kpoint 27">
       <r>   -2.5523    1.0000 </r>
       <r>    0.1414    1.0000 </r>
       <r>    0.7499    1.0000 </r>
       <r>    0.8816    1.0000 </r>
       <r>    1.8190    1.0000 </r>
       <r>    2.4151    1.0000 </r>
       <r>   15.9755    0.0000 </r>
       <r>   20.7094    0.0000 </r>
       <r>   22.5893    0.0000 </r>
       <r>   24.9954    0.0000 </r>
       <r>   26.5186    0.0000 </r>
       <r>   28.1603    0.0000 </r>
      </set>
      <set comment="kpoint 28">
       <r>   -1.5244    1.0000 </r>
       <r>   -0.9505    1.0000 </r>
       <r>    1.6139    1.0000 </r>
       <r>    2.1936    1.0000 </r>
       <r>    2.6118    1.0000 </r>
       <r>    2.7298    1.0000 </r>
       <r>   16.3672    0.0000 </r>
       <r>   17.4649    0.0000 </r>
       <r>   17.6004    0.0000 </r>
       <r>   21.5235    0.0000 </r>
       <r>   23.4110    0.0000 </r>
       <r>   33.1953    0.0000 </r>
      </set>
      <set comment="kpoint 29">
       <r>   -1.3747    1.0000 </r>
       <r>   -1.0508    1.0000 </r>
       <r>    1.6504    1.0000 </r>
       <r>    2.4703    1.0000 </r>
       <r>    2.9046    1.0000 </r>
       <r>    4.2495    1.0001 </r>
       <r>   13.6243    0.0000 </r>
       <r>   15.7744    0.0000 </r>
       <r>   16.4109    0.0000 </r>
       <r>   22.4879    0.0000 </r>
       <r>   24.3475    0.0000 </r>
       <r>   32.7175    0.0000 </r>
      </set>
      <set comment="kpoint 30">
       <r>   -1.2168    1.0000 </r>
       <r>   -0.7555    1.0000 </r>
       <r>    1.3211    1.0000 </r>
       <r>    2.1922    1.0000 </r>
       <r>    3.0872    1.0000 </r>
       <r>    6.7531   -0.0000 </r>
       <r>   10.5656    0.0000 </r>
       <r>   14.0119    0.0000 </r>
       <r>   16.5412    0.0000 </r>
       <r>   22.7234    0.0000 </r>
       <r>   27.0109    0.0000 </r>
       <r>   31.7137    0.0000 </r>
      </set>
      <set comment="kpoint 31">
       <r>   -0.9489    1.0000 </r>
       <r>   -0.2798    1.0000 </r>
       <r>    0.8170    1.0000 </r>
       <r>    1.8908    1.0000 </r>
       <r>    2.7974    1.0000 </r>
       <r>    7.9080   -0.0000 </r>
       <r>   10.0144   -0.0000 </r>
       <r>   12.3782    0.0000 </r>
       <r>   17.7959    0.0000 </r>
       <r>   22.5655    0.0000 </r>
       <r>   30.2484    0.0000 </r>
       <r>   30.5877    0.0000 </r>
      </set>
      <set comment="kpoint 32">
       <r>   -0.6944    1.0000 </r>
       <r>   -0.0056    1.0000 </r>
       <r>    0.3623    1.0000 </r>
       <r>    1.5627    1.0000 </r>
       <r>    2.4212    1.0000 </r>
       <r>    6.1913   -0.0000 </r>
       <r>   11.3234    0.0000 </r>
       <r>   13.3729    0.0000 </r>
       <r>   19.5349    0.0000 </r>
       <r>   22.5260    0.0000 </r>
       <r>   28.7419    0.0000 </r>
       <r>   31.5399    0.0000 </r>
      </set>
      <set comment="kpoint 33">
       <r>   -1.2477    1.0000 </r>
       <r>    0.1875    1.0000 </r>
       <r>    0.6648    1.0000 </r>
       <r>    1.1063    1.0000 </r>
       <r>    2.3442    1.0000 </r>
       <r>    4.6170    1.0353 </r>
       <r>   11.2545    0.0000 </r>
       <r>   17.0070    0.0000 </r>
       <r>   20.7001    0.0000 </r>
       <r>   22.9480    0.0000 </r>
       <r>   27.6587    0.0000 </r>
       <r>   30.4197    0.0000 </r>
      </set>
      <set comment="kpoint 34">
       <r>   -1.9084    1.0000 </r>
       <r>    0.5030    1.0000 </r>
       <r>    0.7292    1.0000 </r>
       <r>    0.9979    1.0000 </r>
       <r>    2.4689    1.0000 </r>
       <r>    3.1276    1.0000 </r>
       <r>   11.9976    0.0000 </r>
       <r>   20.1018    0.0000 </r>
       <r>   21.4038    0.0000 </r>
       <r>   23.4910    0.0000 </r>
       <r>   27.9834    0.0000 </r>
       <r>   28.8076    0.0000 </r>
      </set>
      <set comment="kpoint 35">
       <r>   -1.6129    1.0000 </r>
       <r>   -1.3189    1.0000 </r>
       <r>    2.8139    1.0000 </r>
       <r>    2.8368    1.0000 </r>
       <r>    3.1173    1.0000 </r>
       <r>    4.8071    0.7434 </r>
       <r>   12.1720    0.0000 </r>
       <r>   15.1682    0.0000 </r>
       <r>   15.5103    0.0000 </r>
       <r>   21.7925    0.0000 </r>
       <r>   24.0418    0.0000 </r>
       <r>   34.0612    0.0000 </r>
      </set>
      <set comment="kpoint 36">
       <r>   -1.5430    1.0000 </r>
       <r>   -1.2721    1.0000 </r>
       <r>    2.4927    1.0000 </r>
       <r>    2.7695    1.0000 </r>
       <r>    3.2512    1.0000 </r>
       <r>    6.7640   -0.0000 </r>
       <r>   10.3404    0.0000 </r>
       <r>   14.1426    0.0000 </r>
       <r>   15.1044    0.0000 </r>
       <r>   22.6786    0.0000 </r>
       <r>   24.6133    0.0000 </r>
       <r>   33.2066    0.0000 </r>
      </set>
      <set comment="kpoint 37">
       <r>   -1.2649    1.0000 </r>
       <r>   -0.8407    1.0000 </r>
       <r>    1.5908    1.0000 </r>
       <r>    2.3465    1.0000 </r>
       <r>    3.0867    1.0000 </r>
       <r>    8.1777   -0.0000 </r>
       <r>    9.6493   -0.0000 </r>
       <r>   12.7646    0.0000 </r>
       <r>   16.2093    0.0000 </r>
       <r>   22.8778    0.0000 </r>
       <r>   27.0012    0.0000 </r>
       <r>   31.9215    0.0000 </r>
      </set>
      <set comment="kpoint 38">
       <r>   -0.9832    1.0000 </r>
       <r>   -0.2352    1.0000 </r>
       <r>    0.7777    1.0000 </r>
       <r>    1.6878    1.0000 </r>
       <r>    2.9092    1.0000 </r>
       <r>    7.9273   -0.0000 </r>
       <r>    8.6360   -0.0000 </r>
       <r>   14.3303    0.0000 </r>
       <r>   17.9957    0.0000 </r>
       <r>   22.3378    0.0000 </r>
       <r>   29.9752    0.0000 </r>
       <r>   30.8622    0.0000 </r>
      </set>
      <set comment="kpoint 39">
       <r>   -1.2929    1.0000 </r>
       <r>    0.0504    1.0000 </r>
       <r>    1.0187    1.0000 </r>
       <r>    1.2363    1.0000 </r>
       <r>    2.8544    1.0000 </r>
       <r>    6.5759   -0.0000 </r>
       <r>    8.0177   -0.0000 </r>
       <r>   17.3953    0.0000 </r>
       <r>   19.6413    0.0000 </r>
       <r>   21.7633    0.0000 </r>
       <r>   29.1779    0.0000 </r>
       <r>   30.8347    0.0000 </r>
      </set>
      <set comment="kpoint 40">
       <r>   -1.8178    1.0000 </r>
       <r>    0.3570    1.0000 </r>
       <r>    0.6054    1.0000 </r>
       <r>    2.0635    1.0000 </r>
       <r>    2.9278    1.0000 </r>
       <r>    4.5627    1.0266 </r>
       <r>    8.5409   -0.0000 </r>
       <r>   19.6649    0.0000 </r>
       <r>   20.8236    0.0000 </r>
       <r>   21.9622    0.0000 </r>
       <r>   29.0587    0.0000 </r>
       <r>   29.5700    0.0000 </r>
      </set>
      <set comment="kpoint 41">
       <r>   -1.6814    1.0000 </r>
       <r>   -1.3975    1.0000 </r>
       <r>    2.9158    1.0000 </r>
       <r>    3.0863    1.0000 </r>
       <r>    3.2598    1.0000 </r>
       <r>    6.0427   -0.0000 </r>
       <r>   10.5261    0.0000 </r>
       <r>   14.7004    0.0000 </r>
       <r>   15.0694    0.0000 </r>
       <r>   21.8875    0.0000 </r>
       <r>   24.1713    0.0000 </r>
       <r>   33.8751    0.0000 </r>
      </set>
      <set comment="kpoint 42">
       <r>   -1.4720    1.0000 </r>
       <r>   -1.1966    1.0000 </r>
       <r>    2.1620    1.0000 </r>
       <r>    2.7149    1.0000 </r>
       <r>    3.1113    1.0000 </r>
       <r>    5.5117   -0.0000 </r>
       <r>   11.8808    0.0000 </r>
       <r>   14.6890    0.0000 </r>
       <r>   15.5376    0.0000 </r>
       <r>   22.5966    0.0000 </r>
       <r>   24.5223    0.0000 </r>
       <r>   33.1237    0.0000 </r>
      </set>
      <set comment="kpoint 43">
       <r>   -1.1689    1.0000 </r>
       <r>   -0.5856    1.0000 </r>
       <r>    0.9179    1.0000 </r>
       <r>    1.9123    1.0000 </r>
       <r>    3.0421    1.0000 </r>
       <r>    5.3618   -0.0013 </r>
       <r>   11.4817    0.0000 </r>
       <r>   15.8537    0.0000 </r>
       <r>   17.2011    0.0000 </r>
       <r>   22.4899    0.0000 </r>
       <r>   27.0459    0.0000 </r>
       <r>   31.2821    0.0000 </r>
      </set>
      <set comment="kpoint 44">
       <r>   -1.3385    1.0000 </r>
       <r>    0.0983    1.0000 </r>
       <r>    0.7841    1.0000 </r>
       <r>    1.1374    1.0000 </r>
       <r>    2.9835    1.0000 </r>
       <r>    5.0998   -0.0348 </r>
       <r>    9.8696   -0.0000 </r>
       <r>   18.4653    0.0000 </r>
       <r>   18.9916    0.0000 </r>
       <r>   21.8131    0.0000 </r>
       <r>   29.3989    0.0000 </r>
       <r>   30.9666    0.0000 </r>
      </set>
      <set comment="kpoint 45">
       <r>   -1.5206    1.0000 </r>
       <r>   -1.1666    1.0000 </r>
       <r>    2.3298    1.0000 </r>
       <r>    2.5663    1.0000 </r>
       <r>    2.9186    1.0000 </r>
       <r>    3.5132    1.0000 </r>
       <r>   14.3178    0.0000 </r>
       <r>   16.0837    0.0000 </r>
       <r>   16.3369    0.0000 </r>
       <r>   21.6389    0.0000 </r>
       <r>   23.7836    0.0000 </r>
       <r>   34.1311    0.0000 </r>
      </set>
      <set comment="kpoint 46">
       <r>   -1.3733    1.0000 </r>
       <r>   -0.8471    1.0000 </r>
       <r>    1.0952    1.0000 </r>
       <r>    2.0997    1.0000 </r>
       <r>    2.6171    1.0000 </r>
       <r>    3.3190    1.0000 </r>
       <r>   15.1445    0.0000 </r>
       <r>   17.1015    0.0000 </r>
       <r>   17.9474    0.0000 </r>
       <r>   22.4626    0.0000 </r>
       <r>   24.1270    0.0000 </r>
       <r>   31.8535    0.0000 </r>
      </set>
      <set comment="kpoint 47">
       <r>   -1.5081    1.0000 </r>
       <r>   -0.1394    1.0000 </r>
       <r>    0.4489    1.0000 </r>
       <r>    1.2870    1.0000 </r>
       <r>    2.5828    1.0000 </r>
       <r>    3.3030    1.0000 </r>
       <r>   13.6177    0.0000 </r>
       <r>   18.9481    0.0000 </r>
       <r>   20.1296    0.0000 </r>
       <r>   22.4659    0.0000 </r>
       <r>   27.1664    0.0000 </r>
       <r>   29.8178    0.0000 </r>
      </set>
      <set comment="kpoint 48">
       <r>   -1.8257    1.0000 </r>
       <r>   -0.6869    1.0000 </r>
       <r>    1.1011    1.0000 </r>
       <r>    1.7798    1.0000 </r>
       <r>    2.0133    1.0000 </r>
       <r>    2.5389    1.0000 </r>
       <r>   17.8948    0.0000 </r>
       <r>   18.7987    0.0000 </r>
       <r>   19.8875    0.0000 </r>
       <r>   21.6018    0.0000 </r>
       <r>   22.9575    0.0000 </r>
       <r>   31.8836    0.0000 </r>
      </set>
      <set comment="kpoint 49">
       <r>   -2.2941    1.0000 </r>
       <r>   -0.3339    1.0000 </r>
       <r>    0.7983    1.0000 </r>
       <r>    1.3467    1.0000 </r>
       <r>    1.7445    1.0000 </r>
       <r>    2.4863    1.0000 </r>
       <r>   17.6563    0.0000 </r>
       <r>   19.6231    0.0000 </r>
       <r>   21.8891    0.0000 </r>
       <r>   22.9098    0.0000 </r>
       <r>   24.5242    0.0000 </r>
       <r>   29.7824    0.0000 </r>
      </set>
      <set comment="kpoint 50">
       <r>   -3.1574    1.0000 </r>
       <r>   -0.1052    1.0000 </r>
       <r>    0.9996    1.0000 </r>
       <r>    1.0472    1.0000 </r>
       <r>    1.3915    1.0000 </r>
       <r>    2.1789    1.0000 </r>
       <r>   20.1874    0.0000 </r>
       <r>   21.4924    0.0000 </r>
       <r>   21.6403    0.0000 </r>
       <r>   22.7858    0.0000 </r>
       <r>   25.5695    0.0000 </r>
       <r>   30.0787    0.0000 </r>
      </set>
      <set comment="kpoint 51">
       <r>   -3.7772    1.0000 </r>
       <r>    0.2994    1.0000 </r>
       <r>    0.6769    1.0000 </r>
       <r>    0.6769    1.0000 </r>
       <r>    1.8393    1.0000 </r>
       <r>    1.8393    1.0000 </r>
       <r>   19.6410    0.0000 </r>
       <r>   21.1724    0.0000 </r>
       <r>   24.3643    0.0000 </r>
       <r>   24.3643    0.0000 </r>
       <r>   27.4848    0.0000 </r>
       <r>   29.7226    0.0000 </r>
      </set>
      <set comment="kpoint 52">
       <r>   -3.1790    1.0000 </r>
       <r>    0.1115    1.0000 </r>
       <r>    0.7988    1.0000 </r>
       <r>    0.8694    1.0000 </r>
       <r>    1.5575    1.0000 </r>
       <r>    2.1969    1.0000 </r>
       <r>   18.5431    0.0000 </r>
       <r>   20.3721    0.0000 </r>
       <r>   23.2246    0.0000 </r>
       <r>   25.2842    0.0000 </r>
       <r>   26.3759    0.0000 </r>
       <r>   28.9833    0.0000 </r>
      </set>
      <set comment="kpoint 53">
       <r>   -2.1681    1.0000 </r>
       <r>   -0.0298    1.0000 </r>
       <r>    0.7066    1.0000 </r>
       <r>    1.1304    1.0000 </r>
       <r>    1.4771    1.0000 </r>
       <r>    2.8799    1.0000 </r>
       <r>   16.0735    0.0000 </r>
       <r>   18.5508    0.0000 </r>
       <r>   22.9194    0.0000 </r>
       <r>   24.6842    0.0000 </r>
       <r>   26.5115    0.0000 </r>
       <r>   28.5812    0.0000 </r>
      </set>
      <set comment="kpoint 54">
       <r>   -1.5127    1.0000 </r>
       <r>    0.3201    1.0000 </r>
       <r>    0.6873    1.0000 </r>
       <r>    0.9450    1.0000 </r>
       <r>    2.0948    1.0000 </r>
       <r>    3.8774    1.0000 </r>
       <r>   12.2946    0.0000 </r>
       <r>   17.9504    0.0000 </r>
       <r>   21.4255    0.0000 </r>
       <r>   23.7297    0.0000 </r>
       <r>   26.9571    0.0000 </r>
       <r>   29.6877    0.0000 </r>
      </set>
      <set comment="kpoint 55">
       <r>   -1.4732    1.0000 </r>
       <r>    0.1926    1.0000 </r>
       <r>    0.8436    1.0000 </r>
       <r>    1.4669    1.0000 </r>
       <r>    2.7202    1.0000 </r>
       <r>    5.4714   -0.0001 </r>
       <r>    8.7995   -0.0000 </r>
       <r>   18.0099    0.0000 </r>
       <r>   20.7667    0.0000 </r>
       <r>   21.5317    0.0000 </r>
       <r>   29.0375    0.0000 </r>
       <r>   29.9529    0.0000 </r>
      </set>
      <set comment="kpoint 56">
       <r>   -1.5082    1.0000 </r>
       <r>    0.1696    1.0000 </r>
       <r>    0.8876    1.0000 </r>
       <r>    1.3013    1.0000 </r>
       <r>    3.0369    1.0000 </r>
       <r>    5.4591   -0.0001 </r>
       <r>    8.6433   -0.0000 </r>
       <r>   18.8017    0.0000 </r>
       <r>   20.3094    0.0000 </r>
       <r>   20.8779    0.0000 </r>
       <r>   30.0057    0.0000 </r>
       <r>   30.1335    0.0000 </r>
      </set>
      <set comment="kpoint 57">
       <r>   -1.5919    1.0000 </r>
       <r>    0.2710    1.0000 </r>
       <r>    0.4699    1.0000 </r>
       <r>    1.0369    1.0000 </r>
       <r>    2.8983    1.0000 </r>
       <r>    3.4098    1.0000 </r>
       <r>   12.1720    0.0000 </r>
       <r>   20.0690    0.0000 </r>
       <r>   20.1385    0.0000 </r>
       <r>   21.6381    0.0000 </r>
       <r>   28.9197    0.0000 </r>
       <r>   30.0192    0.0000 </r>
      </set>
      <set comment="kpoint 58">
       <r>   -2.1902    1.0000 </r>
       <r>   -0.2132    1.0000 </r>
       <r>    0.7102    1.0000 </r>
       <r>    1.1598    1.0000 </r>
       <r>    2.0741    1.0000 </r>
       <r>    2.4888    1.0000 </r>
       <r>   16.2128    0.0000 </r>
       <r>   20.7152    0.0000 </r>
       <r>   21.2840    0.0000 </r>
       <r>   22.7780    0.0000 </r>
       <r>   25.7862    0.0000 </r>
       <r>   30.0695    0.0000 </r>
      </set>
      <set comment="kpoint 59">
       <r>   -2.8305    1.0000 </r>
       <r>    0.0108    1.0000 </r>
       <r>    0.8167    1.0000 </r>
       <r>    0.9362    1.0000 </r>
       <r>    1.7329    1.0000 </r>
       <r>    2.2363    1.0000 </r>
       <r>   17.3647    0.0000 </r>
       <r>   21.3454    0.0000 </r>
       <r>   22.1699    0.0000 </r>
       <r>   24.5313    0.0000 </r>
       <r>   25.9889    0.0000 </r>
       <r>   29.4274    0.0000 </r>
      </set>
      <set comment="kpoint 60">
       <r>   -2.0041    1.0000 </r>
       <r>   -0.2230    1.0000 </r>
       <r>    0.6208    1.0000 </r>
       <r>    1.3200    1.0000 </r>
       <r>    1.7182    1.0000 </r>
       <r>    2.8603    1.0000 </r>
       <r>   16.2019    0.0000 </r>
       <r>   18.5769    0.0000 </r>
       <r>   21.9677    0.0000 </r>
       <r>   23.9399    0.0000 </r>
       <r>   26.0672    0.0000 </r>
       <r>   28.7410    0.0000 </r>
      </set>
      <set comment="kpoint 61">
       <r>   -1.1143    1.0000 </r>
       <r>   -0.1998    1.0000 </r>
       <r>    0.2641    1.0000 </r>
       <r>    1.5325    1.0000 </r>
       <r>    1.9999    1.0000 </r>
       <r>    3.9634    1.0000 </r>
       <r>   13.8304    0.0000 </r>
       <r>   16.3765    0.0000 </r>
       <r>   20.4423    0.0000 </r>
       <r>   24.5113    0.0000 </r>
       <r>   26.0631    0.0000 </r>
       <r>   30.0581    0.0000 </r>
      </set>
      <set comment="kpoint 62">
       <r>   -0.9791    1.0000 </r>
       <r>   -0.0332    1.0000 </r>
       <r>    0.5604    1.0000 </r>
       <r>    1.3541    1.0000 </r>
       <r>    2.6322    1.0000 </r>
       <r>    5.5905   -0.0000 </r>
       <r>   10.3538    0.0000 </r>
       <r>   16.1502    0.0000 </r>
       <r>   19.0268    0.0000 </r>
       <r>   23.1648    0.0000 </r>
       <r>   28.0398    0.0000 </r>
       <r>   31.5590    0.0000 </r>
      </set>
      <set comment="kpoint 63">
       <r>   -1.0421    1.0000 </r>
       <r>   -0.1155    1.0000 </r>
       <r>    0.8719    1.0000 </r>
       <r>    1.2899    1.0000 </r>
       <r>    2.8961    1.0000 </r>
       <r>    7.2396   -0.0000 </r>
       <r>    8.0862   -0.0000 </r>
       <r>   16.7251    0.0000 </r>
       <r>   18.0218    0.0000 </r>
       <r>   22.7044    0.0000 </r>
       <r>   28.8341    0.0000 </r>
       <r>   32.0899    0.0000 </r>
      </set>
      <set comment="kpoint 64">
       <r>   -1.0883    1.0000 </r>
       <r>   -0.0270    1.0000 </r>
       <r>    0.3294    1.0000 </r>
       <r>    1.4690    1.0000 </r>
       <r>    2.7457    1.0000 </r>
       <r>    4.8688    0.4947 </r>
       <r>   11.3407    0.0000 </r>
       <r>   16.9949    0.0000 </r>
       <r>   18.5932    0.0000 </r>
       <r>   23.0954    0.0000 </r>
       <r>   27.9815    0.0000 </r>
       <r>   30.4711    0.0000 </r>
      </set>
      <set comment="kpoint 65">
       <r>   -1.4144    1.0000 </r>
       <r>   -0.4345    1.0000 </r>
       <r>    0.4627    1.0000 </r>
       <r>    1.6451    1.0000 </r>
       <r>    2.0949    1.0000 </r>
       <r>    3.3420    1.0000 </r>
       <r>   15.0559    0.0000 </r>
       <r>   17.4503    0.0000 </r>
       <r>   20.1701    0.0000 </r>
       <r>   23.8098    0.0000 </r>
       <r>   25.4386    0.0000 </r>
       <r>   29.6679    0.0000 </r>
      </set>
      <set comment="kpoint 66">
       <r>   -1.6150    1.0000 </r>
       <r>   -0.4440    1.0000 </r>
       <r>    0.6454    1.0000 </r>
       <r>    1.4394    1.0000 </r>
       <r>    2.6951    1.0000 </r>
       <r>    2.7331    1.0000 </r>
       <r>   15.0302    0.0000 </r>
       <r>   19.2978    0.0000 </r>
       <r>   20.0470    0.0000 </r>
       <r>   21.8902    0.0000 </r>
       <r>   25.5947    0.0000 </r>
       <r>   30.9453    0.0000 </r>
      </set>
      <set comment="kpoint 67">
       <r>   -1.1011    1.0000 </r>
       <r>   -0.6361    1.0000 </r>
       <r>    0.5641    1.0000 </r>
       <r>    2.0119    1.0000 </r>
       <r>    2.4935    1.0000 </r>
       <r>    4.0447    1.0000 </r>
       <r>   13.9102    0.0000 </r>
       <r>   16.3096    0.0000 </r>
       <r>   18.2130    0.0000 </r>
       <r>   23.6909    0.0000 </r>
       <r>   25.3441    0.0000 </r>
       <r>   30.4893    0.0000 </r>
      </set>
      <set comment="kpoint 68">
       <r>   -0.7617    1.0000 </r>
       <r>   -0.4896    1.0000 </r>
       <r>    0.3647    1.0000 </r>
       <r>    2.0889    1.0000 </r>
       <r>    2.7533    1.0000 </r>
       <r>    5.8419   -0.0000 </r>
       <r>   11.9645    0.0000 </r>
       <r>   14.3477    0.0000 </r>
       <r>   16.6984    0.0000 </r>
       <r>   24.8155    0.0000 </r>
       <r>   26.5559    0.0000 </r>
       <r>   30.3324    0.0000 </r>
      </set>
      <set comment="kpoint 69">
       <r>   -0.6064    1.0000 </r>
       <r>   -0.3340    1.0000 </r>
       <r>    0.3954    1.0000 </r>
       <r>    1.7531    1.0000 </r>
       <r>    2.9636    1.0000 </r>
       <r>    8.0426   -0.0000 </r>
       <r>    9.3346   -0.0000 </r>
       <r>   13.9680    0.0000 </r>
       <r>   16.1039    0.0000 </r>
       <r>   24.5789    0.0000 </r>
       <r>   28.3647    0.0000 </r>
       <r>   31.3288    0.0000 </r>
      </set>
      <set comment="kpoint 70">
       <r>   -0.3971    1.0000 </r>
       <r>   -0.3030    1.0000 </r>
       <r>    0.0524    1.0000 </r>
       <r>    1.8294    1.0000 </r>
       <r>    2.7322    1.0000 </r>
       <r>    6.5573   -0.0000 </r>
       <r>   11.3442    0.0000 </r>
       <r>   13.4416    0.0000 </r>
       <r>   17.0674    0.0000 </r>
       <r>   24.8485    0.0000 </r>
       <r>   27.4058    0.0000 </r>
       <r>   31.3985    0.0000 </r>
      </set>
      <set comment="kpoint 71">
       <r>   -0.7807    1.0000 </r>
       <r>   -0.3181    1.0000 </r>
       <r>    0.1278    1.0000 </r>
       <r>    1.8498    1.0000 </r>
       <r>    2.3916    1.0000 </r>
       <r>    4.7648    0.8775 </r>
       <r>   12.8526    0.0000 </r>
       <r>   15.3245    0.0000 </r>
       <r>   18.5494    0.0000 </r>
       <r>   24.5228    0.0000 </r>
       <r>   26.3400    0.0000 </r>
       <r>   30.2737    0.0000 </r>
      </set>
      <set comment="kpoint 72">
       <r>   -1.3123    1.0000 </r>
       <r>   -0.8784    1.0000 </r>
       <r>    1.3918    1.0000 </r>
       <r>    2.0939    1.0000 </r>
       <r>    3.0858    1.0000 </r>
       <r>    4.6864    1.0124 </r>
       <r>   12.6129    0.0000 </r>
       <r>   15.8317    0.0000 </r>
       <r>   17.0059    0.0000 </r>
       <r>   22.1572    0.0000 </r>
       <r>   25.5272    0.0000 </r>
       <r>   32.5578    0.0000 </r>
      </set>
      <set comment="kpoint 73">
       <r>   -1.2117    1.0000 </r>
       <r>   -0.9547    1.0000 </r>
       <r>    1.4162    1.0000 </r>
       <r>    2.4813    1.0000 </r>
       <r>    3.0795    1.0000 </r>
       <r>    6.3696   -0.0000 </r>
       <r>   11.4593    0.0000 </r>
       <r>   14.1349    0.0000 </r>
       <r>   15.3622    0.0000 </r>
       <r>   23.8746    0.0000 </r>
       <r>   25.4879    0.0000 </r>
       <r>   31.5938    0.0000 </r>
      </set>
      <set comment="kpoint 74">
       <r>   -0.9651    1.0000 </r>
       <r>   -0.6710    1.0000 </r>
       <r>    0.9962    1.0000 </r>
       <r>    2.1061    1.0000 </r>
       <r>    3.2457    1.0000 </r>
       <r>    8.6427   -0.0000 </r>
       <r>   10.0422   -0.0000 </r>
       <r>   12.7075    0.0000 </r>
       <r>   14.5979    0.0000 </r>
       <r>   25.3631    0.0000 </r>
       <r>   27.0225    0.0000 </r>
       <r>   30.1964    0.0000 </r>
      </set>
      <set comment="kpoint 75">
       <r>   -0.6516    1.0000 </r>
       <r>   -0.2458    1.0000 </r>
       <r>    0.3542    1.0000 </r>
       <r>    1.8096    1.0000 </r>
       <r>    3.0494    1.0000 </r>
       <r>    8.3382   -0.0000 </r>
       <r>   10.3671    0.0000 </r>
       <r>   12.2573    0.0000 </r>
       <r>   15.6903    0.0000 </r>
       <r>   25.1096    0.0000 </r>
       <r>   28.5996    0.0000 </r>
       <r>   30.6888    0.0000 </r>
      </set>
      <set comment="kpoint 76">
       <r>   -0.7285    1.0000 </r>
       <r>   -0.2561    1.0000 </r>
       <r>    0.4662    1.0000 </r>
       <r>    1.5947    1.0000 </r>
       <r>    2.8316    1.0000 </r>
       <r>    6.8133   -0.0000 </r>
       <r>    9.6325   -0.0000 </r>
       <r>   15.2742    0.0000 </r>
       <r>   17.2560    0.0000 </r>
       <r>   23.8230    0.0000 </r>
       <r>   28.2024    0.0000 </r>
       <r>   31.9029    0.0000 </r>
      </set>
      <set comment="kpoint 77">
       <r>   -1.4538    1.0000 </r>
       <r>   -1.1160    1.0000 </r>
       <r>    2.1789    1.0000 </r>
       <r>    2.5962    1.0000 </r>
       <r>    3.1502    1.0000 </r>
       <r>    7.3417   -0.0000 </r>
       <r>   10.0577   -0.0000 </r>
       <r>   13.3439    0.0000 </r>
       <r>   15.8933    0.0000 </r>
       <r>   22.5074    0.0000 </r>
       <r>   25.5899    0.0000 </r>
       <r>   32.9884    0.0000 </r>
      </set>
      <set comment="kpoint 78">
       <r>   -1.2878    1.0000 </r>
       <r>   -1.0247    1.0000 </r>
       <r>    1.7377    1.0000 </r>
       <r>    2.4707    1.0000 </r>
       <r>    3.2474    1.0000 </r>
       <r>    7.7457   -0.0000 </r>
       <r>   10.0931   -0.0000 </r>
       <r>   13.4906    0.0000 </r>
       <r>   14.8695    0.0000 </r>
       <r>   23.9805    0.0000 </r>
       <r>   25.5380    0.0000 </r>
       <r>   31.8066    0.0000 </r>
      </set>
      <set comment="kpoint 79">
       <r>   -0.8775    1.0000 </r>
       <r>   -0.6143    1.0000 </r>
       <r>    0.7279    1.0000 </r>
       <r>    2.1544    1.0000 </r>
       <r>    3.0610    1.0000 </r>
       <r>    7.1743   -0.0000 </r>
       <r>   11.1020    0.0000 </r>
       <r>   13.4158    0.0000 </r>
       <r>   15.2770    0.0000 </r>
       <r>   25.1586    0.0000 </r>
       <r>   26.7978    0.0000 </r>
       <r>   30.2887    0.0000 </r>
      </set>
      <set comment="kpoint 80">
       <r>   -1.3921    1.0000 </r>
       <r>   -1.0346    1.0000 </r>
       <r>    1.8860    1.0000 </r>
       <r>    2.3964    1.0000 </r>
       <r>    3.1512    1.0000 </r>
       <r>    6.0225   -0.0000 </r>
       <r>   11.3373    0.0000 </r>
       <r>   14.2114    0.0000 </r>
       <r>   16.2746    0.0000 </r>
       <r>   22.3731    0.0000 </r>
       <r>   25.5679    0.0000 </r>
       <r>   32.8966    0.0000 </r>
      </set>
      <set comment="kpoint 81">
       <r>   -1.1067    1.0000 </r>
       <r>   -0.8186    1.0000 </r>
       <r>    0.9634    1.0000 </r>
       <r>    2.3307    1.0000 </r>
       <r>    2.8151    1.0000 </r>
       <r>    5.0646   -0.0236 </r>
       <r>   12.7426    0.0000 </r>
       <r>   15.1931    0.0000 </r>
       <r>   16.4770    0.0000 </r>
       <r>   23.7348    0.0000 </r>
       <r>   25.4073    0.0000 </r>
       <r>   31.1498    0.0000 </r>
      </set>
      <set comment="kpoint 82">
       <r>   -1.3242    1.0000 </r>
       <r>   -0.6697    1.0000 </r>
       <r>    0.8872    1.0000 </r>
       <r>    1.7614    1.0000 </r>
       <r>    2.9398    1.0000 </r>
       <r>    3.5634    1.0000 </r>
       <r>   13.8268    0.0000 </r>
       <r>   17.8927    0.0000 </r>
       <r>   18.0363    0.0000 </r>
       <r>   21.9531    0.0000 </r>
       <r>   25.5197    0.0000 </r>
       <r>   31.8608    0.0000 </r>
      </set>
      <set comment="kpoint 83">
       <r>   -2.7603    1.0000 </r>
       <r>    0.3628    1.0000 </r>
       <r>    0.7396    1.0000 </r>
       <r>    0.7396    1.0000 </r>
       <r>    2.0484    1.0000 </r>
       <r>    2.0484    1.0000 </r>
       <r>   15.8497    0.0000 </r>
       <r>   21.0967    0.0000 </r>
       <r>   24.4562    0.0000 </r>
       <r>   24.4562    0.0000 </r>
       <r>   26.8502    0.0000 </r>
       <r>   28.2403    0.0000 </r>
      </set>
      <set comment="kpoint 84">
       <r>   -2.1808    1.0000 </r>
       <r>    0.2493    1.0000 </r>
       <r>    0.7076    1.0000 </r>
       <r>    0.8722    1.0000 </r>
       <r>    1.8354    1.0000 </r>
       <r>    2.7969    1.0000 </r>
       <r>   14.6760    0.0000 </r>
       <r>   19.8715    0.0000 </r>
       <r>   22.2660    0.0000 </r>
       <r>   25.8086    0.0000 </r>
       <r>   25.8498    0.0000 </r>
       <r>   28.1258    0.0000 </r>
      </set>
      <set comment="kpoint 85">
       <r>   -1.2404    1.0000 </r>
       <r>   -0.0081    1.0000 </r>
       <r>    0.4635    1.0000 </r>
       <r>    1.2296    1.0000 </r>
       <r>    1.7471    1.0000 </r>
       <r>    3.9415    1.0000 </r>
       <r>   13.7766    0.0000 </r>
       <r>   16.3594    0.0000 </r>
       <r>   21.9114    0.0000 </r>
       <r>   23.9973    0.0000 </r>
       <r>   26.2152    0.0000 </r>
       <r>   30.5342    0.0000 </r>
      </set>
      <set comment="kpoint 86">
       <r>   -0.7661    1.0000 </r>
       <r>    0.0796    1.0000 </r>
       <r>    0.3485    1.0000 </r>
       <r>    1.3815    1.0000 </r>
       <r>    2.1598    1.0000 </r>
       <r>    5.3380   -0.0022 </r>
       <r>   11.9974    0.0000 </r>
       <r>   14.2551    0.0000 </r>
       <r>   21.5691    0.0000 </r>
       <r>   21.5931    0.0000 </r>
       <r>   28.1095    0.0000 </r>
       <r>   30.8705    0.0000 </r>
      </set>
      <set comment="kpoint 87">
       <r>   -0.9775    1.0000 </r>
       <r>   -0.0798    1.0000 </r>
       <r>    0.7955    1.0000 </r>
       <r>    1.4451    1.0000 </r>
       <r>    2.7659    1.0000 </r>
       <r>    7.2856   -0.0000 </r>
       <r>    8.7985   -0.0000 </r>
       <r>   14.7748    0.0000 </r>
       <r>   19.4704    0.0000 </r>
       <r>   21.5304    0.0000 </r>
       <r>   30.2896    0.0000 </r>
       <r>   31.0055    0.0000 </r>
      </set>
      <set comment="kpoint 88">
       <r>   -1.1688    1.0000 </r>
       <r>   -0.2974    1.0000 </r>
       <r>    0.8107    1.0000 </r>
       <r>    1.5878    1.0000 </r>
       <r>    3.0854    1.0000 </r>
       <r>    5.8819   -0.0000 </r>
       <r>   10.1733   -0.0000 </r>
       <r>   16.1422    0.0000 </r>
       <r>   18.2172    0.0000 </r>
       <r>   21.7359    0.0000 </r>
       <r>   28.8179    0.0000 </r>
       <r>   31.3636    0.0000 </r>
      </set>
      <set comment="kpoint 89">
       <r>   -1.9800    1.0000 </r>
       <r>    0.4414    1.0000 </r>
       <r>    0.5633    1.0000 </r>
       <r>    0.8554    1.0000 </r>
       <r>    2.5795    1.0000 </r>
       <r>    2.6623    1.0000 </r>
       <r>   13.3289    0.0000 </r>
       <r>   20.6529    0.0000 </r>
       <r>   21.4467    0.0000 </r>
       <r>   23.0925    0.0000 </r>
       <r>   27.9715    0.0000 </r>
       <r>   29.2921    0.0000 </r>
      </set>
      <set comment="kpoint 90">
       <r>   -1.3804    1.0000 </r>
       <r>    0.2655    1.0000 </r>
       <r>    0.2884    1.0000 </r>
       <r>    1.1852    1.0000 </r>
       <r>    2.4278    1.0000 </r>
       <r>    3.9354    1.0000 </r>
       <r>   12.3525    0.0000 </r>
       <r>   17.9935    0.0000 </r>
       <r>   20.3236    0.0000 </r>
       <r>   23.2691    0.0000 </r>
       <r>   27.5417    0.0000 </r>
       <r>   29.9881    0.0000 </r>
      </set>
      <set comment="kpoint 91">
       <r>   -0.5790    1.0000 </r>
       <r>   -0.0973    1.0000 </r>
       <r>    0.0571    1.0000 </r>
       <r>    1.6469    1.0000 </r>
       <r>    2.3652    1.0000 </r>
       <r>    5.4729   -0.0001 </r>
       <r>   12.0086    0.0000 </r>
       <r>   14.3002    0.0000 </r>
       <r>   19.0178    0.0000 </r>
       <r>   23.9469    0.0000 </r>
       <r>   27.2993    0.0000 </r>
       <r>   31.8121    0.0000 </r>
      </set>
      <set comment="kpoint 92">
       <r>   -0.6425    1.0000 </r>
       <r>   -0.1715    1.0000 </r>
       <r>    0.3684    1.0000 </r>
       <r>    1.7348    1.0000 </r>
       <r>    2.7430    1.0000 </r>
       <r>    7.2277   -0.0000 </r>
       <r>   10.7498    0.0000 </r>
       <r>   12.7139    0.0000 </r>
       <r>   17.5163    0.0000 </r>
       <r>   23.7110    0.0000 </r>
       <r>   28.7603    0.0000 </r>
       <r>   32.2708    0.0000 </r>
      </set>
      <set comment="kpoint 93">
       <r>   -0.9460    1.0000 </r>
       <r>   -0.4452    1.0000 </r>
       <r>    0.7516    1.0000 </r>
       <r>    1.9644    1.0000 </r>
       <r>    3.0087    1.0000 </r>
       <r>    7.4880   -0.0000 </r>
       <r>    9.8490   -0.0000 </r>
       <r>   13.9590    0.0000 </r>
       <r>   16.3527    0.0000 </r>
       <r>   23.6423    0.0000 </r>
       <r>   28.4790    0.0000 </r>
       <r>   30.4268    0.0000 </r>
      </set>
      <set comment="kpoint 94">
       <r>   -1.3065    1.0000 </r>
       <r>   -0.0335    1.0000 </r>
       <r>    0.5795    1.0000 </r>
       <r>    1.2876    1.0000 </r>
       <r>    3.0469    1.0000 </r>
       <r>    4.5361    1.0204 </r>
       <r>   11.1017    0.0000 </r>
       <r>   18.2663    0.0000 </r>
       <r>   19.0497    0.0000 </r>
       <r>   21.4719    0.0000 </r>
       <r>   29.0117    0.0000 </r>
       <r>   30.7448    0.0000 </r>
      </set>
      <set comment="kpoint 95">
       <r>   -0.9515    1.0000 </r>
       <r>   -0.2842    1.0000 </r>
       <r>    0.5033    1.0000 </r>
       <r>    1.7580    1.0000 </r>
       <r>    2.9232    1.0000 </r>
       <r>    6.0907   -0.0000 </r>
       <r>   10.4778    0.0000 </r>
       <r>   15.7158    0.0000 </r>
       <r>   17.0993    0.0000 </r>
       <r>   23.3178    0.0000 </r>
       <r>   28.2473    0.0000 </r>
       <r>   30.5065    0.0000 </r>
      </set>
      <set comment="kpoint 96">
       <r>   -0.5849    1.0000 </r>
       <r>   -0.2351    1.0000 </r>
       <r>    0.1875    1.0000 </r>
       <r>    1.8629    1.0000 </r>
       <r>    3.0496    1.0000 </r>
       <r>    7.8336   -0.0000 </r>
       <r>   10.8370    0.0000 </r>
       <r>   12.6548    0.0000 </r>
       <r>   15.3970    0.0000 </r>
       <r>   25.9106    0.0000 </r>
       <r>   27.5284    0.0000 </r>
       <r>   30.5856    0.0000 </r>
      </set>
      <set comment="kpoint 97">
       <r>   -0.6985    1.0000 </r>
       <r>   -0.2286    1.0000 </r>
       <r>    0.3345    1.0000 </r>
       <r>    1.8203    1.0000 </r>
       <r>    3.2461    1.0000 </r>
       <r>    9.0157   -0.0000 </r>
       <r>   10.5479    0.0000 </r>
       <r>   11.8413    0.0000 </r>
       <r>   14.4420    0.0000 </r>
       <r>   26.6346    0.0000 </r>
       <r>   28.1231    0.0000 </r>
       <r>   29.3811    0.0000 </r>
      </set>
      <set comment="kpoint 98">
       <r>   -1.1432    1.0000 </r>
       <r>   -0.4756    1.0000 </r>
       <r>    1.0837    1.0000 </r>
       <r>    1.8982    1.0000 </r>
       <r>    3.0218    1.0000 </r>
       <r>    7.3582   -0.0000 </r>
       <r>    9.4896   -0.0000 </r>
       <r>   14.0890    0.0000 </r>
       <r>   17.6584    0.0000 </r>
       <r>   22.0452    0.0000 </r>
       <r>   28.6822    0.0000 </r>
       <r>   31.7901    0.0000 </r>
      </set>
      <set comment="kpoint 99">
       <r>   -0.9795    1.0000 </r>
       <r>   -0.5143    1.0000 </r>
       <r>    0.9429    1.0000 </r>
       <r>    2.0374    1.0000 </r>
       <r>    3.0596    1.0000 </r>
       <r>    8.6513   -0.0000 </r>
       <r>    9.6623   -0.0000 </r>
       <r>   12.3791    0.0000 </r>
       <r>   16.0426    0.0000 </r>
       <r>   23.8617    0.0000 </r>
       <r>   28.6744    0.0000 </r>
       <r>   30.3104    0.0000 </r>
      </set>
      <set comment="kpoint 100">
       <r>   -1.1571    1.0000 </r>
       <r>   -0.5618    1.0000 </r>
       <r>    1.2676    1.0000 </r>
       <r>    2.1334    1.0000 </r>
       <r>    2.9137    1.0000 </r>
       <r>    8.4972   -0.0000 </r>
       <r>    9.3418   -0.0000 </r>
       <r>   12.4127    0.0000 </r>
       <r>   17.3783    0.0000 </r>
       <r>   22.2393    0.0000 </r>
       <r>   28.6196    0.0000 </r>
       <r>   32.0009    0.0000 </r>
      </set>
      <set comment="kpoint 101">
       <r>   -2.1089    1.0000 </r>
       <r>    0.5951    1.0000 </r>
       <r>    0.5951    1.0000 </r>
       <r>    1.4681    1.0000 </r>
       <r>    2.5506    1.0000 </r>
       <r>    2.5506    1.0000 </r>
       <r>   11.8791    0.0000 </r>
       <r>   20.2423    0.0000 </r>
       <r>   23.2436    0.0000 </r>
       <r>   23.2436    0.0000 </r>
       <r>   28.4398    0.0000 </r>
       <r>   28.4671    0.0000 </r>
      </set>
      <set comment="kpoint 102">
       <r>   -1.7769    1.0000 </r>
       <r>    0.4305    1.0000 </r>
       <r>    0.6985    1.0000 </r>
       <r>    1.3829    1.0000 </r>
       <r>    2.4537    1.0000 </r>
       <r>    3.7432    1.0000 </r>
       <r>   10.8052    0.0000 </r>
       <r>   19.4388    0.0000 </r>
       <r>   21.0231    0.0000 </r>
       <r>   23.2555    0.0000 </r>
       <r>   27.9529    0.0000 </r>
       <r>   29.1685    0.0000 </r>
      </set>
      <set comment="kpoint 103">
       <r>   -1.1097    1.0000 </r>
       <r>    0.0953    1.0000 </r>
       <r>    0.8613    1.0000 </r>
       <r>    1.1198    1.0000 </r>
       <r>    2.4329    1.0000 </r>
       <r>    5.4044   -0.0005 </r>
       <r>   10.3135   -0.0000 </r>
       <r>   16.1223    0.0000 </r>
       <r>   21.2325    0.0000 </r>
       <r>   21.5417    0.0000 </r>
       <r>   28.5159    0.0000 </r>
       <r>   30.4611    0.0000 </r>
      </set>
      <set comment="kpoint 104">
       <r>   -0.8526    1.0000 </r>
[...]
      <set comment="kpoint 93">
       <set comment="band 1">
        <r>  0.0432  0.0173  0.7997 </r>
       </set>
       <set comment="band 2">
        <r>  0.0000  0.0587  0.7984 </r>
       </set>
       <set comment="band 3">
        <r>  0.0305  0.0793  0.7673 </r>
       </set>
       <set comment="band 4">
        <r>  0.0011  0.0183  0.9197 </r>
       </set>
       <set comment="band 5">
        <r>  0.0029  0.0014  0.9679 </r>
       </set>
       <set comment="band 6">
        <r>  0.3122  0.1873  0.3009 </r>
       </set>
       <set comment="band 7">
        <r>  0.2365  0.3325  0.1246 </r>
       </set>
       <set comment="band 8">
        <r>  0.1055  0.3831  0.2126 </r>
       </set>
       <set comment="band 9">
        <r>  0.0029  0.4011  0.1904 </r>
       </set>
       <set comment="band 10">
        <r>  0.0261  0.1424  0.2017 </r>
       </set>
       <set comment="band 11">
        <r>  0.0324  0.1200  0.1847 </r>
       </set>
       <set comment="band 12">
        <r>  0.0460  0.0122  0.2126 </r>
       </set>
      </set>
      <set comment="kpoint 94">
       <set comment="band 1">
        <r>  0.1545  0.0339  0.6371 </r>
       </set>
       <set comment="band 2">
        <r>  0.0075  0.0542  0.7980 </r>
       </set>
       <set comment="band 3">
        <r>  0.0726  0.0656  0.7322 </r>
       </set>
       <set comment="band 4">
        <r>  0.0000  0.0079  0.9304 </r>
       </set>
       <set comment="band 5">
        <r>  0.0000  0.0004  0.9771 </r>
       </set>
       <set comment="band 6">
        <r>  0.1574  0.1555  0.5303 </r>
       </set>
       <set comment="band 7">
        <r>  0.2569  0.2969  0.1519 </r>
       </set>
       <set comment="band 8">
        <r>  0.0600  0.3069  0.1985 </r>
       </set>
       <set comment="band 9">
        <r>  0.0000  0.5073  0.0879 </r>
       </set>
       <set comment="band 10">
        <r>  0.0438  0.1212  0.1822 </r>
       </set>
       <set comment="band 11">
        <r>  0.0393  0.1900  0.1371 </r>
       </set>
       <set comment="band 12">
        <r>  0.0000  0.0128  0.1841 </r>
       </set>
      </set>
      <set comment="kpoint 95">
       <set comment="band 1">
        <r>  0.0771  0.0304  0.7438 </r>
       </set>
       <set comment="band 2">
        <r>  0.0009  0.0524  0.8045 </r>
       </set>
       <set comment="band 3">
        <r>  0.0560  0.0681  0.7479 </r>
       </set>
       <set comment="band 4">
        <r>  0.0013  0.0220  0.9117 </r>
       </set>
       <set comment="band 5">
        <r>  0.0008  0.0045  0.9644 </r>
       </set>
       <set comment="band 6">
        <r>  0.2382  0.1745  0.4082 </r>
       </set>
       <set comment="band 7">
        <r>  0.2599  0.3068  0.1341 </r>
       </set>
       <set comment="band 8">
        <r>  0.0974  0.4291  0.1602 </r>
       </set>
       <set comment="band 9">
        <r>  0.0020  0.3355  0.2247 </r>
       </set>
       <set comment="band 10">
        <r>  0.0211  0.1799  0.1380 </r>
       </set>
       <set comment="band 11">
        <r>  0.0112  0.1233  0.1825 </r>
       </set>
       <set comment="band 12">
        <r>  0.0760  0.0199  0.2603 </r>
       </set>
      </set>
      <set comment="kpoint 96">
       <set comment="band 1">
        <r>  0.0058  0.0405  0.7984 </r>
       </set>
       <set comment="band 2">
        <r>  0.0094  0.0544  0.8162 </r>
       </set>
       <set comment="band 3">
        <r>  0.0307  0.0698  0.7723 </r>
       </set>
       <set comment="band 4">
        <r>  0.0136  0.0126  0.9065 </r>
       </set>
       <set comment="band 5">
        <r>  0.0009  0.0035  0.9682 </r>
       </set>
       <set comment="band 6">
        <r>  0.4052  0.1487  0.2332 </r>
       </set>
       <set comment="band 7">
        <r>  0.1798  0.3601  0.1664 </r>
       </set>
       <set comment="band 8">
        <r>  0.0904  0.4424  0.1688 </r>
       </set>
       <set comment="band 9">
        <r>  0.0070  0.3226  0.2872 </r>
       </set>
       <set comment="band 10">
        <r>  0.0028  0.1996  0.1039 </r>
       </set>
       <set comment="band 11">
        <r>  0.0000  0.0489  0.2318 </r>
       </set>
       <set comment="band 12">
        <r>  0.0572  0.1232  0.2285 </r>
       </set>
      </set>
      <set comment="kpoint 97">
       <set comment="band 1">
        <r>  0.0040  0.0391  0.7991 </r>
       </set>
       <set comment="band 2">
        <r>  0.0026  0.0566  0.8221 </r>
       </set>
       <set comment="band 3">
        <r>  0.0046  0.0732  0.8039 </r>
       </set>
       <set comment="band 4">
        <r>  0.0317  0.0032  0.8942 </r>
       </set>
       <set comment="band 5">
        <r>  0.0002  0.0010  0.9776 </r>
       </set>
       <set comment="band 6">
        <r>  0.5818  0.0728  0.1324 </r>
       </set>
       <set comment="band 7">
        <r>  0.0637  0.4509  0.1882 </r>
       </set>
       <set comment="band 8">
        <r>  0.0552  0.4603  0.1813 </r>
       </set>
       <set comment="band 9">
        <r>  0.0001  0.3172  0.3101 </r>
       </set>
       <set comment="band 10">
        <r>  0.0044  0.1179  0.2001 </r>
       </set>
       <set comment="band 11">
        <r>  0.0029  0.1033  0.1757 </r>
       </set>
       <set comment="band 12">
        <r>  0.0222  0.1726  0.1619 </r>
       </set>
      </set>
      <set comment="kpoint 98">
       <set comment="band 1">
        <r>  0.0545  0.0067  0.8015 </r>
       </set>
       <set comment="band 2">
        <r>  0.0007  0.0606  0.7910 </r>
       </set>
       <set comment="band 3">
        <r>  0.0295  0.0948  0.7509 </r>
       </set>
       <set comment="band 4">
        <r>  0.0000  0.0094  0.9352 </r>
       </set>
       <set comment="band 5">
        <r>  0.0000  0.0001  0.9748 </r>
       </set>
       <set comment="band 6">
        <r>  0.2688  0.2079  0.3269 </r>
       </set>
       <set comment="band 7">
        <r>  0.2679  0.3163  0.1029 </r>
       </set>
       <set comment="band 8">
        <r>  0.0990  0.3448  0.2519 </r>
       </set>
       <set comment="band 9">
        <r>  0.0000  0.5170  0.0786 </r>
       </set>
       <set comment="band 10">
        <r>  0.0470  0.0613  0.2837 </r>
       </set>
       <set comment="band 11">
        <r>  0.0653  0.1015  0.2056 </r>
       </set>
       <set comment="band 12">
        <r>  0.0000  0.0037  0.1394 </r>
       </set>
      </set>
      <set comment="kpoint 99">
       <set comment="band 1">
        <r>  0.0310  0.0116  0.8179 </r>
       </set>
       <set comment="band 2">
        <r>  0.0001  0.0613  0.7976 </r>
       </set>
       <set comment="band 3">
        <r>  0.0044  0.0900  0.7884 </r>
       </set>
       <set comment="band 4">
        <r>  0.0099  0.0093  0.9216 </r>
       </set>
       <set comment="band 5">
        <r>  0.0007  0.0020  0.9707 </r>
       </set>
       <set comment="band 6">
        <r>  0.5278  0.1017  0.1514 </r>
       </set>
       <set comment="band 7">
        <r>  0.0589  0.4492  0.1930 </r>
       </set>
       <set comment="band 8">
        <r>  0.0954  0.3580  0.2530 </r>
       </set>
       <set comment="band 9">
        <r>  0.0071  0.4212  0.1773 </r>
       </set>
       <set comment="band 10">
        <r>  0.0291  0.1233  0.2464 </r>
       </set>
       <set comment="band 11">
        <r>  0.0589  0.1173  0.1977 </r>
       </set>
       <set comment="band 12">
        <r>  0.0074  0.0176  0.1466 </r>
       </set>
      </set>
      <set comment="kpoint 100">
       <set comment="band 1">
        <r>  0.0418  0.0007  0.8229 </r>
       </set>
       <set comment="band 2">
        <r>  0.0002  0.0630  0.7894 </r>
       </set>
       <set comment="band 3">
        <r>  0.0038  0.1022  0.7758 </r>
       </set>
       <set comment="band 4">
        <r>  0.0000  0.0097  0.9384 </r>
       </set>
       <set comment="band 5">
        <r>  0.0000  0.0001  0.9714 </r>
       </set>
       <set comment="band 6">
        <r>  0.5212  0.1053  0.1493 </r>
       </set>
       <set comment="band 7">
        <r>  0.0494  0.4528  0.1982 </r>
       </set>
       <set comment="band 8">
        <r>  0.1047  0.3255  0.2812 </r>
       </set>
       <set comment="band 9">
        <r>  0.0000  0.5193  0.0781 </r>
       </set>
       <set comment="band 10">
        <r>  0.0496  0.0530  0.3171 </r>
       </set>
       <set comment="band 11">
        <r>  0.0729  0.0867  0.2165 </r>
       </set>
       <set comment="band 12">
        <r>  0.0000  0.0005  0.1165 </r>
       </set>
      </set>
      <set comment="kpoint 101">
       <set comment="band 1">
        <r>  0.3078  0.0274  0.4429 </r>
       </set>
       <set comment="band 2">
        <r>  0.0000  0.0005  0.9341 </r>
       </set>
       <set comment="band 3">
        <r>  0.0000  0.0005  0.9341 </r>
       </set>
       <set comment="band 4">
        <r>  0.1454  0.2210  0.3813 </r>
       </set>
       <set comment="band 5">
        <r>  0.0000  0.0018  0.9629 </r>
       </set>
       <set comment="band 6">
        <r>  0.0000  0.0018  0.9629 </r>
       </set>
       <set comment="band 7">
        <r>  0.2360  0.2700  0.2119 </r>
       </set>
       <set comment="band 8">
        <r>  0.0001  0.0215  0.0243 </r>
       </set>
       <set comment="band 9">
        <r>  0.0000  0.5274  0.0631 </r>
       </set>
       <set comment="band 10">
        <r>  0.0000  0.5274  0.0631 </r>
       </set>
       <set comment="band 11">
        <r>  0.0670  0.0674  0.1671 </r>
       </set>
       <set comment="band 12">
        <r>  0.0000  0.0006  0.3539 </r>
       </set>
      </set>
      <set comment="kpoint 102">
       <set comment="band 1">
        <r>  0.2394  0.0273  0.5374 </r>
       </set>
       <set comment="band 2">
        <r>  0.0005  0.0037  0.9207 </r>
       </set>
       <set comment="band 3">
        <r>  0.0000  0.0007  0.9325 </r>
       </set>
       <set comment="band 4">
        <r>  0.0763  0.1747  0.5460 </r>
       </set>
       <set comment="band 5">
        <r>  0.0000  0.0018  0.9595 </r>
       </set>
       <set comment="band 6">
        <r>  0.0952  0.0968  0.6973 </r>
       </set>
       <set comment="band 7">
        <r>  0.2688  0.2513  0.2187 </r>
       </set>
       <set comment="band 8">
        <r>  0.0132  0.2383  0.1368 </r>
       </set>
       <set comment="band 9">
        <r>  0.0170  0.2708  0.0111 </r>
       </set>
       <set comment="band 10">
        <r>  0.0000  0.5134  0.0715 </r>
       </set>
       <set comment="band 11">
        <r>  0.0238  0.0341  0.2247 </r>
       </set>
       <set comment="band 12">
        <r>  0.0000  0.0225  0.4434 </r>
       </set>
      </set>
      <set comment="kpoint 103">
       <set comment="band 1">
        <r>  0.1542  0.0405  0.6388 </r>
       </set>
       <set comment="band 2">
        <r>  0.0005  0.0199  0.8740 </r>
       </set>
       <set comment="band 3">
        <r>  0.0245  0.1360  0.6723 </r>
       </set>
       <set comment="band 4">
        <r>  0.0000  0.0048  0.9287 </r>
       </set>
       <set comment="band 5">
        <r>  0.0000  0.0013  0.9593 </r>
       </set>
       <set comment="band 6">
        <r>  0.2250  0.1348  0.4752 </r>
       </set>
       <set comment="band 7">
        <r>  0.2504  0.2695  0.2187 </r>
       </set>
       <set comment="band 8">
        <r>  0.0593  0.3973  0.1895 </r>
       </set>
       <set comment="band 9">
        <r>  0.0182  0.0856  0.0992 </r>
       </set>
       <set comment="band 10">
        <r>  0.0000  0.4997  0.1259 </r>
       </set>
       <set comment="band 11">
        <r>  0.0095  0.0399  0.1343 </r>
       </set>
       <set comment="band 12">
        <r>  0.0000  0.0125  0.3264 </r>
       </set>
      </set>
      <set comment="kpoint 104">
       <set comment="band 1">
        <r>  0.0616  0.0080  0.8046 </r>
       </set>
       <set comment="band 2">
        <r>  0.0105  0.0936  0.7294 </r>
       </set>
       <set comment="band 3">
        <r>  0.0001  0.0901  0.7879 </r>
       </set>
       <set comment="band 4">
        <r>  0.0000  0.0096  0.9288 </r>
       </set>
       <set comment="band 5">
        <r>  0.0000  0.0002  0.9638 </r>
       </set>
       <set comment="band 6">
        <r>  0.4108  0.1227  0.2446 </r>
       </set>
       <set comment="band 7">
        <r>  0.1115  0.3672  0.2544 </r>
       </set>
       <set comment="band 8">
        <r>  0.1258  0.3569  0.2250 </r>
       </set>
       <set comment="band 9">
        <r>  0.0000  0.5076  0.1180 </r>
       </set>
       <set comment="band 10">
        <r>  0.0299  0.0605  0.2299 </r>
       </set>
       <set comment="band 11">
        <r>  0.0005  0.0455  0.0510 </r>
       </set>
       <set comment="band 12">
        <r>  0.0000  0.0007  0.1877 </r>
       </set>
      </set>
      <set comment="kpoint 105">
       <set comment="band 1">
        <r>  0.2052  0.0174  0.5973 </r>
       </set>
       <set comment="band 2">
        <r>  0.0003  0.0033  0.9159 </r>
       </set>
       <set comment="band 3">
        <r>  0.0000  0.0030  0.9302 </r>
       </set>
       <set comment="band 4">
        <r>  0.0434  0.1420  0.6474 </r>
       </set>
       <set comment="band 5">
        <r>  0.0000  0.0003  0.9755 </r>
       </set>
       <set comment="band 6">
        <r>  0.1084  0.2013  0.5019 </r>
       </set>
       <set comment="band 7">
        <r>  0.3220  0.2025  0.2435 </r>
       </set>
       <set comment="band 8">
        <r>  0.0016  0.0519  0.0677 </r>
       </set>
       <set comment="band 9">
        <r>  0.0000  0.5128  0.0615 </r>
       </set>
       <set comment="band 10">
        <r>  0.0374  0.4332  0.0933 </r>
       </set>
       <set comment="band 11">
        <r>  0.0000  0.0071  0.3395 </r>
       </set>
       <set comment="band 12">
        <r>  0.0077  0.0058  0.4338 </r>
       </set>
      </set>
      <set comment="kpoint 106">
       <set comment="band 1">
        <r>  0.1504  0.0298  0.6561 </r>
       </set>
       <set comment="band 2">
        <r>  0.0001  0.0111  0.8874 </r>
       </set>
       <set comment="band 3">
        <r>  0.0020  0.0276  0.8876 </r>
       </set>
       <set comment="band 4">
        <r>  0.0136  0.1084  0.7403 </r>
       </set>
       <set comment="band 5">
        <r>  0.0005  0.0032  0.9654 </r>
       </set>
       <set comment="band 6">
        <r>  0.1604  0.2324  0.3969 </r>
       </set>
       <set comment="band 7">
        <r>  0.3328  0.1937  0.2457 </r>
       </set>
       <set comment="band 8">
        <r>  0.0519  0.4276  0.1399 </r>
       </set>
       <set comment="band 9">
        <r>  0.0159  0.2490  0.1665 </r>
       </set>
       <set comment="band 10">
        <r>  0.0016  0.3137  0.0215 </r>
       </set>
       <set comment="band 11">
        <r>  0.0149  0.0148  0.3543 </r>
       </set>
       <set comment="band 12">
        <r>  0.0012  0.0171  0.2639 </r>
       </set>
      </set>
      <set comment="kpoint 107">
       <set comment="band 1">
        <r>  0.0766  0.0318  0.7541 </r>
       </set>
       <set comment="band 2">
        <r>  0.0063  0.0455  0.8069 </r>
       </set>
       <set comment="band 3">
        <r>  0.0002  0.0986  0.7695 </r>
       </set>
       <set comment="band 4">
        <r>  0.0014  0.0125  0.9206 </r>
       </set>
       <set comment="band 5">
        <r>  0.0042  0.0009  0.9624 </r>
       </set>
       <set comment="band 6">
        <r>  0.4032  0.1333  0.2489 </r>
       </set>
       <set comment="band 7">
        <r>  0.1324  0.3403  0.2650 </r>
       </set>
       <set comment="band 8">
        <r>  0.1000  0.4006  0.1853 </r>
       </set>
       <set comment="band 9">
        <r>  0.0123  0.3605  0.2020 </r>
       </set>
       <set comment="band 10">
        <r>  0.0057  0.2013  0.0992 </r>
       </set>
       <set comment="band 11">
        <r>  0.0052  0.0220  0.2524 </r>
       </set>
       <set comment="band 12">
        <r>  0.1132  0.0836  0.1146 </r>
       </set>
      </set>
      <set comment="kpoint 108">
       <set comment="band 1">
        <r>  0.1215  0.0255  0.7006 </r>
       </set>
       <set comment="band 2">
        <r>  0.0019  0.0297  0.8482 </r>
       </set>
       <set comment="band 3">
        <r>  0.0088  0.1148  0.7364 </r>
       </set>
       <set comment="band 4">
        <r>  0.0000  0.0064  0.9281 </r>
       </set>
       <set comment="band 5">
        <r>  0.0000  0.0002  0.9731 </r>
       </set>
       <set comment="band 6">
        <r>  0.0634  0.3589  0.3151 </r>
       </set>
       <set comment="band 7">
        <r>  0.4536  0.0901  0.2617 </r>
       </set>
       <set comment="band 8">
        <r>  0.0646  0.3661  0.1867 </r>
       </set>
       <set comment="band 9">
        <r>  0.0000  0.5092  0.0896 </r>
       </set>
       <set comment="band 10">
        <r>  0.0256  0.0957  0.1368 </r>
       </set>
       <set comment="band 11">
        <r>  0.0133  0.0222  0.2690 </r>
       </set>
       <set comment="band 12">
        <r>  0.0000  0.0084  0.2733 </r>
       </set>
      </set>
      <set comment="kpoint 109">
       <set comment="band 1">
        <r>  0.2070  0.0025  0.6157 </r>
       </set>
       <set comment="band 2">
        <r>  0.0000  0.0001  0.9315 </r>
       </set>
       <set comment="band 3">
        <r>  0.0000  0.0001  0.9315 </r>
       </set>
       <set comment="band 4">
        <r>  0.0000  0.0003  0.9739 </r>
       </set>
       <set comment="band 5">
        <r>  0.0000  0.0003  0.9739 </r>
       </set>
       <set comment="band 6">
        <r>  0.0778  0.4543  0.0882 </r>
       </set>
       <set comment="band 7">
        <r>  0.4055  0.1030  0.3185 </r>
       </set>
       <set comment="band 8">
        <r>  0.0000  0.0213  0.0025 </r>
       </set>
       <set comment="band 9">
        <r>  0.0000  0.5232  0.0075 </r>
       </set>
       <set comment="band 10">
        <r>  0.0000  0.5232  0.0075 </r>
       </set>
       <set comment="band 11">
        <r>  0.0000  0.0000  0.5024 </r>
       </set>
       <set comment="band 12">
        <r>  0.0000  0.0000  0.5024 </r>
       </set>
      </set>
      <set comment="kpoint 110">
       <set comment="band 1">
        <r>  0.1797  0.0110  0.6416 </r>
       </set>
       <set comment="band 2">
        <r>  0.0000  0.0039  0.9150 </r>
       </set>
       <set comment="band 3">
        <r>  0.0000  0.0017  0.9298 </r>
       </set>
       <set comment="band 4">
        <r>  0.0009  0.1386  0.7184 </r>
       </set>
       <set comment="band 5">
        <r>  0.0000  0.0003  0.9729 </r>
       </set>
       <set comment="band 6">
        <r>  0.0242  0.3927  0.2839 </r>
       </set>
       <set comment="band 7">
        <r>  0.4749  0.0314  0.3527 </r>
       </set>
       <set comment="band 8">
        <r>  0.0078  0.1500  0.0903 </r>
       </set>
       <set comment="band 9">
        <r>  0.0244  0.3556  0.0346 </r>
       </set>
       <set comment="band 10">
        <r>  0.0000  0.5137  0.0444 </r>
       </set>
       <set comment="band 11">
        <r>  0.0203  0.0034  0.3991 </r>
       </set>
       <set comment="band 12">
        <r>  0.0000  0.0076  0.4510 </r>
       </set>
      </set>
     </set>
    </set>
   </array>
  </projected>
 </calculation>
 <structure name="finalpos" >
  <crystal>
   <varray name="basis" >
    <v>       0.00000000       2.07500000       2.07500000 </v>
    <v>       2.07500000       0.00000000       2.07500000 </v>
    <v>       2.07500000       2.07500000       0.00000000 </v>
   </varray>
   <i name="volume">     17.86834375 </i>
   <varray name="rec_basis" >
    <v>      -0.24096386       0.24096386       0.24096386 </v>
    <v>       0.24096386      -0.24096386       0.24096386 </v>
    <v>       0.24096386       0.24096386      -0.24096386 </v>
   </varray>
  </crystal>
  <varray name="positions" >
   <v>       0.00000000       0.00000000       0.00000000 </v>
  </varray>
 </structure>
</modeling>
