fcc Ni                                  
   3.30000000000000     
     0.000000    0.500000    0.500000
     0.500000    0.000000    0.500000
     0.500000    0.500000    0.000000
   Ni
     1
Direct
  0.000000  0.000000  0.000000
 
   20   20   20
  123.78      116.83      98.083      72.895      47.531      26.916      13.407      6.6979      4.5230      3.9279    
  3.7228      3.9279      4.5230      6.6979      13.407      26.916      47.531      72.895      98.083      116.83    
  116.83      104.00      82.155      57.189      34.720      18.328      8.9305      5.1233      4.1319      3.7395    
  3.7395      4.1319      5.1236      8.9320      18.330      34.722      57.185      82.146      103.99      116.82    
  98.083      82.155      60.789      39.382      22.182      11.165      5.9275      4.3217      3.7841      3.5945    
  3.7839      4.3214      5.9280      11.168      22.185      39.383      60.783      82.144      98.075      103.99    
  72.895      57.189      39.382      23.641      12.567      6.6432      4.5038      3.8402      3.5033      3.5033    
  3.8398      4.5031      6.6431      12.568      23.644      39.383      57.187      72.892      82.144      82.146    
  47.531      34.720      22.182      12.567      6.9306      4.6312      3.8865      3.4582      3.3140      3.4583    
  3.8864      4.6304      6.9293      12.566      22.182      34.722      47.534      57.187      60.783      57.185    
  26.916      18.328      11.165      6.6432      4.6312      3.9045      3.4422      3.2111      3.2113      3.4428    
  3.9053      4.6314      6.6418      11.162      18.325      26.915      34.722      39.383      39.383      34.722    
  13.407      8.9305      5.9275      4.5038      3.8865      3.4422      3.1793      3.0949      3.1793      3.4431    
  3.8886      4.5060      5.9278      8.9278      13.402      18.325      22.182      23.644      22.185      18.330    
  6.6979      5.1233      4.3217      3.8402      3.4582      3.2111      3.0949      3.0944      3.2101      3.4582    
  3.8422      4.3253      5.1262      6.6975      8.9278      11.162      12.566      12.568      11.168      8.9320    
  4.5230      4.1319      3.7841      3.5033      3.3140      3.2113      3.1793      3.2101      3.3118      3.5012    
  3.7841      4.1349      4.5272      5.1262      5.9278      6.6418      6.9293      6.6431      5.9280      5.1236    
  3.9279      3.7395      3.5945      3.5033      3.4583      3.4428      3.4431      3.4582      3.5012      3.5909    
  3.7367      3.9280      4.1349      4.3253      4.5060      4.6314      4.6304      4.5031      4.3214      4.1319    
  3.7228      3.7395      3.7839      3.8398      3.8864      3.9053      3.8886      3.8422      3.7841      3.7367    
  3.7186      3.7367      3.7841      3.8422      3.8886      3.9053      3.8864      3.8398      3.7839      3.7395    
  3.9279      4.1319      4.3214      4.5031      4.6304      4.6314      4.5060      4.3253      4.1349      3.9280    
  3.7367      3.5909      3.5012      3.4582      3.4431      3.4428      3.4583      3.5033      3.5945      3.7395    
  4.5230      5.1236      5.9280      6.6431      6.9293      6.6418      5.9278      5.1262      4.5272      4.1349    
  3.7841      3.5012      3.3118      3.2101      3.1793      3.2113      3.3140      3.5033      3.7841      4.1319    
  6.6979      8.9320      11.168      12.568      12.566      11.162      8.9278      6.6975      5.1262      4.3253    
  3.8422      3.4582      3.2101      3.0944      3.0949      3.2111      3.4582      3.8402      4.3217      5.1233    
  13.407      18.330      22.185      23.644      22.182      18.325      13.402      8.9278      5.9278      4.5060    
  3.8886      3.4431      3.1793      3.0949      3.1793      3.4422      3.8865      4.5038      5.9275      8.9305    
  26.916      34.722      39.383      39.383      34.722      26.915      18.325      11.162      6.6418      4.6314    
  3.9053      3.4428      3.2113      3.2111      3.4422      3.9045      4.6312      6.6432      11.165      18.328    
  47.531      57.185      60.783      57.187      47.534      34.722      22.182      12.566      6.9293      4.6304    
  3.8864      3.4583      3.3140      3.4582      3.8865      4.6312      6.9306      12.567      22.182      34.720    
  72.895      82.146      82.144      72.892      57.187      39.383      23.644      12.568      6.6431      4.5031    
  3.8398      3.5033      3.5033      3.8402      4.5038      6.6432      12.567      23.641      39.382      57.189    
  98.083      103.99      98.075      82.144      60.783      39.383      22.185      11.168      5.9280      4.3214    
  3.7839      3.5945      3.7841      4.3217      5.9275      11.165      22.182      39.382      60.789      82.155    
  116.83      116.82      103.99      82.146      57.185      34.722      18.330      8.9320      5.1236      4.1319    
  3.7395      3.7395      4.1319      5.1233      8.9305      18.328      34.720      57.189      82.155      104.00    
  116.83      104.00      82.155      57.189      34.720      18.328      8.9305      5.1233      4.1319      3.7395    
  3.7395      4.1319      5.1236      8.9320      18.330      34.722      57.185      82.146      103.99      116.82    
  104.00      87.078      64.422      41.759      23.539      11.807      6.1531      4.3896      3.8393      3.6455    
  3.8391      4.3894      6.1540      11.811      23.543      41.759      64.413      87.062      103.99      110.28    
  82.155      64.422      44.377      26.660      14.104      7.2464      4.6759      3.9455      3.5932      3.5931    
  3.9450      4.6753      7.2471      14.108      26.663      44.376      64.415      82.145      92.623      92.628    
  57.189      41.759      26.660      14.981      7.9533      4.9392      4.0342      3.5761      3.4193      3.5761    
  4.0335      4.9379      7.9526      14.982      26.662      41.761      57.189      68.852      73.208      68.852    
  34.720      23.539      14.104      7.9533      5.0484      4.0848      3.5775      3.3172      3.3174      3.5779    
  4.0845      5.0469      7.9511      14.103      23.540      34.724      44.869      50.935      50.933      44.865    
  18.328      11.807      7.2464      4.9392      4.0848      3.5804      3.2725      3.1727      3.2730      3.5815    
  4.0858      4.9390      7.2444      11.805      18.326      25.372      30.856      32.929      30.855      25.372    
  8.9305      6.1531      4.6759      4.0342      3.5775      3.2725      3.1273      3.1271      3.2725      3.5788    
  4.0367      4.6781      6.1532      8.9280      12.654      16.276      18.520      18.522      16.280      12.658    
  5.1233      4.3896      3.9455      3.5761      3.3172      3.1727      3.1271      3.1716      3.3158      3.5760    
  3.9477      4.3933      5.1261      6.4236      8.0669      9.4661      10.018      9.4690      8.0699      6.4239    
  4.1319      3.8393      3.5932      3.4193      3.3174      3.2730      3.2725      3.3158      3.4165      3.5908    
  3.8393      4.1349      4.4471      4.8666      5.3535      5.6911      5.6912      5.3530      4.8641      4.4431    
  3.7395      3.6455      3.5931      3.5761      3.5779      3.5815      3.5788      3.5760      3.5908      3.6417    
  3.7368      3.8673      4.0104      4.1375      4.2284      4.2636      4.2262      4.1341      4.0077      3.8672    
  3.7395      3.8391      3.9450      4.0335      4.0845      4.0858      4.0367      3.9477      3.8393      3.7368    
  3.6625      3.6276      3.6279      3.6461      3.6614      3.6604      3.6443      3.6277      3.6301      3.6664    
  4.1319      4.3894      4.6753      4.9379      5.0469      4.9390      4.6781      4.3933      4.1349      3.8673    
  3.6276      3.4488      3.3386      3.2842      3.2685      3.2844      3.3401      3.4517      3.6301      3.8672    
  5.1236      6.1540      7.2471      7.9526      7.9511      7.2444      6.1532      5.1261      4.4471      4.0104    
  3.6279      3.3386      3.1590      3.0770      3.0776      3.1605      3.3402      3.6278      4.0078      4.4431    
  8.9320      11.811      14.108      14.982      14.103      11.805      8.9280      6.4236      4.8666      4.1375    
  3.6461      3.2842      3.0770      3.0117      3.0775      3.2843      3.6446      4.1345      4.8641      6.4239    
  18.330      23.543      26.663      26.662      23.540      18.326      12.654      8.0669      5.3535      4.2284    
  3.6614      3.2685      3.0776      3.0775      3.2680      3.6600      4.2268      5.3533      8.0692      12.658    
  34.722      41.759      44.376      41.761      34.724      25.372      16.276      9.4661      5.6911      4.2636    
  3.6604      3.2844      3.1605      3.2843      3.6600      4.2635      5.6922      9.4684      16.278      25.372    
  57.185      64.413      64.415      57.189      44.869      30.856      18.520      10.018      5.6912      4.2262    
  3.6443      3.3401      3.3402      3.6446      4.2268      5.6922      10.019      18.520      30.854      44.865    
  82.146      87.062      82.145      68.852      50.935      32.929      18.522      9.4690      5.3530      4.1341    
  3.6277      3.4517      3.6278      4.1345      5.3533      9.4684      18.520      32.927      50.934      68.852    
  103.99      103.99      92.623      73.208      50.933      30.855      16.280      8.0699      4.8641      4.0077    
  3.6301      3.6301      4.0078      4.8641      8.0692      16.278      30.854      50.934      73.211      92.628    
  116.82      110.28      92.628      68.852      44.865      25.372      12.658      6.4239      4.4431      3.8672    
  3.6664      3.8672      4.4431      6.4239      12.658      25.372      44.865      68.852      92.628      110.28    
  98.083      82.155      60.789      39.382      22.182      11.165      5.9275      4.3217      3.7841      3.5945    
  3.7839      4.3214      5.9280      11.168      22.185      39.383      60.783      82.144      98.075      103.99    
  82.155      64.422      44.377      26.660      14.104      7.2464      4.6759      3.9455      3.5932      3.5931    
  3.9450      4.6753      7.2471      14.108      26.663      44.376      64.415      82.145      92.623      92.628    
  60.789      44.377      28.327      15.889      8.3482      5.0615      4.0852      3.6179      3.4568      3.6177    
  4.0842      5.0600      8.3478      15.891      28.331      44.379      60.788      73.210      77.854      73.211    
  39.382      26.660      15.889      8.7766      5.3228      4.1793      3.6513      3.3761      3.3763      3.6513    
  4.1781      5.3202      8.7743      15.889      26.664      39.389      50.940      57.857      57.854      50.934    
  22.182      14.104      8.3482      5.3228      4.2135      3.6745      3.3382      3.2285      3.3389      3.6751    
  4.2129      5.3202      8.3449      14.103      22.185      30.861      37.604      40.153      37.598      30.854    
  11.165      7.2464      5.0615      4.1793      3.6745      3.3278      3.1612      3.1614      3.3287      3.6759    
  4.1803      5.0607      7.2440      11.163      16.278      21.189      24.215      24.214      21.188      16.278    
  5.9275      4.6759      4.0852      3.6513      3.3382      3.1612      3.1052      3.1607      3.3384      3.6528    
  4.0876      4.6777      5.9274      8.0671      10.665      12.826      13.669      12.828      10.668      8.0692    
  4.3217      3.9455      3.6179      3.3761      3.2285      3.1614      3.1607      3.2269      3.3745      3.6177    
  3.9476      4.3250      4.8664      5.7221      6.6811      7.3241      7.3251      6.6829      5.7222      4.8641    
  3.7841      3.5932      3.4568      3.3763      3.3389      3.3287      3.3384      3.3745      3.4538      3.5908    
  3.7841      4.0103      4.2334      4.4630      4.6769      4.7674      4.6761      4.4609      4.2302      4.0078    
  3.5945      3.5931      3.6177      3.6513      3.6751      3.6759      3.6528      3.6177      3.5908      3.5911    
  3.6277      3.6960      3.7790      3.8531      3.8960      3.8950      3.8506      3.7769      3.6960      3.6301    
  3.7839      3.9450      4.0842      4.1781      4.2129      4.1803      4.0876      3.9476      3.7841      3.6277    
  3.5054      3.4303      3.3972      3.3888      3.3879      3.3879      3.3969      3.4321      3.5086      3.6301    
  4.3214      4.6753      5.0600      5.3202      5.3202      5.0607      4.6777      4.3250      4.0103      3.6960    
  3.4303      3.2421      3.1314      3.0827      3.0829      3.1323      3.2440      3.4321      3.6960      4.0077    
  5.9280      7.2471      8.3478      8.7743      8.3449      7.2440      5.9274      4.8664      4.2334      3.7790    
  3.3972      3.1314      2.9839      2.9381      2.9847      3.1323      3.3971      3.7771      4.2302      4.8641    
  11.168      14.108      15.891      15.889      14.103      11.163      8.0671      5.7221      4.4630      3.8531    
  3.3888      3.0827      2.9381      2.9383      3.0828      3.3879      3.8510      4.4612      5.7222      8.0699    
  22.185      26.663      28.331      26.664      22.185      16.278      10.665      6.6811      4.6769      3.8960    
  3.3879      3.0829      2.9847      3.0828      3.3872      3.8951      4.6770      6.6831      10.668      16.280    
  39.383      44.376      44.379      39.389      30.861      21.189      12.826      7.3241      4.7674      3.8950    
  3.3879      3.1323      3.1323      3.3879      3.8951      4.7683      7.3261      12.827      21.188      30.855    
  60.783      64.415      60.788      50.940      37.604      24.215      13.669      7.3251      4.6761      3.8506    
  3.3969      3.2440      3.3971      3.8510      4.6770      7.3261      13.669      24.213      37.598      50.933    
  82.144      82.145      73.210      57.857      40.153      24.214      12.828      6.6829      4.4609      3.7769    
  3.4321      3.4321      3.7771      4.4612      6.6831      12.827      24.213      40.150      57.854      73.208    
  98.075      92.623      77.854      57.854      37.598      21.188      10.668      5.7222      4.2302      3.6960    
  3.5086      3.6960      4.2302      5.7222      10.668      21.188      37.598      57.854      77.854      92.623    
  103.99      92.628      73.211      50.934      30.854      16.278      8.0692      4.8641      4.0078      3.6301    
  3.6301      4.0077      4.8641      8.0699      16.280      30.855      50.933      73.208      92.623      103.99    
  72.895      57.189      39.382      23.641      12.567      6.6432      4.5038      3.8402      3.5033      3.5033    
  3.8398      4.5031      6.6431      12.568      23.644      39.383      57.187      72.892      82.144      82.146    
  57.189      41.759      26.660      14.981      7.9533      4.9392      4.0342      3.5761      3.4193      3.5761    
  4.0335      4.9379      7.9526      14.982      26.662      41.761      57.189      68.852      73.208      68.852    
  39.382      26.660      15.889      8.7766      5.3228      4.1793      3.6513      3.3761      3.3763      3.6513    
  4.1781      5.3202      8.7743      15.889      26.664      39.389      50.940      57.857      57.854      50.934    
  23.641      14.981      8.7766      5.4770      4.2597      3.7077      3.3620      3.2488      3.3627      3.7081    
  4.2584      5.4735      8.7729      14.981      23.647      32.937      40.158      42.888      40.150      32.927    
  12.567      7.9533      5.3228      4.2597      3.7287      3.3606      3.1826      3.1830      3.3618      3.7298    
  4.2591      5.3196      7.9494      12.566      18.524      24.219      27.722      27.719      24.213      18.520    
  6.6432      4.9392      4.1793      3.7077      3.3606      3.1627      3.1004      3.1631      3.3619      3.7096    
  4.1803      4.9380      6.6405      9.4662      12.827      15.595      16.669      15.594      12.827      9.4684    
  4.5038      4.0342      3.6513      3.3620      3.1826      3.1004      3.1000      3.1820      3.3623      3.6529    
  4.0364      4.5052      5.3527      6.6808      8.1220      9.0704      9.0714      8.1245      6.6831      5.3533    
  3.8402      3.5761      3.3761      3.2488      3.1830      3.1631      3.1820      3.2470      3.3746      3.5761    
  3.8421      4.1370      4.4626      4.8891      5.2938      5.4632      5.2948      4.8895      4.4612      4.1345    
  3.5033      3.4193      3.3763      3.3627      3.3618      3.3619      3.3623      3.3746      3.4166      3.5013    
  3.6278      3.7789      3.9268      4.0434      4.1113      4.1109      4.0420      3.9246      3.7771      3.6278    
  3.5033      3.5761      3.6513      3.7081      3.7298      3.7096      3.6529      3.5761      3.5013      3.4489    
  3.4303      3.4438      3.4757      3.5061      3.5179      3.5047      3.4743      3.4437      3.4321      3.4517    
  3.8398      4.0335      4.1781      4.2584      4.2591      4.1803      4.0364      3.8421      3.6278      3.4303    
  3.2778      3.1804      3.1298      3.1101      3.1098      3.1296      3.1814      3.2800      3.4321      3.6277    
  4.5031      4.9379      5.3202      5.4735      5.3196      4.9380      4.5052      4.1370      3.7789      3.4438    
  3.1804      3.0059      2.9121      2.8832      2.9125      3.0069      3.1815      3.4437      3.7769      4.1341    
  6.6431      7.9526      8.7743      8.7729      7.9494      6.6405      5.3527      4.4626      3.9268      3.4757    
  3.1298      2.9121      2.8113      2.8116      2.9125      3.1297      3.4744      3.9246      4.4609      5.3530    
  12.568      14.982      15.889      14.981      12.566      9.4662      6.6808      4.8891      4.0434      3.5061    
  3.1101      2.8832      2.8116      2.8833      3.1097      3.5049      4.0424      4.8895      6.6829      9.4690    
  23.644      26.662      26.664      23.647      18.524      12.827      8.1220      5.2938      4.1113      3.5179    
  3.1098      2.9125      2.9125      3.1097      3.5174      4.1115      5.2955      8.1245      12.828      18.522    
  39.383      41.761      39.389      32.937      24.219      15.595      9.0704      5.4632      4.1109      3.5047    
  3.1296      3.0069      3.1297      3.5049      4.1115      5.4648      9.0721      15.594      24.214      32.929    
  57.187      57.189      50.940      40.158      27.722      16.669      9.0714      5.2948      4.0420      3.4743    
  3.1814      3.1815      3.4744      4.0424      5.2955      9.0721      16.668      27.719      40.153      50.935    
  72.892      68.852      57.857      42.888      27.719      15.594      8.1245      4.8895      3.9246      3.4437    
  3.2800      3.4437      3.9246      4.8895      8.1245      15.594      27.719      42.888      57.857      68.852    
  82.144      73.208      57.854      40.150      24.213      12.827      6.6831      4.4612      3.7771      3.4321    
  3.4321      3.7769      4.4609      6.6829      12.828      24.214      40.153      57.857      73.210      82.145    
  82.146      68.852      50.934      32.927      18.520      9.4684      5.3533      4.1345      3.6278      3.4517    
  3.6277      4.1341      5.3530      9.4690      18.522      32.929      50.935      68.852      82.145      87.062    
  47.531      34.720      22.182      12.567      6.9306      4.6312      3.8865      3.4582      3.3140      3.4583    
  3.8864      4.6304      6.9293      12.566      22.182      34.722      47.534      57.187      60.783      57.185    
  34.720      23.539      14.104      7.9533      5.0484      4.0848      3.5775      3.3172      3.3174      3.5779    
  4.0845      5.0469      7.9511      14.103      23.540      34.724      44.869      50.935      50.933      44.865    
  22.182      14.104      8.3482      5.3228      4.2135      3.6745      3.3382      3.2285      3.3389      3.6751    
  4.2129      5.3202      8.3449      14.103      22.185      30.861      37.604      40.153      37.598      30.854    
  12.567      7.9533      5.3228      4.2597      3.7287      3.3606      3.1826      3.1830      3.3618      3.7298    
  4.2591      5.3196      7.9494      12.566      18.524      24.219      27.722      27.719      24.213      18.520    
  6.9306      5.0484      4.2135      3.7287      3.3700      3.1648      3.1004      3.1656      3.3717      3.7305    
  4.2135      5.0458      6.9269      10.017      13.670      16.670      17.833      16.668      13.669      10.019    
  4.6312      4.0848      3.6745      3.3606      3.1648      3.0751      3.0751      3.1652      3.3622      3.6767    
  4.0860      4.6303      5.6895      7.3231      9.0700      10.211      10.211      9.0721      7.3261      5.6922    
  3.8865      3.5775      3.3382      3.1826      3.1004      3.0751      3.0997      3.1820      3.3387      3.5792    
  3.8886      4.2277      4.6758      5.2929      5.8693      6.1079      5.8715      5.2955      4.6770      4.2268    
  3.4582      3.3172      3.2285      3.1830      3.1656      3.1652      3.1820      3.2269      3.3160      3.4584    
  3.6461      3.8527      4.0429      4.2045      4.3132      4.3136      4.2050      4.0424      3.8510      3.6446    
  3.3140      3.3174      3.3389      3.3618      3.3717      3.3622      3.3387      3.3160      3.3120      3.3387    
  3.3971      3.4755      3.5541      3.6117      3.6326      3.6110      3.5528      3.4744      3.3971      3.3402    
  3.4583      3.5779      3.6751      3.7298      3.7305      3.6767      3.5792      3.4584      3.3387      3.2420    
  3.1802      3.1524      3.1470      3.1490      3.1485      3.1461      3.1523      3.1815      3.2440      3.3401    
  3.8864      4.0845      4.2129      4.2591      4.2135      4.0860      3.8886      3.6461      3.3971      3.1802    
  3.0192      2.9176      2.8650      2.8491      2.8649      2.9180      3.0205      3.1814      3.3969      3.6443    
  4.6304      5.0469      5.3202      5.3196      5.0458      4.6303      4.2277      3.8527      3.4755      3.1524    
  2.9176      2.7741      2.7085      2.7086      2.7745      2.9180      3.1523      3.4743      3.8506      4.2262    
  6.9293      7.9511      8.3449      7.9494      6.9269      5.6895      4.6758      4.0429      3.5541      3.1470    
  2.8650      2.7085      2.6596      2.7087      2.8649      3.1462      3.5528      4.0420      4.6761      5.6912    
  12.566      14.103      14.103      12.566      10.017      7.3231      5.2929      4.2045      3.6117      3.1490    
  2.8491      2.7086      2.7087      2.8490      3.1484      3.6112      4.2050      5.2948      7.3251      10.018    
  22.182      23.540      22.185      18.524      13.670      9.0700      5.8693      4.3132      3.6326      3.1485    
  2.8649      2.7745      2.8649      3.1484      3.6327      4.3143      5.8715      9.0714      13.669      18.520    
  34.722      34.724      30.861      24.219      16.670      10.211      6.1079      4.3136      3.6110      3.1461    
  2.9180      2.9180      3.1462      3.6112      4.3143      6.1092      10.211      16.669      24.215      30.856    
  47.534      44.869      37.604      27.722      17.833      10.211      5.8715      4.2050      3.5528      3.1523    
  3.0205      3.1523      3.5528      4.2050      5.8715      10.211      17.833      27.722      37.604      44.869    
  57.187      50.935      40.153      27.719      16.668      9.0721      5.2955      4.0424      3.4744      3.1815    
  3.1814      3.4743      4.0420      5.2948      9.0714      16.669      27.722      40.158      50.940      57.189    
  60.783      50.933      37.598      24.213      13.669      7.3261      4.6770      3.8510      3.3971      3.2440    
  3.3969      3.8506      4.6761      7.3251      13.669      24.215      37.604      50.940      60.788      64.415    
  57.185      44.865      30.854      18.520      10.019      5.6922      4.2268      3.6446      3.3402      3.3401    
  3.6443      4.2262      5.6912      10.018      18.520      30.856      44.869      57.189      64.415      64.413    
  26.916      18.328      11.165      6.6432      4.6312      3.9045      3.4422      3.2111      3.2113      3.4428    
  3.9053      4.6314      6.6418      11.162      18.325      26.915      34.722      39.383      39.383      34.722    
  18.328      11.807      7.2464      4.9392      4.0848      3.5804      3.2725      3.1727      3.2730      3.5815    
  4.0858      4.9390      7.2444      11.805      18.326      25.372      30.856      32.929      30.855      25.372    
  11.165      7.2464      5.0615      4.1793      3.6745      3.3278      3.1612      3.1614      3.3287      3.6759    
  4.1803      5.0607      7.2440      11.163      16.278      21.189      24.215      24.214      21.188      16.278    
  6.6432      4.9392      4.1793      3.7077      3.3606      3.1627      3.1004      3.1631      3.3619      3.7096    
  4.1803      4.9380      6.6405      9.4662      12.827      15.595      16.669      15.594      12.827      9.4684    
  4.6312      4.0848      3.6745      3.3606      3.1648      3.0751      3.0751      3.1652      3.3622      3.6767    
  4.0860      4.6303      5.6895      7.3231      9.0700      10.211      10.211      9.0721      7.3261      5.6922    
  3.9045      3.5804      3.3278      3.1627      3.0751      3.0483      3.0748      3.1628      3.3291      3.5827    
  3.9063      4.2635      4.7660      5.4614      6.1067      6.3727      6.1092      5.4648      4.7683      4.2635    
  3.4422      3.2725      3.1612      3.1004      3.0751      3.0748      3.0995      3.1605      3.2728      3.4439    
  3.6621      3.8959      4.1103      4.3122      4.4530      4.4541      4.3143      4.1115      3.8951      3.6600    
  3.2111      3.1727      3.1614      3.1631      3.1652      3.1628      3.1605      3.1715      3.2103      3.2847    
  3.3892      3.5059      3.6113      3.6839      3.7099      3.6843      3.6112      3.5049      3.3879      3.2843    
  3.2113      3.2730      3.3287      3.3619      3.3622      3.3291      3.2728      3.2103      3.1592      3.1315    
  3.1298      3.1468      3.1698      3.1853      3.1851      3.1692      3.1462      3.1297      3.1323      3.1605    
  3.4428      3.5815      3.6759      3.7096      3.6767      3.5827      3.4439      3.2847      3.1315      3.0057    
  2.9174      2.8648      2.8393      2.8318      2.8389      2.8647      2.9180      3.0069      3.1323      3.2844    
  3.9053      4.0858      4.1803      4.1803      4.0860      3.9063      3.6621      3.3892      3.1298      2.9174    
  2.7668      2.6755      2.6336      2.6336      2.6757      2.7674      2.9180      3.1296      3.3879      3.6604    
  4.6314      4.9390      5.0607      4.9380      4.6303      4.2635      3.8959      3.5059      3.1468      2.8648    
  2.6755      2.5714      2.5387      2.5715      2.6757      2.8647      3.1461      3.5047      3.8950      4.2636    
  6.6418      7.2444      7.2440      6.6405      5.6895      4.7660      4.1103      3.6113      3.1698      2.8393    
  2.6336      2.5387      2.5388      2.6336      2.8389      3.1692      3.6110      4.1109      4.7674      5.6911    
  11.162      11.805      11.163      9.4662      7.3231      5.4614      4.3122      3.6839      3.1853      2.8318    
  2.6336      2.5715      2.6336      2.8316      3.1851      3.6843      4.3136      5.4632      7.3241      9.4661    
  18.325      18.326      16.278      12.827      9.0700      6.1067      4.4530      3.7099      3.1851      2.8389    
  2.6757      2.6757      2.8389      3.1851      3.7103      4.4541      6.1079      9.0704      12.826      16.276    
  26.915      25.372      21.189      15.595      10.211      6.3727      4.4541      3.6843      3.1692      2.8647    
  2.7674      2.8647      3.1692      3.6843      4.4541      6.3727      10.211      15.595      21.189      25.372    
  34.722      30.856      24.215      16.669      10.211      6.1092      4.3143      3.6112      3.1462      2.9180    
  2.9180      3.1461      3.6110      4.3136      6.1079      10.211      16.670      24.219      30.861      34.724    
  39.383      32.929      24.214      15.594      9.0721      5.4648      4.1115      3.5049      3.1297      3.0069    
  3.1296      3.5047      4.1109      5.4632      9.0704      15.595      24.219      32.937      39.389      41.761    
  39.383      30.855      21.188      12.827      7.3261      4.7683      3.8951      3.3879      3.1323      3.1323    
  3.3879      3.8950      4.7674      7.3241      12.826      21.189      30.861      39.389      44.379      44.376    
  34.722      25.372      16.278      9.4684      5.6922      4.2635      3.6600      3.2843      3.1605      3.2844    
  3.6604      4.2636      5.6911      9.4661      16.276      25.372      34.724      41.761      44.376      41.759    
  13.407      8.9305      5.9275      4.5038      3.8865      3.4422      3.1793      3.0949      3.1793      3.4431    
  3.8886      4.5060      5.9278      8.9278      13.402      18.325      22.182      23.644      22.185      18.330    
  8.9305      6.1531      4.6759      4.0342      3.5775      3.2725      3.1273      3.1271      3.2725      3.5788    
  4.0367      4.6781      6.1532      8.9280      12.654      16.276      18.520      18.522      16.280      12.658    
  5.9275      4.6759      4.0852      3.6513      3.3382      3.1612      3.1052      3.1607      3.3384      3.6528    