fcc Ni                                  
   3.30000000000000     
     0.000000    0.500000    0.500000
     0.500000    0.000000    0.500000
     0.500000    0.500000    0.000000
   Ni
     1
Direct
  0.000000  0.000000  0.000000
 
   20   20   20
 0.12378244499E+03 0.11682882829E+03 0.98082968106E+02 0.72894890717E+02 0.47531106024E+02
 0.26916324931E+02 0.13406581286E+02 0.66979316229E+01 0.45229903277E+01 0.39278665513E+01
 0.37227571843E+01 0.39278665513E+01 0.45229903277E+01 0.66979316229E+01 0.13406581286E+02
 0.26916324931E+02 0.47531106024E+02 0.72894890717E+02 0.98082968106E+02 0.11682882829E+03
 0.11682882829E+03 0.10400065875E+03 0.82154501784E+02 0.57188801970E+02 0.34720164481E+02
 0.18327820169E+02 0.89305242840E+01 0.51233174580E+01 0.41319344507E+01 0.37395459453E+01
 0.37395346476E+01 0.41318967159E+01 0.51236265886E+01 0.89320255744E+01 0.18330453536E+02
 0.34721531762E+02 0.57185433795E+02 0.82145679846E+02 0.10399071544E+03 0.11682443911E+03
 0.98082968106E+02 0.82154501784E+02 0.60788680136E+02 0.39382241475E+02 0.22181705922E+02
 0.11165263409E+02 0.59274650035E+01 0.43216675582E+01 0.37840826717E+01 0.35945247853E+01
 0.37839172847E+01 0.43213912461E+01 0.59279856885E+01 0.11167729560E+02 0.22185188674E+02
 0.39382928588E+02 0.60783112370E+02 0.82144169379E+02 0.98074603574E+02 0.10399071544E+03
 0.72894890717E+02 0.57188801970E+02 0.39382241475E+02 0.23641324953E+02 0.12566649738E+02
 0.66432092468E+01 0.45038338041E+01 0.38402292028E+01 0.35033208391E+01 0.35032578652E+01
 0.38398461716E+01 0.45031374943E+01 0.66430706756E+01 0.12568002124E+02 0.23643588038E+02
 0.39383307817E+02 0.57187237520E+02 0.72891897838E+02 0.82144169379E+02 0.82145679846E+02
 0.47531106024E+02 0.34720164481E+02 0.22181705922E+02 0.12566649738E+02 0.69306217958E+01
 0.46312221378E+01 0.38865475708E+01 0.34582068228E+01 0.33140177961E+01 0.34583133265E+01
 0.38863720061E+01 0.46304027645E+01 0.69293134870E+01 0.12565630649E+02 0.22181901060E+02
 0.34721875388E+02 0.47533580143E+02 0.57187237520E+02 0.60783112370E+02 0.57185433795E+02
 0.26916324931E+02 0.18327820169E+02 0.11165263409E+02 0.66432092468E+01 0.46312221378E+01
 0.39044666910E+01 0.34422361440E+01 0.32111347625E+01 0.32113199738E+01 0.34428466983E+01
 0.39052897120E+01 0.46313778597E+01 0.66417795011E+01 0.11162478080E+02 0.18325201167E+02
 0.26915267865E+02 0.34721875388E+02 0.39383307817E+02 0.39382928588E+02 0.34721531762E+02
 0.13406581286E+02 0.89305242840E+01 0.59274650035E+01 0.45038338041E+01 0.38865475708E+01
 0.34422361440E+01 0.31793143068E+01 0.30949099261E+01 0.31793485521E+01 0.34431049011E+01
 0.38885878540E+01 0.45059588036E+01 0.59277535348E+01 0.89278343975E+01 0.13401577077E+02
 0.18325201167E+02 0.22181901060E+02 0.23643588038E+02 0.22185188674E+02 0.18330453536E+02
 0.66979316229E+01 0.51233174580E+01 0.43216675582E+01 0.38402292028E+01 0.34582068228E+01
 0.32111347625E+01 0.30949099261E+01 0.30943799835E+01 0.32101419503E+01 0.34581527385E+01
 0.38422256465E+01 0.43252543976E+01 0.51261879407E+01 0.66974917532E+01 0.89278343975E+01
 0.11162478080E+02 0.12565630649E+02 0.12568002124E+02 0.11167729560E+02 0.89320255744E+01
 0.45229903277E+01 0.41319344507E+01 0.37840826717E+01 0.35033208391E+01 0.33140177961E+01
 0.32113199738E+01 0.31793485521E+01 0.32101419503E+01 0.33118041084E+01 0.35012247679E+01
 0.37840689595E+01 0.41348699740E+01 0.45271947914E+01 0.51261879407E+01 0.59277535348E+01
 0.66417795011E+01 0.69293134870E+01 0.66430706756E+01 0.59279856885E+01 0.51236265886E+01
 0.39278665513E+01 0.37395459453E+01 0.35945247853E+01 0.35032578652E+01 0.34583133265E+01
 0.34428466983E+01 0.34431049011E+01 0.34581527385E+01 0.35012247679E+01 0.35909408028E+01
 0.37367441554E+01 0.39279907579E+01 0.41348699740E+01 0.43252543976E+01 0.45059588036E+01
 0.46313778597E+01 0.46304027645E+01 0.45031374943E+01 0.43213912461E+01 0.41318967159E+01
 0.37227571843E+01 0.37395346476E+01 0.37839172847E+01 0.38398461716E+01 0.38863720061E+01
 0.39052897120E+01 0.38885878540E+01 0.38422256465E+01 0.37840689595E+01 0.37367441554E+01
 0.37186312730E+01 0.37367441554E+01 0.37840689595E+01 0.38422256465E+01 0.38885878540E+01
 0.39052897120E+01 0.38863720061E+01 0.38398461716E+01 0.37839172847E+01 0.37395346476E+01
 0.39278665513E+01 0.41318967159E+01 0.43213912461E+01 0.45031374943E+01 0.46304027645E+01
 0.46313778597E+01 0.45059588036E+01 0.43252543976E+01 0.41348699740E+01 0.39279907579E+01
 0.37367441554E+01 0.35909408028E+01 0.35012247679E+01 0.34581527385E+01 0.34431049011E+01
 0.34428466983E+01 0.34583133265E+01 0.35032578652E+01 0.35945247853E+01 0.37395459453E+01
 0.45229903277E+01 0.51236265886E+01 0.59279856885E+01 0.66430706756E+01 0.69293134870E+01
 0.66417795011E+01 0.59277535348E+01 0.51261879407E+01 0.45271947914E+01 0.41348699740E+01
 0.37840689595E+01 0.35012247679E+01 0.33118041084E+01 0.32101419503E+01 0.31793485521E+01
 0.32113199738E+01 0.33140177961E+01 0.35033208391E+01 0.37840826717E+01 0.41319344507E+01
 0.66979316229E+01 0.89320255744E+01 0.11167729560E+02 0.12568002124E+02 0.12565630649E+02
 0.11162478080E+02 0.89278343975E+01 0.66974917532E+01 0.51261879407E+01 0.43252543976E+01
 0.38422256465E+01 0.34581527385E+01 0.32101419503E+01 0.30943799835E+01 0.30949099261E+01
 0.32111347625E+01 0.34582068228E+01 0.38402292028E+01 0.43216675582E+01 0.51233174580E+01
 0.13406581286E+02 0.18330453536E+02 0.22185188674E+02 0.23643588038E+02 0.22181901060E+02
 0.18325201167E+02 0.13401577077E+02 0.89278343975E+01 0.59277535348E+01 0.45059588036E+01
 0.38885878540E+01 0.34431049011E+01 0.31793485521E+01 0.30949099261E+01 0.31793143068E+01
 0.34422361440E+01 0.38865475708E+01 0.45038338041E+01 0.59274650035E+01 0.89305242840E+01
 0.26916324931E+02 0.34721531762E+02 0.39382928588E+02 0.39383307817E+02 0.34721875388E+02
 0.26915267865E+02 0.18325201167E+02 0.11162478080E+02 0.66417795011E+01 0.46313778597E+01
 0.39052897120E+01 0.34428466983E+01 0.32113199738E+01 0.32111347625E+01 0.34422361440E+01
 0.39044666910E+01 0.46312221378E+01 0.66432092468E+01 0.11165263409E+02 0.18327820169E+02
 0.47531106024E+02 0.57185433795E+02 0.60783112370E+02 0.57187237520E+02 0.47533580143E+02
 0.34721875388E+02 0.22181901060E+02 0.12565630649E+02 0.69293134870E+01 0.46304027645E+01
 0.38863720061E+01 0.34583133265E+01 0.33140177961E+01 0.34582068228E+01 0.38865475708E+01
 0.46312221378E+01 0.69306217958E+01 0.12566649738E+02 0.22181705922E+02 0.34720164481E+02
 0.72894890717E+02 0.82145679846E+02 0.82144169379E+02 0.72891897838E+02 0.57187237520E+02
 0.39383307817E+02 0.23643588038E+02 0.12568002124E+02 0.66430706756E+01 0.45031374943E+01
 0.38398461716E+01 0.35032578652E+01 0.35033208391E+01 0.38402292028E+01 0.45038338041E+01
 0.66432092468E+01 0.12566649738E+02 0.23641324953E+02 0.39382241475E+02 0.57188801970E+02
 0.98082968106E+02 0.10399071544E+03 0.98074603574E+02 0.82144169379E+02 0.60783112370E+02
 0.39382928588E+02 0.22185188674E+02 0.11167729560E+02 0.59279856885E+01 0.43213912461E+01
 0.37839172847E+01 0.35945247853E+01 0.37840826717E+01 0.43216675582E+01 0.59274650035E+01
 0.11165263409E+02 0.22181705922E+02 0.39382241475E+02 0.60788680136E+02 0.82154501784E+02
 0.11682882829E+03 0.11682443911E+03 0.10399071544E+03 0.82145679846E+02 0.57185433795E+02
 0.34721531762E+02 0.18330453536E+02 0.89320255744E+01 0.51236265886E+01 0.41318967159E+01
 0.37395346476E+01 0.37395459453E+01 0.41319344507E+01 0.51233174580E+01 0.89305242840E+01
 0.18327820169E+02 0.34720164481E+02 0.57188801970E+02 0.82154501784E+02 0.10400065875E+03
 0.11682882829E+03 0.10400065875E+03 0.82154501784E+02 0.57188801970E+02 0.34720164481E+02
 0.18327820169E+02 0.89305242840E+01 0.51233174580E+01 0.41319344507E+01 0.37395459453E+01
 0.37395346476E+01 0.41318967159E+01 0.51236265886E+01 0.89320255744E+01 0.18330453536E+02
 0.34721531762E+02 0.57185433795E+02 0.82145679846E+02 0.10399071544E+03 0.11682443911E+03
 0.10400065875E+03 0.87077505393E+02 0.64421799477E+02 0.41759166303E+02 0.23538886969E+02
 0.11807368980E+02 0.61530527669E+01 0.43896364257E+01 0.38393140988E+01 0.36454683040E+01
 0.38391315988E+01 0.43894193640E+01 0.61539667537E+01 0.11810669767E+02 0.23542996663E+02
 0.41758903804E+02 0.64412829819E+02 0.87062313329E+02 0.10398867564E+03 0.11028402372E+03
 0.82154501784E+02 0.64421799477E+02 0.44377089377E+02 0.26659808281E+02 0.14104447825E+02
 0.72463784633E+01 0.46759202434E+01 0.39454996535E+01 0.35932254835E+01 0.35931165902E+01
 0.39449781235E+01 0.46752748909E+01 0.72471360589E+01 0.14107599132E+02 0.26663179267E+02
 0.44376148054E+02 0.64414507983E+02 0.82144926162E+02 0.92623471965E+02 0.92627907405E+02
 0.57188801970E+02 0.41759166303E+02 0.26659808281E+02 0.14980590288E+02 0.79533194872E+01
 0.49391912785E+01 0.40342329755E+01 0.35761195368E+01 0.34192534510E+01 0.35760564412E+01
 0.40335120754E+01 0.49378527745E+01 0.79525705334E+01 0.14981588505E+02 0.26662165956E+02
 0.41761225278E+02 0.57189464709E+02 0.68851686605E+02 0.73207507623E+02 0.68851901311E+02
 0.34720164481E+02 0.23538886969E+02 0.14104447825E+02 0.79533194872E+01 0.50484218979E+01
 0.40847524610E+01 0.35775157399E+01 0.33171962641E+01 0.33174321743E+01 0.35778774908E+01
 0.40844510847E+01 0.50469178984E+01 0.79510956944E+01 0.14103093825E+02 0.23540020077E+02
 0.34723840495E+02 0.44868904065E+02 0.50934838564E+02 0.50933014417E+02 0.44864744002E+02
 0.18327820169E+02 0.11807368980E+02 0.72463784633E+01 0.49391912785E+01 0.40847524610E+01
 0.35804017966E+01 0.32724883870E+01 0.31727474179E+01 0.32729775555E+01 0.35814560094E+01
 0.40858117914E+01 0.49390453046E+01 0.72444099575E+01 0.11804591074E+02 0.18326102240E+02
 0.25372364044E+02 0.30856064396E+02 0.32929234803E+02 0.30855243165E+02 0.25372254913E+02
 0.89305242840E+01 0.61530527669E+01 0.46759202434E+01 0.40342329755E+01 0.35775157399E+01
 0.32724883870E+01 0.31272781003E+01 0.31271073851E+01 0.32725445228E+01 0.35787618638E+01
 0.40366592893E+01 0.46781077181E+01 0.61532121287E+01 0.89279871986E+01 0.12653644215E+02
 0.16276451876E+02 0.18520143603E+02 0.18521650858E+02 0.16280240132E+02 0.12657841230E+02
 0.51233174580E+01 0.43896364257E+01 0.39454996535E+01 0.35761195368E+01 0.33171962641E+01
 0.31727474179E+01 0.31271073851E+01 0.31716120218E+01 0.33158444059E+01 0.35760314841E+01
 0.39476729401E+01 0.43933450726E+01 0.51261329627E+01 0.64236050132E+01 0.80669007322E+01
 0.94660781997E+01 0.10017859395E+02 0.94690023882E+01 0.80699312997E+01 0.64238690153E+01
 0.41319344507E+01 0.38393140988E+01 0.35932254835E+01 0.34192534510E+01 0.33174321743E+01
 0.32729775555E+01 0.32725445228E+01 0.33158444059E+01 0.34165193451E+01 0.35907956688E+01
 0.38392950022E+01 0.41348523683E+01 0.44470541731E+01 0.48665883702E+01 0.53535118943E+01
 0.56911066373E+01 0.56912243233E+01 0.53529637281E+01 0.48640620428E+01 0.44431071283E+01
 0.37395459453E+01 0.36454683040E+01 0.35931165902E+01 0.35760564412E+01 0.35778774908E+01
 0.35814560094E+01 0.35787618638E+01 0.35760314841E+01 0.35907956688E+01 0.36416977723E+01
 0.37367918520E+01 0.38673357837E+01 0.40103698027E+01 0.41374630461E+01 0.42283571949E+01
 0.42635861928E+01 0.42261540236E+01 0.41340828332E+01 0.40077150952E+01 0.38672474961E+01
 0.37395346476E+01 0.38391315988E+01 0.39449781235E+01 0.40335120754E+01 0.40844510847E+01
 0.40858117914E+01 0.40366592893E+01 0.39476729401E+01 0.38392950022E+01 0.37367918520E+01
 0.36624828658E+01 0.36275948172E+01 0.36278561206E+01 0.36460778420E+01 0.36613721617E+01
 0.36604035997E+01 0.36443383297E+01 0.36276630682E+01 0.36300703755E+01 0.36663784156E+01
 0.41318967159E+01 0.43894193640E+01 0.46752748909E+01 0.49378527745E+01 0.50469178984E+01
 0.49390453046E+01 0.46781077181E+01 0.43933450726E+01 0.41348523683E+01 0.38673357837E+01
 0.36275948172E+01 0.34488118478E+01 0.33386134034E+01 0.32842036421E+01 0.32684523514E+01
 0.32844473591E+01 0.33401116173E+01 0.34516985716E+01 0.36300901813E+01 0.38672474961E+01
 0.51236265886E+01 0.61539667537E+01 0.72471360589E+01 0.79525705334E+01 0.79510956944E+01
 0.72444099575E+01 0.61532121287E+01 0.51261329627E+01 0.44470541731E+01 0.40103698027E+01
 0.36278561206E+01 0.33386134034E+01 0.31590259887E+01 0.30769803773E+01 0.30775530226E+01
 0.31605373444E+01 0.33401600873E+01 0.36278469103E+01 0.40078153109E+01 0.44431071283E+01
 0.89320255744E+01 0.11810669767E+02 0.14107599132E+02 0.14981588505E+02 0.14103093825E+02
 0.11804591074E+02 0.89279871986E+01 0.64236050132E+01 0.48665883702E+01 0.41374630461E+01
 0.36460778420E+01 0.32842036421E+01 0.30769803773E+01 0.30116786254E+01 0.30775471855E+01
 0.32842808415E+01 0.36445734964E+01 0.41345293606E+01 0.48640511839E+01 0.64238690153E+01
 0.18330453536E+02 0.23542996663E+02 0.26663179267E+02 0.26662165956E+02 0.23540020077E+02
 0.18326102240E+02 0.12653644215E+02 0.80669007322E+01 0.53535118943E+01 0.42283571949E+01
 0.36613721617E+01 0.32684523514E+01 0.30775530226E+01 0.30775471855E+01 0.32680223243E+01
 0.36600353565E+01 0.42267581739E+01 0.53532933761E+01 0.80691776133E+01 0.12657841230E+02
 0.34721531762E+02 0.41758903804E+02 0.44376148054E+02 0.41761225278E+02 0.34723840495E+02
 0.25372364044E+02 0.16276451876E+02 0.94660781997E+01 0.56911066373E+01 0.42635861928E+01
 0.36604035997E+01 0.32844473591E+01 0.31605373444E+01 0.32842808415E+01 0.36600353565E+01
 0.42635066105E+01 0.56921895603E+01 0.94683764779E+01 0.16278471760E+02 0.25372254913E+02
 0.57185433795E+02 0.64412829819E+02 0.64414507983E+02 0.57189464709E+02 0.44868904065E+02
 0.30856064396E+02 0.18520143603E+02 0.10017859395E+02 0.56912243233E+01 0.42261540236E+01
 0.36443383297E+01 0.33401116173E+01 0.33401600873E+01 0.36445734964E+01 0.42267581739E+01
 0.56921895603E+01 0.10018647521E+02 0.18519714568E+02 0.30853587707E+02 0.44864744002E+02
 0.82145679846E+02 0.87062313329E+02 0.82144926162E+02 0.68851686605E+02 0.50934838564E+02
 0.32929234803E+02 0.18521650858E+02 0.94690023882E+01 0.53529637281E+01 0.41340828332E+01
 0.36276630682E+01 0.34516985716E+01 0.36278469103E+01 0.41345293606E+01 0.53532933761E+01
 0.94683764779E+01 0.18519714568E+02 0.32926870707E+02 0.50933510357E+02 0.68851901311E+02
 0.10399071544E+03 0.10398867564E+03 0.92623471965E+02 0.73207507623E+02 0.50933014417E+02
 0.30855243165E+02 0.16280240132E+02 0.80699312997E+01 0.48640620428E+01 0.40077150952E+01
 0.36300703755E+01 0.36300901813E+01 0.40078153109E+01 0.48640511839E+01 0.80691776133E+01
 0.16278471760E+02 0.30853587707E+02 0.50933510357E+02 0.73210948712E+02 0.92627907405E+02
 0.11682443911E+03 0.11028402372E+03 0.92627907405E+02 0.68851901311E+02 0.44864744002E+02
 0.25372254913E+02 0.12657841230E+02 0.64238690153E+01 0.44431071283E+01 0.38672474961E+01
 0.36663784156E+01 0.38672474961E+01 0.44431071283E+01 0.64238690153E+01 0.12657841230E+02
 0.25372254913E+02 0.44864744002E+02 0.68851901311E+02 0.92627907405E+02 0.11028402372E+03
 0.98082968106E+02 0.82154501784E+02 0.60788680136E+02 0.39382241475E+02 0.22181705922E+02
 0.11165263409E+02 0.59274650035E+01 0.43216675582E+01 0.37840826717E+01 0.35945247853E+01
 0.37839172847E+01 0.43213912461E+01 0.59279856885E+01 0.11167729560E+02 0.22185188674E+02
 0.39382928588E+02 0.60783112370E+02 0.82144169379E+02 0.98074603574E+02 0.10399071544E+03
 0.82154501784E+02 0.64421799477E+02 0.44377089377E+02 0.26659808281E+02 0.14104447825E+02
 0.72463784633E+01 0.46759202434E+01 0.39454996535E+01 0.35932254835E+01 0.35931165902E+01
 0.39449781235E+01 0.46752748909E+01 0.72471360589E+01 0.14107599132E+02 0.26663179267E+02
 0.44376148054E+02 0.64414507983E+02 0.82144926162E+02 0.92623471965E+02 0.92627907405E+02
 0.60788680136E+02 0.44377089377E+02 0.28327373771E+02 0.15888655971E+02 0.83481878953E+01
 0.50614633739E+01 0.40852167660E+01 0.36178502910E+01 0.34567565667E+01 0.36176714837E+01
 0.40842406732E+01 0.50599748780E+01 0.83478460586E+01 0.15890671228E+02 0.28330633375E+02
 0.44379017781E+02 0.60788142896E+02 0.73209552539E+02 0.77853997255E+02 0.73210948712E+02
 0.39382241475E+02 0.26659808281E+02 0.15888655971E+02 0.87766215944E+01 0.53227530432E+01
 0.41793170701E+01 0.36513020496E+01 0.33761081552E+01 0.33763049206E+01 0.36513170137E+01
 0.41781147056E+01 0.53202393730E+01 0.87743449342E+01 0.15888973502E+02 0.26664039865E+02
 0.39389281621E+02 0.50940115969E+02 0.57857191674E+02 0.57854495708E+02 0.50933510357E+02
 0.22181705922E+02 0.14104447825E+02 0.83481878953E+01 0.53227530432E+01 0.42134633565E+01
 0.36744581612E+01 0.33382424674E+01 0.32284635788E+01 0.33388836249E+01 0.36750887240E+01
 0.42128960488E+01 0.53202425627E+01 0.83448835779E+01 0.14103369940E+02 0.22185229739E+02
 0.30860501336E+02 0.37604067596E+02 0.40152812973E+02 0.37598447259E+02 0.30853587707E+02
 0.11165263409E+02 0.72463784633E+01 0.50614633739E+01 0.41793170701E+01 0.36744581612E+01
 0.33278404434E+01 0.31611598821E+01 0.31613599583E+01 0.33286654071E+01 0.36759086636E+01
 0.41803421227E+01 0.50607109071E+01 0.72439575579E+01 0.11163090265E+02 0.16278310632E+02
 0.21189310680E+02 0.24215008543E+02 0.24214135176E+02 0.21187894297E+02 0.16278471760E+02
 0.59274650035E+01 0.46759202434E+01 0.40852167660E+01 0.36513020496E+01 0.33382424674E+01
 0.31611598821E+01 0.31052353464E+01 0.31607324087E+01 0.33383531018E+01 0.36527502858E+01
 0.40875930983E+01 0.46777463262E+01 0.59273862312E+01 0.80670638735E+01 0.10664817466E+02
 0.12825853993E+02 0.13668867431E+02 0.12827918641E+02 0.10667764297E+02 0.80691776133E+01
 0.43216675582E+01 0.39454996535E+01 0.36178502910E+01 0.33761081552E+01 0.32284635788E+01
 0.31613599583E+01 0.31607324087E+01 0.32268719989E+01 0.33745263928E+01 0.36177025922E+01
 0.39475679316E+01 0.43249874262E+01 0.48663727417E+01 0.57220855556E+01 0.66811437369E+01
 0.73241428011E+01 0.73251303231E+01 0.66828719837E+01 0.57222263459E+01 0.48640511839E+01
 0.37840826717E+01 0.35932254835E+01 0.34567565667E+01 0.33763049206E+01 0.33388836249E+01
 0.33286654071E+01 0.33383531018E+01 0.33745263928E+01 0.34538290962E+01 0.35908244372E+01
 0.37840757433E+01 0.40102987669E+01 0.42334124849E+01 0.44630240714E+01 0.46769320885E+01
 0.47673931904E+01 0.46761164875E+01 0.44608552981E+01 0.42302052946E+01 0.40078153109E+01
 0.35945247853E+01 0.35931165902E+01 0.36176714837E+01 0.36513170137E+01 0.36750887240E+01
 0.36759086636E+01 0.36527502858E+01 0.36177025922E+01 0.35908244372E+01 0.35910611827E+01
 0.36276750430E+01 0.36960341833E+01 0.37790445088E+01 0.38530709783E+01 0.38960224225E+01
 0.38949563059E+01 0.38505917017E+01 0.37769175172E+01 0.36959818164E+01 0.36300901813E+01
 0.37839172847E+01 0.39449781235E+01 0.40842406732E+01 0.41781147056E+01 0.42128960488E+01
 0.41803421227E+01 0.40875930983E+01 0.39475679316E+01 0.37840757433E+01 0.36276750430E+01
 0.35054225357E+01 0.34302908731E+01 0.33971976415E+01 0.33888383561E+01 0.33878632407E+01
 0.33878825881E+01 0.33969467024E+01 0.34320926444E+01 0.35086220095E+01 0.36300703755E+01
 0.43213912461E+01 0.46752748909E+01 0.50599748780E+01 0.53202393730E+01 0.53202425627E+01
 0.50607109071E+01 0.46777463262E+01 0.43249874262E+01 0.40102987669E+01 0.36960341833E+01
 0.34302908731E+01 0.32420550410E+01 0.31314229448E+01 0.30827442701E+01 0.30829107234E+01
 0.31323115621E+01 0.32439524398E+01 0.34321398282E+01 0.36959818164E+01 0.40077150952E+01
 0.59279856885E+01 0.72471360589E+01 0.83478460586E+01 0.87743449342E+01 0.83448835779E+01
 0.72439575579E+01 0.59273862312E+01 0.48663727417E+01 0.42334124849E+01 0.37790445088E+01
 0.33971976415E+01 0.31314229448E+01 0.29839145903E+01 0.29380703823E+01 0.29846883018E+01
 0.31323448678E+01 0.33971285176E+01 0.37771147463E+01 0.42302052946E+01 0.48640620428E+01
 0.11167729560E+02 0.14107599132E+02 0.15890671228E+02 0.15888973502E+02 0.14103369940E+02
 0.11163090265E+02 0.80670638735E+01 0.57220855556E+01 0.44630240714E+01 0.38530709783E+01
 0.33888383561E+01 0.30827442701E+01 0.29380703823E+01 0.29382713972E+01 0.30828244599E+01
 0.33878887196E+01 0.38510435481E+01 0.44612066446E+01 0.57222263459E+01 0.80699312997E+01
 0.22185188674E+02 0.26663179267E+02 0.28330633375E+02 0.26664039865E+02 0.22185229739E+02
 0.16278310632E+02 0.10664817466E+02 0.66811437369E+01 0.46769320885E+01 0.38960224225E+01
 0.33878632407E+01 0.30829107234E+01 0.29846883018E+01 0.30828244599E+01 0.33872289758E+01
 0.38950768441E+01 0.46769619123E+01 0.66830740321E+01 0.10667764297E+02 0.16280240132E+02
 0.39382928588E+02 0.44376148054E+02 0.44379017781E+02 0.39389281621E+02 0.30860501336E+02
 0.21189310680E+02 0.12825853993E+02 0.73241428011E+01 0.47673931904E+01 0.38949563059E+01
 0.33878825881E+01 0.31323115621E+01 0.31323448678E+01 0.33878887196E+01 0.38950768441E+01
 0.47683202112E+01 0.73261313251E+01 0.12827421690E+02 0.21187894297E+02 0.30855243165E+02
 0.60783112370E+02 0.64414507983E+02 0.60788142896E+02 0.50940115969E+02 0.37604067596E+02
 0.24215008543E+02 0.13668867431E+02 0.73251303231E+01 0.46761164875E+01 0.38505917017E+01
 0.33969467024E+01 0.32439524398E+01 0.33971285176E+01 0.38510435481E+01 0.46769619123E+01
 0.73261313251E+01 0.13668941863E+02 0.24212557870E+02 0.37598447259E+02 0.50933014417E+02
 0.82144169379E+02 0.82144926162E+02 0.73209552539E+02 0.57857191674E+02 0.40152812973E+02
 0.24214135176E+02 0.12827918641E+02 0.66828719837E+01 0.44608552981E+01 0.37769175172E+01
 0.34320926444E+01 0.34321398282E+01 0.37771147463E+01 0.44612066446E+01 0.66830740321E+01
 0.12827421690E+02 0.24212557870E+02 0.40150325532E+02 0.57854495708E+02 0.73207507623E+02
 0.98074603574E+02 0.92623471965E+02 0.77853997255E+02 0.57854495708E+02 0.37598447259E+02
 0.21187894297E+02 0.10667764297E+02 0.57222263459E+01 0.42302052946E+01 0.36959818164E+01
 0.35086220095E+01 0.36959818164E+01 0.42302052946E+01 0.57222263459E+01 0.10667764297E+02
 0.21187894297E+02 0.37598447259E+02 0.57854495708E+02 0.77853997255E+02 0.92623471965E+02
 0.10399071544E+03 0.92627907405E+02 0.73210948712E+02 0.50933510357E+02 0.30853587707E+02
 0.16278471760E+02 0.80691776133E+01 0.48640511839E+01 0.40078153109E+01 0.36300901813E+01
 0.36300703755E+01 0.40077150952E+01 0.48640620428E+01 0.80699312997E+01 0.16280240132E+02
 0.30855243165E+02 0.50933014417E+02 0.73207507623E+02 0.92623471965E+02 0.10398867564E+03
 0.72894890717E+02 0.57188801970E+02 0.39382241475E+02 0.23641324953E+02 0.12566649738E+02
 0.66432092468E+01 0.45038338041E+01 0.38402292028E+01 0.35033208391E+01 0.35032578652E+01
 0.38398461716E+01 0.45031374943E+01 0.66430706756E+01 0.12568002124E+02 0.23643588038E+02
 0.39383307817E+02 0.57187237520E+02 0.72891897838E+02 0.82144169379E+02 0.82145679846E+02
 0.57188801970E+02 0.41759166303E+02 0.26659808281E+02 0.14980590288E+02 0.79533194872E+01
 0.49391912785E+01 0.40342329755E+01 0.35761195368E+01 0.34192534510E+01 0.35760564412E+01
 0.40335120754E+01 0.49378527745E+01 0.79525705334E+01 0.14981588505E+02 0.26662165956E+02
 0.41761225278E+02 0.57189464709E+02 0.68851686605E+02 0.73207507623E+02 0.68851901311E+02
 0.39382241475E+02 0.26659808281E+02 0.15888655971E+02 0.87766215944E+01 0.53227530432E+01
 0.41793170701E+01 0.36513020496E+01 0.33761081552E+01 0.33763049206E+01 0.36513170137E+01
 0.41781147056E+01 0.53202393730E+01 0.87743449342E+01 0.15888973502E+02 0.26664039865E+02
 0.39389281621E+02 0.50940115969E+02 0.57857191674E+02 0.57854495708E+02 0.50933510357E+02
 0.23641324953E+02 0.14980590288E+02 0.87766215944E+01 0.54769828554E+01 0.42597065577E+01
 0.37077399292E+01 0.33620050033E+01 0.32487560030E+01 0.33626589360E+01 0.37081028196E+01
 0.42583742567E+01 0.54734834585E+01 0.87729066289E+01 0.14980511534E+02 0.23647385057E+02
 0.32936921812E+02 0.40158114167E+02 0.42887583824E+02 0.40150325532E+02 0.32926870707E+02
 0.12566649738E+02 0.79533194872E+01 0.53227530432E+01 0.42597065577E+01 0.37286744886E+01
 0.33606331310E+01 0.31825606604E+01 0.31829915400E+01 0.33618185958E+01 0.37298162578E+01
 0.42591356002E+01 0.53195671732E+01 0.79493884191E+01 0.12565805509E+02 0.18523877112E+02
 0.24218904952E+02 0.27722095334E+02 0.27719051684E+02 0.24212557870E+02 0.18519714568E+02
 0.66432092468E+01 0.49391912785E+01 0.41793170701E+01 0.37077399292E+01 0.33606331310E+01
 0.31626793001E+01 0.31003734738E+01 0.31630516059E+01 0.33618819796E+01 0.37095916668E+01
 0.41802772113E+01 0.49380124963E+01 0.66405354902E+01 0.94662401882E+01 0.12827019508E+02
 0.15594610323E+02 0.16668753109E+02 0.15594089595E+02 0.12827421690E+02 0.94683764779E+01
 0.45038338041E+01 0.40342329755E+01 0.36513020496E+01 0.33620050033E+01 0.31825606604E+01
 0.31003734738E+01 0.31000049412E+01 0.31819822613E+01 0.33622657731E+01 0.36528778389E+01
 0.40364093587E+01 0.45051512229E+01 0.53526980591E+01 0.66808058638E+01 0.81220225053E+01
 0.90703684692E+01 0.90714416795E+01 0.81245223785E+01 0.66830740321E+01 0.53532933761E+01
 0.38402292028E+01 0.35761195368E+01 0.33761081552E+01 0.32487560030E+01 0.31829915400E+01
 0.31630516059E+01 0.31819822613E+01 0.32470321681E+01 0.33745985700E+01 0.35760776214E+01
 0.38420579771E+01 0.41370489688E+01 0.44625927339E+01 0.48890965115E+01 0.52938299724E+01
 0.54632051584E+01 0.52947730638E+01 0.48894661847E+01 0.44612066446E+01 0.41345293606E+01
 0.35033208391E+01 0.34192534510E+01 0.33763049206E+01 0.33626589360E+01 0.33618185958E+01
 0.33618819796E+01 0.33622657731E+01 0.33745985700E+01 0.34165872426E+01 0.35013147737E+01
 0.36278444058E+01 0.37788975858E+01 0.39267710343E+01 0.40434282022E+01 0.41113377290E+01
 0.41108657074E+01 0.40419542333E+01 0.39245734038E+01 0.37771147463E+01 0.36278469103E+01
 0.35032578652E+01 0.35760564412E+01 0.36513170137E+01 0.37081028196E+01 0.37298162578E+01
 0.37095916668E+01 0.36528778389E+01 0.35760776214E+01 0.35013147737E+01 0.34489192901E+01
 0.34302834811E+01 0.34438028036E+01 0.34757275611E+01 0.35061166329E+01 0.35178650707E+01
 0.35047450874E+01 0.34742544368E+01 0.34437431924E+01 0.34321398282E+01 0.34516985716E+01
 0.38398461716E+01 0.40335120754E+01 0.41781147056E+01 0.42583742567E+01 0.42591356002E+01
 0.41802772113E+01 0.40364093587E+01 0.38420579771E+01 0.36278444058E+01 0.34302834811E+01
 0.32778001222E+01 0.31803618163E+01 0.31298315495E+01 0.31101224181E+01 0.31098067962E+01
 0.31296082091E+01 0.31814075339E+01 0.32800283747E+01 0.34320926444E+01 0.36276630682E+01
 0.45031374943E+01 0.49378527745E+01 0.53202393730E+01 0.54734834585E+01 0.53195671732E+01
 0.49380124963E+01 0.45051512229E+01 0.41370489688E+01 0.37788975858E+01 0.34438028036E+01
 0.31803618163E+01 0.30059156555E+01 0.29120830731E+01 0.28832375007E+01 0.29124693417E+01
 0.30068891557E+01 0.31814535758E+01 0.34437431924E+01 0.37769175172E+01 0.41340828332E+01
 0.66430706756E+01 0.79525705334E+01 0.87743449342E+01 0.87729066289E+01 0.79493884191E+01
 0.66405354902E+01 0.53526980591E+01 0.44625927339E+01 0.39267710343E+01 0.34757275611E+01
 0.31298315495E+01 0.29120830731E+01 0.28113098877E+01 0.28115543818E+01 0.29125068847E+01
 0.31296910927E+01 0.34744218847E+01 0.39245734038E+01 0.44608552981E+01 0.53529637281E+01
 0.12568002124E+02 0.14981588505E+02 0.15888973502E+02 0.14980511534E+02 0.12565805509E+02
 0.94662401882E+01 0.66808058638E+01 0.48890965115E+01 0.40434282022E+01 0.35061166329E+01
 0.31101224181E+01 0.28832375007E+01 0.28115543818E+01 0.28833347759E+01 0.31096618899E+01
 0.35048976596E+01 0.40423711899E+01 0.48894661847E+01 0.66828719837E+01 0.94690023882E+01
 0.23643588038E+02 0.26662165956E+02 0.26664039865E+02 0.23647385057E+02 0.18523877112E+02
 0.12827019508E+02 0.81220225053E+01 0.52938299724E+01 0.41113377290E+01 0.35178650707E+01
 0.31098067962E+01 0.29124693417E+01 0.29125068847E+01 0.31096618899E+01 0.35174473816E+01
 0.41115115176E+01 0.52955365976E+01 0.81245223785E+01 0.12827918641E+02 0.18521650858E+02
 0.39383307817E+02 0.41761225278E+02 0.39389281621E+02 0.32936921812E+02 0.24218904952E+02
 0.15594610323E+02 0.90703684692E+01 0.54632051584E+01 0.41108657074E+01 0.35047450874E+01
 0.31296082091E+01 0.30068891557E+01 0.31296910927E+01 0.35048976596E+01 0.41115115176E+01
 0.54648191629E+01 0.90721357110E+01 0.15594089595E+02 0.24214135176E+02 0.32929234803E+02
 0.57187237520E+02 0.57189464709E+02 0.50940115969E+02 0.40158114167E+02 0.27722095334E+02
 0.16668753109E+02 0.90714416795E+01 0.52947730638E+01 0.40419542333E+01 0.34742544368E+01
 0.31814075339E+01 0.31814535758E+01 0.34744218847E+01 0.40423711899E+01 0.52955365976E+01
 0.90721357110E+01 0.16668186487E+02 0.27719051684E+02 0.40152812973E+02 0.50934838564E+02
 0.72891897838E+02 0.68851686605E+02 0.57857191674E+02 0.42887583824E+02 0.27719051684E+02
 0.15594089595E+02 0.81245223785E+01 0.48894661847E+01 0.39245734038E+01 0.34437431924E+01
 0.32800283747E+01 0.34437431924E+01 0.39245734038E+01 0.48894661847E+01 0.81245223785E+01
 0.15594089595E+02 0.27719051684E+02 0.42887583824E+02 0.57857191674E+02 0.68851686605E+02
 0.82144169379E+02 0.73207507623E+02 0.57854495708E+02 0.40150325532E+02 0.24212557870E+02
 0.12827421690E+02 0.66830740321E+01 0.44612066446E+01 0.37771147463E+01 0.34321398282E+01
 0.34320926444E+01 0.37769175172E+01 0.44608552981E+01 0.66828719837E+01 0.12827918641E+02
 0.24214135176E+02 0.40152812973E+02 0.57857191674E+02 0.73209552539E+02 0.82144926162E+02
 0.82145679846E+02 0.68851901311E+02 0.50933510357E+02 0.32926870707E+02 0.18519714568E+02
 0.94683764779E+01 0.53532933761E+01 0.41345293606E+01 0.36278469103E+01 0.34516985716E+01
 0.36276630682E+01 0.41340828332E+01 0.53529637281E+01 0.94690023882E+01 0.18521650858E+02
 0.32929234803E+02 0.50934838564E+02 0.68851686605E+02 0.82144926162E+02 0.87062313329E+02
 0.47531106024E+02 0.34720164481E+02 0.22181705922E+02 0.12566649738E+02 0.69306217958E+01
 0.46312221378E+01 0.38865475708E+01 0.34582068228E+01 0.33140177961E+01 0.34583133265E+01
 0.38863720061E+01 0.46304027645E+01 0.69293134870E+01 0.12565630649E+02 0.22181901060E+02
 0.34721875388E+02 0.47533580143E+02 0.57187237520E+02 0.60783112370E+02 0.57185433795E+02
 0.34720164481E+02 0.23538886969E+02 0.14104447825E+02 0.79533194872E+01 0.50484218979E+01
 0.40847524610E+01 0.35775157399E+01 0.33171962641E+01 0.33174321743E+01 0.35778774908E+01