   1   1   0   0
  0.8984250E+01  0.2333452E-09  0.2333452E-09  0.2333452E-09  0.5000000E-15
  1.000000000000000E-004
  CAR 
 fcc Ni                                  
     63.75028681     -0.88913975  301     12.37413864      1.00000000
     -0.889  0.0000E+00  0.0000E+00  0.0000E+00  0.0000E+00
     -0.674  0.0000E+00  0.0000E+00  0.0000E+00  0.0000E+00
     -0.458  0.0000E+00  0.0000E+00  0.0000E+00  0.0000E+00
     -0.243  0.0000E+00  0.0000E+00  0.0000E+00  0.0000E+00
     -0.027  0.0000E+00  0.0000E+00  0.0000E+00  0.0000E+00
      0.188  0.0000E+00  0.0000E+00  0.0000E+00  0.0000E+00
      0.404 -0.1911E-31 -0.8707E-31 -0.4118E-32 -0.1876E-31
      0.619 -0.3175E-24 -0.1183E-23 -0.6840E-25 -0.2550E-24
      0.835 -0.5061E-18 -0.1543E-17 -0.1090E-18 -0.3324E-18
      1.050 -0.7386E-13 -0.1837E-12 -0.1591E-13 -0.3958E-13
      1.266 -0.1026E-08 -0.2077E-08 -0.2210E-09 -0.4476E-09
      1.481 -0.1257E-05 -0.2058E-05 -0.2710E-06 -0.4438E-06
      1.696 -0.1142E-03 -0.1461E-03 -0.2487E-04 -0.3192E-04
      1.912  0.1781E-03  0.4498E-03  0.1350E-04  0.6500E-04
      2.127  0.5819E-02  0.6233E-02  0.1267E-02  0.1408E-02
      2.343  0.1423E-01  0.1552E-01  0.4332E-02  0.4751E-02
      2.558  0.2084E-01  0.2042E-01  0.8822E-02  0.9152E-02
      2.774  0.2136E-01  0.2143E-01  0.1343E-01  0.1377E-01
      2.989  0.2644E-01  0.2705E-01  0.1912E-01  0.1960E-01
      3.205  0.3651E-01  0.3740E-01  0.2699E-01  0.2766E-01
      3.420  0.3863E-01  0.3677E-01  0.3531E-01  0.3558E-01
      3.636  0.2319E-01  0.2333E-01  0.4031E-01  0.4061E-01
      3.851  0.4410E-01  0.4463E-01  0.4981E-01  0.5022E-01
      4.067  0.6731E-01  0.6679E-01  0.6431E-01  0.6461E-01
      4.282  0.4206E-01  0.4053E-01  0.7337E-01  0.7335E-01
      4.497  0.3608E-01  0.3479E-01  0.8115E-01  0.8084E-01
      4.713  0.7376E-01  0.7040E-01  0.9704E-01  0.9601E-01
      4.928  0.6676E-01  0.6749E-01  0.1114E+00  0.1106E+00
      5.144  0.6967E-01  0.6284E-01  0.1264E+00  0.1241E+00
      5.359  0.7801E-01  0.7583E-01  0.1432E+00  0.1404E+00
      5.575  0.1005E+00  0.8609E-01  0.1649E+00  0.1590E+00
      5.790  0.8151E-01  0.8316E-01  0.1825E+00  0.1769E+00
      6.006  0.1231E+00  0.8706E-01  0.2090E+00  0.1957E+00
      6.221  0.1730E+00  0.1434E+00  0.2463E+00  0.2266E+00
      6.437  0.2279E+00  0.1374E+00  0.2954E+00  0.2562E+00
      6.652  0.4334E+00  0.1478E+00  0.3887E+00  0.2880E+00
      6.868  0.4822E+00  0.3365E+00  0.4926E+00  0.3605E+00
      7.083  0.5211E+00  0.4559E+00  0.6049E+00  0.4588E+00
      7.299  0.6253E+00  0.3920E+00  0.7396E+00  0.5432E+00
      7.514  0.7971E+00  0.4891E+00  0.9114E+00  0.6486E+00
      7.729  0.7813E+00  0.4986E+00  0.1080E+01  0.7560E+00
      7.945  0.7634E+00  0.6775E+00  0.1244E+01  0.9020E+00
      8.160  0.6583E+00  0.7202E+00  0.1386E+01  0.1057E+01
      8.376  0.6598E+00  0.7078E+00  0.1528E+01  0.1210E+01
      8.591  0.6424E+00  0.6525E+00  0.1667E+01  0.1350E+01
      8.807  0.8020E+00  0.6428E+00  0.1839E+01  0.1489E+01
      9.022  0.9369E+00  0.5909E+00  0.2041E+01  0.1616E+01
      9.238  0.8891E+00  0.6736E+00  0.2233E+01  0.1761E+01
      9.453  0.1141E+01  0.8645E+00  0.2479E+01  0.1948E+01
      9.669  0.1285E+01  0.8770E+00  0.2756E+01  0.2136E+01
      9.884  0.1179E+01  0.9367E+00  0.3010E+01  0.2338E+01
     10.100  0.8429E+00  0.1110E+01  0.3191E+01  0.2577E+01
     10.315  0.7325E+00  0.1119E+01  0.3349E+01  0.2819E+01
     10.530  0.8490E+00  0.1094E+01  0.3532E+01  0.3054E+01
     10.746  0.9998E+00  0.8602E+00  0.3747E+01  0.3239E+01
     10.961  0.1033E+01  0.7375E+00  0.3970E+01  0.3398E+01
     11.177  0.1011E+01  0.8190E+00  0.4188E+01  0.3575E+01
     11.392  0.8897E+00  0.1018E+01  0.4380E+01  0.3794E+01
     11.608  0.1101E+01  0.9374E+00  0.4617E+01  0.3996E+01
     11.823  0.1662E+01  0.9145E+00  0.4975E+01  0.4193E+01
     12.039  0.1109E+01  0.7840E+00  0.5214E+01  0.4362E+01
     12.254  0.2572E+00  0.9172E+00  0.5269E+01  0.4560E+01
     12.470  0.1788E+00  0.1334E+01  0.5308E+01  0.4847E+01
     12.685  0.8771E-01  0.1341E+01  0.5327E+01  0.5136E+01
     12.901  0.1463E+00  0.6538E+00  0.5358E+01  0.5277E+01
     13.116  0.1828E+00  0.2082E+00  0.5397E+01  0.5322E+01
     13.332  0.1169E+00  0.7897E-01  0.5423E+01  0.5339E+01
     13.547  0.9716E-01  0.1742E+00  0.5444E+01  0.5377E+01
     13.762  0.1124E+00  0.1921E+00  0.5468E+01  0.5418E+01
     13.978  0.1431E+00  0.1137E+00  0.5499E+01  0.5442E+01
     14.193  0.1458E+00  0.1078E+00  0.5530E+01  0.5466E+01
     14.409  0.1222E+00  0.1278E+00  0.5556E+01  0.5493E+01
     14.624  0.6682E-01  0.1946E+00  0.5571E+01  0.5535E+01
     14.840  0.1694E+00  0.1111E+00  0.5607E+01  0.5559E+01
     15.055  0.1296E+00  0.1053E+00  0.5635E+01  0.5582E+01
     15.271  0.6320E-01  0.1625E+00  0.5649E+01  0.5617E+01
     15.486  0.1216E+00  0.1049E+00  0.5675E+01  0.5639E+01
     15.702  0.7827E-01  0.9057E-01  0.5692E+01  0.5659E+01
     15.917  0.1406E+00  0.1043E+00  0.5722E+01  0.5681E+01
     16.133  0.1398E+00  0.1399E+00  0.5752E+01  0.5711E+01
     16.348  0.1014E+00  0.1343E+00  0.5774E+01  0.5740E+01
     16.564  0.1072E+00  0.1101E+00  0.5797E+01  0.5764E+01
     16.779  0.4841E-01  0.1017E+00  0.5808E+01  0.5786E+01
     16.994  0.3335E-01  0.9681E-01  0.5815E+01  0.5807E+01
     17.210  0.1054E+00  0.1557E-01  0.5838E+01  0.5810E+01
     17.425  0.1213E+00  0.1057E+00  0.5864E+01  0.5833E+01
     17.641  0.1076E+00  0.1055E+00  0.5887E+01  0.5856E+01
     17.856  0.9854E-01  0.1165E+00  0.5908E+01  0.5881E+01
     18.072  0.7191E-02  0.1128E+00  0.5910E+01  0.5905E+01
     18.287  0.3966E-01  0.2314E-01  0.5918E+01  0.5910E+01
     18.503  0.7716E-01  0.1844E-01  0.5935E+01  0.5914E+01
     18.718  0.5957E-01  0.8649E-01  0.5948E+01  0.5933E+01
     18.934  0.4123E-01  0.6687E-01  0.5957E+01  0.5947E+01
     19.149  0.8071E-01  0.3717E-01  0.5974E+01  0.5955E+01
     19.365  0.8237E-02  0.8223E-01  0.5976E+01  0.5973E+01
     19.580  0.3412E-01  0.1509E-01  0.5983E+01  0.5976E+01
     19.795  0.1125E+00  0.2142E-01  0.6007E+01  0.5981E+01
     20.011  0.1175E+00  0.4606E-01  0.6033E+01  0.5991E+01
     20.226  0.1758E+00  0.1220E+00  0.6071E+01  0.6017E+01
     20.442  0.1957E+00  0.1872E+00  0.6113E+01  0.6057E+01
     20.657  0.1172E+00  0.1910E+00  0.6138E+01  0.6098E+01
     20.873  0.1215E+00  0.1411E+00  0.6164E+01  0.6129E+01
     21.088  0.1110E+00  0.1412E+00  0.6188E+01  0.6159E+01
     21.304  0.1325E+00  0.1172E+00  0.6217E+01  0.6185E+01
     21.519  0.1357E+00  0.1221E+00  0.6246E+01  0.6211E+01
     21.735  0.1158E+00  0.1361E+00  0.6271E+01  0.6240E+01
     21.950  0.1276E+00  0.1344E+00  0.6298E+01  0.6269E+01
     22.166  0.7532E-01  0.1260E+00  0.6315E+01  0.6296E+01
     22.381  0.7468E-01  0.7875E-01  0.6331E+01  0.6313E+01
     22.597  0.1202E+00  0.7761E-01  0.6357E+01  0.6330E+01
     22.812  0.1287E+00  0.1165E+00  0.6384E+01  0.6355E+01
     23.027  0.7877E-01  0.1293E+00  0.6401E+01  0.6383E+01
     23.243  0.9368E-01  0.8333E-01  0.6421E+01  0.6401E+01
     23.458  0.1201E+00  0.1047E+00  0.6447E+01  0.6423E+01
     23.674  0.1060E+00  0.1173E+00  0.6470E+01  0.6449E+01
     23.889  0.1915E+00  0.9003E-01  0.6511E+01  0.6468E+01
     24.105  0.1119E+00  0.1982E+00  0.6536E+01  0.6511E+01
     24.320  0.9162E-01  0.1201E+00  0.6555E+01  0.6537E+01
     24.536  0.2109E+00  0.9749E-01  0.6601E+01  0.6558E+01
     24.751  0.1735E+00  0.2173E+00  0.6638E+01  0.6604E+01
     24.967  0.6705E-01  0.1607E+00  0.6653E+01  0.6639E+01
     25.182  0.1778E+00  0.8425E-01  0.6691E+01  0.6657E+01
     25.398  0.1991E+00  0.1998E+00  0.6734E+01  0.6700E+01
     25.613  0.2125E+00  0.1935E+00  0.6780E+01  0.6742E+01
     25.828  0.7547E-01  0.1972E+00  0.6796E+01  0.6785E+01
     26.044  0.1490E+00  0.6586E-01  0.6828E+01  0.6799E+01
     26.259  0.2780E+00  0.2009E+00  0.6888E+01  0.6842E+01
     26.475  0.1707E+00  0.2751E+00  0.6925E+01  0.6901E+01
     26.690  0.8995E-01  0.1289E+00  0.6944E+01  0.6929E+01
     26.906  0.1035E+00  0.8804E-01  0.6966E+01  0.6948E+01
     27.121  0.2430E+00  0.1793E+00  0.7019E+01  0.6987E+01
     27.337  0.1551E+00  0.2077E+00  0.7052E+01  0.7031E+01
     27.552  0.1935E+00  0.1610E+00  0.7094E+01  0.7066E+01
     27.768  0.1916E+00  0.2083E+00  0.7135E+01  0.7111E+01
     27.983  0.1158E+00  0.1545E+00  0.7160E+01  0.7144E+01
     28.199  0.1828E+00  0.1395E+00  0.7199E+01  0.7174E+01
     28.414  0.2401E+00  0.2100E+00  0.7251E+01  0.7220E+01
     28.630  0.2127E+00  0.2564E+00  0.7297E+01  0.7275E+01
     28.845  0.1208E+00  0.1583E+00  0.7323E+01  0.7309E+01
     29.060  0.1734E+00  0.1586E+00  0.7360E+01  0.7343E+01
     29.276  0.1813E+00  0.1584E+00  0.7399E+01  0.7377E+01
     29.491  0.2898E+00  0.2440E+00  0.7462E+01  0.7430E+01
     29.707  0.2767E+00  0.2964E+00  0.7521E+01  0.7494E+01
     29.922  0.9025E-01  0.2015E+00  0.7541E+01  0.7537E+01
     30.138  0.7454E-01  0.3293E-01  0.7557E+01  0.7544E+01
     30.353  0.2583E+00  0.2109E+00  0.7613E+01  0.7590E+01
     30.569  0.2628E+00  0.2322E+00  0.7669E+01  0.7640E+01
     30.784  0.2449E+00  0.3078E+00  0.7722E+01  0.7706E+01
     31.000  0.8106E-01  0.1186E+00  0.7739E+01  0.7731E+01
     31.215  0.1735E+00  0.1127E+00  0.7777E+01  0.7756E+01
     31.431  0.1973E+00  0.2206E+00  0.7819E+01  0.7803E+01
     31.646  0.1075E+00  0.1359E+00  0.7843E+01  0.7833E+01
     31.862  0.1722E+00  0.1315E+00  0.7880E+01  0.7861E+01
     32.077  0.2758E+00  0.2599E+00  0.7939E+01  0.7917E+01
     32.292  0.2194E+00  0.2380E+00  0.7986E+01  0.7968E+01
     32.508  0.1532E+00  0.1949E+00  0.8019E+01  0.8010E+01
     32.723  0.9191E-01  0.8303E-01  0.8039E+01  0.8028E+01
     32.939  0.1712E+00  0.1443E+00  0.8076E+01  0.8059E+01
     33.154  0.2558E+00  0.2579E+00  0.8131E+01  0.8115E+01
     33.370  0.8096E-01  0.1375E+00  0.8149E+01  0.8144E+01
     33.585  0.1311E+00  0.9788E-01  0.8177E+01  0.8165E+01
     33.801  0.1242E+00  0.1525E+00  0.8204E+01  0.8198E+01
     34.016  0.9085E-01  0.8808E-01  0.8223E+01  0.8217E+01
     34.232  0.2166E+00  0.1533E+00  0.8270E+01  0.8250E+01
     34.447  0.2527E+00  0.2688E+00  0.8324E+01  0.8308E+01
     34.663  0.1780E+00  0.2234E+00  0.8363E+01  0.8356E+01
     34.878  0.3211E-01  0.4975E-01  0.8370E+01  0.8367E+01
     35.093  0.1712E+00  0.1456E+00  0.8406E+01  0.8398E+01
     35.309  0.1762E+00  0.1782E+00  0.8444E+01  0.8437E+01
     35.524  0.1536E+00  0.1362E+00  0.8478E+01  0.8466E+01
     35.740  0.1210E+00  0.1417E+00  0.8504E+01  0.8497E+01
     35.955  0.2041E+00  0.2028E+00  0.8548E+01  0.8540E+01
     36.171  0.1909E+00  0.2046E+00  0.8589E+01  0.8585E+01
     36.386  0.1469E+00  0.1396E+00  0.8620E+01  0.8615E+01
     36.602  0.1619E+00  0.1312E+00  0.8655E+01  0.8643E+01
     36.817  0.1653E+00  0.1541E+00  0.8691E+01  0.8676E+01
     37.033  0.1908E+00  0.2088E+00  0.8732E+01  0.8721E+01
     37.248  0.2723E+00  0.2831E+00  0.8791E+01  0.8782E+01
     37.464  0.2881E+00  0.2574E+00  0.8853E+01  0.8838E+01
     37.679  0.1952E+00  0.2122E+00  0.8895E+01  0.8883E+01
     37.895  0.1559E+00  0.1564E+00  0.8928E+01  0.8917E+01
     38.110  0.2517E+00  0.2421E+00  0.8983E+01  0.8969E+01
     38.325  0.2336E+00  0.2628E+00  0.9033E+01  0.9026E+01
     38.541  0.1861E+00  0.1850E+00  0.9073E+01  0.9066E+01
     38.756  0.1622E+00  0.1683E+00  0.9108E+01  0.9102E+01
     38.972  0.1970E+00  0.1805E+00  0.9150E+01  0.9141E+01
     39.187  0.2925E+00  0.2655E+00  0.9213E+01  0.9198E+01
     39.403  0.3670E+00  0.3836E+00  0.9292E+01  0.9281E+01
     39.618  0.1186E+00  0.1508E+00  0.9318E+01  0.9313E+01
     39.834  0.2141E+00  0.1685E+00  0.9364E+01  0.9349E+01
     40.049  0.2105E+00  0.2427E+00  0.9410E+01  0.9402E+01
     40.265  0.1728E+00  0.1486E+00  0.9447E+01  0.9434E+01
     40.480  0.1639E+00  0.1883E+00  0.9482E+01  0.9474E+01
     40.696  0.2520E+00  0.2258E+00  0.9536E+01  0.9523E+01
     40.911  0.3496E+00  0.3492E+00  0.9612E+01  0.9598E+01
     41.126  0.2353E+00  0.2604E+00  0.9662E+01  0.9654E+01
     41.342  0.1269E+00  0.1322E+00  0.9690E+01  0.9683E+01
     41.557  0.2578E+00  0.2326E+00  0.9745E+01  0.9733E+01
     41.773  0.1934E+00  0.1956E+00  0.9787E+01  0.9775E+01
     41.988  0.8152E-01  0.1143E+00  0.9805E+01  0.9800E+01
     42.204  0.2207E+00  0.1704E+00  0.9852E+01  0.9836E+01
     42.419  0.1362E+00  0.1926E+00  0.9881E+01  0.9878E+01
     42.635  0.1205E+00  0.1140E+00  0.9907E+01  0.9902E+01
     42.850  0.1668E+00  0.1600E+00  0.9943E+01  0.9937E+01
     43.066  0.1405E+00  0.1563E+00  0.9974E+01  0.9971E+01
     43.281  0.9206E-01  0.8910E-01  0.9993E+01  0.9990E+01
     43.497  0.1090E+00  0.8278E-01  0.1002E+02  0.1001E+02
     43.712  0.1786E+00  0.1643E+00  0.1006E+02  0.1004E+02
     43.928  0.1279E+00  0.1408E+00  0.1008E+02  0.1007E+02
     44.143  0.1205E+00  0.9073E-01  0.1011E+02  0.1009E+02
     44.358  0.1466E+00  0.1808E+00  0.1014E+02  0.1013E+02
     44.574  0.2325E+00  0.2418E+00  0.1019E+02  0.1018E+02
     44.789  0.1676E+00  0.1662E+00  0.1023E+02  0.1022E+02
     45.005  0.9693E-01  0.1065E+00  0.1025E+02  0.1024E+02
     45.220  0.1476E+00  0.1053E+00  0.1028E+02  0.1027E+02
     45.436  0.2717E+00  0.2613E+00  0.1034E+02  0.1032E+02
     45.651  0.2068E+00  0.2477E+00  0.1038E+02  0.1038E+02
     45.867  0.8370E-01  0.9853E-01  0.1040E+02  0.1040E+02
     46.082  0.3879E+00  0.3161E+00  0.1048E+02  0.1046E+02
     46.298  0.3365E+00  0.3742E+00  0.1056E+02  0.1055E+02
     46.513  0.2817E+00  0.2521E+00  0.1062E+02  0.1060E+02
     46.729  0.3934E+00  0.4106E+00  0.1070E+02  0.1069E+02
     46.944  0.2514E+00  0.2522E+00  0.1076E+02  0.1074E+02
     47.160  0.1993E+00  0.2042E+00  0.1080E+02  0.1079E+02
     47.375  0.1274E+00  0.1500E+00  0.1083E+02  0.1082E+02
     47.590  0.2603E+00  0.2282E+00  0.1088E+02  0.1087E+02
     47.806  0.2919E+00  0.3157E+00  0.1095E+02  0.1094E+02
     48.021  0.1880E+00  0.2122E+00  0.1099E+02  0.1098E+02
     48.237  0.9218E-01  0.1134E+00  0.1101E+02  0.1101E+02
     48.452  0.9589E-01  0.7957E-01  0.1103E+02  0.1102E+02
     48.668  0.2577E+00  0.2374E+00  0.1108E+02  0.1107E+02
     48.883  0.1884E+00  0.1865E+00  0.1112E+02  0.1111E+02
     49.099  0.2053E+00  0.2132E+00  0.1117E+02  0.1116E+02
     49.314  0.2826E+00  0.2911E+00  0.1123E+02  0.1122E+02
     49.530  0.1176E+00  0.1347E+00  0.1125E+02  0.1125E+02
     49.745  0.1449E-01  0.1587E-01  0.1126E+02  0.1126E+02
     49.961  0.1481E+00  0.1209E+00  0.1129E+02  0.1128E+02
     50.176  0.1687E+00  0.1799E+00  0.1132E+02  0.1132E+02
     50.391  0.1223E+00  0.9680E-01  0.1135E+02  0.1134E+02
     50.607  0.1710E+00  0.1644E+00  0.1139E+02  0.1138E+02
     50.822  0.8931E-01  0.1387E+00  0.1141E+02  0.1141E+02
     51.038  0.9837E-01  0.9948E-01  0.1143E+02  0.1143E+02
     51.253  0.2150E+00  0.1445E+00  0.1147E+02  0.1146E+02
     51.469  0.2840E+00  0.3134E+00  0.1154E+02  0.1153E+02
     51.684  0.2823E+00  0.3097E+00  0.1160E+02  0.1159E+02
     51.900  0.8912E-01  0.9122E-01  0.1162E+02  0.1161E+02
     52.115  0.9697E-02  0.1152E-01  0.1162E+02  0.1162E+02
     52.331  0.1005E+00  0.8168E-01  0.1164E+02  0.1163E+02
     52.546  0.1138E+00  0.1299E+00  0.1166E+02  0.1166E+02
     52.762  0.1361E+00  0.1077E+00  0.1169E+02  0.1168E+02
     52.977  0.2152E+00  0.2086E+00  0.1174E+02  0.1173E+02
     53.193  0.1373E+00  0.1818E+00  0.1177E+02  0.1177E+02
     53.408  0.3528E-01  0.4937E-01  0.1178E+02  0.1178E+02
     53.623  0.6256E-01  0.4155E-01  0.1179E+02  0.1179E+02
     53.839  0.7786E-01  0.7380E-01  0.1181E+02  0.1180E+02
     54.054  0.4147E-01  0.5771E-01  0.1182E+02  0.1182E+02
     54.270  0.1009E+00  0.7988E-01  0.1184E+02  0.1183E+02
     54.485  0.8507E-01  0.9790E-01  0.1186E+02  0.1185E+02
     54.701  0.2063E-01  0.3022E-01  0.1186E+02  0.1186E+02
     54.916  0.5907E-01  0.5966E-01  0.1187E+02  0.1187E+02
     55.132  0.8764E-01  0.7490E-01  0.1189E+02  0.1189E+02
     55.347  0.1074E+00  0.1145E+00  0.1192E+02  0.1191E+02
     55.563  0.3929E-02  0.8791E-02  0.1192E+02  0.1192E+02
     55.778  0.1419E-01  0.1746E-01  0.1192E+02  0.1192E+02
     55.994  0.1256E-01  0.7721E-02  0.1192E+02  0.1192E+02
     56.209  0.1450E-01  0.1354E-01  0.1193E+02  0.1192E+02
     56.424  0.4150E-01  0.3991E-01  0.1193E+02  0.1193E+02
     56.640  0.2926E-01  0.3166E-01  0.1194E+02  0.1194E+02
     56.855 -0.1538E-02 -0.1236E-02  0.1194E+02  0.1194E+02
     57.071 -0.9633E-03 -0.9923E-03  0.1194E+02  0.1194E+02
     57.286  0.4650E-02  0.4261E-02  0.1194E+02  0.1194E+02
     57.502  0.1979E-01  0.1994E-01  0.1195E+02  0.1195E+02
     57.717  0.2261E-01  0.1956E-01  0.1195E+02  0.1195E+02
     57.933  0.3682E-01  0.3910E-01  0.1196E+02  0.1196E+02
     58.148  0.3412E-01  0.3523E-01  0.1197E+02  0.1197E+02
     58.364  0.2181E-01  0.2172E-01  0.1197E+02  0.1197E+02
     58.579  0.2450E-01  0.2547E-01  0.1198E+02  0.1198E+02
     58.795  0.3273E-01  0.3183E-01  0.1198E+02  0.1198E+02
     59.010 -0.1051E-02 -0.1194E-02  0.1198E+02  0.1198E+02
     59.226 -0.3657E-03 -0.3394E-03  0.1198E+02  0.1198E+02
     59.441 -0.7517E-03 -0.7332E-03  0.1198E+02  0.1198E+02
     59.656  0.5688E-02  0.5394E-02  0.1198E+02  0.1198E+02
     59.872  0.2137E-01  0.2146E-01  0.1199E+02  0.1199E+02
     60.087  0.1937E-02  0.2156E-02  0.1199E+02  0.1199E+02
     60.303 -0.1352E-02 -0.1418E-02  0.1199E+02  0.1199E+02
     60.518  0.1257E-01  0.1113E-01  0.1199E+02  0.1199E+02
     60.734  0.2367E-01  0.2368E-01  0.1200E+02  0.1200E+02
     60.949  0.1994E-01  0.2083E-01  0.1200E+02  0.1200E+02
     61.165  0.8659E-03  0.1501E-02  0.1200E+02  0.1200E+02
     61.380 -0.3688E-03 -0.4380E-03  0.1200E+02  0.1200E+02
     61.596 -0.4360E-05 -0.6173E-05  0.1200E+02  0.1200E+02
     61.811 -0.3785E-08 -0.6232E-08  0.1200E+02  0.1200E+02
     62.027 -0.2893E-12 -0.5511E-12  0.1200E+02  0.1200E+02
     62.242  0.0000E+00 -0.6183E-17  0.1200E+02  0.1200E+02
     62.457  0.0000E+00  0.0000E+00  0.1200E+02  0.1200E+02
     62.673  0.0000E+00  0.0000E+00  0.1200E+02  0.1200E+02
     62.888  0.0000E+00  0.0000E+00  0.1200E+02  0.1200E+02
     63.104  0.0000E+00  0.0000E+00  0.1200E+02  0.1200E+02
     63.319  0.0000E+00  0.0000E+00  0.1200E+02  0.1200E+02
     63.535  0.0000E+00  0.0000E+00  0.1200E+02  0.1200E+02
     63.750  0.0000E+00  0.0000E+00  0.1200E+02  0.1200E+02
