    1    1    1    2
  0.8984250E+01  0.2333452E-09  0.2333452E-09  0.2333452E-09  0.5000000E-15
  1.000000000000000E-004
  CAR 
 fcc Ni                                  
     10    110     12
 
  0.5000000E-01  0.5000000E-01  0.5000000E-01  0.2000000E-02
    1        2.067480      2.049016   1.000000   1.000000
    2        9.379126     10.057525   1.000000   1.000000
    3        9.441428     10.124666   1.000000   1.000000
    4        9.441428     10.124666   1.000000   1.000000
    5       10.919371     11.513628   1.000000   1.000000
    6       10.919371     11.513628   1.000000   1.000000
    7       37.572549     37.468655   0.000000   0.000000
    8       41.689625     41.676502   0.000000   0.000000
    9       42.971386     42.959204   0.000000   0.000000
   10       42.971386     42.959204   0.000000   0.000000
   11       47.509182     47.583586   0.000000   0.000000
   12       47.509434     47.583904   0.000000   0.000000
 
  0.1500000E+00  0.5000000E-01  0.5000000E-01  0.6000000E-02
    1        2.658636      2.641797   1.000000   1.000000
    2        9.193874      9.854815   1.000000   1.000000
    3        9.575156     10.263025   1.000000   1.000000
    4        9.593461     10.275280   1.000000   1.000000
    5       10.777274     11.365154   1.000000   1.000000
    6       10.954640     11.553186   1.000000   1.000000
    7       35.998742     36.008424   0.000000   0.000000
    8       38.622174     38.605219   0.000000   0.000000
    9       41.592984     41.589441   0.000000   0.000000
   10       43.770125     43.760652   0.000000   0.000000
   11       46.550404     46.553444   0.000000   0.000000
   12       47.628016     47.695305   0.000000   0.000000
 
  0.2500000E+00  0.5000000E-01  0.5000000E-01  0.6000000E-02
    1        4.011767      4.010575   1.000000   1.000000
    2        8.938639      9.548605   1.000000   1.000000
    3        9.705914     10.358988   1.000000   1.000000
    4        9.746816     10.413300   1.000000   1.000000
    5       10.757650     11.369740   1.000000   1.000000
    6       11.112296     11.741807   1.000000   1.000037
    7       30.828872     30.949875   0.000000   0.000000
    8       37.335103     37.312184   0.000000   0.000000
    9       40.916900     40.933002   0.000000   0.000000
   10       43.491363     43.542957   0.000000   0.000000
   11       46.090715     46.079319   0.000000   0.000000
   12       46.876012     46.929501   0.000000   0.000000
 
  0.3500000E+00  0.5000000E-01  0.5000000E-01  0.6000000E-02
    1        5.592730      5.699357   1.000000   1.000000
    2        9.147443      9.600362   1.000000   1.000000
    3        9.584206     10.194913   1.000000   1.000000
    4        9.647532     10.262369   1.000000   1.000000
    5       11.145004     11.818427   1.000000   1.000305
    6       11.561697     12.229944   1.000000   0.966983
    7       25.571484     25.775201   0.000000   0.000000
    8       36.482359     36.442268   0.000000   0.000000
    9       39.831770     39.876691   0.000000   0.000000
   10       42.935616     43.044602   0.000000   0.000000
   11       44.304651     44.344529   0.000000   0.000000
   12       46.240228     46.258599   0.000000   0.000000
 
  0.4500000E+00  0.5000000E-01  0.5000000E-01  0.6000000E-02
    1        6.350095      6.682868   1.000000   1.000000
    2        9.399691      9.977755   1.000000   1.000000
    3        9.484170     10.075850   1.000000   1.000000
    4       10.417526     10.644858   1.000000   1.000000
    5       11.625606     12.334865   1.000001   0.662681
    6       12.194092     12.798573   1.011438  -0.005282
    7       21.238182     21.555323   0.000000   0.000000
    8       35.883089     35.810571   0.000000   0.000000
    9       39.254060     39.323008   0.000000   0.000000
   10       41.087843     41.183222   0.000000   0.000000
   11       43.995007     44.048413   0.000000   0.000000
   12       45.432387     45.471884   0.000000   0.000000
 
 -0.4500000E+00  0.5000000E-01  0.5000000E-01  0.6000000E-02
    1        6.445340      6.838465   1.000000   1.000000
    2        9.332588      9.903469   1.000000   1.000000
    3        9.442615     10.031181   1.000000   1.000000
    4       10.959752     11.228006   1.000000   1.000000
    5       11.847990     12.568254   1.000633  -0.021798
    6       12.642692     13.075790  -0.033639  -0.000004
    7       19.666768     20.062787   0.000000   0.000000
    8       35.791008     35.699755   0.000000   0.000000
    9       39.614121     39.703012   0.000000   0.000000
   10       39.701160     39.787724   0.000000   0.000000
   11       44.693109     44.735763   0.000000   0.000000
   12       44.694660     44.749045   0.000000   0.000000
 
 -0.3500000E+00  0.5000000E-01  0.5000000E-01  0.6000000E-02
    1        6.209941      6.477513   1.000000   1.000000
    2        9.432246      9.989212   1.000000   1.000000
    3        9.547879     10.149902   1.000000   1.000000
    4        9.909036     10.219689   1.000000   1.000000
    5       11.694378     12.398440   1.000008   0.398010
    6       11.772117     12.409956   1.000088   0.351105
    7       22.511653     22.785563   0.000000   0.000000
    8       36.313787     36.224503   0.000000   0.000000
    9       39.059188     39.153638   0.000000   0.000000
   10       41.157227     41.261171   0.000000   0.000000
   11       44.390517     44.423306   0.000000   0.000000
   12       46.008887     46.053966   0.000000   0.000000
 
 -0.2500000E+00  0.5000000E-01  0.5000000E-01  0.6000000E-02
    1        5.105557      5.155716   1.000000   1.000000
    2        8.958460      9.485522   1.000000   1.000000
    3        9.638271     10.257361   1.000000   1.000000
    4        9.711586     10.345213   1.000000   1.000000
    5       11.077363     11.728489   1.000000   1.000025
    6       11.307605     11.969815   1.000000   1.007451
    7       27.263946     27.437931   0.000000   0.000000
    8       37.292585     37.215807   0.000000   0.000000
    9       39.326196     39.419088   0.000000   0.000000
   10       43.181400     43.288303   0.000000   0.000000
   11       44.563017     44.566506   0.000000   0.000000
   12       47.983804     48.006604   0.000000   0.000000
 
 -0.1500000E+00  0.5000000E-01  0.5000000E-01  0.6000000E-02
    1        3.494948      3.484715   1.000000   1.000000
    2        8.997111      9.629748   1.000000   1.000000
    3        9.704470     10.376637   1.000000   1.000000
    4        9.719538     10.394499   1.000000   1.000000
    5       10.730883     11.330225   1.000000   1.000000
    6       11.016919     11.628854   1.000000   1.000001
    7       32.666917     32.759501   0.000000   0.000000
    8       38.305214     38.232561   0.000000   0.000000
    9       40.156716     40.230686   0.000000   0.000000
   10       43.776020     43.763750   0.000000   0.000000
   11       45.631276     45.685504   0.000000   0.000000
   12       49.531192     49.520899   0.000000   0.000000
 
 -0.5000000E-01  0.5000000E-01  0.5000000E-01  0.6000000E-02
    1        2.366164      2.348277   1.000000   1.000000
    2        9.261503      9.931594   1.000000   1.000000
    3        9.527637     10.212769   1.000000   1.000000
    4        9.534547     10.219232   1.000000   1.000000
    5       10.802769     11.391489   1.000000   1.000000
    6       10.967548     11.563837   1.000000   1.000000
    7       37.074303     37.017389   0.000000   0.000000
    8       40.087104     40.070644   0.000000   0.000000
    9       41.453507     41.489395   0.000000   0.000000
   10       42.771195     42.749816   0.000000   0.000000
   11       47.446048     47.499952   0.000000   0.000000
   12       48.826824     48.843448   0.000000   0.000000
 
  0.1500000E+00  0.1500000E+00  0.5000000E-01  0.6000000E-02
    1        2.946858      2.930859   1.000000   1.000000
    2        9.030911      9.685672   1.000000   1.000000
    3        9.707896     10.395358   1.000000   1.000000
    4        9.712559     10.401036   1.000000   1.000000
    5       10.601663     11.179466   1.000000   1.000000
    6       11.057093     11.657676   1.000000   1.000002
    7       36.214920     36.223914   0.000000   0.000000
    8       38.531430     38.508799   0.000000   0.000000
    9       39.442965     39.510843   0.000000   0.000000
   10       41.203068     41.190503   0.000000   0.000000
   11       48.509034     48.583919   0.000000   0.000000
   12       50.085253     50.230801   0.000000   0.000000
 
  0.2500000E+00  0.1500000E+00  0.5000000E-01  0.1200000E-01
    1        4.029456      4.023186   1.000000   1.000000
    2        8.726465      9.354653   1.000000   1.000000
    3        9.799425     10.439175   1.000000   1.000000
    4        9.970416     10.662157   1.000000   1.000000
    5       10.530295     11.125781   1.000000   1.000000
    6       11.228944     11.850943   1.000000   1.000679
    7       33.066766     33.159563   0.000000   0.000000
    8       35.432341     35.475736   0.000000   0.000000
    9       39.341441     39.352944   0.000000   0.000000
   10       40.916215     40.919336   0.000000   0.000000
   11       47.075561     47.267195   0.000000   0.000000
   12       49.183809     49.180229   0.000000   0.000000
 
  0.3500000E+00  0.1500000E+00  0.5000000E-01  0.1200000E-01
    1        5.568173      5.624042   1.000000   1.000000
    2        8.591351      9.149854   1.000000   1.000000
    3        9.511259     10.098131   1.000000   1.000000
    4        9.998558     10.639031   1.000000   1.000000
    5       11.073961     11.715627   1.000000   1.000017
    6       11.704647     12.359486   1.000012   0.561816
    7       27.658622     27.821998   0.000000   0.000000
    8       34.518163     34.566989   0.000000   0.000000
    9       37.756900     37.785925   0.000000   0.000000
   10       40.871016     40.941050   0.000000   0.000000
   11       47.701124     47.700117   0.000000   0.000000
   12       47.974927     48.051473   0.000000   0.000000
 
  0.4500000E+00  0.1500000E+00  0.5000000E-01  0.1200000E-01
    1        6.610893      6.891184   1.000000   1.000000
    2        9.003520      9.403297   1.000000   1.000000
    3        9.356780      9.917467   1.000000   1.000000
    4        9.845526     10.450099   1.000000   1.000000
    5       11.668931     12.364229   1.000004   0.541876
    6       12.790855     13.332364  -0.006046  -0.000000
    7       22.828560     23.080427   0.000000   0.000000
    8       34.043712     34.067976   0.000000   0.000000
    9       36.312039     36.389140   0.000000   0.000000
   10       39.753572     39.816742   0.000000   0.000000
   11       46.692198     46.718813   0.000000   0.000000
   12       49.216912     49.225599   0.000000   0.000000
 
 -0.4500000E+00  0.1500000E+00  0.5000000E-01  0.1200000E-01
    1        6.825077      7.237143   1.000000   1.000000
    2        8.986144      9.458777   1.000000   1.000000
    3        9.723654     10.313626   1.000000   1.000000
    4        9.939364     10.382668   1.000000   1.000000
    5       11.808918     12.532063   1.000239   0.012655
    6       14.290526     14.627575  -0.000000  -0.000000
    7       19.766589     20.138563   0.000000   0.000000
    8       33.531029     33.551168   0.000000   0.000000
    9       36.012448     36.109127   0.000000   0.000000
   10       39.344417     39.377180   0.000000   0.000000
   11       46.063946     46.111454   0.000000   0.000000
   12       48.853201     48.863028   0.000000   0.000000
 
 -0.3500000E+00  0.1500000E+00  0.5000000E-01  0.1200000E-01
    1        6.755287      7.103536   1.000000   1.000000
    2        9.088046      9.553755   1.000000   1.000000
    3        9.583975     10.042972   1.000000   1.000000
    4        9.778062     10.361201   1.000000   1.000000
    5       11.547320     12.255768   1.000000   0.916326
    6       13.463199     13.947071  -0.000000  -0.000000
    7       21.505569     21.799180   0.000000   0.000000
    8       33.005463     33.056618   0.000000   0.000000
    9       37.004140     37.060323   0.000000   0.000000
   10       40.224574     40.265493   0.000000   0.000000
   11       45.648483     45.697017   0.000000   0.000000
   12       48.483061     48.493287   0.000000   0.000000
 
 -0.2500000E+00  0.1500000E+00  0.5000000E-01  0.1200000E-01
    1        6.055578      6.166013   1.000000   1.000000
    2        8.766218      9.275299   1.000000   1.000000
    3        9.391066      9.971069   1.000000   1.000000
    4        9.927859     10.541191   1.000000   1.000000
    5       10.983286     11.653409   1.000000   1.000002
    6       12.204049     12.843254   1.001852  -0.002245
    7       25.968306     26.160271   0.000000   0.000000
    8       33.008593     33.078544   0.000000   0.000000
    9       38.758258     38.776815   0.000000   0.000000
   10       42.165111     42.222523   0.000000   0.000000
   11       45.419685     45.440091   0.000000   0.000000
   12       47.737357     47.760439   0.000000   0.000000
 
 -0.1500000E+00  0.1500000E+00  0.5000000E-01  0.1200000E-01
    1        4.530023      4.533561   1.000000   1.000000
    2        8.717965      9.332403   1.000000   1.000000
    3        9.679885     10.298950   1.000000   1.000000
    4       10.007441     10.694103   1.000000   1.000000
    5       10.521679     11.114162   1.000000   1.000000
    6       11.445550     12.089396   1.000000   1.030873
    7       31.237038     31.356396   0.000000   0.000000
    8       33.660729     33.726503   0.000000   0.000000
    9       41.003081     41.000377   0.000000   0.000000
   10       42.636587     42.620280   0.000000   0.000000
   11       46.276163     46.273077   0.000000   0.000000
   12       47.670084     47.793245   0.000000   0.000000
 
 -0.5000000E-01  0.1500000E+00  0.5000000E-01  0.1200000E-01
    1        3.226717      3.212829   1.000000   1.000000
    2        9.005276      9.651721   1.000000   1.000000
    3        9.709079     10.381675   1.000000   1.000000
    4        9.729257     10.419807   1.000000   1.000000
    5       10.632848     11.215798   1.000000   1.000000
    6       11.057209     11.665307   1.000000   1.000003
    7       34.563888     34.624823   0.000000   0.000000
    8       37.017750     37.027521   0.000000   0.000000
    9       40.812761     40.810302   0.000000   0.000000
   10       43.030611     43.008716   0.000000   0.000000
   11       46.715106     46.750923   0.000000   0.000000
   12       48.643265     48.665514   0.000000   0.000000
 
  0.2500000E+00  0.2500000E+00  0.5000000E-01  0.6000000E-02
    1        4.744526      4.752267   1.000000   1.000000
    2        8.363078      8.977012   1.000000   1.000000
    3        9.987008     10.546678   1.000000   1.000000
    4       10.303260     11.005552   1.000000   1.000000
    5       10.508925     11.170872   1.000000   1.000000
    6       11.336417     11.950782   1.000000   1.005384
    7       33.596011     33.680527   0.000000   0.000000
    8       35.379599     35.466088   0.000000   0.000000
    9       35.893585     35.899428   0.000000   0.000000
   10       37.409998     37.453960   0.000000   0.000000
   11       43.953228     44.163860   0.000000   0.000000
   12       53.352327     53.309153   0.000000   0.000000
 
  0.3500000E+00  0.2500000E+00  0.5000000E-01  0.1200000E-01
    1        5.902505      5.970131   1.000000   1.000000
    2        8.063054      8.651718   1.000000   1.000000
    3        9.694910     10.227094   1.000000   1.000000
    4       10.626015     11.310736   1.000000   1.000000
    5       11.118393     11.740669   1.000000   1.000036
    6       11.728837     12.376805   1.000025   0.488719
    7       30.217122     30.335210   0.000000   0.000000
    8       32.348023     32.428819   0.000000   0.000000
    9       34.411596     34.484792   0.000000   0.000000
   10       38.146042     38.203752   0.000000   0.000000
   11       43.658181     43.820708   0.000000   0.000000
   12       52.937251     52.921343   0.000000   0.000000
 
  0.4500000E+00  0.2500000E+00  0.5000000E-01  0.1200000E-01
    1        6.921333      7.153667   1.000000   1.000000
    2        8.057295      8.571103   1.000000   1.000000
    3        9.365008      9.894175   1.000000   1.000000
    4       10.526618     11.158989   1.000000   1.000000
    5       11.746899     12.442968   1.000043   0.226999
    6       13.223827     13.732521  -0.000000  -0.000000
    7       25.138481     25.317289   0.000000   0.000000
    8       31.285809     31.371051   0.000000   0.000000
    9       32.685423     32.783610   0.000000   0.000000
   10       38.423615     38.491526   0.000000   0.000000
   11       46.902384     46.999200   0.000000   0.000000
   12       51.548414     51.573334   0.000000   0.000000
 
 -0.4500000E+00  0.2500000E+00  0.5000000E-01  0.1200000E-01
    1        7.356358      7.784938   1.000000   1.000000
    2        8.258074      8.652756   1.000000   1.000000
    3        9.309975      9.852678   1.000000   1.000000
    4       10.349515     10.953980   1.000000   1.000000
    5       11.830274     12.562507   1.000411  -0.017991
    6       15.759311     16.093092  -0.000000  -0.000000
    7       20.913349     21.185731   0.000000   0.000000
    8       29.634008     29.746008   0.000000   0.000000
    9       32.984268     33.075945   0.000000   0.000000
   10       38.470704     38.519720   0.000000   0.000000
   11       49.263922     49.277487   0.000000   0.000000
   12       52.713636     52.793227   0.000000   0.000000
 
 -0.3500000E+00  0.2500000E+00  0.5000000E-01  0.1200000E-01
    1        7.526482      7.957953   1.000000   1.000000
    2        8.438793      8.832668   1.000000   1.000000
    3        9.143274      9.674528   1.000000   1.000000
    4       10.265586     10.852771   1.000000   1.000000
    5       11.505800     12.239314   1.000000   0.950513
    6       15.943520     16.289906  -0.000000  -0.000000
    7       20.934828     21.220585   0.000000   0.000000
    8       28.414958     28.541569   0.000000   0.000000
    9       34.436802     34.522585   0.000000   0.000000
   10       39.174899     39.208711   0.000000   0.000000
   11       48.272818     48.281160   0.000000   0.000000
   12       52.425910     52.414709   0.000000   0.000000
 
 -0.2500000E+00  0.2500000E+00  0.5000000E-01  0.1200000E-01
    1        7.253361      7.459567   1.000000   1.000000
    2        8.552501      9.086438   1.000000   1.000000
    3        8.872496      9.394884   1.000000   1.000000
    4       10.340578     10.908620   1.000000   1.000000
    5       10.924204     11.651774   1.000000   1.000002
    6       13.793644     14.331054  -0.000000  -0.000000
    7       25.146051     25.349853   0.000000   0.000000
    8       28.017567     28.147148   0.000000   0.000000
    9       36.525877     36.591923   0.000000   0.000000
   10       40.912270     40.950587   0.000000   0.000000
   11       46.580039     46.556744   0.000000   0.000000
   12       51.200423     51.204468   0.000000   0.000000
 
 -0.1500000E+00  0.2500000E+00  0.5000000E-01  0.1200000E-01
    1        6.021497      6.084496   1.000000   1.000000
    2        8.529293      9.108435   1.000000   1.000000
    3        9.356426      9.923138   1.000000   1.000000
    4       10.234568     10.843104   1.000000   1.000000
    5       10.598724     11.272357   1.000000   1.000000
    6       12.311559     12.951459   0.750974  -0.000174
    7       28.043093     28.207517   0.000000   0.000000
    8       30.584968     30.688296   0.000000   0.000000
    9       38.923200     38.955959   0.000000   0.000000
   10       43.128472     43.164328   0.000000   0.000000
   11       44.595207     44.580122   0.000000   0.000000
   12       49.208845     49.257251   0.000000   0.000000
 
 -0.5000000E-01  0.2500000E+00  0.5000000E-01  0.1200000E-01
    1        4.731771      4.749510   1.000000   1.000000
    2        8.799552      9.384666   1.000000   1.000000
    3        9.669534     10.290724   1.000000   1.000000
    4        9.837690     10.488169   1.000000   1.000000
    5       10.794860     11.426542   1.000000   1.000000
    6       11.370068     12.018335   1.000000   1.015251
    7       29.165015     29.309480   0.000000   0.000000
    8       35.928928     35.948166   0.000000   0.000000
    9       39.761467     39.775530   0.000000   0.000000
   10       43.413122     43.457530   0.000000   0.000000
   11       45.338743     45.369079   0.000000   0.000000
   12       47.476289     47.511673   0.000000   0.000000
 
  0.3500000E+00  0.3500000E+00  0.5000000E-01  0.6000000E-02
    1        6.314669      6.476553   1.000000   1.000000
    2        7.666573      8.242007   1.000000   1.000000
    3       10.493111     10.918327   1.000000   1.000000
    4       11.076133     11.792499   1.000000   1.000155
    5       11.530560     12.149059   1.000000   1.033724
    6       11.655000     12.297937   1.000002   0.797956
    7       30.358599     30.450580   0.000000   0.000000
    8       31.214322     31.313608   0.000000   0.000000
    9       31.958783     32.027535   0.000000   0.000000
   10       35.958750     36.062206   0.000000   0.000000
   11       41.130870     41.295669   0.000000   0.000000
   12       58.151280     58.150948   0.000000   0.000000
 
  0.4500000E+00  0.3500000E+00  0.5000000E-01  0.1200000E-01
    1        6.708229      6.975671   1.000000   1.000000
    2        7.491364      8.049523   1.000000   1.000000
    3       10.430499     10.945323   1.000000   1.000000
    4       11.357254     12.019502   1.000000   1.015483
    5       11.759736     12.456216   1.000062   0.183008
    6       13.357091     13.783389  -0.000000  -0.000000
    7       27.595631     27.723340   0.000000   0.000000
    8       28.486966     28.616529   0.000000   0.000000
    9       30.261913     30.336200   0.000000   0.000000
   10       37.093853     37.185210   0.000000   0.000000
   11       42.100290     42.241936   0.000000   0.000000
   12       56.427027     56.438155   0.000000   0.000000
 
 -0.4500000E+00  0.3500000E+00  0.5000000E-01  0.1200000E-01
    1        7.116371      7.469951   1.000000   1.000000
    2        7.615835      8.135740   1.000000   1.000000
    3        9.949747     10.488284   1.000000   1.000000
    4       11.115876     11.732777   1.000000   1.000028
    5       11.893869     12.647756   1.001779  -0.032873
    6       16.303785     16.604519  -0.000000  -0.000000
    7       23.369714     23.538006   0.000000   0.000000
    8       26.145295     26.322187   0.000000   0.000000
    9       30.553812     30.629459   0.000000   0.000000
   10       37.675897     37.760615   0.000000   0.000000
   11       46.178818     46.292401   0.000000   0.000000
   12       54.293957     54.305449   0.000000   0.000000
 
 -0.3500000E+00  0.3500000E+00  0.5000000E-01  0.1200000E-01
    1        7.613712      8.046370   1.000000   1.000000
    2        7.903371      8.343964   1.000000   1.000000
    3        9.329113      9.873617   1.000000   1.000000
    4       10.854660     11.434489   1.000000   1.000000
    5       11.624880     12.393962   1.000001   0.416575
    6       18.992173     19.233949   0.000000   0.000000
    7       20.243089     20.487381   0.000000   0.000000
    8       24.946229     25.137335   0.000000   0.000000
    9       31.996294     32.083666   0.000000   0.000000
   10       38.172622     38.235624   0.000000   0.000000
   11       51.538275     51.591355   0.000000   0.000000
   12       52.293582     52.331841   0.000000   0.000000
 
 -0.2500000E+00  0.3500000E+00  0.5000000E-01  0.1200000E-01
    1        7.838337      8.230999   1.000000   1.000000
    2        8.299794      8.719596   1.000000   1.000000
    3        8.820460      9.366180   1.000000   1.000000
    4       10.521410     11.089935   1.000000   1.000000
    5       11.295274     12.047690   1.000000   1.021582
    6       16.098249     16.471179  -0.000000  -0.000000
    7       22.506908     22.739449   0.000000   0.000000
    8       26.124287     26.281660   0.000000   0.000000
    9       34.188282     34.276606   0.000000   0.000000
   10       39.195839     39.235716   0.000000   0.000000
   11       49.151218     49.131496   0.000000   0.000000
   12       53.552649     53.529424   0.000000   0.000000
 
 -0.1500000E+00  0.3500000E+00  0.5000000E-01  0.1200000E-01
    1        7.018935      7.306688   1.000000   1.000000
    2        8.878922      9.281782   1.000000   1.000000
    3        9.042873      9.616362   1.000000   1.000000
    4       10.045821     10.635579   1.000000   1.000000
    5       11.239059     11.946270   1.000000   1.004968
    6       13.693571     14.212879  -0.000000  -0.000000
    7       23.190582     23.430009   0.000000   0.000000
    8       30.443143     30.544542   0.000000   0.000000
    9       36.665599     36.724990   0.000000   0.000000
   10       40.632788     40.667047   0.000000   0.000000
   11       46.197974     46.216484   0.000000   0.000000
   12       49.926061     49.931017   0.000000   0.000000
 
 -0.5000000E-01  0.3500000E+00  0.5000000E-01  0.1200000E-01
    1        6.117156      6.304703   1.000000   1.000000
    2        9.235606      9.627143   1.000000   1.000000
    3        9.434873     10.033167   1.000000   1.000000
    4        9.695447     10.302712   1.000000   1.000000
    5       11.363932     12.041088   1.000000   1.020085
    6       11.994791     12.638439   1.011000  -0.034197
    7       24.097990     24.328457   0.000000   0.000000
    8       35.307066     35.305664   0.000000   0.000000
    9       38.540077     38.576615   0.000000   0.000000
   10       41.475766     41.569720   0.000000   0.000000
   11       45.168925     45.201973   0.000000   0.000000
   12       47.103743     47.126896   0.000000   0.000000
 
  0.4500000E+00  0.4500000E+00  0.5000000E-01  0.6000000E-02
    1        6.512180      6.823306   1.000000   1.000000
    2        7.193585      7.745035   1.000000   1.000000
    3       11.591467     12.261023   1.000000   0.903970
    4       11.705611     12.361849   1.000012   0.551893
    5       11.922723     12.669466   1.003197  -0.028680
    6       13.918505     14.097746  -0.000000  -0.000000
    7       25.363612     25.571160   0.000000   0.000000
    8       28.903856     28.962043   0.000000   0.000000
    9       29.760168     29.797463   0.000000   0.000000
   10       35.471489     35.612866   0.000000   0.000000
   11       40.222668     40.380795   0.000000   0.000000
   12       60.530709     60.543890   0.000000   0.000000
 
 -0.4500000E+00  0.4500000E+00  0.5000000E-01  0.1200000E-01
    1        6.634448      6.970507   1.000000   1.000000
    2        7.209826      7.754516   1.000000   1.000000
    3       11.158837     11.780118   1.000000   1.000110
    4       11.684438     12.300645   1.000006   0.788925
    5       12.007914     12.797460   1.013264  -0.005387
    6       15.950526     16.118083  -0.000000  -0.000000
    7       23.746325     23.997500   0.000000   0.000000
    8       26.946967     27.035484   0.000000   0.000000
    9       28.944149     28.994674   0.000000   0.000000
   10       36.698726     36.809523   0.000000   0.000000
   11       41.623171     41.769777   0.000000   0.000000
   12       58.594749     58.590419   0.000000   0.000000
 
 -0.3500000E+00  0.4500000E+00  0.5000000E-01  0.1200000E-01
    1        7.065635      7.428333   1.000000   1.000000
    2        7.530382      8.054574   1.000000   1.000000
    3       10.155040     10.714629   1.000000   1.000000
    4       11.290560     11.889239   1.000000   1.001612
    5       11.872740     12.653441   1.001122  -0.031899
    6       17.757574     17.985471  -0.000000   0.000000
    7       22.712914     22.892168   0.000000   0.000000
    8       24.496533     24.700348   0.000000   0.000000
    9       30.164790     30.235582   0.000000   0.000000
   10       37.574830     37.664954   0.000000   0.000000
   11       46.059974     46.177644   0.000000   0.000000
   12       55.231900     55.218382   0.000000   0.000000
 
 -0.2500000E+00  0.4500000E+00  0.5000000E-01  0.1200000E-01
    1        7.555295      8.011538   1.000000   1.000000
    2        8.002047      8.403343   1.000000   1.000000
    3        9.315401      9.858556   1.000000   1.000000
    4       10.636853     11.233898   1.000000   1.000000
    5       11.742589     12.490476   1.000038   0.088374
    6       17.581284     17.849735  -0.000000   0.000000
    7       20.345993     20.616067   0.000000   0.000000
    8       26.987052     27.139905   0.000000   0.000000
    9       32.320371     32.408681   0.000000   0.000000
   10       38.262401     38.319718   0.000000   0.000000
   11       50.516702     50.529242   0.000000   0.000000
   12       52.536342     52.636880   0.000000   0.000000
 
 -0.1500000E+00  0.4500000E+00  0.5000000E-01  0.1200000E-01
    1        7.158745      7.589813   1.000000   1.000000
    2        8.691064      9.108751   1.000000   1.000000
    3        9.536951     10.037679   1.000000   1.000000
    4        9.972613     10.565300   1.000000   1.000000
    5       11.706055     12.432862   1.000012   0.262997
    6       15.375885     15.690077  -0.000000  -0.000000
    7       19.891869     20.241542   0.000000   0.000000
    8       31.079294     31.164138   0.000000   0.000000
    9       34.965631     35.050964   0.000000   0.000000
   10       39.193018     39.220434   0.000000   0.000000
   11       47.138585     47.171968   0.000000   0.000000
   12       50.797825     50.798166   0.000000   0.000000
 
 -0.5000000E-01  0.4500000E+00  0.5000000E-01  0.1200000E-01
    1        6.552931      6.932926   1.000000   1.000000
    2        9.240945      9.777611   1.000000   1.000000