 running on    4 total cores
 distrk:  each k-point on    4 cores,    1 groups
 distr:  one band on    1 cores,    4 groups
 using from now: INCAR     
 vasp.5.4.4.18Apr17-6-g9f103f2a35 (build Jul 01 2019 03:25:34) complex          
  
 POSCAR found type information on POSCAR  Ni
 POSCAR found :  1 types and       1 ions
 scaLAPACK will be used
 LDA part: xc-table for Pade appr. of Perdew
 POSCAR, INCAR and KPOINTS ok, starting setup
 FFT: planning ...
 WAVECAR not read
 entering main loop
       N       E                     dE             d eps       ncg     rms          rms(c)
DAV:   1     0.184633038723E+02    0.18463E+02   -0.29524E+03  5964   0.665E+02
DAV:   2    -0.499619722301E+01   -0.23460E+02   -0.21835E+02  5804   0.123E+02
DAV:   3    -0.538330102817E+01   -0.38710E+00   -0.38472E+00  6012   0.171E+01
DAV:   4    -0.538505938953E+01   -0.17584E-02   -0.17582E-02  6032   0.105E+00
DAV:   5    -0.538507786455E+01   -0.18475E-04   -0.18476E-04  5820   0.100E-01    0.166E+01
DAV:   6    -0.535627878247E+01    0.28799E-01   -0.91371E+00  6788   0.403E+01    0.523E+00
DAV:   7    -0.519564596426E+01    0.16063E+00   -0.13619E+00  6692   0.135E+01    0.253E+00
DAV:   8    -0.517702379677E+01    0.18622E-01   -0.14871E-02  6188   0.937E-01    0.108E+00
DAV:   9    -0.517331768506E+01    0.37061E-02   -0.57976E-03  6740   0.503E-01    0.153E-01
DAV:  10    -0.517328787318E+01    0.29812E-04   -0.81506E-05  4152   0.940E-02
   1 F= -.51732879E+01 E0= -.51726271E+01  d E =-.198225E-02  mag=     0.5916
 writing wavefunctions
