 vasp.5.4.4.18Apr17-6-g9f103f2a35 (build Jul 01 2019 03:25:34) complex          
  
 executed on             LinuxIFC date 2020.07.09  19:35:15
 running on    4 total cores
 distrk:  each k-point on    4 cores,    1 groups
 distr:  one band on NCORES_PER_BAND=   1 cores,    4 groups


--------------------------------------------------------------------------------------------------------


 INCAR:
 POTCAR:    PAW_PBE Ni 02Aug2007                  
 POTCAR:    PAW_PBE Ni 02Aug2007                  
   VRHFIN =Ni:                                                                  
   LEXCH  = PE                                                                  
   EATOM  =  1077.6739 eV,   79.2068 Ry                                         
                                                                                
   TITEL  = PAW_PBE Ni 02Aug2007                                                
   LULTRA =        F    use ultrasoft PP ?                                      
   IUNSCR =        1    unscreen: 0-lin 1-nonlin 2-no                           
   RPACOR =    2.000    partial core radius                                     
   POMASS =   58.690; ZVAL   =   10.000    mass and valenz                      
   RCORE  =    2.300    outmost cutoff radius                                   
   RWIGS  =    2.430; RWIGS  =    1.286    wigner-seitz radius (au A)           
   ENMAX  =  269.532; ENMIN  =  202.149 eV                                      
   RCLOC  =    1.201    cutoff for local pot                                    
   LCOR   =        T    correct aug charges                                     
   LPAW   =        T    paw PP                                                  
   EAUG   =  544.565                                                            
   DEXC   =    0.000                                                            
   RMAX   =    2.357    core radius for proj-oper                               
   RAUG   =    1.300    factor for augmentation sphere                          
   RDEP   =    2.390    radius for radial grids                                 
   RDEPT  =    1.838    core radius for aug-charge                              
                                                                                
   Atomic configuration                                                         
    9 entries                                                                   
     n  l   j            E        occ.                                          
     1  0  0.50     -8206.4253   2.0000                                         
     2  0  0.50      -976.1748   2.0000                                         
     2  1  1.50      -839.0571   6.0000                                         
     3  0  0.50      -105.9991   2.0000                                         
     3  1  1.50       -66.4603   6.0000                                         
     3  2  2.50        -4.6458   9.0000                                         
     4  0  0.50        -4.4926   1.0000                                         
     4  1  1.50        -4.0817   0.0000                                         
     4  3  2.50        -1.3606   0.0000                                         
   Description                                                                  
     l       E           TYP  RCUT    TYP  RCUT                                 
     2     -4.6457903     23  2.300                                             
     2     -6.0063729     23  2.300                                             
     0     -4.4925590     23  2.300                                             
     0      5.0102601     23  2.300                                             
     1     -2.7211652     23  2.300                                             
     1     16.5183231     23  2.300                                             
  local pseudopotential read in
  partial core-charges read in
  partial kinetic energy density read in
  atomic valenz-charges read in
  non local Contribution for L=           2  read in
    real space projection operators read in
  non local Contribution for L=           2  read in
    real space projection operators read in
  non local Contribution for L=           0  read in
    real space projection operators read in
  non local Contribution for L=           0  read in
    real space projection operators read in
  non local Contribution for L=           1  read in
    real space projection operators read in
  non local Contribution for L=           1  read in
    real space projection operators read in
    PAW grid and wavefunctions read in
 
   number of l-projection  operators is LMAX  =           6
   number of lm-projection operators is LMMAX =          18
 
  PAW_PBE Ni 02Aug2007                  :
 energy of atom  1       EATOM=-1077.6739
 kinetic energy error for atom=    0.0378 (will be added to EATOM!!)
 
 
 POSCAR: FCC Ni Bulk                             
  positions in direct lattice
  No initial velocities read in
 exchange correlation table for  LEXCH =        8
   RHO(1)=    0.500       N(1)  =     2000
   RHO(2)=  100.500       N(2)  =     4000
 


--------------------------------------------------------------------------------------------------------


 ion  position               nearest neighbor table
   1  0.000  0.000  0.000-
 
  LATTYP: Found a face centered cubic cell.
 ALAT       =     3.3000000000
  
  Lattice vectors:
  
 A1 = (   0.0000000000,   1.6500000000,   1.6500000000)
 A2 = (   1.6500000000,   0.0000000000,   1.6500000000)
 A3 = (   1.6500000000,   1.6500000000,   0.0000000000)


Analysis of symmetry for initial positions (statically):
=====================================================================
 Subroutine PRICEL returns:
 Original cell was already a primitive cell.
 

 Routine SETGRP: Setting up the symmetry group for a 
 face centered cubic supercell.


 Subroutine GETGRP returns: Found 48 space group operations
 (whereof 48 operations were pure point group operations)
 out of a pool of 48 trial point group operations.


The static configuration has the point symmetry O_h .


Analysis of symmetry for dynamics (positions and initial velocities):
=====================================================================
 Subroutine PRICEL returns:
 Original cell was already a primitive cell.
 

 Routine SETGRP: Setting up the symmetry group for a 
 face centered cubic supercell.


 Subroutine GETGRP returns: Found 48 space group operations
 (whereof 48 operations were pure point group operations)
 out of a pool of 48 trial point group operations.


The dynamic configuration has the point symmetry O_h .


Analysis of structural, dynamic, and magnetic symmetry:
=====================================================================
 Subroutine PRICEL returns:
 Original cell was already a primitive cell.
 

 Routine SETGRP: Setting up the symmetry group for a 
 face centered cubic supercell.


 Subroutine GETGRP returns: Found 48 space group operations
 (whereof 48 operations were pure point group operations)
 out of a pool of 48 trial point group operations.


The magnetic configuration has the point symmetry O_h .


 Subroutine INISYM returns: Found 48 space group operations
 (whereof 48 operations are pure point group operations),
 and found     1 'primitive' translations

 
 
 KPOINTS: 10x10x10                                

Automatic generation of k-mesh.
Space group operators:
 irot       det(A)        alpha          n_x          n_y          n_z        tau_x        tau_y        tau_z
    1     1.000000     0.000000     1.000000     0.000000     0.000000     0.000000     0.000000     0.000000
    2    -1.000000     0.000000     1.000000     0.000000     0.000000     0.000000     0.000000     0.000000
    3     1.000000   120.000000    -0.577350    -0.577350    -0.577350     0.000000     0.000000     0.000000
    4    -1.000000   120.000000    -0.577350    -0.577350    -0.577350     0.000000     0.000000     0.000000
    5     1.000000   120.000000     0.577350     0.577350     0.577350     0.000000     0.000000     0.000000
    6    -1.000000   120.000000     0.577350     0.577350     0.577350     0.000000     0.000000     0.000000
    7     1.000000    90.000000     0.000000     0.000000    -1.000000     0.000000     0.000000     0.000000
    8    -1.000000    90.000000     0.000000     0.000000    -1.000000     0.000000     0.000000     0.000000
    9     1.000000   180.000000     0.000000     0.707107     0.707107     0.000000     0.000000     0.000000
   10    -1.000000   180.000000     0.000000     0.707107     0.707107     0.000000     0.000000     0.000000
   11     1.000000    90.000000     0.000000     1.000000     0.000000     0.000000     0.000000     0.000000
   12    -1.000000    90.000000     0.000000     1.000000     0.000000     0.000000     0.000000     0.000000
   13     1.000000   180.000000     0.000000     0.000000     1.000000     0.000000     0.000000     0.000000
   14    -1.000000   180.000000     0.000000     0.000000     1.000000     0.000000     0.000000     0.000000
   15     1.000000   120.000000    -0.577350     0.577350     0.577350     0.000000     0.000000     0.000000
   16    -1.000000   120.000000    -0.577350     0.577350     0.577350     0.000000     0.000000     0.000000
   17     1.000000   120.000000    -0.577350     0.577350    -0.577350     0.000000     0.000000     0.000000
   18    -1.000000   120.000000    -0.577350     0.577350    -0.577350     0.000000     0.000000     0.000000
   19     1.000000    90.000000     0.000000     0.000000     1.000000     0.000000     0.000000     0.000000
   20    -1.000000    90.000000     0.000000     0.000000     1.000000     0.000000     0.000000     0.000000
   21     1.000000    90.000000    -1.000000     0.000000     0.000000     0.000000     0.000000     0.000000
   22    -1.000000    90.000000    -1.000000     0.000000     0.000000     0.000000     0.000000     0.000000
   23     1.000000   180.000000     0.707107     0.000000     0.707107     0.000000     0.000000     0.000000
   24    -1.000000   180.000000     0.707107     0.000000     0.707107     0.000000     0.000000     0.000000
   25     1.000000   120.000000     0.577350    -0.577350     0.577350     0.000000     0.000000     0.000000
   26    -1.000000   120.000000     0.577350    -0.577350     0.577350     0.000000     0.000000     0.000000
   27     1.000000   120.000000    -0.577350    -0.577350     0.577350     0.000000     0.000000     0.000000
   28    -1.000000   120.000000    -0.577350    -0.577350     0.577350     0.000000     0.000000     0.000000
   29     1.000000   180.000000     1.000000     0.000000     0.000000     0.000000     0.000000     0.000000
   30    -1.000000   180.000000     1.000000     0.000000     0.000000     0.000000     0.000000     0.000000
   31     1.000000    90.000000     0.000000    -1.000000     0.000000     0.000000     0.000000     0.000000
   32    -1.000000    90.000000     0.000000    -1.000000     0.000000     0.000000     0.000000     0.000000
   33     1.000000   180.000000     0.707107     0.707107     0.000000     0.000000     0.000000     0.000000
   34    -1.000000   180.000000     0.707107     0.707107     0.000000     0.000000     0.000000     0.000000
   35     1.000000    90.000000     1.000000     0.000000     0.000000     0.000000     0.000000     0.000000
   36    -1.000000    90.000000     1.000000     0.000000     0.000000     0.000000     0.000000     0.000000
   37     1.000000   120.000000     0.577350    -0.577350    -0.577350     0.000000     0.000000     0.000000
   38    -1.000000   120.000000     0.577350    -0.577350    -0.577350     0.000000     0.000000     0.000000
   39     1.000000   180.000000     0.000000     1.000000     0.000000     0.000000     0.000000     0.000000
   40    -1.000000   180.000000     0.000000     1.000000     0.000000     0.000000     0.000000     0.000000
   41     1.000000   120.000000     0.577350     0.577350    -0.577350     0.000000     0.000000     0.000000
   42    -1.000000   120.000000     0.577350     0.577350    -0.577350     0.000000     0.000000     0.000000
   43     1.000000   180.000000     0.000000    -0.707107     0.707107     0.000000     0.000000     0.000000
   44    -1.000000   180.000000     0.000000    -0.707107     0.707107     0.000000     0.000000     0.000000
   45     1.000000   180.000000     0.707107    -0.707107     0.000000     0.000000     0.000000     0.000000
   46    -1.000000   180.000000     0.707107    -0.707107     0.000000     0.000000     0.000000     0.000000
   47     1.000000   180.000000     0.707107     0.000000    -0.707107     0.000000     0.000000     0.000000
   48    -1.000000   180.000000     0.707107     0.000000    -0.707107     0.000000     0.000000     0.000000
 
 Subroutine IBZKPT returns following result:
 ===========================================
 
 Found    110 irreducible k-points:
 
 Following reciprocal coordinates:
            Coordinates               Weight
  0.050000  0.050000  0.050000     96.000000
  0.150000  0.050000  0.050000    288.000000
  0.250000  0.050000  0.050000    288.000000
  0.350000  0.050000  0.050000    288.000000
  0.450000  0.050000  0.050000    288.000000
 -0.450000  0.050000  0.050000    288.000000
 -0.350000  0.050000  0.050000    288.000000
 -0.250000  0.050000  0.050000    288.000000
 -0.150000  0.050000  0.050000    288.000000
 -0.050000  0.050000  0.050000    288.000000
  0.150000  0.150000  0.050000    288.000000
  0.250000  0.150000  0.050000    576.000000
  0.350000  0.150000  0.050000    576.000000
  0.450000  0.150000  0.050000    576.000000
 -0.450000  0.150000  0.050000    576.000000
 -0.350000  0.150000  0.050000    576.000000
 -0.250000  0.150000  0.050000    576.000000
 -0.150000  0.150000  0.050000    576.000000
 -0.050000  0.150000  0.050000    576.000000
  0.250000  0.250000  0.050000    288.000000
  0.350000  0.250000  0.050000    576.000000
  0.450000  0.250000  0.050000    576.000000
 -0.450000  0.250000  0.050000    576.000000
 -0.350000  0.250000  0.050000    576.000000
 -0.250000  0.250000  0.050000    576.000000
 -0.150000  0.250000  0.050000    576.000000
 -0.050000  0.250000  0.050000    576.000000
  0.350000  0.350000  0.050000    288.000000
  0.450000  0.350000  0.050000    576.000000
 -0.450000  0.350000  0.050000    576.000000
 -0.350000  0.350000  0.050000    576.000000
 -0.250000  0.350000  0.050000    576.000000
 -0.150000  0.350000  0.050000    576.000000
 -0.050000  0.350000  0.050000    576.000000
  0.450000  0.450000  0.050000    288.000000
 -0.450000  0.450000  0.050000    576.000000
 -0.350000  0.450000  0.050000    576.000000
 -0.250000  0.450000  0.050000    576.000000
 -0.150000  0.450000  0.050000    576.000000
 -0.050000  0.450000  0.050000    576.000000
 -0.450000 -0.450000  0.050000    288.000000
 -0.350000 -0.450000  0.050000    576.000000
 -0.250000 -0.450000  0.050000    576.000000
 -0.150000 -0.450000  0.050000    576.000000
 -0.350000 -0.350000  0.050000    288.000000
 -0.250000 -0.350000  0.050000    576.000000
 -0.150000 -0.350000  0.050000    576.000000
 -0.250000 -0.250000  0.050000    288.000000
 -0.150000 -0.250000  0.050000    576.000000
 -0.150000 -0.150000  0.050000    288.000000
  0.150000  0.150000  0.150000     96.000000
  0.250000  0.150000  0.150000    288.000000
  0.350000  0.150000  0.150000    288.000000
  0.450000  0.150000  0.150000    288.000000
 -0.450000  0.150000  0.150000    288.000000
 -0.350000  0.150000  0.150000    288.000000
 -0.250000  0.150000  0.150000    288.000000
 -0.150000  0.150000  0.150000    288.000000
  0.250000  0.250000  0.150000    288.000000
  0.350000  0.250000  0.150000    576.000000
  0.450000  0.250000  0.150000    576.000000
 -0.450000  0.250000  0.150000    576.000000
 -0.350000  0.250000  0.150000    576.000000
 -0.250000  0.250000  0.150000    576.000000
 -0.150000  0.250000  0.150000    576.000000
  0.350000  0.350000  0.150000    288.000000
  0.450000  0.350000  0.150000    576.000000
 -0.450000  0.350000  0.150000    576.000000
 -0.350000  0.350000  0.150000    576.000000
 -0.250000  0.350000  0.150000    576.000000
 -0.150000  0.350000  0.150000    576.000000
  0.450000  0.450000  0.150000    288.000000
 -0.450000  0.450000  0.150000    576.000000
 -0.350000  0.450000  0.150000    576.000000
 -0.250000  0.450000  0.150000    576.000000
 -0.150000  0.450000  0.150000    576.000000
 -0.450000 -0.450000  0.150000    288.000000
 -0.350000 -0.450000  0.150000    576.000000
 -0.250000 -0.450000  0.150000    576.000000
 -0.350000 -0.350000  0.150000    288.000000
 -0.250000 -0.350000  0.150000    576.000000
 -0.250000 -0.250000  0.150000    288.000000
  0.250000  0.250000  0.250000     96.000000
  0.350000  0.250000  0.250000    288.000000
  0.450000  0.250000  0.250000    288.000000
 -0.450000  0.250000  0.250000    288.000000
 -0.350000  0.250000  0.250000    288.000000
 -0.250000  0.250000  0.250000    288.000000
  0.350000  0.350000  0.250000    288.000000
  0.450000  0.350000  0.250000    576.000000
 -0.450000  0.350000  0.250000    576.000000
 -0.350000  0.350000  0.250000    576.000000
 -0.250000  0.350000  0.250000    576.000000
  0.450000  0.450000  0.250000    288.000000
 -0.450000  0.450000  0.250000    576.000000
 -0.350000  0.450000  0.250000    576.000000
 -0.250000  0.450000  0.250000    576.000000
 -0.450000 -0.450000  0.250000    288.000000
 -0.350000 -0.450000  0.250000    576.000000
 -0.350000 -0.350000  0.250000    288.000000
  0.350000  0.350000  0.350000     96.000000
  0.450000  0.350000  0.350000    288.000000
 -0.450000  0.350000  0.350000    288.000000
 -0.350000  0.350000  0.350000    288.000000
  0.450000  0.450000  0.350000    288.000000
 -0.450000  0.450000  0.350000    576.000000
 -0.350000  0.450000  0.350000    576.000000
 -0.450000 -0.450000  0.350000    288.000000
  0.450000  0.450000  0.450000     96.000000
 -0.450000  0.450000  0.450000    288.000000
 
 Following cartesian coordinates:
            Coordinates               Weight
  0.050000  0.050000  0.050000     96.000000
 -0.050000  0.150000  0.150000    288.000000
 -0.150000  0.250000  0.250000    288.000000
 -0.250000  0.350000  0.350000    288.000000
 -0.350000  0.450000  0.450000    288.000000
  0.550000 -0.450000 -0.450000    288.000000
  0.450000 -0.350000 -0.350000    288.000000
  0.350000 -0.250000 -0.250000    288.000000
  0.250000 -0.150000 -0.150000    288.000000
  0.150000 -0.050000 -0.050000    288.000000
  0.050000  0.050000  0.250000    288.000000
 -0.050000  0.150000  0.350000    576.000000
 -0.150000  0.250000  0.450000    576.000000
 -0.250000  0.350000  0.550000    576.000000
  0.650000 -0.550000 -0.350000    576.000000
  0.550000 -0.450000 -0.250000    576.000000
  0.450000 -0.350000 -0.150000    576.000000
  0.350000 -0.250000 -0.050000    576.000000
  0.250000 -0.150000  0.050000    576.000000
  0.050000  0.050000  0.450000    288.000000
 -0.050000  0.150000  0.550000    576.000000
 -0.150000  0.250000  0.650000    576.000000
  0.750000 -0.650000 -0.250000    576.000000
  0.650000 -0.550000 -0.150000    576.000000
  0.550000 -0.450000 -0.050000    576.000000
  0.450000 -0.350000  0.050000    576.000000
  0.350000 -0.250000  0.150000    576.000000
  0.050000  0.050000  0.650000    288.000000
 -0.050000  0.150000  0.750000    576.000000
  0.850000 -0.750000 -0.150000    576.000000
  0.750000 -0.650000 -0.050000    576.000000
  0.650000 -0.550000  0.050000    576.000000
  0.550000 -0.450000  0.150000    576.000000
  0.450000 -0.350000  0.250000    576.000000
  0.050000  0.050000  0.850000    288.000000
  0.950000 -0.850000 -0.050000    576.000000
  0.850000 -0.750000  0.050000    576.000000
  0.750000 -0.650000  0.150000    576.000000
  0.650000 -0.550000  0.250000    576.000000
  0.550000 -0.450000  0.350000    576.000000
  0.050000  0.050000 -0.950000    288.000000
 -0.050000  0.150000 -0.850000    576.000000
 -0.150000  0.250000 -0.750000    576.000000
 -0.250000  0.350000 -0.650000    576.000000
  0.050000  0.050000 -0.750000    288.000000
 -0.050000  0.150000 -0.650000    576.000000
 -0.150000  0.250000 -0.550000    576.000000
  0.050000  0.050000 -0.550000    288.000000
 -0.050000  0.150000 -0.450000    576.000000
  0.050000  0.050000 -0.350000    288.000000
  0.150000  0.150000  0.150000     96.000000
  0.050000  0.250000  0.250000    288.000000
 -0.050000  0.350000  0.350000    288.000000
 -0.150000  0.450000  0.450000    288.000000
  0.750000 -0.450000 -0.450000    288.000000
  0.650000 -0.350000 -0.350000    288.000000
  0.550000 -0.250000 -0.250000    288.000000
  0.450000 -0.150000 -0.150000    288.000000
  0.150000  0.150000  0.350000    288.000000
  0.050000  0.250000  0.450000    576.000000
 -0.050000  0.350000  0.550000    576.000000
  0.850000 -0.550000 -0.350000    576.000000
  0.750000 -0.450000 -0.250000    576.000000
  0.650000 -0.350000 -0.150000    576.000000
  0.550000 -0.250000 -0.050000    576.000000
  0.150000  0.150000  0.550000    288.000000
  0.050000  0.250000  0.650000    576.000000
  0.950000 -0.650000 -0.250000    576.000000
  0.850000 -0.550000 -0.150000    576.000000
  0.750000 -0.450000 -0.050000    576.000000
  0.650000 -0.350000  0.050000    576.000000
  0.150000  0.150000  0.750000    288.000000
  1.050000 -0.750000 -0.150000    576.000000
  0.950000 -0.650000 -0.050000    576.000000
  0.850000 -0.550000  0.050000    576.000000
  0.750000 -0.450000  0.150000    576.000000
  0.150000  0.150000 -1.050000    288.000000
  0.050000  0.250000 -0.950000    576.000000
 -0.050000  0.350000 -0.850000    576.000000
  0.150000  0.150000 -0.850000    288.000000
  0.050000  0.250000 -0.750000    576.000000
  0.150000  0.150000 -0.650000    288.000000
  0.250000  0.250000  0.250000     96.000000
  0.150000  0.350000  0.350000    288.000000
  0.050000  0.450000  0.450000    288.000000
  0.950000 -0.450000 -0.450000    288.000000
  0.850000 -0.350000 -0.350000    288.000000
  0.750000 -0.250000 -0.250000    288.000000
  0.250000  0.250000  0.450000    288.000000
  0.150000  0.350000  0.550000    576.000000
  1.050000 -0.550000 -0.350000    576.000000
  0.950000 -0.450000 -0.250000    576.000000
  0.850000 -0.350000 -0.150000    576.000000
  0.250000  0.250000  0.650000    288.000000
  1.150000 -0.650000 -0.250000    576.000000
  1.050000 -0.550000 -0.150000    576.000000
  0.950000 -0.450000 -0.050000    576.000000
  0.250000  0.250000 -1.150000    288.000000
  0.150000  0.350000 -1.050000    576.000000
  0.250000  0.250000 -0.950000    288.000000
  0.350000  0.350000  0.350000     96.000000
  0.250000  0.450000  0.450000    288.000000
  1.150000 -0.450000 -0.450000    288.000000
  1.050000 -0.350000 -0.350000    288.000000
  0.350000  0.350000  0.550000    288.000000
  1.250000 -0.550000 -0.350000    576.000000
  1.150000 -0.450000 -0.250000    576.000000
  0.350000  0.350000 -1.250000    288.000000
  0.450000  0.450000  0.450000     96.000000
  1.350000 -0.450000 -0.450000    288.000000
 


--------------------------------------------------------------------------------------------------------




 Dimension of arrays:
   k-points           NKPTS =    110   k-points in BZ     NKDIM =    110   number of bands    NBANDS=     12
   number of dos      NEDOS =    301   number of ions     NIONS =      1
   non local maximal  LDIM  =      6   non local SUM 2l+1 LMDIM =     18
   total plane-waves  NPLWV =   1000
   max r-space proj   IRMAX =      1   max aug-charges    IRDMAX=   3807
   dimension x,y,z NGX =    10 NGY =   10 NGZ =   10
   dimension x,y,z NGXF=    20 NGYF=   20 NGZF=   20
   support grid    NGXF=    20 NGYF=   20 NGZF=   20
   ions per type =               1
   NGX,Y,Z   is equivalent  to a cutoff of   7.12,  7.12,  7.12 a.u.
   NGXF,Y,Z  is equivalent  to a cutoff of  14.25, 14.25, 14.25 a.u.

 SYSTEM =  fcc Ni                                  
 POSCAR =  FCC Ni Bulk                             

 Startparameter for this run:
   NWRITE =      2    write-flag & timer
   PREC   = normal    normal or accurate (medium, high low for compatibility)
   ISTART =      0    job   : 0-new  1-cont  2-samecut
   ICHARG =      2    charge: 1-file 2-atom 10-const
   ISPIN  =      2    spin polarized calculation?
   LNONCOLLINEAR =      F non collinear calculations
   LSORBIT =      F    spin-orbit coupling
   INIWAV =      1    electr: 0-lowe 1-rand  2-diag
   LASPH  =      F    aspherical Exc in radial PAW
   METAGGA=      F    non-selfconsistent MetaGGA calc.

 Electronic Relaxation 1
   ENCUT  =  270.0 eV  19.84 Ry    4.45 a.u.   3.13  3.13  3.13*2*pi/ulx,y,z
   ENINI  =  270.0     initial cutoff
   ENAUG  =  544.6 eV  augmentation charge cutoff
   NELM   =     60;   NELMIN=  2; NELMDL= -5     # of ELM steps 
   EDIFF  = 0.1E-03   stopping-criterion for ELM
   LREAL  =      F    real-space projection
   NLSPLINE    = F    spline interpolate recip. space projectors
   LCOMPAT=      F    compatible to vasp.4.4
   GGA_COMPAT  = T    GGA compatible to vasp.4.4-vasp.4.6
   LMAXPAW     = -100 max onsite density
   LMAXMIX     =    2 max onsite mixed and CHGCAR
   VOSKOWN=      0    Vosko Wilk Nusair interpolation
   ROPT   =    0.00000
 Ionic relaxation
   EDIFFG = 0.1E-02   stopping-criterion for IOM
   NSW    =      0    number of steps for IOM
   NBLOCK =      1;   KBLOCK =      1    inner block; outer block 
   IBRION =     -1    ionic relax: 0-MD 1-quasi-New 2-CG
   NFREE  =      0    steps in history (QN), initial steepest desc. (CG)
   ISIF   =      2    stress and relaxation
   IWAVPR =     10    prediction:  0-non 1-charg 2-wave 3-comb
   ISYM   =      2    0-nonsym 1-usesym 2-fastsym
   LCORR  =      T    Harris-Foulkes like correction to forces

   POTIM  = 0.5000    time-step for ionic-motion
   TEIN   =    0.0    initial temperature
   TEBEG  =    0.0;   TEEND  =   0.0 temperature during run
   SMASS  =  -3.00    Nose mass-parameter (am)
   estimated Nose-frequenzy (Omega)   =  0.10E-29 period in steps =****** mass=  -0.124E-27a.u.
   SCALEE = 1.0000    scale energy and forces
   NPACO  =    256;   APACO  = 16.0  distance and # of slots for P.C.
   PSTRESS=    0.0 pullay stress

  Mass of Ions in am
   POMASS =  58.69
  Ionic Valenz
   ZVAL   =  10.00
  Atomic Wigner-Seitz radii
   RWIGS  =  -1.00
  virtual crystal weights 
   VCA    =   1.00
   NELECT =      10.0000    total number of electrons
   NUPDOWN=      -1.0000    fix difference up-down

 DOS related values:
   EMIN   =  10.00;   EMAX   =-10.00  energy-range for DOS
   EFERMI =   0.00
   ISMEAR =     1;   SIGMA  =   0.20  broadening in eV -4-tet -1-fermi 0-gaus

 Electronic relaxation 2 (details)
   IALGO  =     38    algorithm
   LDIAG  =      T    sub-space diagonalisation (order eigenvalues)
   LSUBROT=      F    optimize rotation matrix (better conditioning)
   TURBO    =      0    0=normal 1=particle mesh
   IRESTART =      0    0=no restart 2=restart with 2 vectors
   NREBOOT  =      0    no. of reboots
   NMIN     =      0    reboot dimension
   EREF     =   0.00    reference energy to select bands
   IMIX   =      4    mixing-type and parameters
     AMIX     =   0.40;   BMIX     =  1.00
     AMIX_MAG =   1.60;   BMIX_MAG =  1.00
     AMIN     =   0.10
     WC   =   100.;   INIMIX=   1;  MIXPRE=   1;  MAXMIX= -45

 Intra band minimization:
   WEIMIN = 0.0000     energy-eigenvalue tresh-hold
   EBREAK =  0.21E-05  absolut break condition
   DEPER  =   0.30     relativ break condition  

   TIME   =   0.40     timestep for ELM

  volume/ion in A,a.u.               =       8.98        60.63
  Fermi-wavevector in a.u.,A,eV,Ry     =   1.696606  3.206120 39.163968  2.878470
  Thomas-Fermi vector in A             =   2.777438
 
 Write flags
   LWAVE        =      T    write WAVECAR
   LDOWNSAMPLE  =      F    k-point downsampling of WAVECAR
   LCHARG       =      T    write CHGCAR
   LVTOT        =      F    write LOCPOT, total local potential
   LVHAR        =      F    write LOCPOT, Hartree potential only
   LELF         =      F    write electronic localiz. function (ELF)
   LORBIT       =      0    0 simple, 1 ext, 2 COOP (PROOUT), +10 PAW based schemes


 Dipole corrections
   LMONO  =      F    monopole corrections only (constant potential shift)
   LDIPOL =      F    correct potential (dipole corrections)
   IDIPOL =      0    1-x, 2-y, 3-z, 4-all directions 
   EPSILON=  1.0000000 bulk dielectric constant

 Exchange correlation treatment:
   GGA     =    --    GGA type
   LEXCH   =     8    internal setting for exchange type
   VOSKOWN=      0    Vosko Wilk Nusair interpolation
   LHFCALC =     F    Hartree Fock is set to
   LHFONE  =     F    Hartree Fock one center treatment
   AEXX    =    0.0000 exact exchange contribution

 Linear response parameters
   LEPSILON=     F    determine dielectric tensor
   LRPA    =     F    only Hartree local field effects (RPA)
   LNABLA  =     F    use nabla operator in PAW spheres
   LVEL    =     F    velocity operator in full k-point grid
   LINTERFAST=   F  fast interpolation
   KINTER  =     0    interpolate to denser k-point grid
   CSHIFT  =0.1000    complex shift for real part using Kramers Kronig
   OMEGAMAX=  -1.0    maximum frequency
   DEG_THRESHOLD= 0.2000000E-02 threshold for treating states as degnerate
   RTIME   =   -0.100 relaxation time in fs
  (WPLASMAI=    0.000 imaginary part of plasma frequency in eV, 0.658/RTIME)
   DFIELD  = 0.0000000 0.0000000 0.0000000 field for delta impulse in time
 
 Orbital magnetization related:
   ORBITALMAG=     F  switch on orbital magnetization
   LCHIMAG   =     F  perturbation theory with respect to B field
   DQ        =  0.001000  dq finite difference perturbation B field
   LLRAUG    =     F  two centre corrections for induced B field



--------------------------------------------------------------------------------------------------------


 Static calculation
 charge density and potential will be updated during run
 spin polarized calculation
 Variant of blocked Davidson
 Davidson routine will perform the subspace rotation
 perform sub-space diagonalisation
    after iterative eigenvector-optimisation
 modified Broyden-mixing scheme, WC =      100.0
 initial mixing is a Kerker type mixing with AMIX =  0.4000 and BMIX =      1.0000
 Hartree-type preconditioning will be used
 using additional bands            7
 reciprocal scheme for non local part
 use partial core corrections
 calculate Harris-corrections to forces 
   (improved forces if not selfconsistent)
 use gradient corrections 
 use of overlap-Matrix (Vanderbilt PP)
 Methfessel and Paxton  Order N= 1 SIGMA  =   0.20


--------------------------------------------------------------------------------------------------------


  energy-cutoff  :      270.00
  volume of cell :        8.98
      direct lattice vectors                 reciprocal lattice vectors
     0.000000000  1.650000000  1.650000000    -0.303030303  0.303030303  0.303030303
     1.650000000  0.000000000  1.650000000     0.303030303 -0.303030303  0.303030303
     1.650000000  1.650000000  0.000000000     0.303030303  0.303030303 -0.303030303

  length of vectors
     2.333452378  2.333452378  2.333452378     0.524863881  0.524863881  0.524863881


 
 k-points in units of 2pi/SCALE and weight: 10x10x10                                
   0.05000000  0.05000000  0.05000000       0.002
  -0.05000000  0.15000000  0.15000000       0.006
  -0.15000000  0.25000000  0.25000000       0.006
  -0.25000000  0.35000000  0.35000000       0.006
  -0.35000000  0.45000000  0.45000000       0.006
   0.55000000 -0.45000000 -0.45000000       0.006
   0.45000000 -0.35000000 -0.35000000       0.006
   0.35000000 -0.25000000 -0.25000000       0.006
   0.25000000 -0.15000000 -0.15000000       0.006
   0.15000000 -0.05000000 -0.05000000       0.006
   0.05000000  0.05000000  0.25000000       0.006
  -0.05000000  0.15000000  0.35000000       0.012
  -0.15000000  0.25000000  0.45000000       0.012
  -0.25000000  0.35000000  0.55000000       0.012
   0.65000000 -0.55000000 -0.35000000       0.012
   0.55000000 -0.45000000 -0.25000000       0.012
   0.45000000 -0.35000000 -0.15000000       0.012
   0.35000000 -0.25000000 -0.05000000       0.012
   0.25000000 -0.15000000  0.05000000       0.012
   0.05000000  0.05000000  0.45000000       0.006
  -0.05000000  0.15000000  0.55000000       0.012
  -0.15000000  0.25000000  0.65000000       0.012
   0.75000000 -0.65000000 -0.25000000       0.012
   0.65000000 -0.55000000 -0.15000000       0.012
   0.55000000 -0.45000000 -0.05000000       0.012
   0.45000000 -0.35000000  0.05000000       0.012
   0.35000000 -0.25000000  0.15000000       0.012
   0.05000000  0.05000000  0.65000000       0.006
  -0.05000000  0.15000000  0.75000000       0.012
   0.85000000 -0.75000000 -0.15000000       0.012
   0.75000000 -0.65000000 -0.05000000       0.012
   0.65000000 -0.55000000  0.05000000       0.012
   0.55000000 -0.45000000  0.15000000       0.012
   0.45000000 -0.35000000  0.25000000       0.012
   0.05000000  0.05000000  0.85000000       0.006
   0.95000000 -0.85000000 -0.05000000       0.012
   0.85000000 -0.75000000  0.05000000       0.012
   0.75000000 -0.65000000  0.15000000       0.012
   0.65000000 -0.55000000  0.25000000       0.012
   0.55000000 -0.45000000  0.35000000       0.012
   0.05000000  0.05000000 -0.95000000       0.006
  -0.05000000  0.15000000 -0.85000000       0.012
  -0.15000000  0.25000000 -0.75000000       0.012
  -0.25000000  0.35000000 -0.65000000       0.012
   0.05000000  0.05000000 -0.75000000       0.006
  -0.05000000  0.15000000 -0.65000000       0.012
  -0.15000000  0.25000000 -0.55000000       0.012
   0.05000000  0.05000000 -0.55000000       0.006
  -0.05000000  0.15000000 -0.45000000       0.012
   0.05000000  0.05000000 -0.35000000       0.006
   0.15000000  0.15000000  0.15000000       0.002
   0.05000000  0.25000000  0.25000000       0.006
  -0.05000000  0.35000000  0.35000000       0.006
  -0.15000000  0.45000000  0.45000000       0.006
   0.75000000 -0.45000000 -0.45000000       0.006
   0.65000000 -0.35000000 -0.35000000       0.006
   0.55000000 -0.25000000 -0.25000000       0.006
   0.45000000 -0.15000000 -0.15000000       0.006
   0.15000000  0.15000000  0.35000000       0.006
   0.05000000  0.25000000  0.45000000       0.012
  -0.05000000  0.35000000  0.55000000       0.012
   0.85000000 -0.55000000 -0.35000000       0.012
   0.75000000 -0.45000000 -0.25000000       0.012
   0.65000000 -0.35000000 -0.15000000       0.012
   0.55000000 -0.25000000 -0.05000000       0.012
   0.15000000  0.15000000  0.55000000       0.006
   0.05000000  0.25000000  0.65000000       0.012
   0.95000000 -0.65000000 -0.25000000       0.012
   0.85000000 -0.55000000 -0.15000000       0.012
   0.75000000 -0.45000000 -0.05000000       0.012
   0.65000000 -0.35000000  0.05000000       0.012
   0.15000000  0.15000000  0.75000000       0.006
   1.05000000 -0.75000000 -0.15000000       0.012
   0.95000000 -0.65000000 -0.05000000       0.012
   0.85000000 -0.55000000  0.05000000       0.012
   0.75000000 -0.45000000  0.15000000       0.012
   0.15000000  0.15000000 -1.05000000       0.006
   0.05000000  0.25000000 -0.95000000       0.012
  -0.05000000  0.35000000 -0.85000000       0.012
   0.15000000  0.15000000 -0.85000000       0.006
   0.05000000  0.25000000 -0.75000000       0.012
   0.15000000  0.15000000 -0.65000000       0.006
   0.25000000  0.25000000  0.25000000       0.002
   0.15000000  0.35000000  0.35000000       0.006
   0.05000000  0.45000000  0.45000000       0.006
   0.95000000 -0.45000000 -0.45000000       0.006
   0.85000000 -0.35000000 -0.35000000       0.006
   0.75000000 -0.25000000 -0.25000000       0.006
   0.25000000  0.25000000  0.45000000       0.006
   0.15000000  0.35000000  0.55000000       0.012
   1.05000000 -0.55000000 -0.35000000       0.012
   0.95000000 -0.45000000 -0.25000000       0.012
   0.85000000 -0.35000000 -0.15000000       0.012
   0.25000000  0.25000000  0.65000000       0.006
   1.15000000 -0.65000000 -0.25000000       0.012
   1.05000000 -0.55000000 -0.15000000       0.012
   0.95000000 -0.45000000 -0.05000000       0.012
   0.25000000  0.25000000 -1.15000000       0.006
   0.15000000  0.35000000 -1.05000000       0.012
   0.25000000  0.25000000 -0.95000000       0.006
   0.35000000  0.35000000  0.35000000       0.002
   0.25000000  0.45000000  0.45000000       0.006
   1.15000000 -0.45000000 -0.45000000       0.006
   1.05000000 -0.35000000 -0.35000000       0.006
   0.35000000  0.35000000  0.55000000       0.006
   1.25000000 -0.55000000 -0.35000000       0.012
   1.15000000 -0.45000000 -0.25000000       0.012
   0.35000000  0.35000000 -1.25000000       0.006
   0.45000000  0.45000000  0.45000000       0.002
   1.35000000 -0.45000000 -0.45000000       0.006
 
 k-points in reciprocal lattice and weights: 10x10x10                                
   0.05000000  0.05000000  0.05000000       0.002
   0.15000000  0.05000000  0.05000000       0.006
   0.25000000  0.05000000  0.05000000       0.006
   0.35000000  0.05000000  0.05000000       0.006
   0.45000000  0.05000000  0.05000000       0.006
  -0.45000000  0.05000000  0.05000000       0.006
  -0.35000000  0.05000000  0.05000000       0.006
  -0.25000000  0.05000000  0.05000000       0.006
  -0.15000000  0.05000000  0.05000000       0.006
  -0.05000000  0.05000000  0.05000000       0.006
   0.15000000  0.15000000  0.05000000       0.006
   0.25000000  0.15000000  0.05000000       0.012
   0.35000000  0.15000000  0.05000000       0.012
   0.45000000  0.15000000  0.05000000       0.012
  -0.45000000  0.15000000  0.05000000       0.012
  -0.35000000  0.15000000  0.05000000       0.012
  -0.25000000  0.15000000  0.05000000       0.012
  -0.15000000  0.15000000  0.05000000       0.012
  -0.05000000  0.15000000  0.05000000       0.012
   0.25000000  0.25000000  0.05000000       0.006
   0.35000000  0.25000000  0.05000000       0.012
   0.45000000  0.25000000  0.05000000       0.012
  -0.45000000  0.25000000  0.05000000       0.012
  -0.35000000  0.25000000  0.05000000       0.012
  -0.25000000  0.25000000  0.05000000       0.012
  -0.15000000  0.25000000  0.05000000       0.012
  -0.05000000  0.25000000  0.05000000       0.012
   0.35000000  0.35000000  0.05000000       0.006
   0.45000000  0.35000000  0.05000000       0.012
  -0.45000000  0.35000000  0.05000000       0.012
  -0.35000000  0.35000000  0.05000000       0.012
  -0.25000000  0.35000000  0.05000000       0.012
  -0.15000000  0.35000000  0.05000000       0.012
  -0.05000000  0.35000000  0.05000000       0.012
   0.45000000  0.45000000  0.05000000       0.006
  -0.45000000  0.45000000  0.05000000       0.012
  -0.35000000  0.45000000  0.05000000       0.012
  -0.25000000  0.45000000  0.05000000       0.012
  -0.15000000  0.45000000  0.05000000       0.012
  -0.05000000  0.45000000  0.05000000       0.012
  -0.45000000 -0.45000000  0.05000000       0.006
  -0.35000000 -0.45000000  0.05000000       0.012
  -0.25000000 -0.45000000  0.05000000       0.012
  -0.15000000 -0.45000000  0.05000000       0.012
  -0.35000000 -0.35000000  0.05000000       0.006
  -0.25000000 -0.35000000  0.05000000       0.012
  -0.15000000 -0.35000000  0.05000000       0.012
  -0.25000000 -0.25000000  0.05000000       0.006
  -0.15000000 -0.25000000  0.05000000       0.012
  -0.15000000 -0.15000000  0.05000000       0.006
   0.15000000  0.15000000  0.15000000       0.002
   0.25000000  0.15000000  0.15000000       0.006
   0.35000000  0.15000000  0.15000000       0.006
   0.45000000  0.15000000  0.15000000       0.006
  -0.45000000  0.15000000  0.15000000       0.006
  -0.35000000  0.15000000  0.15000000       0.006
  -0.25000000  0.15000000  0.15000000       0.006
  -0.15000000  0.15000000  0.15000000       0.006
   0.25000000  0.25000000  0.15000000       0.006
   0.35000000  0.25000000  0.15000000       0.012
   0.45000000  0.25000000  0.15000000       0.012
  -0.45000000  0.25000000  0.15000000       0.012
  -0.35000000  0.25000000  0.15000000       0.012
  -0.25000000  0.25000000  0.15000000       0.012
  -0.15000000  0.25000000  0.15000000       0.012
   0.35000000  0.35000000  0.15000000       0.006
   0.45000000  0.35000000  0.15000000       0.012
  -0.45000000  0.35000000  0.15000000       0.012
  -0.35000000  0.35000000  0.15000000       0.012
  -0.25000000  0.35000000  0.15000000       0.012
  -0.15000000  0.35000000  0.15000000       0.012
   0.45000000  0.45000000  0.15000000       0.006
  -0.45000000  0.45000000  0.15000000       0.012
  -0.35000000  0.45000000  0.15000000       0.012
  -0.25000000  0.45000000  0.15000000       0.012
  -0.15000000  0.45000000  0.15000000       0.012
  -0.45000000 -0.45000000  0.15000000       0.006
  -0.35000000 -0.45000000  0.15000000       0.012
  -0.25000000 -0.45000000  0.15000000       0.012
  -0.35000000 -0.35000000  0.15000000       0.006
  -0.25000000 -0.35000000  0.15000000       0.012
  -0.25000000 -0.25000000  0.15000000       0.006
   0.25000000  0.25000000  0.25000000       0.002
   0.35000000  0.25000000  0.25000000       0.006
   0.45000000  0.25000000  0.25000000       0.006
  -0.45000000  0.25000000  0.25000000       0.006
  -0.35000000  0.25000000  0.25000000       0.006
  -0.25000000  0.25000000  0.25000000       0.006
   0.35000000  0.35000000  0.25000000       0.006
   0.45000000  0.35000000  0.25000000       0.012
  -0.45000000  0.35000000  0.25000000       0.012
  -0.35000000  0.35000000  0.25000000       0.012
  -0.25000000  0.35000000  0.25000000       0.012
   0.45000000  0.45000000  0.25000000       0.006
  -0.45000000  0.45000000  0.25000000       0.012
  -0.35000000  0.45000000  0.25000000       0.012
  -0.25000000  0.45000000  0.25000000       0.012
  -0.45000000 -0.45000000  0.25000000       0.006
  -0.35000000 -0.45000000  0.25000000       0.012
  -0.35000000 -0.35000000  0.25000000       0.006
   0.35000000  0.35000000  0.35000000       0.002
   0.45000000  0.35000000  0.35000000       0.006
  -0.45000000  0.35000000  0.35000000       0.006
  -0.35000000  0.35000000  0.35000000       0.006
   0.45000000  0.45000000  0.35000000       0.006
  -0.45000000  0.45000000  0.35000000       0.012
  -0.35000000  0.45000000  0.35000000       0.012
  -0.45000000 -0.45000000  0.35000000       0.006
   0.45000000  0.45000000  0.45000000       0.002
  -0.45000000  0.45000000  0.45000000       0.006
 
 position of ions in fractional coordinates (direct lattice) 
   0.00000000  0.00000000  0.00000000
 
 position of ions in cartesian coordinates  (Angst):
   0.00000000  0.00000000  0.00000000
 


--------------------------------------------------------------------------------------------------------


 k-point  1 :   0.0500 0.0500 0.0500  plane waves:      92
 k-point  2 :   0.1500 0.0500 0.0500  plane waves:      91
 k-point  3 :   0.2500 0.0500 0.0500  plane waves:      91
 k-point  4 :   0.3500 0.0500 0.0500  plane waves:      92
 k-point  5 :   0.4500 0.0500 0.0500  plane waves:      90
 k-point  6 :  -0.4500 0.0500 0.0500  plane waves:      90
 k-point  7 :  -0.3500 0.0500 0.0500  plane waves:      93
 k-point  8 :  -0.2500 0.0500 0.0500  plane waves:      90
 k-point  9 :  -0.1500 0.0500 0.0500  plane waves:      89
 k-point 10 :  -0.0500 0.0500 0.0500  plane waves:      90
 k-point 11 :   0.1500 0.1500 0.0500  plane waves:      88
 k-point 12 :   0.2500 0.1500 0.0500  plane waves:      88
 k-point 13 :   0.3500 0.1500 0.0500  plane waves:      86
 k-point 14 :   0.4500 0.1500 0.0500  plane waves:      88
 k-point 15 :  -0.4500 0.1500 0.0500  plane waves:      89
 k-point 16 :  -0.3500 0.1500 0.0500  plane waves:      89
 k-point 17 :  -0.2500 0.1500 0.0500  plane waves:      88
 k-point 18 :  -0.1500 0.1500 0.0500  plane waves:      87
 k-point 19 :  -0.0500 0.1500 0.0500  plane waves:      88
 k-point 20 :   0.2500 0.2500 0.0500  plane waves:      85
 k-point 21 :   0.3500 0.2500 0.0500  plane waves:      90
 k-point 22 :   0.4500 0.2500 0.0500  plane waves:      89
 k-point 23 :  -0.4500 0.2500 0.0500  plane waves:      91
 k-point 24 :  -0.3500 0.2500 0.0500  plane waves:      91
 k-point 25 :  -0.2500 0.2500 0.0500  plane waves:      91
 k-point 26 :  -0.1500 0.2500 0.0500  plane waves:      91
 k-point 27 :  -0.0500 0.2500 0.0500  plane waves:      88
 k-point 28 :   0.3500 0.3500 0.0500  plane waves:      87
 k-point 29 :   0.4500 0.3500 0.0500  plane waves:      89
 k-point 30 :  -0.4500 0.3500 0.0500  plane waves:      95
 k-point 31 :  -0.3500 0.3500 0.0500  plane waves:      95
 k-point 32 :  -0.2500 0.3500 0.0500  plane waves:      92
 k-point 33 :  -0.1500 0.3500 0.0500  plane waves:      91
 k-point 34 :  -0.0500 0.3500 0.0500  plane waves:      90
 k-point 35 :   0.4500 0.4500 0.0500  plane waves:      92
 k-point 36 :  -0.4500 0.4500 0.0500  plane waves:      93
 k-point 37 :  -0.3500 0.4500 0.0500  plane waves:      96
 k-point 38 :  -0.2500 0.4500 0.0500  plane waves:      93
 k-point 39 :  -0.1500 0.4500 0.0500  plane waves:      90
 k-point 40 :  -0.0500 0.4500 0.0500  plane waves:      89
 k-point 41 :  -0.4500-0.4500 0.0500  plane waves:      92
 k-point 42 :  -0.3500-0.4500 0.0500  plane waves:      92
 k-point 43 :  -0.2500-0.4500 0.0500  plane waves:      92
 k-point 44 :  -0.1500-0.4500 0.0500  plane waves:      89
 k-point 45 :  -0.3500-0.3500 0.0500  plane waves:      88
 k-point 46 :  -0.2500-0.3500 0.0500  plane waves:      90
 k-point 47 :  -0.1500-0.3500 0.0500  plane waves:      87
 k-point 48 :  -0.2500-0.2500 0.0500  plane waves:      85
 k-point 49 :  -0.1500-0.2500 0.0500  plane waves:      88
 k-point 50 :  -0.1500-0.1500 0.0500  plane waves:      88
 k-point 51 :   0.1500 0.1500 0.1500  plane waves:      95
 k-point 52 :   0.2500 0.1500 0.1500  plane waves:      91
 k-point 53 :   0.3500 0.1500 0.1500  plane waves:      91
 k-point 54 :   0.4500 0.1500 0.1500  plane waves:      87
 k-point 55 :  -0.4500 0.1500 0.1500  plane waves:      90
 k-point 56 :  -0.3500 0.1500 0.1500  plane waves:      91
 k-point 57 :  -0.2500 0.1500 0.1500  plane waves:      89
 k-point 58 :  -0.1500 0.1500 0.1500  plane waves:      85
 k-point 59 :   0.2500 0.2500 0.1500  plane waves:      85
 k-point 60 :   0.3500 0.2500 0.1500  plane waves:      87
 k-point 61 :   0.4500 0.2500 0.1500  plane waves:      90
 k-point 62 :  -0.4500 0.2500 0.1500  plane waves:      90
 k-point 63 :  -0.3500 0.2500 0.1500  plane waves:      91
 k-point 64 :  -0.2500 0.2500 0.1500  plane waves:      90
 k-point 65 :  -0.1500 0.2500 0.1500  plane waves:      89
 k-point 66 :   0.3500 0.3500 0.1500  plane waves:      87
 k-point 67 :   0.4500 0.3500 0.1500  plane waves:      88
 k-point 68 :  -0.4500 0.3500 0.1500  plane waves:      91
 k-point 69 :  -0.3500 0.3500 0.1500  plane waves:      93
 k-point 70 :  -0.2500 0.3500 0.1500  plane waves:      92
 k-point 71 :  -0.1500 0.3500 0.1500  plane waves:      91
 k-point 72 :   0.4500 0.4500 0.1500  plane waves:      90
 k-point 73 :  -0.4500 0.4500 0.1500  plane waves:      93
 k-point 74 :  -0.3500 0.4500 0.1500  plane waves:      95
 k-point 75 :  -0.2500 0.4500 0.1500  plane waves:      94
 k-point 76 :  -0.1500 0.4500 0.1500  plane waves:      91
 k-point 77 :  -0.4500-0.4500 0.1500  plane waves:      95
 k-point 78 :  -0.3500-0.4500 0.1500  plane waves:      95
 k-point 79 :  -0.2500-0.4500 0.1500  plane waves:      91
 k-point 80 :  -0.3500-0.3500 0.1500  plane waves:      92
 k-point 81 :  -0.2500-0.3500 0.1500  plane waves:      91
 k-point 82 :  -0.2500-0.2500 0.1500  plane waves:      89
 k-point 83 :   0.2500 0.2500 0.2500  plane waves:      89
 k-point 84 :   0.3500 0.2500 0.2500  plane waves:      89
 k-point 85 :   0.4500 0.2500 0.2500  plane waves:      93
 k-point 86 :  -0.4500 0.2500 0.2500  plane waves:      91
 k-point 87 :  -0.3500 0.2500 0.2500  plane waves:      91
 k-point 88 :  -0.2500 0.2500 0.2500  plane waves:      90
 k-point 89 :   0.3500 0.3500 0.2500  plane waves:      89
 k-point 90 :   0.4500 0.3500 0.2500  plane waves:      90
 k-point 91 :  -0.4500 0.3500 0.2500  plane waves:      90
 k-point 92 :  -0.3500 0.3500 0.2500  plane waves:      94
 k-point 93 :  -0.2500 0.3500 0.2500  plane waves:      93
 k-point 94 :   0.4500 0.4500 0.2500  plane waves:      91
 k-point 95 :  -0.4500 0.4500 0.2500  plane waves:      93
 k-point 96 :  -0.3500 0.4500 0.2500  plane waves:      93
 k-point 97 :  -0.2500 0.4500 0.2500  plane waves:      95
 k-point 98 :  -0.4500-0.4500 0.2500  plane waves:      94
 k-point 99 :  -0.3500-0.4500 0.2500  plane waves:      97
 k-point ** :  -0.3500-0.3500 0.2500  plane waves:      97
 k-point ** :   0.3500 0.3500 0.3500  plane waves:      92
 k-point ** :   0.4500 0.3500 0.3500  plane waves:      88
 k-point ** :  -0.4500 0.3500 0.3500  plane waves:      90
 k-point ** :  -0.3500 0.3500 0.3500  plane waves:      90
 k-point ** :   0.4500 0.4500 0.3500  plane waves:      89
 k-point ** :  -0.4500 0.4500 0.3500  plane waves:      88
 k-point ** :  -0.3500 0.4500 0.3500  plane waves:      93
 k-point ** :  -0.4500-0.4500 0.3500  plane waves:      91
 k-point ** :   0.4500 0.4500 0.4500  plane waves:      90
 k-point ** :  -0.4500 0.4500 0.4500  plane waves:      89

 maximum and minimum number of plane-waves per node :        97       85

 maximum number of plane-waves:        97
 maximum index in each direction: 
   IXMAX=    3   IYMAX=    3   IZMAX=    3
   IXMIN=   -3   IYMIN=   -3   IZMIN=   -3


 serial   3D FFT for wavefunctions
 parallel 3D FFT for charge:
    minimum data exchange during FFTs selected (reduces bandwidth)


 total amount of memory used by VASP MPI-rank0    33345. kBytes
=======================================================================

   base      :      30000. kBytes
   nonl-proj :       1585. kBytes
   fftplans  :        142. kBytes
   grid      :        320. kBytes
   one-center:         31. kBytes
   wavefun   :       1267. kBytes
 
     INWAV:  cpu time    0.0000: real time    0.0000
 Broyden mixing: mesh for mixing (old mesh)
   NGX =  7   NGY =  7   NGZ =  7
  (NGX  = 20   NGY  = 20   NGZ  = 20)
  gives a total of    343 points

 initial charge density was supplied:
 charge density of overlapping atoms calculated
 number of electron      10.0000000 magnetization       3.0000000
 keeping initial charge density in first step


--------------------------------------------------------------------------------------------------------


 Maximum index for augmentation-charges          895 (set IRDMAX)


--------------------------------------------------------------------------------------------------------


 First call to EWALD:  gamma=   0.853
 Maximum number of real-space cells 3x 3x 3
 Maximum number of reciprocal cells 3x 3x 3

    FEWALD:  cpu time    0.0010: real time    0.0010


--------------------------------------- Iteration      1(   1)  ---------------------------------------


    POTLOK:  cpu time    0.0026: real time    0.0095
    SETDIJ:  cpu time    0.0037: real time    0.0037
     EDDAV:  cpu time    0.3165: real time    0.3233
       DOS:  cpu time    0.0019: real time    0.0019
    --------------------------------------------
      LOOP:  cpu time    0.3248: real time    0.3385

 eigenvalue-minimisations  :  5964
 total energy-change (2. order) : 0.1846330E+02  (-0.2952409E+03)
 number of electron      10.0000000 magnetization       3.0000000
 augmentation part       10.0000000 magnetization       3.0000000

 Free energy of the ion-electron system (eV)
  ---------------------------------------------------
  alpha Z        PSCENC =        56.76534046
  Ewald energy   TEWEN  =     -1000.31875829
  -Hartree energ DENC   =      -216.73959597
  -exchange      EXHF   =         0.00000000
  -V(xc)+E(xc)   XCENC  =        33.39243421
  PAW double counting   =       961.92645289    -1028.66799202
  entropy T*S    EENTRO =         0.00060163
  eigenvalues    EBANDS =       134.46874631
  atomic energy  EATOM  =      1077.63607467
  Solvation  Ediel_sol  =         0.00000000
  ---------------------------------------------------
  free energy    TOTEN  =        18.46330387 eV

  energy without entropy =       18.46270224  energy(sigma->0) =       18.46310333


--------------------------------------------------------------------------------------------------------




--------------------------------------- Iteration      1(   2)  ---------------------------------------


     EDDAV:  cpu time    0.3082: real time    0.3156
       DOS:  cpu time    0.0019: real time    0.0019
    --------------------------------------------
      LOOP:  cpu time    0.3101: real time    0.3175

 eigenvalue-minimisations  :  5804
 total energy-change (2. order) :-0.2345950E+02  (-0.2183492E+02)
 number of electron      10.0000000 magnetization       3.0000000
 augmentation part       10.0000000 magnetization       3.0000000

 Free energy of the ion-electron system (eV)
  ---------------------------------------------------
  alpha Z        PSCENC =        56.76534046
  Ewald energy   TEWEN  =     -1000.31875829
  -Hartree energ DENC   =      -216.73959597
  -exchange      EXHF   =         0.00000000
  -V(xc)+E(xc)   XCENC  =        33.39243421
  PAW double counting   =       961.92645289    -1028.66799202
  entropy T*S    EENTRO =        -0.00122531
  eigenvalues    EBANDS =       111.01107216
  atomic energy  EATOM  =      1077.63607467
  Solvation  Ediel_sol  =         0.00000000
  ---------------------------------------------------
  free energy    TOTEN  =        -4.99619722 eV

  energy without entropy =       -4.99497191  energy(sigma->0) =       -4.99578878


--------------------------------------------------------------------------------------------------------




--------------------------------------- Iteration      1(   3)  ---------------------------------------


     EDDAV:  cpu time    0.3144: real time    0.3211
       DOS:  cpu time    0.0019: real time    0.0019
    --------------------------------------------
      LOOP:  cpu time    0.3163: real time    0.3230

 eigenvalue-minimisations  :  6012
 total energy-change (2. order) :-0.3871038E+00  (-0.3847212E+00)
 number of electron      10.0000000 magnetization       3.0000000
 augmentation part       10.0000000 magnetization       3.0000000

 Free energy of the ion-electron system (eV)
  ---------------------------------------------------
  alpha Z        PSCENC =        56.76534046
  Ewald energy   TEWEN  =     -1000.31875829
  -Hartree energ DENC   =      -216.73959597
  -exchange      EXHF   =         0.00000000
  -V(xc)+E(xc)   XCENC  =        33.39243421
  PAW double counting   =       961.92645289    -1028.66799202
  entropy T*S    EENTRO =        -0.00132768
  eigenvalues    EBANDS =       110.62407072
  atomic energy  EATOM  =      1077.63607467
  Solvation  Ediel_sol  =         0.00000000
  ---------------------------------------------------
  free energy    TOTEN  =        -5.38330103 eV

  energy without entropy =       -5.38197335  energy(sigma->0) =       -5.38285847


--------------------------------------------------------------------------------------------------------




--------------------------------------- Iteration      1(   4)  ---------------------------------------


     EDDAV:  cpu time    0.3156: real time    0.3224
       DOS:  cpu time    0.0019: real time    0.0019
    --------------------------------------------
      LOOP:  cpu time    0.3175: real time    0.3243

 eigenvalue-minimisations  :  6032
 total energy-change (2. order) :-0.1758361E-02  (-0.1758226E-02)
 number of electron      10.0000000 magnetization       3.0000000
 augmentation part       10.0000000 magnetization       3.0000000

 Free energy of the ion-electron system (eV)
  ---------------------------------------------------
  alpha Z        PSCENC =        56.76534046
  Ewald energy   TEWEN  =     -1000.31875829
  -Hartree energ DENC   =      -216.73959597
  -exchange      EXHF   =         0.00000000
  -V(xc)+E(xc)   XCENC  =        33.39243421
  PAW double counting   =       961.92645289    -1028.66799202
  entropy T*S    EENTRO =        -0.00131944
  eigenvalues    EBANDS =       110.62230412
  atomic energy  EATOM  =      1077.63607467
  Solvation  Ediel_sol  =         0.00000000
  ---------------------------------------------------
  free energy    TOTEN  =        -5.38505939 eV

  energy without entropy =       -5.38373995  energy(sigma->0) =       -5.38461957


--------------------------------------------------------------------------------------------------------




--------------------------------------- Iteration      1(   5)  ---------------------------------------


     EDDAV:  cpu time    0.3080: real time    0.3147
       DOS:  cpu time    0.0019: real time    0.0019
    CHARGE:  cpu time    0.0043: real time    0.0043
    MIXING:  cpu time    0.0002: real time    0.0002
    --------------------------------------------
      LOOP:  cpu time    0.3145: real time    0.3211

 eigenvalue-minimisations  :  5820
 total energy-change (2. order) :-0.1847501E-04  (-0.1847645E-04)
 number of electron      10.0000056 magnetization       0.3448455
 augmentation part        5.6019813 magnetization       0.1662927

 Broyden mixing:
  rms(total) = 0.16638E+01    rms(broyden)= 0.16637E+01
  rms(prec ) = 0.35916E+01
  weight for this iteration     100.00

 Free energy of the ion-electron system (eV)
  ---------------------------------------------------
  alpha Z        PSCENC =        56.76534046
  Ewald energy   TEWEN  =     -1000.31875829
  -Hartree energ DENC   =      -216.73959597
  -exchange      EXHF   =         0.00000000
  -V(xc)+E(xc)   XCENC  =        33.39243421
  PAW double counting   =       961.92645289    -1028.66799202
  entropy T*S    EENTRO =        -0.00131937
  eigenvalues    EBANDS =       110.62228557
  atomic energy  EATOM  =      1077.63607467
  Solvation  Ediel_sol  =         0.00000000
  ---------------------------------------------------
  free energy    TOTEN  =        -5.38507786 eV

  energy without entropy =       -5.38375850  energy(sigma->0) =       -5.38463808


--------------------------------------------------------------------------------------------------------




--------------------------------------- Iteration      1(   6)  ---------------------------------------


    POTLOK:  cpu time    0.0031: real time    0.0032
    SETDIJ:  cpu time    0.0033: real time    0.0033
     EDDAV:  cpu time    0.3483: real time    0.3547
       DOS:  cpu time    0.0020: real time    0.0020
    CHARGE:  cpu time    0.0040: real time    0.0040
    MIXING:  cpu time    0.0003: real time    0.0003
    --------------------------------------------
      LOOP:  cpu time    0.3610: real time    0.3676

 eigenvalue-minimisations  :  6788
 total energy-change (2. order) : 0.2879908E-01  (-0.9137071E+00)
 number of electron      10.0000067 magnetization       0.5664877
 augmentation part        6.3292948 magnetization       0.6064907

 Broyden mixing:
  rms(total) = 0.52262E+00    rms(broyden)= 0.52257E+00
  rms(prec ) = 0.10058E+01
  weight for this iteration     100.00

 eigenvalues of (default mixing * dielectric matrix)
  average eigenvalue GAMMA=   0.9099
  0.9099

 Free energy of the ion-electron system (eV)
  ---------------------------------------------------
  alpha Z        PSCENC =        56.76534046
  Ewald energy   TEWEN  =     -1000.31875829
  -Hartree energ DENC   =      -194.42418187
  -exchange      EXHF   =         0.00000000
  -V(xc)+E(xc)   XCENC  =        31.21865641
  PAW double counting   =      1091.29341818    -1155.12071862
  entropy T*S    EENTRO =        -0.00433435
  eigenvalues    EBANDS =        87.59822463
  atomic energy  EATOM  =      1077.63607467
  Solvation  Ediel_sol  =         0.00000000
  ---------------------------------------------------
  free energy    TOTEN  =        -5.35627878 eV

  energy without entropy =       -5.35194443  energy(sigma->0) =       -5.35483400


--------------------------------------------------------------------------------------------------------




--------------------------------------- Iteration      1(   7)  ---------------------------------------


    POTLOK:  cpu time    0.0031: real time    0.0032
    SETDIJ:  cpu time    0.0031: real time    0.0031
     EDDAV:  cpu time    0.3427: real time    0.3492
       DOS:  cpu time    0.0021: real time    0.0021
    CHARGE:  cpu time    0.0041: real time    0.0041
    MIXING:  cpu time    0.0003: real time    0.0003
    --------------------------------------------
      LOOP:  cpu time    0.3554: real time    0.3620

 eigenvalue-minimisations  :  6692
 total energy-change (2. order) : 0.1606328E+00  (-0.1361883E+00)
 number of electron      10.0000063 magnetization       0.6443398
 augmentation part        6.0906733 magnetization       0.6198416

 Broyden mixing:
  rms(total) = 0.25276E+00    rms(broyden)= 0.25275E+00
  rms(prec ) = 0.42605E+00
  weight for this iteration     100.00

 eigenvalues of (default mixing * dielectric matrix)
  average eigenvalue GAMMA=   0.9547
  1.1889  0.7206

 Free energy of the ion-electron system (eV)
  ---------------------------------------------------
  alpha Z        PSCENC =        56.76534046
  Ewald energy   TEWEN  =     -1000.31875829
  -Hartree energ DENC   =      -199.19790735
  -exchange      EXHF   =         0.00000000
  -V(xc)+E(xc)   XCENC  =        31.47207488
  PAW double counting   =      1144.55530820    -1212.06363382
  entropy T*S    EENTRO =        -0.00162221
  eigenvalues    EBANDS =        95.95747751
  atomic energy  EATOM  =      1077.63607467
  Solvation  Ediel_sol  =         0.00000000
  ---------------------------------------------------
  free energy    TOTEN  =        -5.19564596 eV

  energy without entropy =       -5.19402375  energy(sigma->0) =       -5.19510523


--------------------------------------------------------------------------------------------------------




--------------------------------------- Iteration      1(   8)  ---------------------------------------


    POTLOK:  cpu time    0.0032: real time    0.0033
    SETDIJ:  cpu time    0.0031: real time    0.0032
     EDDAV:  cpu time    0.3363: real time    0.3428
       DOS:  cpu time    0.0021: real time    0.0021
    CHARGE:  cpu time    0.0045: real time    0.0045
    MIXING:  cpu time    0.0003: real time    0.0003
    --------------------------------------------
      LOOP:  cpu time    0.3495: real time    0.3561

 eigenvalue-minimisations  :  6188
 total energy-change (2. order) : 0.1862217E-01  (-0.1487130E-02)
 number of electron      10.0000064 magnetization       0.5750480
 augmentation part        6.1116420 magnetization       0.5397830

 Broyden mixing:
  rms(total) = 0.10820E+00    rms(broyden)= 0.10820E+00
  rms(prec ) = 0.17894E+00
  weight for this iteration     100.00

 eigenvalues of (default mixing * dielectric matrix)
  average eigenvalue GAMMA=   1.2827
  0.7174  0.9566  2.1741

 Free energy of the ion-electron system (eV)
  ---------------------------------------------------
  alpha Z        PSCENC =        56.76534046
  Ewald energy   TEWEN  =     -1000.31875829
  -Hartree energ DENC   =      -196.98820814
  -exchange      EXHF   =         0.00000000
  -V(xc)+E(xc)   XCENC  =        31.36221905
  PAW double counting   =      1212.01546759    -1280.93331152
  entropy T*S    EENTRO =        -0.00151289
  eigenvalues    EBANDS =        95.28566527
  atomic energy  EATOM  =      1077.63607467
  Solvation  Ediel_sol  =         0.00000000
  ---------------------------------------------------
  free energy    TOTEN  =        -5.17702380 eV

  energy without entropy =       -5.17551091  energy(sigma->0) =       -5.17651950


--------------------------------------------------------------------------------------------------------




--------------------------------------- Iteration      1(   9)  ---------------------------------------


    POTLOK:  cpu time    0.0031: real time    0.0032
    SETDIJ:  cpu time    0.0031: real time    0.0032
     EDDAV:  cpu time    0.3600: real time    0.3669
       DOS:  cpu time    0.0021: real time    0.0022
    CHARGE:  cpu time    0.0049: real time    0.0050
    MIXING:  cpu time    0.0003: real time    0.0003
    --------------------------------------------
      LOOP:  cpu time    0.3737: real time    0.3807

 eigenvalue-minimisations  :  6740
 total energy-change (2. order) : 0.3706112E-02  (-0.5797586E-03)
 number of electron      10.0000064 magnetization       0.5868130
 augmentation part        6.1264159 magnetization       0.5623633

 Broyden mixing:
  rms(total) = 0.15260E-01    rms(broyden)= 0.15259E-01
  rms(prec ) = 0.16218E-01
  weight for this iteration     100.00

 eigenvalues of (default mixing * dielectric matrix)
  average eigenvalue GAMMA=   1.1800
  2.3311  0.9303  0.7293  0.7293

 Free energy of the ion-electron system (eV)
  ---------------------------------------------------
  alpha Z        PSCENC =        56.76534046
  Ewald energy   TEWEN  =     -1000.31875829
  -Hartree energ DENC   =      -195.48092990
  -exchange      EXHF   =         0.00000000
  -V(xc)+E(xc)   XCENC  =        31.28550851
  PAW double counting   =      1265.44944222    -1335.41971680
  entropy T*S    EENTRO =        -0.00213552
  eigenvalues    EBANDS =        94.91185697
  atomic energy  EATOM  =      1077.63607467
  Solvation  Ediel_sol  =         0.00000000
  ---------------------------------------------------
  free energy    TOTEN  =        -5.17331769 eV

  energy without entropy =       -5.17118216  energy(sigma->0) =       -5.17260584


--------------------------------------------------------------------------------------------------------




--------------------------------------- Iteration      1(  10)  ---------------------------------------


    POTLOK:  cpu time    0.0031: real time    0.0033
    SETDIJ:  cpu time    0.0033: real time    0.0033
     EDDAV:  cpu time    0.2566: real time    0.2629
       DOS:  cpu time    0.0021: real time    0.0021
    --------------------------------------------
      LOOP:  cpu time    0.2650: real time    0.2716

 eigenvalue-minimisations  :  4152
 total energy-change (2. order) : 0.2981187E-04  (-0.8150645E-05)
 number of electron      10.0000064 magnetization       0.5868130
 augmentation part        6.1264159 magnetization       0.5623633

 Free energy of the ion-electron system (eV)
  ---------------------------------------------------
  alpha Z        PSCENC =        56.76534046
  Ewald energy   TEWEN  =     -1000.31875829
  -Hartree energ DENC   =      -195.42838521
  -exchange      EXHF   =         0.00000000
  -V(xc)+E(xc)   XCENC  =        31.28170470
  PAW double counting   =      1270.02217954    -1340.05575839
  entropy T*S    EENTRO =        -0.00198225
  eigenvalues    EBANDS =        94.92629689
  atomic energy  EATOM  =      1077.63607467
  Solvation  Ediel_sol  =         0.00000000
  ---------------------------------------------------
  free energy    TOTEN  =        -5.17328787 eV

  energy without entropy =       -5.17130563  energy(sigma->0) =       -5.17262712


--------------------------------------------------------------------------------------------------------




 average (electrostatic) potential at core
  the test charge radii are     0.9791
  (the norm of the test charge is              1.0000)
       1 -79.3584
 
 
 
 E-fermi :  12.3741     XC(G=0): -14.4254     alpha+bet :-19.9364


 spin component 1

 k-point     1 :       0.0500    0.0500    0.0500
  band No.  band energies     occupation 
      1       2.0675      1.00000
      2       9.3791      1.00000
      3       9.4414      1.00000
      4       9.4414      1.00000
      5      10.9194      1.00000
      6      10.9194      1.00000
      7      37.5725      0.00000
      8      41.6896      0.00000
      9      42.9714      0.00000
     10      42.9714      0.00000
     11      47.5092      0.00000
     12      47.5094      0.00000

 k-point     2 :       0.1500    0.0500    0.0500
  band No.  band energies     occupation 
      1       2.6586      1.00000
      2       9.1939      1.00000
      3       9.5752      1.00000
      4       9.5935      1.00000
      5      10.7773      1.00000
      6      10.9546      1.00000
      7      35.9987      0.00000
      8      38.6222      0.00000
      9      41.5930      0.00000
     10      43.7701      0.00000
     11      46.5504      0.00000
     12      47.6280      0.00000

 k-point     3 :       0.2500    0.0500    0.0500
  band No.  band energies     occupation 
      1       4.0118      1.00000
      2       8.9386      1.00000
      3       9.7059      1.00000
      4       9.7468      1.00000
      5      10.7576      1.00000
      6      11.1123      1.00000
      7      30.8289      0.00000
      8      37.3351      0.00000
      9      40.9169      0.00000
     10      43.4914      0.00000
     11      46.0907      0.00000
     12      46.8760      0.00000

 k-point     4 :       0.3500    0.0500    0.0500
  band No.  band energies     occupation 
      1       5.5927      1.00000
      2       9.1474      1.00000
      3       9.5842      1.00000
      4       9.6475      1.00000
      5      11.1450      1.00000
      6      11.5617      1.00000
      7      25.5715      0.00000
      8      36.4824      0.00000
      9      39.8318      0.00000
     10      42.9356      0.00000
     11      44.3047      0.00000
     12      46.2402      0.00000

 k-point     5 :       0.4500    0.0500    0.0500
  band No.  band energies     occupation 
      1       6.3501      1.00000
      2       9.3997      1.00000
      3       9.4842      1.00000
      4      10.4175      1.00000
      5      11.6256      1.00000
      6      12.1941      1.01144
      7      21.2382      0.00000
      8      35.8831      0.00000
      9      39.2541      0.00000
     10      41.0878      0.00000
     11      43.9950      0.00000
     12      45.4324      0.00000

 k-point     6 :      -0.4500    0.0500    0.0500
  band No.  band energies     occupation 
      1       6.4453      1.00000
      2       9.3326      1.00000
      3       9.4426      1.00000
      4      10.9598      1.00000
      5      11.8480      1.00063
      6      12.6427     -0.03364
      7      19.6668      0.00000
      8      35.7910      0.00000
      9      39.6141      0.00000
     10      39.7012      0.00000
     11      44.6931      0.00000
     12      44.6947      0.00000

 k-point     7 :      -0.3500    0.0500    0.0500
  band No.  band energies     occupation 
      1       6.2099      1.00000
      2       9.4322      1.00000
      3       9.5479      1.00000
      4       9.9090      1.00000
      5      11.6944      1.00001
      6      11.7721      1.00009
      7      22.5117      0.00000
      8      36.3138      0.00000
      9      39.0592      0.00000
     10      41.1572      0.00000
     11      44.3905      0.00000
     12      46.0089      0.00000

 k-point     8 :      -0.2500    0.0500    0.0500
  band No.  band energies     occupation 
      1       5.1056      1.00000
      2       8.9585      1.00000
      3       9.6383      1.00000
      4       9.7116      1.00000
      5      11.0774      1.00000
      6      11.3076      1.00000
      7      27.2639      0.00000
      8      37.2926      0.00000
      9      39.3262      0.00000
     10      43.1814      0.00000
     11      44.5630      0.00000
     12      47.9838      0.00000

 k-point     9 :      -0.1500    0.0500    0.0500
  band No.  band energies     occupation 
      1       3.4949      1.00000
      2       8.9971      1.00000
      3       9.7045      1.00000
      4       9.7195      1.00000
      5      10.7309      1.00000
      6      11.0169      1.00000
      7      32.6669      0.00000
      8      38.3052      0.00000
      9      40.1567      0.00000
     10      43.7760      0.00000
     11      45.6313      0.00000
     12      49.5312      0.00000

 k-point    10 :      -0.0500    0.0500    0.0500
  band No.  band energies     occupation 
      1       2.3662      1.00000
      2       9.2615      1.00000
      3       9.5276      1.00000
      4       9.5345      1.00000
      5      10.8028      1.00000
      6      10.9675      1.00000
      7      37.0743      0.00000
      8      40.0871      0.00000
      9      41.4535      0.00000
     10      42.7712      0.00000
     11      47.4460      0.00000
     12      48.8268      0.00000

 k-point    11 :       0.1500    0.1500    0.0500
  band No.  band energies     occupation 
      1       2.9469      1.00000
      2       9.0309      1.00000
      3       9.7079      1.00000
      4       9.7126      1.00000
      5      10.6017      1.00000
      6      11.0571      1.00000
      7      36.2149      0.00000
      8      38.5314      0.00000
      9      39.4430      0.00000
     10      41.2031      0.00000
     11      48.5090      0.00000
     12      50.0853      0.00000

 k-point    12 :       0.2500    0.1500    0.0500
  band No.  band energies     occupation 
      1       4.0295      1.00000
      2       8.7265      1.00000
      3       9.7994      1.00000
      4       9.9704      1.00000
      5      10.5303      1.00000
      6      11.2289      1.00000
      7      33.0668      0.00000
      8      35.4323      0.00000
      9      39.3414      0.00000
     10      40.9162      0.00000
     11      47.0756      0.00000
     12      49.1838      0.00000

 k-point    13 :       0.3500    0.1500    0.0500
  band No.  band energies     occupation 
      1       5.5682      1.00000
      2       8.5914      1.00000
      3       9.5113      1.00000
      4       9.9986      1.00000
      5      11.0740      1.00000
      6      11.7046      1.00001
      7      27.6586      0.00000
      8      34.5182      0.00000
      9      37.7569      0.00000
     10      40.8710      0.00000
     11      47.7011      0.00000
     12      47.9749      0.00000

 k-point    14 :       0.4500    0.1500    0.0500
  band No.  band energies     occupation 
      1       6.6109      1.00000
      2       9.0035      1.00000
      3       9.3568      1.00000
      4       9.8455      1.00000
      5      11.6689      1.00000
      6      12.7909     -0.00605
      7      22.8286      0.00000
      8      34.0437      0.00000
      9      36.3120      0.00000
     10      39.7536      0.00000
     11      46.6922      0.00000
     12      49.2169      0.00000

 k-point    15 :      -0.4500    0.1500    0.0500
  band No.  band energies     occupation 
      1       6.8251      1.00000
      2       8.9861      1.00000
      3       9.7237      1.00000
      4       9.9394      1.00000
      5      11.8089      1.00024
      6      14.2905     -0.00000
      7      19.7666      0.00000
      8      33.5310      0.00000
      9      36.0124      0.00000
     10      39.3444      0.00000
     11      46.0639      0.00000
     12      48.8532      0.00000

 k-point    16 :      -0.3500    0.1500    0.0500
  band No.  band energies     occupation 
      1       6.7553      1.00000
      2       9.0880      1.00000
      3       9.5840      1.00000
      4       9.7781      1.00000
      5      11.5473      1.00000
      6      13.4632     -0.00000
      7      21.5056      0.00000
      8      33.0055      0.00000
      9      37.0041      0.00000
     10      40.2246      0.00000
     11      45.6485      0.00000
     12      48.4831      0.00000

 k-point    17 :      -0.2500    0.1500    0.0500
  band No.  band energies     occupation 
      1       6.0556      1.00000
      2       8.7662      1.00000
      3       9.3911      1.00000
      4       9.9279      1.00000
      5      10.9833      1.00000
      6      12.2040      1.00185
      7      25.9683      0.00000
      8      33.0086      0.00000
      9      38.7583      0.00000
     10      42.1651      0.00000
     11      45.4197      0.00000
     12      47.7374      0.00000

 k-point    18 :      -0.1500    0.1500    0.0500
  band No.  band energies     occupation 
      1       4.5300      1.00000
      2       8.7180      1.00000
      3       9.6799      1.00000
      4      10.0074      1.00000
      5      10.5217      1.00000
      6      11.4456      1.00000
      7      31.2370      0.00000
      8      33.6607      0.00000
      9      41.0031      0.00000
     10      42.6366      0.00000
     11      46.2762      0.00000
     12      47.6701      0.00000

 k-point    19 :      -0.0500    0.1500    0.0500
  band No.  band energies     occupation 
      1       3.2267      1.00000
      2       9.0053      1.00000
      3       9.7091      1.00000
      4       9.7293      1.00000
      5      10.6328      1.00000
      6      11.0572      1.00000
      7      34.5639      0.00000
      8      37.0178      0.00000
      9      40.8128      0.00000
     10      43.0306      0.00000
     11      46.7151      0.00000
     12      48.6433      0.00000

 k-point    20 :       0.2500    0.2500    0.0500
  band No.  band energies     occupation 
      1       4.7445      1.00000
      2       8.3631      1.00000
      3       9.9870      1.00000
      4      10.3033      1.00000
      5      10.5089      1.00000
      6      11.3364      1.00000
      7      33.5960      0.00000
      8      35.3796      0.00000
      9      35.8936      0.00000
     10      37.4100      0.00000
     11      43.9532      0.00000
     12      53.3523      0.00000

 k-point    21 :       0.3500    0.2500    0.0500
  band No.  band energies     occupation 
      1       5.9025      1.00000
      2       8.0631      1.00000
      3       9.6949      1.00000
      4      10.6260      1.00000
      5      11.1184      1.00000
      6      11.7288      1.00002
      7      30.2171      0.00000
      8      32.3480      0.00000
      9      34.4116      0.00000
     10      38.1460      0.00000
     11      43.6582      0.00000
     12      52.9373      0.00000

 k-point    22 :       0.4500    0.2500    0.0500
  band No.  band energies     occupation 
      1       6.9213      1.00000
      2       8.0573      1.00000
      3       9.3650      1.00000
      4      10.5266      1.00000
      5      11.7469      1.00004
      6      13.2238     -0.00000
      7      25.1385      0.00000
      8      31.2858      0.00000
      9      32.6854      0.00000
     10      38.4236      0.00000
     11      46.9024      0.00000
     12      51.5484      0.00000

 k-point    23 :      -0.4500    0.2500    0.0500
  band No.  band energies     occupation 
      1       7.3564      1.00000
      2       8.2581      1.00000
      3       9.3100      1.00000
      4      10.3495      1.00000
      5      11.8303      1.00041
      6      15.7593     -0.00000
      7      20.9133      0.00000
      8      29.6340      0.00000
      9      32.9843      0.00000
     10      38.4707      0.00000
     11      49.2639      0.00000
     12      52.7136      0.00000

 k-point    24 :      -0.3500    0.2500    0.0500
  band No.  band energies     occupation 
      1       7.5265      1.00000
      2       8.4388      1.00000
      3       9.1433      1.00000
      4      10.2656      1.00000
      5      11.5058      1.00000
      6      15.9435     -0.00000
      7      20.9348      0.00000
      8      28.4150      0.00000
      9      34.4368      0.00000
     10      39.1749      0.00000
     11      48.2728      0.00000
     12      52.4259      0.00000

 k-point    25 :      -0.2500    0.2500    0.0500
  band No.  band energies     occupation 
      1       7.2534      1.00000
      2       8.5525      1.00000
      3       8.8725      1.00000
      4      10.3406      1.00000
      5      10.9242      1.00000
      6      13.7936     -0.00000
      7      25.1461      0.00000
      8      28.0176      0.00000
      9      36.5259      0.00000
     10      40.9123      0.00000
[...]
      4      10.1548      1.00000
      5      12.1446      1.03445
      6      12.1446      1.03445
      7      24.1582      0.00000
      8      36.8416      0.00000
      9      40.9994      0.00000
     10      40.9994      0.00000
     11      45.0941      0.00000
     12      45.0941      0.00000

 k-point   102 :       0.4500    0.3500    0.3500
  band No.  band energies     occupation 
      1       6.7065      1.00000
      2       9.8051      1.00000
      3      10.0002      1.00000
      4      10.2538      1.00000
      5      12.0572      1.02378
      6      13.1730     -0.00000
      7      22.9467      0.00000
      8      34.1474      0.00000
      9      38.8594      0.00000
     10      40.9391      0.00000
     11      45.4208      0.00000
     12      46.4863      0.00000

 k-point   103 :      -0.4500    0.3500    0.3500
  band No.  band energies     occupation 
      1       7.6525      1.00000
      2       9.1630      1.00000
      3       9.6595      1.00000
      4      10.6700      1.00000
      5      12.0480      1.02164
      6      15.1185     -0.00000
      7      22.2148      0.00000
      8      29.4389      0.00000
      9      37.4748      0.00000
     10      38.0541      0.00000
     11      48.8188      0.00000
     12      49.3312      0.00000

 k-point   104 :      -0.3500    0.3500    0.3500
  band No.  band energies     occupation 
      1       8.2768      1.00000
      2       8.4380      1.00000
      3       9.6437      1.00000
      4      11.2328      1.00000
      5      12.1879      1.01641
      6      17.7694     -0.00000
      7      21.4632      0.00000
      8      25.6124      0.00000
      9      34.3895      0.00000
     10      37.3702      0.00000
     11      52.5883      0.00000
     12      52.7343      0.00000

 k-point   105 :       0.4500    0.4500    0.3500
  band No.  band energies     occupation 
      1       6.8892      1.00000
      2       9.6859      1.00000
      3      10.2506      1.00000
      4      10.2576      1.00000
      5      12.5542     -0.01144
      6      13.2660     -0.00000
      7      21.6622      0.00000
      8      35.0957      0.00000
      9      37.6075      0.00000
     10      39.1465      0.00000
     11      46.5028      0.00000
     12      47.2866      0.00000

 k-point   106 :      -0.4500    0.4500    0.3500
  band No.  band energies     occupation 
      1       7.4949      1.00000
      2       9.1656      1.00000
      3       9.9659      1.00000
      4      10.5676      1.00000
      5      12.4339      0.25906
      6      15.1082     -0.00000
      7      20.9055      0.00000
      8      31.9956      0.00000
      9      34.2727      0.00000
     10      40.4406      0.00000
     11      45.9965      0.00000
     12      51.2996      0.00000

 k-point   107 :      -0.3500    0.4500    0.3500
  band No.  band energies     occupation 
      1       8.2412      1.00000
      2       8.4863      1.00000
      3       9.5937      1.00000
      4      11.0877      1.00000
      5      12.4207      0.30891
      6      17.6567     -0.00000
      7      20.5700      0.00000
      8      27.8454      0.00000
      9      31.4909      0.00000
     10      40.8199      0.00000
     11      47.6107      0.00000
     12      55.2155      0.00000

 k-point   108 :      -0.4500   -0.4500    0.3500
  band No.  band energies     occupation 
      1       7.6935      1.00000
      2       8.8991      1.00000
      3       9.9798      1.00000
      4      10.7052      1.00000
      5      12.5194      0.03129
      6      16.0728     -0.00000
      7      20.2747      0.00000
      8      30.3733      0.00000
      9      35.3551      0.00000
     10      37.4674      0.00000
     11      50.1008      0.00000
     12      50.1734      0.00000

 k-point   109 :       0.4500    0.4500    0.4500
  band No.  band energies     occupation 
      1       6.7194      1.00000
      2       9.9995      1.00000
      3       9.9995      1.00000
      4      11.3419      1.00000
      5      12.5126      0.04285
      6      12.5126      0.04285
      7      20.5770      0.00000
      8      36.1098      0.00000
      9      40.7156      0.00000
     10      40.7156      0.00000
     11      43.8682      0.00000
     12      43.8682      0.00000

 k-point   110 :      -0.4500    0.4500    0.4500
  band No.  band energies     occupation 
      1       7.0463      1.00000
      2       9.6919      1.00000
      3      10.1686      1.00000
      4      10.6861      1.00000
      5      12.4970      0.07367
      6      14.0094     -0.00000
      7      20.1018      0.00000
      8      34.3810      0.00000
      9      38.3849      0.00000
     10      38.7549      0.00000
     11      46.0989      0.00000
     12      46.5647      0.00000


--------------------------------------------------------------------------------------------------------


 soft charge-density along one line, spin component           1
         0         1         2         3         4         5         6         7         8         9
 total charge-density along one line
 
 soft charge-density along one line, spin component           2
         0         1         2         3         4         5         6         7         8         9
 total charge-density along one line
 
 pseudopotential strength for first ion, spin component:           1
  1.340   0.000   0.000   0.000   0.000   0.000   0.000   0.000  -0.000   0.000   0.581   0.000   0.000   0.000   0.000   0.000
  0.000   0.000   1.340   0.000  -0.000   0.000   0.000   0.000   0.000   0.000   0.000   0.000   0.581   0.000  -0.000   0.000
  0.000   0.000  -0.000   0.000   1.441   0.000  -0.000   0.000   0.000   0.000   0.000   0.000  -0.000   0.000   0.678   0.000
  0.000   0.000   0.000   0.000  -0.000   0.000   1.340   0.000  -0.000   0.000   0.000   0.000   0.000   0.000  -0.000   0.000
 -0.000   0.000   0.000   0.000   0.000   0.000  -0.000   0.000   1.441   0.000  -0.000   0.000   0.000   0.000   0.000   0.000
  0.581   0.000   0.000   0.000   0.000   0.000   0.000   0.000  -0.000   0.000  -0.103   0.000   0.000   0.000   0.000   0.000
  0.000   0.000   0.581   0.000  -0.000   0.000   0.000   0.000   0.000   0.000   0.000   0.000  -0.103   0.000  -0.000   0.000
  0.000   0.000  -0.000   0.000   0.678   0.000  -0.000   0.000   0.000   0.000   0.000   0.000  -0.000   0.000  -0.010   0.000
  0.000   0.000   0.000   0.000  -0.000   0.000   0.581   0.000  -0.000   0.000   0.000   0.000   0.000   0.000  -0.000   0.000
 -0.000   0.000   0.000   0.000   0.000   0.000  -0.000   0.000   0.678   0.000  -0.000   0.000   0.000   0.000   0.000   0.000
 -0.000   0.000  -0.000   0.000   0.000   0.000  -0.000   0.000  -0.000   0.000  -0.000   0.000  -0.000   0.000   0.000   0.000
 -0.000   0.000  -0.000   0.000   0.000   0.000  -0.000   0.000  -0.000   0.000  -0.000   0.000  -0.000   0.000   0.000   0.000
 -0.000   0.000  -0.000   0.000   0.000   0.000   0.000   0.000   0.000   0.000  -0.000   0.000  -0.000   0.000   0.000   0.000
  0.000   0.000  -0.000   0.000  -0.000   0.000  -0.000   0.000   0.000   0.000   0.000   0.000  -0.000   0.000  -0.000   0.000
 -0.000   0.000   0.000   0.000   0.000   0.000  -0.000   0.000  -0.000   0.000  -0.000   0.000   0.000   0.000   0.000   0.000
 -0.000   0.000  -0.000   0.000   0.000   0.000   0.000   0.000   0.000   0.000  -0.000   0.000  -0.000   0.000   0.000   0.000
  0.000   0.000  -0.000   0.000  -0.000   0.000  -0.000   0.000   0.000   0.000   0.000   0.000  -0.000   0.000  -0.000   0.000
 -0.000   0.000   0.000   0.000   0.000   0.000  -0.000   0.000  -0.000   0.000  -0.000   0.000   0.000   0.000   0.000   0.000
 pseudopotential strength for first ion, spin component:           2
  1.930   0.000   0.000   0.000  -0.000   0.000   0.000   0.000  -0.000   0.000   1.143   0.000   0.000   0.000  -0.000   0.000
  0.000   0.000   1.930   0.000   0.000   0.000   0.000   0.000  -0.000   0.000   0.000   0.000   1.143   0.000   0.000   0.000
 -0.000   0.000   0.000   0.000   1.912   0.000   0.000   0.000   0.000   0.000  -0.000   0.000   0.000   0.000   1.126   0.000
  0.000   0.000   0.000   0.000   0.000   0.000   1.930   0.000   0.000   0.000   0.000   0.000   0.000   0.000   0.000   0.000
 -0.000   0.000  -0.000   0.000   0.000   0.000   0.000   0.000   1.912   0.000  -0.000   0.000  -0.000   0.000   0.000   0.000
  1.143   0.000   0.000   0.000  -0.000   0.000   0.000   0.000  -0.000   0.000   0.433   0.000   0.000   0.000  -0.000   0.000
  0.000   0.000   1.143   0.000   0.000   0.000   0.000   0.000  -0.000   0.000   0.000   0.000   0.433   0.000   0.000   0.000
 -0.000   0.000   0.000   0.000   1.126   0.000   0.000   0.000   0.000   0.000  -0.000   0.000   0.000   0.000   0.417   0.000
  0.000   0.000   0.000   0.000   0.000   0.000   1.143   0.000   0.000   0.000   0.000   0.000   0.000   0.000   0.000   0.000
 -0.000   0.000  -0.000   0.000   0.000   0.000   0.000   0.000   1.126   0.000  -0.000   0.000  -0.000   0.000   0.000   0.000
 -0.000   0.000  -0.000   0.000   0.000   0.000  -0.000   0.000  -0.000   0.000  -0.000   0.000  -0.000   0.000   0.000   0.000
 -0.000   0.000  -0.000   0.000   0.000   0.000  -0.000   0.000  -0.000   0.000  -0.000   0.000  -0.000   0.000   0.000   0.000
 -0.000   0.000  -0.000   0.000   0.000   0.000   0.000   0.000   0.000   0.000  -0.000   0.000  -0.000   0.000   0.000   0.000
  0.000   0.000  -0.000   0.000  -0.000   0.000  -0.000   0.000   0.000   0.000   0.000   0.000  -0.000   0.000  -0.000   0.000
 -0.000   0.000   0.000   0.000   0.000   0.000  -0.000   0.000  -0.000   0.000  -0.000   0.000   0.000   0.000   0.000   0.000
 -0.000   0.000  -0.000   0.000   0.000   0.000   0.000   0.000   0.000   0.000  -0.000   0.000  -0.000   0.000   0.000   0.000
  0.000   0.000  -0.000   0.000  -0.000   0.000  -0.000   0.000   0.000   0.000   0.000   0.000  -0.000   0.000  -0.000   0.000
 -0.000   0.000   0.000   0.000   0.000   0.000  -0.000   0.000  -0.000   0.000  -0.000   0.000   0.000   0.000   0.000   0.000
 total augmentation occupancy for first ion, spin component:           1
  3.275   0.000  -0.000   0.000   0.000  -2.030  -0.000   0.000   0.000   0.000  -0.000   0.000   0.000   0.000   0.000   0.000
  0.000   3.275   0.000   0.000   0.000  -0.000  -2.030   0.000   0.000  -0.000   0.000   0.000   0.000   0.000   0.000   0.000
  0.000  -0.000   4.112  -0.000   0.000  -0.000   0.000  -2.389  -0.000   0.000   0.000   0.000   0.000   0.000   0.000   0.000
  0.000   0.000   0.000   3.275  -0.000   0.000  -0.000   0.000  -2.030  -0.000  -0.000  -0.000   0.000   0.000   0.000   0.000
 -0.000  -0.000   0.000  -0.000   4.112   0.000   0.000   0.000  -0.000  -2.389   0.000   0.000   0.000   0.000   0.000   0.000
 -2.030   0.000   0.000   0.000  -0.000   2.513  -0.000   0.000   0.000  -0.000   0.000   0.000   0.000   0.000   0.000   0.000
  0.000  -2.030   0.000  -0.000   0.000  -0.000   2.513   0.000   0.000  -0.000   0.000   0.000   0.000   0.000   0.000   0.000
  0.000   0.000  -2.389  -0.000   0.000   0.000   0.000   2.502   0.000   0.000   0.000   0.000   0.000   0.000   0.000   0.000
 -0.000   0.000   0.000  -2.030  -0.000   0.000   0.000   0.000   2.513   0.000  -0.000  -0.000   0.000   0.000   0.000   0.000
  0.000   0.000   0.000   0.000  -2.389   0.000  -0.000   0.000  -0.000   2.502   0.000  -0.000   0.000   0.000   0.000   0.000
 -0.000   0.000   0.000  -0.000   0.000   0.000   0.000   0.000  -0.000   0.000   2.893  -0.443   0.000   0.000   0.000   0.000
  0.000   0.000   0.000  -0.000   0.000   0.000  -0.000   0.000   0.000  -0.000  -0.443   0.078   0.000   0.000   0.000   0.000
  0.000   0.000   0.000   0.000   0.000   0.000   0.000   0.000   0.000   0.000   0.000   0.000   0.426   0.000   0.000  -0.046
  0.000   0.000   0.000   0.000   0.000   0.000   0.000   0.000   0.000   0.000   0.000   0.000   0.000   0.426   0.000   0.000
  0.000   0.000   0.000   0.000   0.000   0.000   0.000   0.000   0.000   0.000   0.000   0.000  -0.000   0.000   0.426   0.000
  0.000   0.000   0.000   0.000   0.000   0.000   0.000   0.000   0.000   0.000   0.000   0.000  -0.046   0.000   0.000   0.006
  0.000   0.000   0.000   0.000   0.000   0.000   0.000   0.000   0.000   0.000   0.000   0.000  -0.000  -0.046  -0.000   0.000
  0.000   0.000   0.000   0.000   0.000   0.000   0.000   0.000   0.000   0.000   0.000   0.000   0.000  -0.000  -0.046   0.000
 total augmentation occupancy for first ion, spin component:           2
  1.153   0.000  -0.000  -0.000  -0.000  -0.619   0.000   0.000   0.000   0.000  -0.000  -0.000   0.000   0.000   0.000   0.000
 -0.000   1.153  -0.000  -0.000   0.000   0.000  -0.619  -0.000  -0.000  -0.000   0.000   0.000   0.000   0.000   0.000   0.000
  0.000  -0.000   0.622  -0.000   0.000   0.000   0.000  -0.320  -0.000  -0.000  -0.000   0.000   0.000   0.000   0.000   0.000
 -0.000   0.000   0.000   1.153  -0.000  -0.000   0.000   0.000  -0.619   0.000   0.000   0.000   0.000   0.000   0.000   0.000
 -0.000   0.000   0.000   0.000   0.622   0.000  -0.000  -0.000   0.000  -0.320   0.000   0.000   0.000   0.000   0.000   0.000
 -0.619   0.000  -0.000  -0.000   0.000   0.246   0.000  -0.000   0.000   0.000   0.000  -0.000   0.000   0.000   0.000   0.000
 -0.000  -0.619   0.000   0.000   0.000  -0.000   0.246  -0.000   0.000   0.000   0.000   0.000   0.000   0.000   0.000   0.000
  0.000  -0.000  -0.320   0.000   0.000   0.000   0.000   0.099   0.000  -0.000   0.000  -0.000   0.000   0.000   0.000   0.000
  0.000  -0.000   0.000  -0.619   0.000   0.000   0.000  -0.000   0.246   0.000  -0.000  -0.000   0.000   0.000   0.000   0.000
 -0.000  -0.000   0.000   0.000  -0.320   0.000   0.000  -0.000   0.000   0.099  -0.000   0.000   0.000   0.000   0.000   0.000
 -0.000   0.000  -0.000  -0.000   0.000   0.000  -0.000   0.000  -0.000  -0.000  -0.155   0.052   0.000   0.000   0.000   0.000
 -0.000   0.000   0.000   0.000  -0.000  -0.000   0.000  -0.000   0.000   0.000   0.052  -0.011   0.000   0.000   0.000   0.000
  0.000   0.000   0.000   0.000   0.000   0.000   0.000   0.000   0.000   0.000   0.000   0.000  -0.020   0.000  -0.000   0.004
  0.000   0.000   0.000   0.000   0.000   0.000   0.000   0.000   0.000   0.000   0.000   0.000   0.000  -0.020  -0.000   0.000
  0.000   0.000   0.000   0.000   0.000   0.000   0.000   0.000   0.000   0.000   0.000   0.000   0.000  -0.000  -0.020   0.000
  0.000   0.000   0.000   0.000   0.000   0.000   0.000   0.000   0.000   0.000   0.000   0.000   0.004   0.000  -0.000  -0.001
  0.000   0.000   0.000   0.000   0.000   0.000   0.000   0.000   0.000   0.000   0.000   0.000  -0.000   0.004   0.000   0.000
  0.000   0.000   0.000   0.000   0.000   0.000   0.000   0.000   0.000   0.000   0.000   0.000   0.000  -0.000   0.004  -0.000


------------------------ aborting loop because EDIFF is reached ----------------------------------------


    CHARGE:  cpu time    0.0046: real time    0.0045
    FORLOC:  cpu time    0.0001: real time    0.0001
    FORNL :  cpu time    0.0098: real time    0.0098
    STRESS:  cpu time    0.0368: real time    0.0369
    FORCOR:  cpu time    0.0022: real time    0.0023
    FORHAR:  cpu time    0.0003: real time    0.0003
    MIXING:  cpu time    0.0004: real time    0.0003
    OFIELD:  cpu time    0.0000: real time    0.0000

  FORCE on cell =-STRESS in cart. coord.  units (eV):
  Direction    XX          YY          ZZ          XY          YZ          ZX
  --------------------------------------------------------------------------------------
  Alpha Z    56.76534    56.76534    56.76534
  Ewald    -333.43960  -333.43960  -333.43960    -0.00000    -0.00000    -0.00000
  Hartree    65.11969    65.11969    65.11969     0.00000     0.00000     0.00000
  E(xc)     -55.73069   -55.73069   -55.73069    -0.00012    -0.00012    -0.00012
  Local      18.79931    18.79931    18.79931     0.00127     0.00127     0.00127
  n-local    -3.54228    -2.62815    -5.84185     2.00863    -2.09401     0.08220
  augment   175.07363   175.07363   175.07363    -0.00132    -0.00132    -0.00132
  Kinetic    79.58195    79.58119    82.38961    -0.81933     0.75547    -0.02731
  Fock        0.00000     0.00000     0.00000     0.00000     0.00000     0.00000
  -------------------------------------------------------------------------------------
  Total       3.10117     3.10117     3.10117     0.00000     0.00000     0.00000
  in kB     553.03747   553.03747   553.03747     0.00000     0.00000     0.00000
  external pressure =      553.04 kB  Pullay stress =        0.00 kB


 VOLUME and BASIS-vectors are now :
 -----------------------------------------------------------------------------
  energy-cutoff  :      270.00
  volume of cell :        8.98
      direct lattice vectors                 reciprocal lattice vectors
     0.000000000  1.650000000  1.650000000    -0.303030303  0.303030303  0.303030303
     1.650000000  0.000000000  1.650000000     0.303030303 -0.303030303  0.303030303
     1.650000000  1.650000000  0.000000000     0.303030303  0.303030303 -0.303030303

  length of vectors
     2.333452378  2.333452378  2.333452378     0.524863881  0.524863881  0.524863881


 FORCES acting on ions
    electron-ion (+dipol)            ewald-force                    non-local-force                 convergence-correction
 -----------------------------------------------------------------------------------------------
   0.598E-13 0.431E-13 0.425E-13   -.622E-15 0.174E-14 -.184E-14   0.000E+00 0.000E+00 0.000E+00   0.475E-14 0.333E-13 0.262E-13
 -----------------------------------------------------------------------------------------------
   0.598E-13 0.431E-13 0.425E-13   -.622E-15 0.174E-14 -.184E-14   0.000E+00 0.000E+00 0.000E+00   0.475E-14 0.333E-13 0.262E-13
 
 
 POSITION                                       TOTAL-FORCE (eV/Angst)
 -----------------------------------------------------------------------------------
      0.00000      0.00000      0.00000         0.000000      0.000000      0.000000
 -----------------------------------------------------------------------------------
    total drift:                                0.000000      0.000000      0.000000


--------------------------------------------------------------------------------------------------------



  FREE ENERGIE OF THE ION-ELECTRON SYSTEM (eV)
  ---------------------------------------------------
  free  energy   TOTEN  =        -5.17328787 eV

  energy  without entropy=       -5.17130563  energy(sigma->0) =       -5.17262712
 


--------------------------------------------------------------------------------------------------------


    POTLOK:  cpu time    0.0065: real time    0.0066


--------------------------------------------------------------------------------------------------------


 writing wavefunctions
     LOOP+:  cpu time    3.4489: real time    3.5259
    4ORBIT:  cpu time    0.0000: real time    0.0000

 total amount of memory used by VASP MPI-rank0    33345. kBytes
=======================================================================

   base      :      30000. kBytes
   nonl-proj :       1585. kBytes
   fftplans  :        142. kBytes
   grid      :        320. kBytes
   one-center:         31. kBytes
   wavefun   :       1267. kBytes
 
  
  
 General timing and accounting informations for this job:
 ========================================================
  
                  Total CPU time used (sec):        3.897
                            User time (sec):        3.449
                          System time (sec):        0.449
                         Elapsed time (sec):        4.951
  
                   Maximum memory used (kb):       56644.
                   Average memory used (kb):           0.
  
                          Minor page faults:        36141
                          Major page faults:           23
                 Voluntary context switches:         3935
