<?xml version="1.0" encoding="ISO-8859-1"?>
<modeling>
 <generator>
  <i name="program" type="string">vasp </i>
  <i name="version" type="string">5.4.4.18Apr17-6-g9f103f2a35  </i>
  <i name="subversion" type="string">(build Jul 01 2019 03:25:34) complex            parallel </i>
  <i name="platform" type="string">LinuxIFC </i>
  <i name="date" type="string">2020 07 09 </i>
  <i name="time" type="string">19:35:15 </i>
 </generator>
 <incar>
  <i type="string" name="SYSTEM"> fcc Ni</i>
  <i type="string" name="PREC">normal</i>
  <i type="int" name="ISPIN">     2</i>
  <i name="EDIFF">      0.00010000</i>
  <i name="ENCUT">    270.00000000</i>
  <v name="MAGMOM">      3.00000000</v>
  <v type="int" name="KPOINT_BSE">    -1     0     0     0</v>
 </incar>
 <structure name="primitive_cell" >
  <crystal>
   <varray name="basis" >
    <v>       0.00000000       1.65000000       1.65000000 </v>
    <v>       1.65000000       0.00000000       1.65000000 </v>
    <v>       1.65000000       1.65000000       0.00000000 </v>
   </varray>
   <i name="volume">      8.98425000 </i>
   <varray name="rec_basis" >
    <v>      -0.30303030       0.30303030       0.30303030 </v>
    <v>       0.30303030      -0.30303030       0.30303030 </v>
    <v>       0.30303030       0.30303030      -0.30303030 </v>
   </varray>
  </crystal>
  <varray name="positions" >
   <v>       0.00000000       0.00000000       0.00000000 </v>
  </varray>
 </structure>
 <varray name="primitive_index" >
  <v type="int" >        1 </v>
 </varray>
 <kpoints>
  <generation param="Monkhorst-Pack">
   <v type="int" name="divisions">      10       10       10 </v>
   <v name="usershift">      0.00000000       0.00000000       0.00000000 </v>
   <v name="genvec1">      0.10000000       0.00000000       0.00000000 </v>
   <v name="genvec2">      0.00000000       0.10000000       0.00000000 </v>
   <v name="genvec3">      0.00000000       0.00000000       0.10000000 </v>
   <v name="shift">      0.50000000       0.50000000       0.50000000 </v>
  </generation>
  <varray name="kpointlist" >
   <v>       0.05000000       0.05000000       0.05000000 </v>
   <v>       0.15000000       0.05000000       0.05000000 </v>
   <v>       0.25000000       0.05000000       0.05000000 </v>
   <v>       0.35000000       0.05000000       0.05000000 </v>
   <v>       0.45000000       0.05000000       0.05000000 </v>
   <v>      -0.45000000       0.05000000       0.05000000 </v>
   <v>      -0.35000000       0.05000000       0.05000000 </v>
   <v>      -0.25000000       0.05000000       0.05000000 </v>
   <v>      -0.15000000       0.05000000       0.05000000 </v>
   <v>      -0.05000000       0.05000000       0.05000000 </v>
   <v>       0.15000000       0.15000000       0.05000000 </v>
   <v>       0.25000000       0.15000000       0.05000000 </v>
   <v>       0.35000000       0.15000000       0.05000000 </v>
   <v>       0.45000000       0.15000000       0.05000000 </v>
   <v>      -0.45000000       0.15000000       0.05000000 </v>
   <v>      -0.35000000       0.15000000       0.05000000 </v>
   <v>      -0.25000000       0.15000000       0.05000000 </v>
   <v>      -0.15000000       0.15000000       0.05000000 </v>
   <v>      -0.05000000       0.15000000       0.05000000 </v>
   <v>       0.25000000       0.25000000       0.05000000 </v>
   <v>       0.35000000       0.25000000       0.05000000 </v>
   <v>       0.45000000       0.25000000       0.05000000 </v>
   <v>      -0.45000000       0.25000000       0.05000000 </v>
   <v>      -0.35000000       0.25000000       0.05000000 </v>
   <v>      -0.25000000       0.25000000       0.05000000 </v>
   <v>      -0.15000000       0.25000000       0.05000000 </v>
   <v>      -0.05000000       0.25000000       0.05000000 </v>
   <v>       0.35000000       0.35000000       0.05000000 </v>
   <v>       0.45000000       0.35000000       0.05000000 </v>
   <v>      -0.45000000       0.35000000       0.05000000 </v>
   <v>      -0.35000000       0.35000000       0.05000000 </v>
   <v>      -0.25000000       0.35000000       0.05000000 </v>
   <v>      -0.15000000       0.35000000       0.05000000 </v>
   <v>      -0.05000000       0.35000000       0.05000000 </v>
   <v>       0.45000000       0.45000000       0.05000000 </v>
   <v>      -0.45000000       0.45000000       0.05000000 </v>
   <v>      -0.35000000       0.45000000       0.05000000 </v>
   <v>      -0.25000000       0.45000000       0.05000000 </v>
   <v>      -0.15000000       0.45000000       0.05000000 </v>
   <v>      -0.05000000       0.45000000       0.05000000 </v>
   <v>      -0.45000000      -0.45000000       0.05000000 </v>
   <v>      -0.35000000      -0.45000000       0.05000000 </v>
   <v>      -0.25000000      -0.45000000       0.05000000 </v>
   <v>      -0.15000000      -0.45000000       0.05000000 </v>
   <v>      -0.35000000      -0.35000000       0.05000000 </v>
   <v>      -0.25000000      -0.35000000       0.05000000 </v>
   <v>      -0.15000000      -0.35000000       0.05000000 </v>
   <v>      -0.25000000      -0.25000000       0.05000000 </v>
   <v>      -0.15000000      -0.25000000       0.05000000 </v>
   <v>      -0.15000000      -0.15000000       0.05000000 </v>
   <v>       0.15000000       0.15000000       0.15000000 </v>
   <v>       0.25000000       0.15000000       0.15000000 </v>
   <v>       0.35000000       0.15000000       0.15000000 </v>
   <v>       0.45000000       0.15000000       0.15000000 </v>
   <v>      -0.45000000       0.15000000       0.15000000 </v>
   <v>      -0.35000000       0.15000000       0.15000000 </v>
   <v>      -0.25000000       0.15000000       0.15000000 </v>
   <v>      -0.15000000       0.15000000       0.15000000 </v>
   <v>       0.25000000       0.25000000       0.15000000 </v>
   <v>       0.35000000       0.25000000       0.15000000 </v>
   <v>       0.45000000       0.25000000       0.15000000 </v>
   <v>      -0.45000000       0.25000000       0.15000000 </v>
   <v>      -0.35000000       0.25000000       0.15000000 </v>
   <v>      -0.25000000       0.25000000       0.15000000 </v>
   <v>      -0.15000000       0.25000000       0.15000000 </v>
   <v>       0.35000000       0.35000000       0.15000000 </v>
   <v>       0.45000000       0.35000000       0.15000000 </v>
   <v>      -0.45000000       0.35000000       0.15000000 </v>
   <v>      -0.35000000       0.35000000       0.15000000 </v>
   <v>      -0.25000000       0.35000000       0.15000000 </v>
   <v>      -0.15000000       0.35000000       0.15000000 </v>
   <v>       0.45000000       0.45000000       0.15000000 </v>
   <v>      -0.45000000       0.45000000       0.15000000 </v>
   <v>      -0.35000000       0.45000000       0.15000000 </v>
   <v>      -0.25000000       0.45000000       0.15000000 </v>
   <v>      -0.15000000       0.45000000       0.15000000 </v>
   <v>      -0.45000000      -0.45000000       0.15000000 </v>
   <v>      -0.35000000      -0.45000000       0.15000000 </v>
   <v>      -0.25000000      -0.45000000       0.15000000 </v>
   <v>      -0.35000000      -0.35000000       0.15000000 </v>
   <v>      -0.25000000      -0.35000000       0.15000000 </v>
   <v>      -0.25000000      -0.25000000       0.15000000 </v>
   <v>       0.25000000       0.25000000       0.25000000 </v>
   <v>       0.35000000       0.25000000       0.25000000 </v>
   <v>       0.45000000       0.25000000       0.25000000 </v>
   <v>      -0.45000000       0.25000000       0.25000000 </v>
   <v>      -0.35000000       0.25000000       0.25000000 </v>
   <v>      -0.25000000       0.25000000       0.25000000 </v>
   <v>       0.35000000       0.35000000       0.25000000 </v>
   <v>       0.45000000       0.35000000       0.25000000 </v>
   <v>      -0.45000000       0.35000000       0.25000000 </v>
   <v>      -0.35000000       0.35000000       0.25000000 </v>
   <v>      -0.25000000       0.35000000       0.25000000 </v>
   <v>       0.45000000       0.45000000       0.25000000 </v>
   <v>      -0.45000000       0.45000000       0.25000000 </v>
   <v>      -0.35000000       0.45000000       0.25000000 </v>
   <v>      -0.25000000       0.45000000       0.25000000 </v>
   <v>      -0.45000000      -0.45000000       0.25000000 </v>
   <v>      -0.35000000      -0.45000000       0.25000000 </v>
   <v>      -0.35000000      -0.35000000       0.25000000 </v>
   <v>       0.35000000       0.35000000       0.35000000 </v>
   <v>       0.45000000       0.35000000       0.35000000 </v>
   <v>      -0.45000000       0.35000000       0.35000000 </v>
   <v>      -0.35000000       0.35000000       0.35000000 </v>
   <v>       0.45000000       0.45000000       0.35000000 </v>
   <v>      -0.45000000       0.45000000       0.35000000 </v>
   <v>      -0.35000000       0.45000000       0.35000000 </v>
   <v>      -0.45000000      -0.45000000       0.35000000 </v>
   <v>       0.45000000       0.45000000       0.45000000 </v>
   <v>      -0.45000000       0.45000000       0.45000000 </v>
  </varray>
  <varray name="weights" >
   <v>       0.00200000 </v>
   <v>       0.00600000 </v>
   <v>       0.00600000 </v>
   <v>       0.00600000 </v>
   <v>       0.00600000 </v>
   <v>       0.00600000 </v>
   <v>       0.00600000 </v>
   <v>       0.00600000 </v>
   <v>       0.00600000 </v>
   <v>       0.00600000 </v>
   <v>       0.00600000 </v>
   <v>       0.01200000 </v>
   <v>       0.01200000 </v>
   <v>       0.01200000 </v>
   <v>       0.01200000 </v>
   <v>       0.01200000 </v>
   <v>       0.01200000 </v>
   <v>       0.01200000 </v>
   <v>       0.01200000 </v>
   <v>       0.00600000 </v>
   <v>       0.01200000 </v>
   <v>       0.01200000 </v>
   <v>       0.01200000 </v>
   <v>       0.01200000 </v>
   <v>       0.01200000 </v>
   <v>       0.01200000 </v>
   <v>       0.01200000 </v>
   <v>       0.00600000 </v>
   <v>       0.01200000 </v>
   <v>       0.01200000 </v>
   <v>       0.01200000 </v>
   <v>       0.01200000 </v>
   <v>       0.01200000 </v>
   <v>       0.01200000 </v>
   <v>       0.00600000 </v>
   <v>       0.01200000 </v>
   <v>       0.01200000 </v>
   <v>       0.01200000 </v>
   <v>       0.01200000 </v>
   <v>       0.01200000 </v>
   <v>       0.00600000 </v>
   <v>       0.01200000 </v>
   <v>       0.01200000 </v>
   <v>       0.01200000 </v>
   <v>       0.00600000 </v>
   <v>       0.01200000 </v>
   <v>       0.01200000 </v>
   <v>       0.00600000 </v>
   <v>       0.01200000 </v>
   <v>       0.00600000 </v>
   <v>       0.00200000 </v>
   <v>       0.00600000 </v>
   <v>       0.00600000 </v>
   <v>       0.00600000 </v>
   <v>       0.00600000 </v>
   <v>       0.00600000 </v>
   <v>       0.00600000 </v>
   <v>       0.00600000 </v>
   <v>       0.00600000 </v>
   <v>       0.01200000 </v>
   <v>       0.01200000 </v>
   <v>       0.01200000 </v>
   <v>       0.01200000 </v>
   <v>       0.01200000 </v>
   <v>       0.01200000 </v>
   <v>       0.00600000 </v>
   <v>       0.01200000 </v>
   <v>       0.01200000 </v>
   <v>       0.01200000 </v>
   <v>       0.01200000 </v>
   <v>       0.01200000 </v>
   <v>       0.00600000 </v>
   <v>       0.01200000 </v>
   <v>       0.01200000 </v>
   <v>       0.01200000 </v>
   <v>       0.01200000 </v>
   <v>       0.00600000 </v>
   <v>       0.01200000 </v>
   <v>       0.01200000 </v>
   <v>       0.00600000 </v>
   <v>       0.01200000 </v>
   <v>       0.00600000 </v>
   <v>       0.00200000 </v>
   <v>       0.00600000 </v>
   <v>       0.00600000 </v>
   <v>       0.00600000 </v>
   <v>       0.00600000 </v>
   <v>       0.00600000 </v>
   <v>       0.00600000 </v>
   <v>       0.01200000 </v>
   <v>       0.01200000 </v>
   <v>       0.01200000 </v>
   <v>       0.01200000 </v>
   <v>       0.00600000 </v>
   <v>       0.01200000 </v>
   <v>       0.01200000 </v>
   <v>       0.01200000 </v>
   <v>       0.00600000 </v>
   <v>       0.01200000 </v>
   <v>       0.00600000 </v>
   <v>       0.00200000 </v>
   <v>       0.00600000 </v>
   <v>       0.00600000 </v>
   <v>       0.00600000 </v>
   <v>       0.00600000 </v>
   <v>       0.01200000 </v>
   <v>       0.01200000 </v>
   <v>       0.00600000 </v>
   <v>       0.00200000 </v>
   <v>       0.00600000 </v>
  </varray>
 </kpoints>
 <parameters>
  <separator name="general" >
   <i type="string" name="SYSTEM">fcc Ni</i>
   <i type="logical" name="LCOMPAT"> F  </i>
  </separator>
  <separator name="electronic" >
   <i type="string" name="PREC">normal</i>
   <i name="ENMAX">    270.00000000</i>
   <i name="ENAUG">    544.56500000</i>
   <i name="EDIFF">      0.00010000</i>
   <i type="int" name="IALGO">    38</i>
   <i type="int" name="IWAVPR">    10</i>
   <i type="int" name="NBANDS">    12</i>
   <i name="NELECT">     10.00000000</i>
   <i type="int" name="TURBO">     0</i>
   <i type="int" name="IRESTART">     0</i>
   <i type="int" name="NREBOOT">     0</i>
   <i type="int" name="NMIN">     0</i>
   <i name="EREF">      0.00000000</i>
   <separator name="electronic smearing" >
    <i type="int" name="ISMEAR">     1</i>
    <i name="SIGMA">      0.20000000</i>
    <i name="KSPACING">      0.50000000</i>
    <i type="logical" name="KGAMMA"> T  </i>
   </separator>
   <separator name="electronic projectors" >
    <i type="logical" name="LREAL"> F  </i>
    <v name="ROPT">      0.00000000</v>
    <i type="int" name="LMAXPAW">  -100</i>
    <i type="int" name="LMAXMIX">     2</i>
    <i type="logical" name="NLSPLINE"> F  </i>
   </separator>
   <separator name="electronic startup" >
    <i type="int" name="ISTART">     0</i>
    <i type="int" name="ICHARG">     2</i>
    <i type="int" name="INIWAV">     1</i>
   </separator>
   <separator name="electronic spin" >
    <i type="int" name="ISPIN">     2</i>
    <i type="logical" name="LNONCOLLINEAR"> F  </i>
    <v name="MAGMOM">      3.00000000</v>
    <i name="NUPDOWN">     -1.00000000</i>
    <i type="logical" name="LSORBIT"> F  </i>
    <v name="SAXIS">      0.00000000      0.00000000      1.00000000</v>
    <i type="logical" name="LSPIRAL"> F  </i>
    <v name="QSPIRAL">      0.00000000      0.00000000      0.00000000</v>
    <i type="logical" name="LZEROZ"> F  </i>
   </separator>
   <separator name="electronic exchange-correlation" >
    <i type="logical" name="LASPH"> F  </i>
    <i type="logical" name="LMETAGGA"> F  </i>
   </separator>
   <separator name="electronic convergence" >
    <i type="int" name="NELM">    60</i>
    <i type="int" name="NELMDL">    -5</i>
    <i type="int" name="NELMIN">     2</i>
    <i name="ENINI">    270.00000000</i>
    <separator name="electronic convergence detail" >
     <i type="logical" name="LDIAG"> T  </i>
     <i type="logical" name="LSUBROT"> F  </i>
     <i name="WEIMIN">      0.00000000</i>
     <i name="EBREAK">      0.00000208</i>
     <i name="DEPER">      0.30000000</i>
     <i type="int" name="NRMM">     4</i>
     <i name="TIME">      0.40000000</i>
    </separator>
   </separator>
   <separator name="electronic mixer" >
    <i name="AMIX">      0.40000000</i>
    <i name="BMIX">      1.00000000</i>
    <i name="AMIN">      0.10000000</i>
    <i name="AMIX_MAG">      1.60000000</i>
    <i name="BMIX_MAG">      1.00000000</i>
    <separator name="electronic mixer details" >
     <i type="int" name="IMIX">     4</i>
     <i type="logical" name="MIXFIRST"> F  </i>
     <i type="int" name="MAXMIX">   -45</i>
     <i name="WC">    100.00000000</i>
     <i type="int" name="INIMIX">     1</i>
     <i type="int" name="MIXPRE">     1</i>
     <i type="int" name="MREMOVE">     5</i>
    </separator>
   </separator>
   <separator name="electronic dipolcorrection" >
    <i type="logical" name="LDIPOL"> F  </i>
    <i type="logical" name="LMONO"> F  </i>
    <i type="int" name="IDIPOL">     0</i>
    <i name="EPSILON">      1.00000000</i>
    <v name="DIPOL">   -100.00000000   -100.00000000   -100.00000000</v>
    <i name="EFIELD">      0.00000000</i>
   </separator>
  </separator>
  <separator name="grids" >
   <i type="int" name="NGX">    10</i>
   <i type="int" name="NGY">    10</i>
   <i type="int" name="NGZ">    10</i>
   <i type="int" name="NGXF">    20</i>
   <i type="int" name="NGYF">    20</i>
   <i type="int" name="NGZF">    20</i>
   <i type="logical" name="ADDGRID"> F  </i>
  </separator>
  <separator name="ionic" >
   <i type="int" name="NSW">     0</i>
   <i type="int" name="IBRION">    -1</i>
   <i type="int" name="MDALGO">     0</i>
   <i type="int" name="ISIF">     2</i>
   <i name="PSTRESS">      0.00000000</i>
   <i name="EDIFFG">      0.00100000</i>
   <i type="int" name="NFREE">     0</i>
   <i name="POTIM">      0.50000000</i>
   <i name="SMASS">     -3.00000000</i>
   <i name="SCALEE">      1.00000000</i>
  </separator>
  <separator name="ionic md" >
   <i name="TEBEG">      0.00010000</i>
   <i name="TEEND">      0.00010000</i>
   <i type="int" name="NBLOCK">     1</i>
   <i type="int" name="KBLOCK">     1</i>
   <i type="int" name="NPACO">   256</i>
   <i name="APACO">     16.00000000</i>
  </separator>
  <separator name="symmetry" >
   <i type="int" name="ISYM">     2</i>
   <i name="SYMPREC">      0.00001000</i>
  </separator>
  <separator name="dos" >
   <i type="int" name="LORBIT">     0</i>
   <v name="RWIGS">     -1.00000000</v>
   <i type="int" name="NEDOS">   301</i>
   <i name="EMIN">     10.00000000</i>
   <i name="EMAX">    -10.00000000</i>
   <i name="EFERMI">      0.00000000</i>
  </separator>
  <separator name="writing" >
   <i type="int" name="NWRITE">     2</i>
   <i type="logical" name="LWAVE"> T  </i>
   <i type="logical" name="LDOWNSAMPLE"> F  </i>
   <i type="logical" name="LCHARG"> T  </i>
   <i type="logical" name="LPARD"> F  </i>
   <i type="logical" name="LVTOT"> F  </i>
   <i type="logical" name="LVHAR"> F  </i>
   <i type="logical" name="LELF"> F  </i>
   <i type="logical" name="LOPTICS"> F  </i>
   <v name="STM">      0.00000000      0.00000000      0.00000000      0.00000000      0.00000000      0.00000000      0.00000000</v>
  </separator>
  <separator name="performance" >
   <i type="int" name="NPAR">     4</i>
   <i type="int" name="NSIM">     4</i>
   <i type="int" name="NBLK">    -1</i>
   <i type="logical" name="LPLANE"> T  </i>
   <i type="logical" name="LSCALAPACK"> T  </i>
   <i type="logical" name="LSCAAWARE"> F  </i>
   <i type="logical" name="LSCALU"> F  </i>
   <i type="logical" name="LASYNC"> F  </i>
   <i type="logical" name="LORBITALREAL"> F  </i>
  </separator>
  <separator name="miscellaneous" >
   <i type="int" name="IDIOT">     3</i>
   <i type="int" name="ISPECIAL">     0</i>
   <i type="logical" name="LMUSIC"> F  </i>
   <v name="POMASS">     58.69000000</v>
   <v name="DARWINR">      0.00000000</v>
   <v name="DARWINV">      1.00000000</v>
   <i type="logical" name="LCORR"> T  </i>
  </separator>
  <i type="logical" name="GGA_COMPAT"> T  </i>
  <i type="logical" name="LBERRY"> F  </i>
  <i type="int" name="ICORELEVEL">     0</i>
  <i type="logical" name="LDAU"> F  </i>
  <i type="int" name="I_CONSTRAINED_M">     0</i>
  <separator name="electronic exchange-correlation" >
   <i type="string" name="GGA">--</i>
   <i type="int" name="VOSKOWN">     0</i>
   <i type="logical" name="LHFCALC"> F  </i>
   <i type="string" name="PRECFOCK"></i>
   <i type="logical" name="LSYMGRAD"> F  </i>
   <i type="logical" name="LHFONE"> F  </i>
   <i type="logical" name="LRHFCALC"> F  </i>
   <i type="logical" name="LTHOMAS"> F  </i>
   <i type="logical" name="LMODELHF"> F  </i>
   <i name="ENCUT4O">     -1.00000000</i>
   <i type="int" name="EXXOEP">     0</i>
   <i type="int" name="FOURORBIT">     0</i>
   <i name="AEXX">      0.00000000</i>
   <i name="HFALPHA">      0.00000000</i>
   <i name="MCALPHA">      0.00000000</i>
   <i name="ALDAX">      1.00000000</i>
   <i name="AGGAX">      1.00000000</i>
   <i name="ALDAC">      1.00000000</i>
   <i name="AGGAC">      1.00000000</i>
   <i type="int" name="NKREDX">     1</i>
   <i type="int" name="NKREDY">     1</i>
   <i type="int" name="NKREDZ">     1</i>
   <i type="logical" name="SHIFTRED"> F  </i>
   <i type="logical" name="ODDONLY"> F  </i>
   <i type="logical" name="EVENONLY"> F  </i>
   <i type="int" name="LMAXFOCK">     0</i>
   <i type="int" name="NMAXFOCKAE">     0</i>
   <i type="logical" name="LFOCKAEDFT"> F  </i>
   <i name="HFSCREEN">      0.00000000</i>
   <i name="HFSCREENC">      0.00000000</i>
   <i type="int" name="NBANDSGWLOW">     0</i>
  </separator>
  <separator name="vdW DFT" >
   <i type="logical" name="LUSE_VDW"> F  </i>
   <i name="Zab_VDW">     -0.84910000</i>
   <i name="PARAM1">      0.12340000</i>
   <i name="PARAM2">      1.00000000</i>
   <i name="PARAM3">      0.00000000</i>
  </separator>
  <separator name="model GW" >
   <i type="int" name="MODEL_GW">     0</i>
   <i name="MODEL_EPS0">      5.39055000</i>
   <i name="MODEL_ALPHA">      1.00000000</i>
  </separator>
  <separator name="linear response parameters" >
   <i type="logical" name="LEPSILON"> F  </i>
   <i type="logical" name="LRPA"> F  </i>
   <i type="logical" name="LNABLA"> F  </i>
   <i type="logical" name="LVEL"> F  </i>
   <i type="int" name="KINTER">     0</i>
   <i name="CSHIFT">      0.10000000</i>
   <i name="OMEGAMAX">     -1.00000000</i>
   <i name="DEG_THRESHOLD">      0.00200000</i>
   <i name="RTIME">     -0.10000000</i>
   <i name="WPLASMAI">      0.00000000</i>
   <v name="DFIELD">      0.00000000      0.00000000      0.00000000</v>
   <v name="WPLASMA">      0.00000000      0.00000000      0.00000000      0.00000000      0.00000000      0.00000000      0.00000000      0.00000000      0.00000000</v>
  </separator>
  <separator name="orbital magnetization" >
   <i type="logical" name="NUCIND"> F  </i>
   <v name="MAGPOS">      0.00000000      0.00000000      0.00000000</v>
   <i type="logical" name="LNICSALL"> T  </i>
   <i type="logical" name="ORBITALMAG"> F  </i>
   <i type="logical" name="LMAGBLOCH"> F  </i>
   <i type="logical" name="LCHIMAG"> F  </i>
   <i type="logical" name="LGAUGE"> T  </i>
   <i type="int" name="MAGATOM">     0</i>
   <v name="MAGDIPOL">      0.00000000      0.00000000      0.00000000</v>
   <v name="AVECCONST">      0.00000000      0.00000000      0.00000000</v>
  </separator>
  <separator name="response functions" >
   <i type="logical" name="LADDER"> F  </i>
   <i type="logical" name="LRPAFORCE"> F  </i>
   <i type="logical" name="LFXC"> F  </i>
   <i type="logical" name="LHARTREE"> T  </i>
   <i type="int" name="IBSE">     0</i>
   <v type="int" name="KPOINT">    -1     0     0     0</v>
   <i type="logical" name="LTCTE"> F  </i>
   <i type="logical" name="LTETE"> F  </i>
   <i type="logical" name="LTRIPLET"> F  </i>
   <i type="logical" name="LFXCEPS"> F  </i>
   <i type="logical" name="LFXHEG"> F  </i>
   <i type="int" name="NATURALO">     2</i>
   <i type="logical" name="L2ORDER"> F  </i>
   <i type="logical" name="LMP2LT"> F  </i>
   <i type="logical" name="LUSEW"> F  </i>
   <i name="ENCUTGW">     -2.00000000</i>
   <i name="ENCUTGWSOFT">     -2.00000000</i>
   <i name="ENCUTLF">     -1.00000000</i>
   <i type="int" name="LMAXMP2">    -1</i>
   <i name="SCISSOR">      0.00000000</i>
   <i type="int" name="NOMEGA">     0</i>
   <i type="int" name="NOMEGAR">     0</i>
   <i type="int" name="NBANDSGW">    -1</i>
   <i type="int" name="NBANDSO">    -1</i>
   <i type="int" name="NBANDSV">    -1</i>
   <i type="int" name="NELM">     1</i>
   <i type="int" name="NELMHF">     1</i>
   <i type="int" name="DIM">     3</i>
   <i type="int" name="ANTIRES">     0</i>
   <i name="OMEGAMAX">    -30.00000000</i>
   <i name="OMEGAMIN">    -30.00000000</i>
   <i name="OMEGATL">   -200.00000000</i>
   <i type="int" name="OMEGAGRID">   140</i>
   <i name="CSHIFT">     -0.10000000</i>
   <i type="logical" name="SELFENERGY"> F  </i>
   <i type="logical" name="LSPECTRAL"> F  </i>
   <i type="logical" name="LSPECTRALGW"> F  </i>
   <i type="logical" name="LSINGLES"> F  </i>
   <i type="logical" name="LFERMIGW"> F  </i>
   <i type="logical" name="ODDONLYGW"> F  </i>
   <i type="logical" name="EVENONLYGW"> F  </i>
   <i type="int" name="NKREDLFX">     1</i>
   <i type="int" name="NKREDLFY">     1</i>
   <i type="int" name="NKREDLFZ">     1</i>
   <i type="int" name="MAXMEM">  2800</i>
   <i type="int" name="TELESCOPE">     0</i>
   <i type="int" name="TAUPAR">     1</i>
   <i type="int" name="OMEGAPAR">    -1</i>
   <i name="LAMBDA">      1.00000000</i>
  </separator>
  <separator name="External order field" >
   <i name="OFIELD_KAPPA">      0.00000000</i>
   <v name="OFIELD_K">      0.00000000      0.00000000      0.00000000</v>
   <i name="OFIELD_Q6_NEAR">      0.00000000</i>
   <i name="OFIELD_Q6_FAR">      0.00000000</i>
   <i name="OFIELD_A">      0.00000000</i>
  </separator>
 </parameters>
 <atominfo>
  <atoms>       1 </atoms>
  <types>       1 </types>
  <array name="atoms" >
   <dimension dim="1">ion</dimension>
   <field type="string">element</field>
   <field type="int">atomtype</field>
   <set>
    <rc><c>Ni</c><c>   1</c></rc>
   </set>
  </array>
  <array name="atomtypes" >
   <dimension dim="1">type</dimension>
   <field type="int">atomspertype</field>
   <field type="string">element</field>
   <field>mass</field>
   <field>valence</field>
   <field type="string">pseudopotential</field>
   <set>
    <rc><c>   1</c><c>Ni</c><c>     58.69000000</c><c>     10.00000000</c><c>  PAW_PBE Ni 02Aug2007                  </c></rc>
   </set>
  </array>
 </atominfo>
 <structure name="initialpos" >
  <crystal>
   <varray name="basis" >
    <v>       0.00000000       1.65000000       1.65000000 </v>
    <v>       1.65000000       0.00000000       1.65000000 </v>
    <v>       1.65000000       1.65000000       0.00000000 </v>
   </varray>
   <i name="volume">      8.98425000 </i>
   <varray name="rec_basis" >
    <v>      -0.30303030       0.30303030       0.30303030 </v>
    <v>       0.30303030      -0.30303030       0.30303030 </v>
    <v>       0.30303030       0.30303030      -0.30303030 </v>
   </varray>
  </crystal>
  <varray name="positions" >
   <v>       0.00000000       0.00000000       0.00000000 </v>
  </varray>
 </structure>
 <calculation>
  <scstep>
   <time name="dav">    0.32    0.32</time>
   <time name="total">    0.32    0.34</time>
   <energy>
    <i name="alphaZ">     56.76534046 </i>
    <i name="ewald">  -1000.31875829 </i>
    <i name="hartreedc">   -216.73959597 </i>
    <i name="XCdc">     33.39243421 </i>
    <i name="pawpsdc">    961.92645289 </i>
    <i name="pawaedc">  -1028.66799202 </i>
    <i name="eentropy">      0.00060163 </i>
    <i name="bandstr">    134.46874631 </i>
    <i name="atom">   1077.63607467 </i>
    <i name="e_fr_energy">     18.46330387 </i>
    <i name="e_wo_entrp">     18.46270224 </i>
    <i name="e_0_energy">     18.46310333 </i>
   </energy>
  </scstep>
  <scstep>
   <time name="dav">    0.31    0.32</time>
   <time name="total">    0.31    0.32</time>
   <energy>
    <i name="e_fr_energy">     -4.99619722 </i>
    <i name="e_wo_entrp">     -4.99497191 </i>
    <i name="e_0_energy">     -4.99578878 </i>
   </energy>
  </scstep>
  <scstep>
   <time name="dav">    0.31    0.32</time>
   <time name="total">    0.32    0.32</time>
   <energy>
    <i name="e_fr_energy">     -5.38330103 </i>
    <i name="e_wo_entrp">     -5.38197335 </i>
    <i name="e_0_energy">     -5.38285847 </i>
   </energy>
  </scstep>
  <scstep>
   <time name="dav">    0.32    0.32</time>
   <time name="total">    0.32    0.32</time>
   <energy>
    <i name="e_fr_energy">     -5.38505939 </i>
    <i name="e_wo_entrp">     -5.38373995 </i>
    <i name="e_0_energy">     -5.38461957 </i>
   </energy>
  </scstep>
  <scstep>
   <time name="dav">    0.31    0.31</time>
   <time name="total">    0.31    0.32</time>
   <energy>
    <i name="e_fr_energy">     -5.38507786 </i>
    <i name="e_wo_entrp">     -5.38375850 </i>
    <i name="e_0_energy">     -5.38463808 </i>
   </energy>
  </scstep>
  <scstep>
   <time name="dav">    0.35    0.35</time>
   <time name="total">    0.36    0.37</time>
   <energy>
    <i name="e_fr_energy">     -5.35627878 </i>
    <i name="e_wo_entrp">     -5.35194443 </i>
    <i name="e_0_energy">     -5.35483400 </i>
   </energy>
  </scstep>
  <scstep>
   <time name="dav">    0.34    0.35</time>
   <time name="total">    0.36    0.36</time>
   <energy>
    <i name="e_fr_energy">     -5.19564596 </i>
    <i name="e_wo_entrp">     -5.19402375 </i>
    <i name="e_0_energy">     -5.19510523 </i>
   </energy>
  </scstep>
  <scstep>
   <time name="dav">    0.34    0.34</time>
   <time name="total">    0.35    0.36</time>
   <energy>
    <i name="e_fr_energy">     -5.17702380 </i>
    <i name="e_wo_entrp">     -5.17551091 </i>
    <i name="e_0_energy">     -5.17651950 </i>
   </energy>
  </scstep>
  <scstep>
   <time name="dav">    0.36    0.37</time>
   <time name="total">    0.37    0.38</time>
   <energy>
    <i name="e_fr_energy">     -5.17331769 </i>
    <i name="e_wo_entrp">     -5.17118216 </i>
    <i name="e_0_energy">     -5.17260584 </i>
   </energy>
  </scstep>
  <scstep>
   <time name="dav">    0.26    0.26</time>
   <time name="total">    0.27    0.27</time>
   <energy>
    <i name="alphaZ">     56.76534046 </i>
    <i name="ewald">  -1000.31875829 </i>
    <i name="hartreedc">   -195.42838521 </i>
    <i name="XCdc">     31.28170470 </i>
    <i name="pawpsdc">   1270.02217954 </i>
    <i name="pawaedc">  -1340.05575839 </i>
    <i name="eentropy">     -0.00198225 </i>
    <i name="bandstr">     94.92629689 </i>
    <i name="atom">   1077.63607467 </i>
    <i name="e_fr_energy">     -5.17328787 </i>
    <i name="e_wo_entrp">     -5.17130563 </i>
    <i name="e_0_energy">     -5.17262712 </i>
   </energy>
  </scstep>
  <structure>
   <crystal>
    <varray name="basis" >
     <v>       0.00000000       1.65000000       1.65000000 </v>
     <v>       1.65000000       0.00000000       1.65000000 </v>
     <v>       1.65000000       1.65000000       0.00000000 </v>
    </varray>
    <i name="volume">      8.98425000 </i>
    <varray name="rec_basis" >
     <v>      -0.30303030       0.30303030       0.30303030 </v>
     <v>       0.30303030      -0.30303030       0.30303030 </v>
     <v>       0.30303030       0.30303030      -0.30303030 </v>
    </varray>
   </crystal>
   <varray name="positions" >
    <v>       0.00000000       0.00000000       0.00000000 </v>
   </varray>
  </structure>
  <varray name="forces" >
   <v>       0.00000000       0.00000000       0.00000000 </v>
  </varray>
  <varray name="stress" >
   <v>     553.03747097      -0.00000000       0.00000000 </v>
   <v>       0.00000000     553.03747097       0.00000000 </v>
   <v>       0.00000000       0.00000000     553.03747097 </v>
  </varray>
  <energy>
   <i name="e_fr_energy">     -5.17328787 </i>
   <i name="e_wo_entrp">     -5.17262712 </i>
   <i name="e_0_energy">     -0.00198225 </i>
  </energy>
  <time name="totalsc">    3.45    3.53</time>
  <eigenvalues>
   <array>
    <dimension dim="1">band</dimension>
    <dimension dim="2">kpoint</dimension>
    <dimension dim="3">spin</dimension>
    <field>eigene</field>
    <field>occ</field>
    <set>
     <set comment="spin 1">
      <set comment="kpoint 1">
       <r>    2.0675    1.0000 </r>
       <r>    9.3791    1.0000 </r>
       <r>    9.4414    1.0000 </r>
       <r>    9.4414    1.0000 </r>
       <r>   10.9194    1.0000 </r>
       <r>   10.9194    1.0000 </r>
       <r>   37.5725    0.0000 </r>
       <r>   41.6896    0.0000 </r>
       <r>   42.9714    0.0000 </r>
       <r>   42.9714    0.0000 </r>
       <r>   47.5092    0.0000 </r>
       <r>   47.5094    0.0000 </r>
      </set>
      <set comment="kpoint 2">
       <r>    2.6586    1.0000 </r>
       <r>    9.1939    1.0000 </r>
       <r>    9.5752    1.0000 </r>
       <r>    9.5935    1.0000 </r>
       <r>   10.7773    1.0000 </r>
       <r>   10.9546    1.0000 </r>
       <r>   35.9987    0.0000 </r>
       <r>   38.6222    0.0000 </r>
       <r>   41.5930    0.0000 </r>
       <r>   43.7701    0.0000 </r>
       <r>   46.5504    0.0000 </r>
       <r>   47.6280    0.0000 </r>
      </set>
      <set comment="kpoint 3">
       <r>    4.0118    1.0000 </r>
       <r>    8.9386    1.0000 </r>
       <r>    9.7059    1.0000 </r>
       <r>    9.7468    1.0000 </r>
       <r>   10.7576    1.0000 </r>
       <r>   11.1123    1.0000 </r>
       <r>   30.8289    0.0000 </r>
       <r>   37.3351    0.0000 </r>
       <r>   40.9169    0.0000 </r>
       <r>   43.4914    0.0000 </r>
       <r>   46.0907    0.0000 </r>
       <r>   46.8760    0.0000 </r>
      </set>
      <set comment="kpoint 4">
       <r>    5.5927    1.0000 </r>
       <r>    9.1474    1.0000 </r>
       <r>    9.5842    1.0000 </r>
       <r>    9.6475    1.0000 </r>
       <r>   11.1450    1.0000 </r>
       <r>   11.5617    1.0000 </r>
       <r>   25.5715    0.0000 </r>
       <r>   36.4824    0.0000 </r>
       <r>   39.8318    0.0000 </r>
       <r>   42.9356    0.0000 </r>
       <r>   44.3047    0.0000 </r>
       <r>   46.2402    0.0000 </r>
      </set>
      <set comment="kpoint 5">
       <r>    6.3501    1.0000 </r>
       <r>    9.3997    1.0000 </r>
       <r>    9.4842    1.0000 </r>
       <r>   10.4175    1.0000 </r>
       <r>   11.6256    1.0000 </r>
       <r>   12.1941    1.0114 </r>
       <r>   21.2382    0.0000 </r>
       <r>   35.8831    0.0000 </r>
       <r>   39.2541    0.0000 </r>
       <r>   41.0878    0.0000 </r>
       <r>   43.9950    0.0000 </r>
       <r>   45.4324    0.0000 </r>
      </set>
      <set comment="kpoint 6">
       <r>    6.4453    1.0000 </r>
       <r>    9.3326    1.0000 </r>
       <r>    9.4426    1.0000 </r>
       <r>   10.9598    1.0000 </r>
       <r>   11.8480    1.0006 </r>
       <r>   12.6427   -0.0336 </r>
       <r>   19.6668    0.0000 </r>
       <r>   35.7910    0.0000 </r>
       <r>   39.6141    0.0000 </r>
       <r>   39.7012    0.0000 </r>
       <r>   44.6931    0.0000 </r>
       <r>   44.6947    0.0000 </r>
      </set>
      <set comment="kpoint 7">
       <r>    6.2099    1.0000 </r>
       <r>    9.4322    1.0000 </r>
       <r>    9.5479    1.0000 </r>
       <r>    9.9090    1.0000 </r>
       <r>   11.6944    1.0000 </r>
       <r>   11.7721    1.0001 </r>
       <r>   22.5117    0.0000 </r>
       <r>   36.3138    0.0000 </r>
       <r>   39.0592    0.0000 </r>
       <r>   41.1572    0.0000 </r>
       <r>   44.3905    0.0000 </r>
       <r>   46.0089    0.0000 </r>
      </set>
      <set comment="kpoint 8">
       <r>    5.1056    1.0000 </r>
       <r>    8.9585    1.0000 </r>
       <r>    9.6383    1.0000 </r>
       <r>    9.7116    1.0000 </r>
       <r>   11.0774    1.0000 </r>
       <r>   11.3076    1.0000 </r>
       <r>   27.2639    0.0000 </r>
       <r>   37.2926    0.0000 </r>
       <r>   39.3262    0.0000 </r>
       <r>   43.1814    0.0000 </r>
       <r>   44.5630    0.0000 </r>
       <r>   47.9838    0.0000 </r>
      </set>
      <set comment="kpoint 9">
       <r>    3.4949    1.0000 </r>
       <r>    8.9971    1.0000 </r>
       <r>    9.7045    1.0000 </r>
       <r>    9.7195    1.0000 </r>
       <r>   10.7309    1.0000 </r>
       <r>   11.0169    1.0000 </r>
       <r>   32.6669    0.0000 </r>
       <r>   38.3052    0.0000 </r>
       <r>   40.1567    0.0000 </r>
       <r>   43.7760    0.0000 </r>
       <r>   45.6313    0.0000 </r>
       <r>   49.5312    0.0000 </r>
      </set>
      <set comment="kpoint 10">
       <r>    2.3662    1.0000 </r>
       <r>    9.2615    1.0000 </r>
       <r>    9.5276    1.0000 </r>
       <r>    9.5345    1.0000 </r>
       <r>   10.8028    1.0000 </r>
       <r>   10.9675    1.0000 </r>
       <r>   37.0743    0.0000 </r>
       <r>   40.0871    0.0000 </r>
       <r>   41.4535    0.0000 </r>
       <r>   42.7712    0.0000 </r>
       <r>   47.4460    0.0000 </r>
       <r>   48.8268    0.0000 </r>
      </set>
      <set comment="kpoint 11">
       <r>    2.9469    1.0000 </r>
       <r>    9.0309    1.0000 </r>
       <r>    9.7079    1.0000 </r>
       <r>    9.7126    1.0000 </r>
       <r>   10.6017    1.0000 </r>
       <r>   11.0571    1.0000 </r>
       <r>   36.2149    0.0000 </r>
       <r>   38.5314    0.0000 </r>
       <r>   39.4430    0.0000 </r>
       <r>   41.2031    0.0000 </r>
       <r>   48.5090    0.0000 </r>
       <r>   50.0853    0.0000 </r>
      </set>
      <set comment="kpoint 12">
       <r>    4.0295    1.0000 </r>
       <r>    8.7265    1.0000 </r>
       <r>    9.7994    1.0000 </r>
       <r>    9.9704    1.0000 </r>
       <r>   10.5303    1.0000 </r>
       <r>   11.2289    1.0000 </r>
       <r>   33.0668    0.0000 </r>
       <r>   35.4323    0.0000 </r>
       <r>   39.3414    0.0000 </r>
       <r>   40.9162    0.0000 </r>
       <r>   47.0756    0.0000 </r>
       <r>   49.1838    0.0000 </r>
      </set>
      <set comment="kpoint 13">
       <r>    5.5682    1.0000 </r>
       <r>    8.5914    1.0000 </r>
       <r>    9.5113    1.0000 </r>
       <r>    9.9986    1.0000 </r>
       <r>   11.0740    1.0000 </r>
       <r>   11.7046    1.0000 </r>
       <r>   27.6586    0.0000 </r>
       <r>   34.5182    0.0000 </r>
       <r>   37.7569    0.0000 </r>
       <r>   40.8710    0.0000 </r>
       <r>   47.7011    0.0000 </r>
       <r>   47.9749    0.0000 </r>
      </set>
      <set comment="kpoint 14">
       <r>    6.6109    1.0000 </r>
       <r>    9.0035    1.0000 </r>
       <r>    9.3568    1.0000 </r>
       <r>    9.8455    1.0000 </r>
       <r>   11.6689    1.0000 </r>
       <r>   12.7909   -0.0060 </r>
       <r>   22.8286    0.0000 </r>
       <r>   34.0437    0.0000 </r>
       <r>   36.3120    0.0000 </r>
       <r>   39.7536    0.0000 </r>
       <r>   46.6922    0.0000 </r>
       <r>   49.2169    0.0000 </r>
      </set>
      <set comment="kpoint 15">
       <r>    6.8251    1.0000 </r>
       <r>    8.9861    1.0000 </r>
       <r>    9.7237    1.0000 </r>
       <r>    9.9394    1.0000 </r>
       <r>   11.8089    1.0002 </r>
       <r>   14.2905   -0.0000 </r>
       <r>   19.7666    0.0000 </r>
       <r>   33.5310    0.0000 </r>
       <r>   36.0124    0.0000 </r>
       <r>   39.3444    0.0000 </r>
       <r>   46.0639    0.0000 </r>
       <r>   48.8532    0.0000 </r>
      </set>
      <set comment="kpoint 16">
       <r>    6.7553    1.0000 </r>
       <r>    9.0880    1.0000 </r>
       <r>    9.5840    1.0000 </r>
       <r>    9.7781    1.0000 </r>
       <r>   11.5473    1.0000 </r>
       <r>   13.4632   -0.0000 </r>
       <r>   21.5056    0.0000 </r>
       <r>   33.0055    0.0000 </r>
       <r>   37.0041    0.0000 </r>
       <r>   40.2246    0.0000 </r>
       <r>   45.6485    0.0000 </r>
       <r>   48.4831    0.0000 </r>
      </set>
      <set comment="kpoint 17">
       <r>    6.0556    1.0000 </r>
       <r>    8.7662    1.0000 </r>
       <r>    9.3911    1.0000 </r>
       <r>    9.9279    1.0000 </r>
       <r>   10.9833    1.0000 </r>
       <r>   12.2040    1.0019 </r>
       <r>   25.9683    0.0000 </r>
       <r>   33.0086    0.0000 </r>
       <r>   38.7583    0.0000 </r>
       <r>   42.1651    0.0000 </r>
       <r>   45.4197    0.0000 </r>
       <r>   47.7374    0.0000 </r>
      </set>
      <set comment="kpoint 18">
       <r>    4.5300    1.0000 </r>
       <r>    8.7180    1.0000 </r>
       <r>    9.6799    1.0000 </r>
       <r>   10.0074    1.0000 </r>
       <r>   10.5217    1.0000 </r>
       <r>   11.4456    1.0000 </r>
       <r>   31.2370    0.0000 </r>
       <r>   33.6607    0.0000 </r>
       <r>   41.0031    0.0000 </r>
       <r>   42.6366    0.0000 </r>
       <r>   46.2762    0.0000 </r>
       <r>   47.6701    0.0000 </r>
      </set>
      <set comment="kpoint 19">
       <r>    3.2267    1.0000 </r>
       <r>    9.0053    1.0000 </r>
       <r>    9.7091    1.0000 </r>
       <r>    9.7293    1.0000 </r>
       <r>   10.6328    1.0000 </r>
       <r>   11.0572    1.0000 </r>
       <r>   34.5639    0.0000 </r>
       <r>   37.0178    0.0000 </r>
       <r>   40.8128    0.0000 </r>
       <r>   43.0306    0.0000 </r>
       <r>   46.7151    0.0000 </r>
       <r>   48.6433    0.0000 </r>
      </set>
      <set comment="kpoint 20">
       <r>    4.7445    1.0000 </r>
       <r>    8.3631    1.0000 </r>
       <r>    9.9870    1.0000 </r>
       <r>   10.3033    1.0000 </r>
       <r>   10.5089    1.0000 </r>
       <r>   11.3364    1.0000 </r>
       <r>   33.5960    0.0000 </r>
       <r>   35.3796    0.0000 </r>
       <r>   35.8936    0.0000 </r>
       <r>   37.4100    0.0000 </r>
       <r>   43.9532    0.0000 </r>
       <r>   53.3523    0.0000 </r>
      </set>
      <set comment="kpoint 21">
       <r>    5.9025    1.0000 </r>
       <r>    8.0631    1.0000 </r>
       <r>    9.6949    1.0000 </r>
       <r>   10.6260    1.0000 </r>
       <r>   11.1184    1.0000 </r>
       <r>   11.7288    1.0000 </r>
       <r>   30.2171    0.0000 </r>
       <r>   32.3480    0.0000 </r>
       <r>   34.4116    0.0000 </r>
       <r>   38.1460    0.0000 </r>
       <r>   43.6582    0.0000 </r>
       <r>   52.9373    0.0000 </r>
      </set>
      <set comment="kpoint 22">
       <r>    6.9213    1.0000 </r>
       <r>    8.0573    1.0000 </r>
       <r>    9.3650    1.0000 </r>
       <r>   10.5266    1.0000 </r>
       <r>   11.7469    1.0000 </r>
       <r>   13.2238   -0.0000 </r>
       <r>   25.1385    0.0000 </r>
       <r>   31.2858    0.0000 </r>
       <r>   32.6854    0.0000 </r>
       <r>   38.4236    0.0000 </r>
       <r>   46.9024    0.0000 </r>
       <r>   51.5484    0.0000 </r>
      </set>
      <set comment="kpoint 23">
       <r>    7.3564    1.0000 </r>
       <r>    8.2581    1.0000 </r>
       <r>    9.3100    1.0000 </r>
       <r>   10.3495    1.0000 </r>
       <r>   11.8303    1.0004 </r>
       <r>   15.7593   -0.0000 </r>
       <r>   20.9133    0.0000 </r>
       <r>   29.6340    0.0000 </r>
       <r>   32.9843    0.0000 </r>
       <r>   38.4707    0.0000 </r>
       <r>   49.2639    0.0000 </r>
       <r>   52.7136    0.0000 </r>
      </set>
      <set comment="kpoint 24">
       <r>    7.5265    1.0000 </r>
       <r>    8.4388    1.0000 </r>
       <r>    9.1433    1.0000 </r>
       <r>   10.2656    1.0000 </r>
       <r>   11.5058    1.0000 </r>
       <r>   15.9435   -0.0000 </r>
       <r>   20.9348    0.0000 </r>
       <r>   28.4150    0.0000 </r>
       <r>   34.4368    0.0000 </r>
       <r>   39.1749    0.0000 </r>
       <r>   48.2728    0.0000 </r>
       <r>   52.4259    0.0000 </r>
      </set>
      <set comment="kpoint 25">
       <r>    7.2534    1.0000 </r>
       <r>    8.5525    1.0000 </r>
       <r>    8.8725    1.0000 </r>
       <r>   10.3406    1.0000 </r>
       <r>   10.9242    1.0000 </r>
       <r>   13.7936   -0.0000 </r>
       <r>   25.1461    0.0000 </r>
       <r>   28.0176    0.0000 </r>
       <r>   36.5259    0.0000 </r>
       <r>   40.9123    0.0000 </r>
       <r>   46.5800    0.0000 </r>
       <r>   51.2004    0.0000 </r>
      </set>
      <set comment="kpoint 26">
       <r>    6.0215    1.0000 </r>
       <r>    8.5293    1.0000 </r>
       <r>    9.3564    1.0000 </r>
       <r>   10.2346    1.0000 </r>
       <r>   10.5987    1.0000 </r>
       <r>   12.3116    0.7510 </r>
       <r>   28.0431    0.0000 </r>
       <r>   30.5850    0.0000 </r>
       <r>   38.9232    0.0000 </r>
       <r>   43.1285    0.0000 </r>
       <r>   44.5952    0.0000 </r>
       <r>   49.2088    0.0000 </r>
      </set>
      <set comment="kpoint 27">
       <r>    4.7318    1.0000 </r>
       <r>    8.7996    1.0000 </r>
       <r>    9.6695    1.0000 </r>
       <r>    9.8377    1.0000 </r>
       <r>   10.7949    1.0000 </r>
       <r>   11.3701    1.0000 </r>
       <r>   29.1650    0.0000 </r>
       <r>   35.9289    0.0000 </r>
       <r>   39.7615    0.0000 </r>
       <r>   43.4131    0.0000 </r>
       <r>   45.3387    0.0000 </r>
       <r>   47.4763    0.0000 </r>
      </set>
      <set comment="kpoint 28">
       <r>    6.3147    1.0000 </r>
       <r>    7.6666    1.0000 </r>
       <r>   10.4931    1.0000 </r>
       <r>   11.0761    1.0000 </r>
       <r>   11.5306    1.0000 </r>
       <r>   11.6550    1.0000 </r>
       <r>   30.3586    0.0000 </r>
       <r>   31.2143    0.0000 </r>
       <r>   31.9588    0.0000 </r>
       <r>   35.9587    0.0000 </r>
       <r>   41.1309    0.0000 </r>
       <r>   58.1513    0.0000 </r>
      </set>
      <set comment="kpoint 29">
       <r>    6.7082    1.0000 </r>
       <r>    7.4914    1.0000 </r>
       <r>   10.4305    1.0000 </r>
       <r>   11.3573    1.0000 </r>
       <r>   11.7597    1.0001 </r>
       <r>   13.3571   -0.0000 </r>
       <r>   27.5956    0.0000 </r>
       <r>   28.4870    0.0000 </r>
       <r>   30.2619    0.0000 </r>
       <r>   37.0939    0.0000 </r>
       <r>   42.1003    0.0000 </r>
       <r>   56.4270    0.0000 </r>
      </set>
      <set comment="kpoint 30">
       <r>    7.1164    1.0000 </r>
       <r>    7.6158    1.0000 </r>
       <r>    9.9497    1.0000 </r>
       <r>   11.1159    1.0000 </r>
       <r>   11.8939    1.0018 </r>
       <r>   16.3038   -0.0000 </r>
       <r>   23.3697    0.0000 </r>
       <r>   26.1453    0.0000 </r>
       <r>   30.5538    0.0000 </r>
       <r>   37.6759    0.0000 </r>
       <r>   46.1788    0.0000 </r>
       <r>   54.2940    0.0000 </r>
      </set>
      <set comment="kpoint 31">
       <r>    7.6137    1.0000 </r>
       <r>    7.9034    1.0000 </r>
       <r>    9.3291    1.0000 </r>
       <r>   10.8547    1.0000 </r>
       <r>   11.6249    1.0000 </r>
       <r>   18.9922    0.0000 </r>
       <r>   20.2431    0.0000 </r>
       <r>   24.9462    0.0000 </r>
       <r>   31.9963    0.0000 </r>
       <r>   38.1726    0.0000 </r>
       <r>   51.5383    0.0000 </r>
       <r>   52.2936    0.0000 </r>
      </set>
      <set comment="kpoint 32">
       <r>    7.8383    1.0000 </r>
       <r>    8.2998    1.0000 </r>
       <r>    8.8205    1.0000 </r>
       <r>   10.5214    1.0000 </r>
       <r>   11.2953    1.0000 </r>
       <r>   16.0982   -0.0000 </r>
       <r>   22.5069    0.0000 </r>
       <r>   26.1243    0.0000 </r>
       <r>   34.1883    0.0000 </r>
       <r>   39.1958    0.0000 </r>
       <r>   49.1512    0.0000 </r>
       <r>   53.5526    0.0000 </r>
      </set>
      <set comment="kpoint 33">
       <r>    7.0189    1.0000 </r>
       <r>    8.8789    1.0000 </r>
       <r>    9.0429    1.0000 </r>
       <r>   10.0458    1.0000 </r>
       <r>   11.2391    1.0000 </r>
       <r>   13.6936   -0.0000 </r>
       <r>   23.1906    0.0000 </r>
       <r>   30.4431    0.0000 </r>
       <r>   36.6656    0.0000 </r>
       <r>   40.6328    0.0000 </r>
       <r>   46.1980    0.0000 </r>
       <r>   49.9261    0.0000 </r>
      </set>
      <set comment="kpoint 34">
       <r>    6.1172    1.0000 </r>
       <r>    9.2356    1.0000 </r>
       <r>    9.4349    1.0000 </r>
       <r>    9.6954    1.0000 </r>
       <r>   11.3639    1.0000 </r>
       <r>   11.9948    1.0110 </r>
       <r>   24.0980    0.0000 </r>
       <r>   35.3071    0.0000 </r>
       <r>   38.5401    0.0000 </r>
       <r>   41.4758    0.0000 </r>
       <r>   45.1689    0.0000 </r>
       <r>   47.1037    0.0000 </r>
      </set>
      <set comment="kpoint 35">
       <r>    6.5122    1.0000 </r>
       <r>    7.1936    1.0000 </r>
       <r>   11.5915    1.0000 </r>
       <r>   11.7056    1.0000 </r>
       <r>   11.9227    1.0032 </r>
       <r>   13.9185   -0.0000 </r>
       <r>   25.3636    0.0000 </r>
       <r>   28.9039    0.0000 </r>
       <r>   29.7602    0.0000 </r>
       <r>   35.4715    0.0000 </r>
       <r>   40.2227    0.0000 </r>
       <r>   60.5307    0.0000 </r>
      </set>
      <set comment="kpoint 36">
       <r>    6.6344    1.0000 </r>
       <r>    7.2098    1.0000 </r>
       <r>   11.1588    1.0000 </r>
       <r>   11.6844    1.0000 </r>
       <r>   12.0079    1.0133 </r>
       <r>   15.9505   -0.0000 </r>
       <r>   23.7463    0.0000 </r>
       <r>   26.9470    0.0000 </r>
       <r>   28.9441    0.0000 </r>
       <r>   36.6987    0.0000 </r>
       <r>   41.6232    0.0000 </r>
       <r>   58.5947    0.0000 </r>
      </set>
      <set comment="kpoint 37">
       <r>    7.0656    1.0000 </r>
       <r>    7.5304    1.0000 </r>
       <r>   10.1550    1.0000 </r>
       <r>   11.2906    1.0000 </r>
       <r>   11.8727    1.0011 </r>
       <r>   17.7576   -0.0000 </r>
       <r>   22.7129    0.0000 </r>
       <r>   24.4965    0.0000 </r>
       <r>   30.1648    0.0000 </r>
       <r>   37.5748    0.0000 </r>
       <r>   46.0600    0.0000 </r>
       <r>   55.2319    0.0000 </r>
      </set>
      <set comment="kpoint 38">
       <r>    7.5553    1.0000 </r>
       <r>    8.0020    1.0000 </r>
       <r>    9.3154    1.0000 </r>
       <r>   10.6369    1.0000 </r>
       <r>   11.7426    1.0000 </r>
       <r>   17.5813   -0.0000 </r>
       <r>   20.3460    0.0000 </r>
       <r>   26.9871    0.0000 </r>
       <r>   32.3204    0.0000 </r>
       <r>   38.2624    0.0000 </r>
       <r>   50.5167    0.0000 </r>
       <r>   52.5363    0.0000 </r>
      </set>
      <set comment="kpoint 39">
       <r>    7.1587    1.0000 </r>
       <r>    8.6911    1.0000 </r>
       <r>    9.5370    1.0000 </r>
       <r>    9.9726    1.0000 </r>
       <r>   11.7061    1.0000 </r>
       <r>   15.3759   -0.0000 </r>
       <r>   19.8919    0.0000 </r>
       <r>   31.0793    0.0000 </r>
       <r>   34.9656    0.0000 </r>
       <r>   39.1930    0.0000 </r>
       <r>   47.1386    0.0000 </r>
       <r>   50.7978    0.0000 </r>
      </set>
      <set comment="kpoint 40">
       <r>    6.5529    1.0000 </r>
       <r>    9.2409    1.0000 </r>
       <r>    9.5544    1.0000 </r>
       <r>   10.3091    1.0000 </r>
       <r>   11.7719    1.0001 </r>
       <r>   13.0744   -0.0000 </r>
       <r>   20.2939    0.0000 </r>
       <r>   35.0336    0.0000 </r>
       <r>   37.9234    0.0000 </r>
       <r>   39.8618    0.0000 </r>
       <r>   45.0788    0.0000 </r>
       <r>   46.6947    0.0000 </r>
      </set>
      <set comment="kpoint 41">
       <r>    6.4688    1.0000 </r>
       <r>    7.0917    1.0000 </r>
       <r>   11.8094    1.0002 </r>
       <r>   11.8260    1.0004 </r>
       <r>   12.0181    1.0152 </r>
       <r>   15.0767   -0.0000 </r>
       <r>   23.7130    0.0000 </r>
       <r>   28.4506    0.0000 </r>
       <r>   29.2850    0.0000 </r>
       <r>   35.3867    0.0000 </r>
       <r>   40.1002    0.0000 </r>
       <r>   60.7990    0.0000 </r>
      </set>
      <set comment="kpoint 42">
       <r>    6.6851    1.0000 </r>
       <r>    7.3059    1.0000 </r>
       <r>   10.8893    1.0000 </r>
       <r>   11.6011    1.0000 </r>
       <r>   11.9059    1.0023 </r>
       <r>   14.7628   -0.0000 </r>
       <r>   25.4310    0.0000 </r>
       <r>   27.3875    0.0000 </r>
       <r>   29.3847    0.0000 </r>
       <r>   36.8266    0.0000 </r>
       <r>   41.7636    0.0000 </r>
       <r>   57.7583    0.0000 </r>
      </set>
      <set comment="kpoint 43">
       <r>    7.1261    1.0000 </r>
       <r>    7.7969    1.0000 </r>
       <r>    9.6265    1.0000 </r>
       <r>   10.8393    1.0000 </r>
       <r>   11.8683    1.0010 </r>
       <r>   14.6370   -0.0000 </r>
       <r>   24.1547    0.0000 </r>
       <r>   28.6798    0.0000 </r>
       <r>   31.3392    0.0000 </r>
       <r>   37.9348    0.0000 </r>
       <r>   46.4551    0.0000 </r>
       <r>   53.0073    0.0000 </r>
      </set>
      <set comment="kpoint 44">
       <r>    7.0324    1.0000 </r>
       <r>    8.6191    1.0000 </r>
       <r>    9.3267    1.0000 </r>
       <r>   10.0716    1.0000 </r>
       <r>   11.8203    1.0003 </r>
       <r>   14.0950   -0.0000 </r>
       <r>   21.7589    0.0000 </r>
       <r>   32.2501    0.0000 </r>
       <r>   34.1595    0.0000 </r>
       <r>   38.8909    0.0000 </r>
       <r>   47.9813    0.0000 </r>
       <r>   51.5578    0.0000 </r>
      </set>
      <set comment="kpoint 45">
       <r>    6.5226    1.0000 </r>
       <r>    7.3901    1.0000 </r>
       <r>   11.1449    1.0000 </r>
       <r>   11.4399    1.0000 </r>
       <r>   11.7973    1.0002 </r>
       <r>   12.5243    0.0236 </r>
       <r>   27.8322    0.0000 </r>
       <r>   29.7848    0.0000 </r>
       <r>   30.6742    0.0000 </r>
       <r>   35.6526    0.0000 </r>
       <r>   40.5474    0.0000 </r>
       <r>   59.7406    0.0000 </r>
      </set>
      <set comment="kpoint 46">
       <r>    6.5142    1.0000 </r>
       <r>    7.7507    1.0000 </r>
       <r>    9.9388    1.0000 </r>
       <r>   11.0040    1.0000 </r>
       <r>   11.5286    1.0000 </r>
       <r>   12.2849    0.8391 </r>
       <r>   28.9432    0.0000 </r>
       <r>   30.6631    0.0000 </r>
       <r>   31.7875    0.0000 </r>
       <r>   37.4741    0.0000 </r>
       <r>   42.6785    0.0000 </r>
       <r>   54.7605    0.0000 </r>
      </set>
      <set comment="kpoint 47">
       <r>    6.3682    1.0000 </r>
       <r>    8.3379    1.0000 </r>
       <r>    9.3425    1.0000 </r>
       <r>   10.2340    1.0000 </r>
       <r>   11.4796    1.0000 </r>
       <r>   12.2393    0.9506 </r>
       <r>   26.3145    0.0000 </r>
       <r>   33.0755    0.0000 </r>
       <r>   35.1327    0.0000 </r>
       <r>   39.2922    0.0000 </r>
       <r>   47.4767    0.0000 </r>
       <r>   49.8973    0.0000 </r>
      </set>
      <set comment="kpoint 48">
       <r>    5.6887    1.0000 </r>
       <r>    8.0009    1.0000 </r>
       <r>   10.0443    1.0000 </r>
       <r>   10.6832    1.0000 </r>
       <r>   10.9277    1.0000 </r>
       <r>   11.4977    1.0000 </r>
       <r>   32.0788    0.0000 </r>
       <r>   33.5561    0.0000 </r>
       <r>   33.6542    0.0000 </r>
       <r>   36.4546    0.0000 </r>
       <r>   42.1961    0.0000 </r>
       <r>   55.7645    0.0000 </r>
      </set>
      <set comment="kpoint 49">
       <r>    4.9809    1.0000 </r>
       <r>    8.3994    1.0000 </r>
       <r>    9.7385    1.0000 </r>
       <r>   10.2743    1.0000 </r>
       <r>   10.7076    1.0000 </r>
       <r>   11.4450    1.0000 </r>
       <r>   31.6025    0.0000 </r>
       <r>   33.8847    0.0000 </r>
       <r>   37.1934    0.0000 </r>
       <r>   39.1743    0.0000 </r>
       <r>   45.1632    0.0000 </r>
       <r>   51.0063    0.0000 </r>
      </set>
      <set comment="kpoint 50">
       <r>    3.7688    1.0000 </r>
       <r>    8.7183    1.0000 </r>
       <r>    9.9322    1.0000 </r>
       <r>    9.9727    1.0000 </r>
       <r>   10.4009    1.0000 </r>
       <r>   11.1839    1.0000 </r>
       <r>   35.0187    0.0000 </r>
       <r>   37.2211    0.0000 </r>
       <r>   37.3693    0.0000 </r>
       <r>   39.2179    0.0000 </r>
       <r>   46.4616    0.0000 </r>
       <r>   51.0993    0.0000 </r>
      </set>
      <set comment="kpoint 51">
       <r>    2.9433    1.0000 </r>
       <r>    9.1437    1.0000 </r>
       <r>    9.6186    1.0000 </r>
       <r>    9.6186    1.0000 </r>
       <r>   10.8617    1.0000 </r>
       <r>   10.8617    1.0000 </r>
       <r>   34.3600    0.0000 </r>
       <r>   39.0374    0.0000 </r>
       <r>   42.1437    0.0000 </r>
       <r>   42.1437    0.0000 </r>
       <r>   47.5297    0.0000 </r>
       <r>   48.4994    0.0000 </r>
      </set>
      <set comment="kpoint 52">
       <r>    3.7685    1.0000 </r>
       <r>    8.9080    1.0000 </r>
       <r>    9.7113    1.0000 </r>
       <r>    9.8193    1.0000 </r>
       <r>   10.5760    1.0000 </r>
       <r>   11.1837    1.0000 </r>
       <r>   32.8426    0.0000 </r>
       <r>   35.2603    0.0000 </r>
       <r>   41.9935    0.0000 </r>
       <r>   44.4278    0.0000 </r>
       <r>   44.8869    0.0000 </r>
       <r>   47.4271    0.0000 </r>
      </set>
      <set comment="kpoint 53">
       <r>    5.2228    1.0000 </r>
       <r>    8.6562    1.0000 </r>
       <r>    9.5628    1.0000 </r>
       <r>   10.0949    1.0000 </r>
       <r>   10.4625    1.0000 </r>
       <r>   11.8204    1.0003 </r>
       <r>   29.5566    0.0000 </r>
       <r>   32.0220    0.0000 </r>
       <r>   41.3803    0.0000 </r>
       <r>   43.5015    0.0000 </r>
       <r>   44.3102    0.0000 </r>
       <r>   47.6644    0.0000 </r>
      </set>
      <set comment="kpoint 54">
       <r>    6.5621    1.0000 </r>
       <r>    8.9212    1.0000 </r>
       <r>    9.2352    1.0000 </r>
       <r>    9.9143    1.0000 </r>
       <r>   11.0243    1.0000 </r>
       <r>   12.8348   -0.0027 </r>
       <r>   24.4843    0.0000 </r>
       <r>   31.6376    0.0000 </r>
       <r>   39.1883    0.0000 </r>
       <r>   40.5041    0.0000 </r>
       <r>   46.6385    0.0000 </r>
       <r>   47.2362    0.0000 </r>
      </set>
      <set comment="kpoint 55">
       <r>    6.9336    1.0000 </r>
       <r>    8.9500    1.0000 </r>
       <r>    9.6936    1.0000 </r>
       <r>    9.8006    1.0000 </r>
       <r>   11.5893    1.0000 </r>
       <r>   14.3384   -0.0000 </r>
       <r>   20.4924    0.0000 </r>
       <r>   31.9644    0.0000 </r>
       <r>   37.8963    0.0000 </r>
       <r>   37.9989    0.0000 </r>
       <r>   47.5834    0.0000 </r>
       <r>   47.9341    0.0000 </r>
      </set>
      <set comment="kpoint 56">
       <r>    6.8990    1.0000 </r>
       <r>    8.8603    1.0000 </r>
       <r>    9.6560    1.0000 </r>
       <r>    9.8414    1.0000 </r>
       <r>   11.8692    1.0010 </r>
       <r>   14.2033   -0.0000 </r>
       <r>   20.4659    0.0000 </r>
       <r>   32.9772    0.0000 </r>
       <r>   36.2285    0.0000 </r>
       <r>   37.8447    0.0000 </r>
       <r>   48.4957    0.0000 </r>
       <r>   48.6094    0.0000 </r>
      </set>
      <set comment="kpoint 57">
       <r>    6.4825    1.0000 </r>
       <r>    8.6406    1.0000 </r>
       <r>    9.3300    1.0000 </r>
       <r>    9.9904    1.0000 </r>
       <r>   11.7677    1.0001 </r>
       <r>   12.3141    0.7419 </r>
       <r>   24.4342    0.0000 </r>
       <r>   34.4513    0.0000 </r>
       <r>   35.6540    0.0000 </r>
       <r>   38.5846    0.0000 </r>
       <r>   49.0298    0.0000 </r>
       <r>   50.2361    0.0000 </r>
      </set>
      <set comment="kpoint 58">
       <r>    5.1877    1.0000 </r>
       <r>    8.4642    1.0000 </r>
       <r>    9.6458    1.0000 </r>
       <r>   10.1009    1.0000 </r>
       <r>   11.0201    1.0000 </r>
       <r>   11.4336    1.0000 </r>
       <r>   29.5493    0.0000 </r>
       <r>   36.0166    0.0000 </r>
       <r>   36.0866    0.0000 </r>
       <r>   39.7065    0.0000 </r>
       <r>   46.5392    0.0000 </r>
       <r>   49.9641    0.0000 </r>
      </set>
      <set comment="kpoint 59">
       <r>    4.2716    1.0000 </r>
       <r>    8.7582    1.0000 </r>
       <r>    9.7534    1.0000 </r>
       <r>    9.8784    1.0000 </r>
       <r>   10.7182    1.0000 </r>
       <r>   11.2170    1.0000 </r>
       <r>   31.0509    0.0000 </r>
       <r>   37.2980    0.0000 </r>
       <r>   38.0722    0.0000 </r>
       <r>   42.2542    0.0000 </r>
       <r>   46.4368    0.0000 </r>
       <r>   49.3198    0.0000 </r>
      </set>
      <set comment="kpoint 60">
       <r>    5.4266    1.0000 </r>
       <r>    8.4646    1.0000 </r>
       <r>    9.5194    1.0000 </r>
       <r>   10.2644    1.0000 </r>
       <r>   10.6814    1.0000 </r>
       <r>   11.7987    1.0002 </r>
       <r>   29.7464    0.0000 </r>
       <r>   32.1738    0.0000 </r>
       <r>   38.1573    0.0000 </r>
       <r>   41.4946    0.0000 </r>
       <r>   46.3269    0.0000 </r>
       <r>   48.6207    0.0000 </r>
      </set>
      <set comment="kpoint 61">
       <r>    6.7857    1.0000 </r>
       <r>    8.3590    1.0000 </r>
       <r>    9.0773    1.0000 </r>
       <r>   10.4742    1.0000 </r>
       <r>   10.9100    1.0000 </r>
       <r>   12.9860   -0.0001 </r>
       <r>   26.6966    0.0000 </r>
       <r>   29.3222    0.0000 </r>
       <r>   35.6567    0.0000 </r>
       <r>   42.9467    0.0000 </r>
       <r>   44.7448    0.0000 </r>
       <r>   50.3979    0.0000 </r>
      </set>
      <set comment="kpoint 62">
       <r>    7.4053    1.0000 </r>
       <r>    8.5259    1.0000 </r>
       <r>    9.0018    1.0000 </r>
       <r>   10.2805    1.0000 </r>
       <r>   11.4926    1.0000 </r>
       <r>   14.9174   -0.0000 </r>
       <r>   22.0995    0.0000 </r>
       <r>   29.4475    0.0000 </r>
       <r>   33.4942    0.0000 </r>
       <r>   41.4747    0.0000 </r>
       <r>   45.8896    0.0000 </r>
       <r>   53.1512    0.0000 </r>
      </set>
      <set comment="kpoint 63">
       <r>    7.4307    1.0000 </r>
       <r>    8.3934    1.0000 </r>
       <r>    9.2694    1.0000 </r>
       <r>   10.2321    1.0000 </r>
       <r>   11.7442    1.0000 </r>
       <r>   16.2224   -0.0000 </r>
       <r>   20.0380    0.0000 </r>
       <r>   30.2350    0.0000 </r>
       <r>   32.1442    0.0000 </r>
       <r>   40.6409    0.0000 </r>
       <r>   46.6172    0.0000 </r>
       <r>   53.8505    0.0000 </r>
      </set>
      <set comment="kpoint 64">
       <r>    7.1928    1.0000 </r>
       <r>    8.3463    1.0000 </r>
       <r>    9.0704    1.0000 </r>
       <r>   10.3960    1.0000 </r>
       <r>   11.5957    1.0000 </r>
       <r>   14.0190   -0.0000 </r>
       <r>   23.5055    0.0000 </r>
       <r>   30.5699    0.0000 </r>
       <r>   32.7871    0.0000 </r>
       <r>   40.6401    0.0000 </r>
       <r>   46.9000    0.0000 </r>
       <r>   51.2879    0.0000 </r>
      </set>
      <set comment="kpoint 65">
       <r>    6.2948    1.0000 </r>
       <r>    8.1869    1.0000 </r>
       <r>    9.3454    1.0000 </r>
       <r>   10.5781    1.0000 </r>
       <r>   11.0232    1.0000 </r>
       <r>   12.2959    0.8047 </r>
       <r>   28.3937    0.0000 </r>
       <r>   30.8073    0.0000 </r>
       <r>   34.9900    0.0000 </r>
       <r>   40.5610    0.0000 </r>
       <r>   45.4795    0.0000 </r>
       <r>   50.0286    0.0000 </r>
      </set>
      <set comment="kpoint 66">
       <r>    6.0727    1.0000 </r>
       <r>    8.1522    1.0000 </r>
       <r>    9.5520    1.0000 </r>
       <r>   10.3783    1.0000 </r>
       <r>   11.6345    1.0000 </r>
       <r>   11.6398    1.0000 </r>
       <r>   28.1875    0.0000 </r>
       <r>   33.9531    0.0000 </r>
       <r>   34.2845    0.0000 </r>
       <r>   37.9792    0.0000 </r>
       <r>   45.4176    0.0000 </r>
       <r>   52.3192    0.0000 </r>
      </set>
      <set comment="kpoint 67">
       <r>    6.8767    1.0000 </r>
       <r>    7.9204    1.0000 </r>
       <r>    9.3841    1.0000 </r>
       <r>   10.9272    1.0000 </r>
       <r>   11.3774    1.0000 </r>
       <r>   13.1047   -0.0000 </r>
       <r>   27.2055    0.0000 </r>
       <r>   29.5542    0.0000 </r>
       <r>   31.9203    0.0000 </r>
       <r>   39.8663    0.0000 </r>
       <r>   44.8105    0.0000 </r>
       <r>   51.4650    0.0000 </r>
      </set>
      <set comment="kpoint 68">
       <r>    7.4600    1.0000 </r>
       <r>    7.9829    1.0000 </r>
       <r>    9.0618    1.0000 </r>
       <r>   10.9910    1.0000 </r>
       <r>   11.5823    1.0000 </r>
       <r>   15.3884   -0.0000 </r>
       <r>   24.5462    0.0000 </r>
       <r>   27.2922    0.0000 </r>
       <r>   29.5018    0.0000 </r>
       <r>   41.9801    0.0000 </r>
       <r>   46.0000    0.0000 </r>
       <r>   50.6025    0.0000 </r>
      </set>
      <set comment="kpoint 69">
       <r>    7.7973    1.0000 </r>
       <r>    8.0647    1.0000 </r>
       <r>    8.8964    1.0000 </r>
       <r>   10.7162    1.0000 </r>
       <r>   11.7823    1.0001 </r>
       <r>   18.3018    0.0000 </r>
       <r>   20.6557    0.0000 </r>
       <r>   27.0631    0.0000 </r>
       <r>   28.7178    0.0000 </r>
       <r>   42.6024    0.0000 </r>
       <r>   46.9393    0.0000 </r>
       <r>   52.7924    0.0000 </r>
      </set>
      <set comment="kpoint 70">
       <r>    7.8298    1.0000 </r>
       <r>    8.2626    1.0000 </r>
       <r>    8.6076    1.0000 </r>
       <r>   10.7593    1.0000 </r>
       <r>   11.5615    1.0000 </r>
       <r>   16.5030   -0.0000 </r>
       <r>   22.9604    0.0000 </r>
       <r>   26.3082    0.0000 </r>
       <r>   30.1654    0.0000 </r>
       <r>   43.5630    0.0000 </r>
       <r>   45.5407    0.0000 </r>
       <r>   52.1963    0.0000 </r>
      </set>
      <set comment="kpoint 71">
       <r>    7.3167    1.0000 </r>
       <r>    8.1654    1.0000 </r>
       <r>    8.9225    1.0000 </r>
       <r>   10.7644    1.0000 </r>
       <r>   11.2614    1.0000 </r>
       <r>   13.9848   -0.0000 </r>
       <r>   25.5200    0.0000 </r>
       <r>   28.2383    0.0000 </r>
       <r>   32.4428    0.0000 </r>
       <r>   42.4405    0.0000 </r>
       <r>   45.3149    0.0000 </r>
       <r>   50.4494    0.0000 </r>
      </set>
      <set comment="kpoint 72">
       <r>    6.8606    1.0000 </r>
       <r>    7.5944    1.0000 </r>
       <r>   10.1270    1.0000 </r>
       <r>   11.0219    1.0000 </r>
       <r>   11.9202    1.0030 </r>
       <r>   13.8497   -0.0000 </r>
       <r>   25.9436    0.0000 </r>
       <r>   28.4096    0.0000 </r>
       <r>   31.5145    0.0000 </r>
       <r>   36.7572    0.0000 </r>
       <r>   43.9524    0.0000 </r>
       <r>   56.1891    0.0000 </r>
      </set>
      <set comment="kpoint 73">
       <r>    6.9965    1.0000 </r>
       <r>    7.5295    1.0000 </r>
       <r>   10.0863    1.0000 </r>
       <r>   11.3846    1.0000 </r>
       <r>   11.8664    1.0010 </r>
       <r>   15.8770   -0.0000 </r>
       <r>   25.2192    0.0000 </r>
       <r>   26.0931    0.0000 </r>
       <r>   28.3657    0.0000 </r>
       <r>   39.0253    0.0000 </r>
       <r>   44.1494    0.0000 </r>
       <r>   54.1238    0.0000 </r>
      </set>
      <set comment="kpoint 74">
       <r>    7.2802    1.0000 </r>
       <r>    7.7956    1.0000 </r>
       <r>    9.5462    1.0000 </r>
       <r>   11.0957    1.0000 </r>
       <r>   12.0028    1.0123 </r>
       <r>   18.6318    0.0000 </r>
       <r>   23.2368    0.0000 </r>
       <r>   24.3757    0.0000 </r>
       <r>   26.9336    0.0000 </r>
       <r>   41.4870    0.0000 </r>
       <r>   46.8317    0.0000 </r>
       <r>   51.4569    0.0000 </r>
      </set>
      <set comment="kpoint 75">
       <r>    7.6859    1.0000 </r>
       <r>    8.1684    1.0000 </r>
       <r>    8.8625    1.0000 </r>
       <r>   10.8124    1.0000 </r>
       <r>   11.8371    1.0005 </r>
       <r>   19.5712    0.0000 </r>
       <r>   20.7816    0.0000 </r>
       <r>   25.0486    0.0000 </r>
       <r>   28.2708    0.0000 </r>
       <r>   42.7242    0.0000 </r>
       <r>   48.0239    0.0000 </r>
       <r>   51.7866    0.0000 </r>
      </set>
      <set comment="kpoint 76">
       <r>    7.7123    1.0000 </r>
       <r>    8.1803    1.0000 </r>
       <r>    8.9491    1.0000 </r>
       <r>   10.5263    1.0000 </r>
       <r>   11.6744    1.0000 </r>
       <r>   16.5077   -0.0000 </r>
       <r>   21.2279    0.0000 </r>
       <r>   28.5643    0.0000 </r>
       <r>   30.5481    0.0000 </r>
       <r>   42.2063    0.0000 </r>
       <r>   46.1019    0.0000 </r>
       <r>   53.6800    0.0000 </r>
      </set>
      <set comment="kpoint 77">
       <r>    6.7878    1.0000 </r>
       <r>    7.3184    1.0000 </r>
       <r>   10.7848    1.0000 </r>
       <r>   11.5242    1.0000 </r>
       <r>   11.9299    1.0037 </r>
       <r>   16.6487   -0.0000 </r>
       <r>   23.6256    0.0000 </r>
       <r>   25.2281    0.0000 </r>
       <r>   30.2137    0.0000 </r>
       <r>   36.4401    0.0000 </r>
       <r>   43.4539    0.0000 </r>
       <r>   58.0959    0.0000 </r>
      </set>
      <set comment="kpoint 78">
       <r>    6.9312    1.0000 </r>
       <r>    7.4455    1.0000 </r>
       <r>   10.3363    1.0000 </r>
       <r>   11.4163    1.0000 </r>
       <r>   12.0043    1.0126 </r>
       <r>   17.2062   -0.0000 </r>
       <r>   23.7769    0.0000 </r>
       <r>   25.3405    0.0000 </r>
       <r>   27.9449    0.0000 </r>
       <r>   38.8516    0.0000 </r>
       <r>   44.0408    0.0000 </r>
       <r>   55.0536    0.0000 </r>
      </set>
      <set comment="kpoint 79">
       <r>    7.3707    1.0000 </r>
       <r>    7.8581    1.0000 </r>
       <r>    9.3456    1.0000 </r>
       <r>   11.0884    1.0000 </r>
       <r>   11.8475    1.0006 </r>
       <r>   17.0863   -0.0000 </r>
       <r>   23.8052    0.0000 </r>
       <r>   25.9843    0.0000 </r>
       <r>   27.5061    0.0000 </r>
       <r>   41.6710    0.0000 </r>
       <r>   46.5547    0.0000 </r>
       <r>   50.9985    0.0000 </r>
      </set>
      <set comment="kpoint 80">
       <r>    6.8391    1.0000 </r>
       <r>    7.4123    1.0000 </r>
       <r>   10.5452    1.0000 </r>
       <r>   11.3194    1.0000 </r>
       <r>   11.9554    1.0058 </r>
       <r>   15.3715   -0.0000 </r>
       <r>   24.9413    0.0000 </r>
       <r>   26.1030    0.0000 </r>
       <r>   30.6556    0.0000 </r>
       <r>   36.5652    0.0000 </r>
       <r>   43.6162    0.0000 </r>
       <r>   57.3807    0.0000 </r>
      </set>
      <set comment="kpoint 81">
       <r>    7.0451    1.0000 </r>
       <r>    7.6920    1.0000 </r>
       <r>    9.7020    1.0000 </r>
       <r>   11.2281    1.0000 </r>
       <r>   11.6487    1.0000 </r>
       <r>   14.3414   -0.0000 </r>
       <r>   26.1925    0.0000 </r>
       <r>   28.0953    0.0000 </r>
       <r>   29.4489    0.0000 </r>
       <r>   39.3341    0.0000 </r>
       <r>   44.3813    0.0000 </r>
       <r>   52.8634    0.0000 </r>
      </set>
      <set comment="kpoint 82">
       <r>    6.6666    1.0000 </r>
       <r>    7.8511    1.0000 </r>
       <r>    9.7110    1.0000 </r>
       <r>   10.6943    1.0000 </r>
       <r>   11.8092    1.0002 </r>
       <r>   12.5672   -0.0211 </r>
       <r>   26.9787    0.0000 </r>
       <r>   31.2146    0.0000 </r>
       <r>   32.7385    0.0000 </r>
       <r>   37.1604    0.0000 </r>
       <r>   44.5325    0.0000 </r>
       <r>   54.7596    0.0000 </r>
      </set>
      <set comment="kpoint 83">
       <r>    4.4748    1.0000 </r>
       <r>    8.9724    1.0000 </r>
       <r>    9.6960    1.0000 </r>
       <r>    9.6960    1.0000 </r>
       <r>   11.0243    1.0000 </r>
       <r>   11.0243    1.0000 </r>
       <r>   28.9605    0.0000 </r>
       <r>   38.0773    0.0000 </r>
       <r>   41.4314    0.0000 </r>
       <r>   41.4314    0.0000 </r>
       <r>   47.2376    0.0000 </r>
       <r>   47.2376    0.0000 </r>
      </set>
      <set comment="kpoint 84">
       <r>    5.3563    1.0000 </r>
       <r>    8.8147    1.0000 </r>
       <r>    9.5787    1.0000 </r>
       <r>    9.8400    1.0000 </r>
       <r>   10.8007    1.0000 </r>
       <r>   11.7244    1.0000 </r>
       <r>   27.4712    0.0000 </r>
       <r>   34.4039    0.0000 </r>
       <r>   40.4227    0.0000 </r>
       <r>   43.7368    0.0000 </r>
       <r>   45.3124    0.0000 </r>
       <r>   45.4305    0.0000 </r>
      </set>
      <set comment="kpoint 85">
       <r>    6.6682    1.0000 </r>
       <r>    8.5663    1.0000 </r>
       <r>    9.1676    1.0000 </r>
       <r>   10.2093    1.0000 </r>
       <r>   10.6838    1.0000 </r>
       <r>   12.9510   -0.0002 </r>
       <r>   26.5092    0.0000 </r>
       <r>   29.1838    0.0000 </r>
       <r>   39.5010    0.0000 </r>
       <r>   40.2883    0.0000 </r>
       <r>   46.5141    0.0000 </r>
       <r>   49.0419    0.0000 </r>
      </set>
      <set comment="kpoint 86">
       <r>    7.6011    1.0000 </r>
       <r>    8.6224    1.0000 </r>
       <r>    8.7273    1.0000 </r>
       <r>   10.3518    1.0000 </r>
       <r>   11.0630    1.0000 </r>
       <r>   14.7996   -0.0000 </r>
       <r>   23.7465    0.0000 </r>
       <r>   26.9521    0.0000 </r>
       <r>   37.1227    0.0000 </r>
       <r>   38.1259    0.0000 </r>
       <r>   49.3638    0.0000 </r>
       <r>   50.6820    0.0000 </r>
      </set>
      <set comment="kpoint 87">
       <r>    7.5707    1.0000 </r>
       <r>    8.2332    1.0000 </r>
       <r>    9.2468    1.0000 </r>
       <r>   10.4062    1.0000 </r>
       <r>   11.6162    1.0000 </r>
       <r>   17.0216   -0.0000 </r>
       <r>   20.1443    0.0000 </r>
       <r>   27.5966    0.0000 </r>
       <r>   34.6298    0.0000 </r>
       <r>   37.3320    0.0000 </r>
       <r>   51.5268    0.0000 </r>
       <r>   51.6221    0.0000 </r>
      </set>
      <set comment="kpoint 88">
       <r>    7.2442    1.0000 </r>
       <r>    8.0100    1.0000 </r>
       <r>    9.4700    1.0000 </r>
       <r>   10.5414    1.0000 </r>
       <r>   11.9096    1.0025 </r>
       <r>   15.1577   -0.0000 </r>
       <r>   22.3485    0.0000 </r>
       <r>   29.0915    0.0000 </r>
       <r>   33.1003    0.0000 </r>
       <r>   37.1227    0.0000 </r>
       <r>   49.1325    0.0000 </r>
       <r>   53.0243    0.0000 </r>
      </set>
      <set comment="kpoint 89">
       <r>    5.8159    1.0000 </r>
       <r>    8.8573    1.0000 </r>
       <r>    9.4828    1.0000 </r>
       <r>    9.8094    1.0000 </r>
       <r>   11.4827    1.0000 </r>
       <r>   11.5655    1.0000 </r>
       <r>   25.7572    0.0000 </r>
       <r>   36.1797    0.0000 </r>
       <r>   37.3755    0.0000 </r>
       <r>   40.7680    0.0000 </r>
       <r>   46.5872    0.0000 </r>
       <r>   48.9937    0.0000 </r>
      </set>
      <set comment="kpoint 90">
       <r>    6.7081    1.0000 </r>
       <r>    8.6183    1.0000 </r>
       <r>    9.1579    1.0000 </r>
       <r>   10.1256    1.0000 </r>
       <r>   11.3122    1.0000 </r>
       <r>   12.9099   -0.0005 </r>
       <r>   24.6446    0.0000 </r>
       <r>   31.7399    0.0000 </r>
       <r>   35.8194    0.0000 </r>
       <r>   41.2301    0.0000 </r>
       <r>   46.0382    0.0000 </r>
       <r>   50.3674    0.0000 </r>
      </set>
      <set comment="kpoint 91">
       <r>    7.6893    1.0000 </r>
       <r>    8.4260    1.0000 </r>
       <r>    8.6220    1.0000 </r>
       <r>   10.5730    1.0000 </r>
       <r>   11.2393    1.0000 </r>
       <r>   14.9611   -0.0000 </r>
       <r>   23.9526    0.0000 </r>
       <r>   27.0653    0.0000 </r>
       <r>   33.2465    0.0000 </r>
       <r>   42.1687    0.0000 </r>
       <r>   45.9581    0.0000 </r>
       <r>   52.9419    0.0000 </r>
      </set>
      <set comment="kpoint 92">
       <r>    7.9556    1.0000 </r>
       <r>    8.0229    1.0000 </r>
       <r>    8.8611    1.0000 </r>
       <r>   10.7013    1.0000 </r>
       <r>   11.5739    1.0000 </r>
       <r>   17.7249   -0.0000 </r>
       <r>   21.4759    0.0000 </r>
       <r>   25.5104    0.0000 </r>
       <r>   31.0877    0.0000 </r>
       <r>   40.8568    0.0000 </r>
       <r>   48.5248    0.0000 </r>
       <r>   54.2969    0.0000 </r>
      </set>
      <set comment="kpoint 93">
       <r>    7.4639    1.0000 </r>
       <r>    7.8799    1.0000 </r>
       <r>    9.3435    1.0000 </r>
       <r>   10.8990    1.0000 </r>
       <r>   11.8217    1.0003 </r>
       <r>   17.3544   -0.0000 </r>
       <r>   21.8367    0.0000 </r>
       <r>   26.5502    0.0000 </r>
       <r>   29.6216    0.0000 </r>
       <r>   40.0031    0.0000 </r>
       <r>   48.5467    0.0000 </r>
       <r>   51.3486    0.0000 </r>
      </set>
      <set comment="kpoint 94">
       <r>    6.9788    1.0000 </r>
       <r>    8.3234    1.0000 </r>
       <r>    9.3256    1.0000 </r>
       <r>   10.2410    1.0000 </r>
       <r>   11.8867    1.0015 </r>
       <r>   13.5589   -0.0000 </r>
       <r>   23.2917    0.0000 </r>
       <r>   31.8970    0.0000 </r>
       <r>   34.2071    0.0000 </r>
       <r>   37.5337    0.0000 </r>
       <r>   49.4416    0.0000 </r>
       <r>   51.5828    0.0000 </r>
      </set>
      <set comment="kpoint 95">
       <r>    7.4371    1.0000 </r>
       <r>    8.0574    1.0000 </r>
       <r>    9.1632    1.0000 </r>
       <r>   10.6756    1.0000 </r>
       <r>   11.7530    1.0001 </r>
       <r>   15.5472   -0.0000 </r>
       <r>   22.5645    0.0000 </r>
       <r>   28.9724    0.0000 </r>
       <r>   30.5070    0.0000 </r>
       <r>   40.2405    0.0000 </r>
       <r>   47.7883    0.0000 </r>
       <r>   51.2137    0.0000 </r>
      </set>
      <set comment="kpoint 96">
       <r>    7.6658    1.0000 </r>
       <r>    8.2643    1.0000 </r>
       <r>    8.7312    1.0000 </r>
       <r>   10.8418    1.0000 </r>
       <r>   11.8386    1.0005 </r>
       <r>   18.3439    0.0000 </r>
       <r>   22.2224    0.0000 </r>
       <r>   25.6121    0.0000 </r>
       <r>   27.5354    0.0000 </r>
       <r>   44.4100    0.0000 </r>
       <r>   46.0566    0.0000 </r>
       <r>   51.2107    0.0000 </r>
      </set>
      <set comment="kpoint 97">
       <r>    7.5383    1.0000 </r>
       <r>    8.2590    1.0000 </r>
       <r>    8.8501    1.0000 </r>
       <r>   10.8556    1.0000 </r>
       <r>   12.0030    1.0124 </r>
       <r>   20.1376    0.0000 </r>
       <r>   21.7696    0.0000 </r>
       <r>   24.4057    0.0000 </r>
       <r>   26.2712    0.0000 </r>
       <r>   44.4373    0.0000 </r>
       <r>   47.5751    0.0000 </r>
       <r>   49.8805    0.0000 </r>
      </set>
      <set comment="kpoint 98">
       <r>    7.3189    1.0000 </r>
       <r>    7.7915    1.0000 </r>
       <r>    9.6650    1.0000 </r>
       <r>   10.8457    1.0000 </r>
       <r>   11.8389    1.0005 </r>
       <r>   16.9837   -0.0000 </r>
       <r>   21.6003    0.0000 </r>
       <r>   26.4659    0.0000 </r>
       <r>   32.3262    0.0000 </r>
       <r>   36.9359    0.0000 </r>
       <r>   48.8983    0.0000 </r>
       <r>   54.2792    0.0000 </r>
      </set>
      <set comment="kpoint 99">
       <r>    7.4088    1.0000 </r>
       <r>    7.8209    1.0000 </r>
       <r>    9.4770    1.0000 </r>
       <r>   11.0137    1.0000 </r>
       <r>   11.8453    1.0006 </r>
       <r>   19.0561    0.0000 </r>
       <r>   21.2616    0.0000 </r>
       <r>   24.6311    0.0000 </r>
       <r>   29.2645    0.0000 </r>
       <r>   39.8711    0.0000 </r>
       <r>   48.9140    0.0000 </r>
       <r>   51.6869    0.0000 </r>
      </set>
      <set comment="kpoint 100">
       <r>    7.3053    1.0000 </r>
       <r>    7.6980    1.0000 </r>
       <r>    9.7947    1.0000 </r>
       <r>   11.0836    1.0000 </r>
       <r>   11.7265    1.0000 </r>
       <r>   18.6715    0.0000 </r>
       <r>   20.9815    0.0000 </r>
       <r>   24.5952    0.0000 </r>
       <r>   31.9385    0.0000 </r>
       <r>   36.8411    0.0000 </r>
       <r>   48.7845    0.0000 </r>
       <r>   55.1971    0.0000 </r>
      </set>
      <set comment="kpoint 101">
       <r>    5.8880    1.0000 </r>
       <r>    9.5482    1.0000 </r>
       <r>    9.5482    1.0000 </r>
       <r>    9.6099    1.0000 </r>
       <r>   11.4547    1.0000 </r>
       <r>   11.4547    1.0000 </r>
       <r>   23.9192    0.0000 </r>
       <r>   36.9480    0.0000 </r>
       <r>   40.9003    0.0000 </r>
       <r>   40.9003    0.0000 </r>
       <r>   45.0499    0.0000 </r>
       <r>   45.0499    0.0000 </r>
      </set>
      <set comment="kpoint 102">
       <r>    6.4333    1.0000 </r>
       <r>    9.3260    1.0000 </r>
       <r>    9.5601    1.0000 </r>
       <r>    9.6587    1.0000 </r>
       <r>   11.3566    1.0000 </r>
       <r>   12.5826   -0.0290 </r>
       <r>   22.6827    0.0000 </r>
       <r>   34.1178    0.0000 </r>
       <r>   38.8566    0.0000 </r>
       <r>   40.8477    0.0000 </r>
       <r>   45.3613    0.0000 </r>
       <r>   46.4756    0.0000 </r>
      </set>
      <set comment="kpoint 103">
       <r>    7.2837    1.0000 </r>
       <r>    8.7440    1.0000 </r>
       <r>    9.1407    1.0000 </r>
[...]
       <r>    44.5739     0.2325    10.1906 </r>
       <r>    44.7894     0.1676    10.2267 </r>
       <r>    45.0049     0.0969    10.2476 </r>
       <r>    45.2203     0.1476    10.2794 </r>
       <r>    45.4358     0.2717    10.3379 </r>
       <r>    45.6512     0.2068    10.3825 </r>
       <r>    45.8667     0.0837    10.4005 </r>
       <r>    46.0822     0.3879    10.4841 </r>
       <r>    46.2976     0.3365    10.5566 </r>
       <r>    46.5131     0.2817    10.6173 </r>
       <r>    46.7286     0.3934    10.7021 </r>
       <r>    46.9440     0.2514    10.7563 </r>
       <r>    47.1595     0.1993    10.7992 </r>
       <r>    47.3750     0.1274    10.8267 </r>
       <r>    47.5904     0.2603    10.8827 </r>
       <r>    47.8059     0.2919    10.9456 </r>
       <r>    48.0214     0.1880    10.9861 </r>
       <r>    48.2368     0.0922    11.0060 </r>
       <r>    48.4523     0.0959    11.0267 </r>
       <r>    48.6678     0.2577    11.0822 </r>
       <r>    48.8832     0.1884    11.1228 </r>
       <r>    49.0987     0.2053    11.1670 </r>
       <r>    49.3141     0.2826    11.2279 </r>
       <r>    49.5296     0.1176    11.2532 </r>
       <r>    49.7451     0.0145    11.2564 </r>
       <r>    49.9605     0.1481    11.2883 </r>
       <r>    50.1760     0.1687    11.3246 </r>
       <r>    50.3915     0.1223    11.3510 </r>
       <r>    50.6069     0.1710    11.3878 </r>
       <r>    50.8224     0.0893    11.4071 </r>
       <r>    51.0379     0.0984    11.4283 </r>
       <r>    51.2533     0.2150    11.4746 </r>
       <r>    51.4688     0.2840    11.5358 </r>
       <r>    51.6843     0.2823    11.5966 </r>
       <r>    51.8997     0.0891    11.6158 </r>
       <r>    52.1152     0.0097    11.6179 </r>
       <r>    52.3307     0.1005    11.6396 </r>
       <r>    52.5461     0.1138    11.6641 </r>
       <r>    52.7616     0.1361    11.6934 </r>
       <r>    52.9770     0.2152    11.7398 </r>
       <r>    53.1925     0.1373    11.7693 </r>
       <r>    53.4080     0.0353    11.7769 </r>
       <r>    53.6234     0.0626    11.7904 </r>
       <r>    53.8389     0.0779    11.8072 </r>
       <r>    54.0544     0.0415    11.8161 </r>
       <r>    54.2698     0.1009    11.8379 </r>
       <r>    54.4853     0.0851    11.8562 </r>
       <r>    54.7008     0.0206    11.8607 </r>
       <r>    54.9162     0.0591    11.8734 </r>
       <r>    55.1317     0.0876    11.8923 </r>
       <r>    55.3472     0.1074    11.9154 </r>
       <r>    55.5626     0.0039    11.9163 </r>
       <r>    55.7781     0.0142    11.9193 </r>
       <r>    55.9936     0.0126    11.9220 </r>
       <r>    56.2090     0.0145    11.9251 </r>
       <r>    56.4245     0.0415    11.9341 </r>
       <r>    56.6399     0.0293    11.9404 </r>
       <r>    56.8554    -0.0015    11.9401 </r>
       <r>    57.0709    -0.0010    11.9398 </r>
       <r>    57.2863     0.0047    11.9408 </r>
       <r>    57.5018     0.0198    11.9451 </r>
       <r>    57.7173     0.0226    11.9500 </r>
       <r>    57.9327     0.0368    11.9579 </r>
       <r>    58.1482     0.0341    11.9653 </r>
       <r>    58.3637     0.0218    11.9700 </r>
       <r>    58.5791     0.0245    11.9752 </r>
       <r>    58.7946     0.0327    11.9823 </r>
       <r>    59.0101    -0.0011    11.9821 </r>
       <r>    59.2255    -0.0004    11.9820 </r>
       <r>    59.4410    -0.0008    11.9818 </r>
       <r>    59.6565     0.0057    11.9831 </r>
       <r>    59.8719     0.0214    11.9877 </r>
       <r>    60.0874     0.0019    11.9881 </r>
       <r>    60.3029    -0.0014    11.9878 </r>
       <r>    60.5183     0.0126    11.9905 </r>
       <r>    60.7338     0.0237    11.9956 </r>
       <r>    60.9492     0.0199    11.9999 </r>
       <r>    61.1647     0.0009    12.0001 </r>
       <r>    61.3802    -0.0004    12.0000 </r>
       <r>    61.5956    -0.0000    12.0000 </r>
       <r>    61.8111    -0.0000    12.0000 </r>
       <r>    62.0266    -0.0000    12.0000 </r>
       <r>    62.2420     0.0000    12.0000 </r>
       <r>    62.4575     0.0000    12.0000 </r>
       <r>    62.6730     0.0000    12.0000 </r>
       <r>    62.8884     0.0000    12.0000 </r>
       <r>    63.1039     0.0000    12.0000 </r>
       <r>    63.3194     0.0000    12.0000 </r>
       <r>    63.5348     0.0000    12.0000 </r>
       <r>    63.7503     0.0000    12.0000 </r>
      </set>
      <set comment="spin 2">
       <r>    -0.8891     0.0000     0.0000 </r>
       <r>    -0.6737     0.0000     0.0000 </r>
       <r>    -0.4582     0.0000     0.0000 </r>
       <r>    -0.2427     0.0000     0.0000 </r>
       <r>    -0.0273     0.0000     0.0000 </r>
       <r>     0.1882     0.0000     0.0000 </r>
       <r>     0.4036    -0.0000    -0.0000 </r>
       <r>     0.6191    -0.0000    -0.0000 </r>
       <r>     0.8346    -0.0000    -0.0000 </r>
       <r>     1.0500    -0.0000    -0.0000 </r>
       <r>     1.2655    -0.0000    -0.0000 </r>
       <r>     1.4810    -0.0000    -0.0000 </r>
       <r>     1.6964    -0.0001    -0.0000 </r>
       <r>     1.9119     0.0004     0.0001 </r>
       <r>     2.1274     0.0062     0.0014 </r>
       <r>     2.3428     0.0155     0.0048 </r>
       <r>     2.5583     0.0204     0.0092 </r>
       <r>     2.7738     0.0214     0.0138 </r>
       <r>     2.9892     0.0270     0.0196 </r>
       <r>     3.2047     0.0374     0.0277 </r>
       <r>     3.4202     0.0368     0.0356 </r>
       <r>     3.6356     0.0233     0.0406 </r>
       <r>     3.8511     0.0446     0.0502 </r>
       <r>     4.0665     0.0668     0.0646 </r>
       <r>     4.2820     0.0405     0.0733 </r>
       <r>     4.4975     0.0348     0.0808 </r>
       <r>     4.7129     0.0704     0.0960 </r>
       <r>     4.9284     0.0675     0.1106 </r>
       <r>     5.1439     0.0628     0.1241 </r>
       <r>     5.3593     0.0758     0.1404 </r>
       <r>     5.5748     0.0861     0.1590 </r>
       <r>     5.7903     0.0832     0.1769 </r>
       <r>     6.0057     0.0871     0.1957 </r>
       <r>     6.2212     0.1434     0.2266 </r>
       <r>     6.4367     0.1374     0.2562 </r>
       <r>     6.6521     0.1478     0.2880 </r>
       <r>     6.8676     0.3365     0.3605 </r>
       <r>     7.0831     0.4559     0.4588 </r>
       <r>     7.2985     0.3920     0.5432 </r>
       <r>     7.5140     0.4891     0.6486 </r>
       <r>     7.7295     0.4986     0.7560 </r>
       <r>     7.9449     0.6775     0.9020 </r>
       <r>     8.1604     0.7202     1.0572 </r>
       <r>     8.3758     0.7078     1.2097 </r>
       <r>     8.5913     0.6525     1.3503 </r>
       <r>     8.8068     0.6428     1.4888 </r>
       <r>     9.0222     0.5909     1.6161 </r>
       <r>     9.2377     0.6736     1.7612 </r>
       <r>     9.4532     0.8645     1.9475 </r>
       <r>     9.6686     0.8770     2.1365 </r>
       <r>     9.8841     0.9367     2.3383 </r>
       <r>    10.0996     1.1095     2.5773 </r>
       <r>    10.3150     1.1193     2.8185 </r>
       <r>    10.5305     1.0935     3.0541 </r>
       <r>    10.7460     0.8602     3.2395 </r>
       <r>    10.9614     0.7375     3.3984 </r>
       <r>    11.1769     0.8190     3.5749 </r>
       <r>    11.3924     1.0183     3.7943 </r>
       <r>    11.6078     0.9374     3.9962 </r>
       <r>    11.8233     0.9145     4.1933 </r>
       <r>    12.0387     0.7840     4.3622 </r>
       <r>    12.2542     0.9172     4.5598 </r>
       <r>    12.4697     1.3344     4.8474 </r>
       <r>    12.6851     1.3406     5.1362 </r>
       <r>    12.9006     0.6538     5.2771 </r>
       <r>    13.1161     0.2082     5.3220 </r>
       <r>    13.3315     0.0790     5.3390 </r>
       <r>    13.5470     0.1742     5.3765 </r>
       <r>    13.7625     0.1921     5.4179 </r>
       <r>    13.9779     0.1137     5.4424 </r>
       <r>    14.1934     0.1078     5.4656 </r>
       <r>    14.4089     0.1278     5.4932 </r>
       <r>    14.6243     0.1946     5.5351 </r>
       <r>    14.8398     0.1111     5.5590 </r>
       <r>    15.0553     0.1053     5.5817 </r>
       <r>    15.2707     0.1625     5.6167 </r>
       <r>    15.4862     0.1049     5.6393 </r>
       <r>    15.7016     0.0906     5.6589 </r>
       <r>    15.9171     0.1043     5.6813 </r>
       <r>    16.1326     0.1399     5.7115 </r>
       <r>    16.3480     0.1343     5.7404 </r>
       <r>    16.5635     0.1101     5.7641 </r>
       <r>    16.7790     0.1017     5.7860 </r>
       <r>    16.9944     0.0968     5.8069 </r>
       <r>    17.2099     0.0156     5.8102 </r>
       <r>    17.4254     0.1057     5.8330 </r>
       <r>    17.6408     0.1055     5.8558 </r>
       <r>    17.8563     0.1165     5.8809 </r>
       <r>    18.0718     0.1128     5.9052 </r>
       <r>    18.2872     0.0231     5.9101 </r>
       <r>    18.5027     0.0184     5.9141 </r>
       <r>    18.7182     0.0865     5.9327 </r>
       <r>    18.9336     0.0669     5.9472 </r>
       <r>    19.1491     0.0372     5.9552 </r>
       <r>    19.3645     0.0822     5.9729 </r>
       <r>    19.5800     0.0151     5.9761 </r>
       <r>    19.7955     0.0214     5.9807 </r>
       <r>    20.0109     0.0461     5.9907 </r>
       <r>    20.2264     0.1220     6.0170 </r>
       <r>    20.4419     0.1872     6.0573 </r>
       <r>    20.6573     0.1910     6.0984 </r>
       <r>    20.8728     0.1411     6.1288 </r>
       <r>    21.0883     0.1412     6.1593 </r>
       <r>    21.3037     0.1172     6.1845 </r>
       <r>    21.5192     0.1221     6.2108 </r>
       <r>    21.7347     0.1361     6.2401 </r>
       <r>    21.9501     0.1344     6.2691 </r>
       <r>    22.1656     0.1260     6.2963 </r>
       <r>    22.3811     0.0788     6.3132 </r>
       <r>    22.5965     0.0776     6.3299 </r>
       <r>    22.8120     0.1165     6.3550 </r>
       <r>    23.0274     0.1293     6.3829 </r>
       <r>    23.2429     0.0833     6.4008 </r>
       <r>    23.4584     0.1047     6.4234 </r>
       <r>    23.6738     0.1173     6.4487 </r>
       <r>    23.8893     0.0900     6.4681 </r>
       <r>    24.1048     0.1982     6.5108 </r>
       <r>    24.3202     0.1201     6.5367 </r>
       <r>    24.5357     0.0975     6.5577 </r>
       <r>    24.7512     0.2173     6.6045 </r>
       <r>    24.9666     0.1607     6.6391 </r>
       <r>    25.1821     0.0842     6.6573 </r>
       <r>    25.3976     0.1998     6.7003 </r>
       <r>    25.6130     0.1935     6.7420 </r>
       <r>    25.8285     0.1972     6.7845 </r>
       <r>    26.0440     0.0659     6.7987 </r>
       <r>    26.2594     0.2009     6.8420 </r>
       <r>    26.4749     0.2751     6.9013 </r>
       <r>    26.6903     0.1289     6.9290 </r>
       <r>    26.9058     0.0880     6.9480 </r>
       <r>    27.1213     0.1793     6.9866 </r>
       <r>    27.3367     0.2077     7.0314 </r>
       <r>    27.5522     0.1610     7.0661 </r>
       <r>    27.7677     0.2083     7.1109 </r>
       <r>    27.9831     0.1545     7.1442 </r>
       <r>    28.1986     0.1395     7.1743 </r>
       <r>    28.4141     0.2100     7.2195 </r>
       <r>    28.6295     0.2564     7.2748 </r>
       <r>    28.8450     0.1583     7.3089 </r>
       <r>    29.0605     0.1586     7.3431 </r>
       <r>    29.2759     0.1584     7.3772 </r>
       <r>    29.4914     0.2440     7.4298 </r>
       <r>    29.7069     0.2964     7.4936 </r>
       <r>    29.9223     0.2015     7.5371 </r>
       <r>    30.1378     0.0329     7.5441 </r>
       <r>    30.3532     0.2109     7.5896 </r>
       <r>    30.5687     0.2322     7.6396 </r>
       <r>    30.7842     0.3078     7.7059 </r>
       <r>    30.9996     0.1186     7.7315 </r>
       <r>    31.2151     0.1127     7.7558 </r>
       <r>    31.4306     0.2206     7.8033 </r>
       <r>    31.6460     0.1359     7.8326 </r>
       <r>    31.8615     0.1315     7.8609 </r>
       <r>    32.0770     0.2599     7.9169 </r>
       <r>    32.2924     0.2380     7.9682 </r>
       <r>    32.5079     0.1949     8.0102 </r>
       <r>    32.7234     0.0830     8.0281 </r>
       <r>    32.9388     0.1443     8.0592 </r>
       <r>    33.1543     0.2579     8.1148 </r>
       <r>    33.3698     0.1375     8.1444 </r>
       <r>    33.5852     0.0979     8.1655 </r>
       <r>    33.8007     0.1525     8.1983 </r>
       <r>    34.0162     0.0881     8.2173 </r>
       <r>    34.2316     0.1533     8.2503 </r>
       <r>    34.4471     0.2688     8.3083 </r>
       <r>    34.6625     0.2234     8.3564 </r>
       <r>    34.8780     0.0497     8.3671 </r>
       <r>    35.0935     0.1456     8.3985 </r>
       <r>    35.3089     0.1782     8.4369 </r>
       <r>    35.5244     0.1362     8.4662 </r>
       <r>    35.7399     0.1417     8.4967 </r>
       <r>    35.9553     0.2028     8.5404 </r>
       <r>    36.1708     0.2046     8.5845 </r>
       <r>    36.3863     0.1396     8.6146 </r>
       <r>    36.6017     0.1312     8.6429 </r>
       <r>    36.8172     0.1541     8.6761 </r>
       <r>    37.0327     0.2088     8.7211 </r>
       <r>    37.2481     0.2831     8.7820 </r>
       <r>    37.4636     0.2574     8.8375 </r>
       <r>    37.6791     0.2122     8.8832 </r>
       <r>    37.8945     0.1564     8.9169 </r>
       <r>    38.1100     0.2421     8.9691 </r>
       <r>    38.3254     0.2628     9.0257 </r>
       <r>    38.5409     0.1850     9.0656 </r>
       <r>    38.7564     0.1683     9.1018 </r>
       <r>    38.9718     0.1805     9.1407 </r>
       <r>    39.1873     0.2655     9.1979 </r>
       <r>    39.4028     0.3836     9.2806 </r>
       <r>    39.6182     0.1508     9.3131 </r>
       <r>    39.8337     0.1685     9.3494 </r>
       <r>    40.0492     0.2427     9.4017 </r>
       <r>    40.2646     0.1486     9.4337 </r>
       <r>    40.4801     0.1883     9.4743 </r>
       <r>    40.6956     0.2258     9.5229 </r>
       <r>    40.9110     0.3492     9.5981 </r>
       <r>    41.1265     0.2604     9.6542 </r>
       <r>    41.3420     0.1322     9.6827 </r>
       <r>    41.5574     0.2326     9.7328 </r>
       <r>    41.7729     0.1956     9.7750 </r>
       <r>    41.9883     0.1143     9.7996 </r>
       <r>    42.2038     0.1704     9.8363 </r>
       <r>    42.4193     0.1926     9.8778 </r>
       <r>    42.6347     0.1140     9.9024 </r>
       <r>    42.8502     0.1600     9.9369 </r>
       <r>    43.0657     0.1563     9.9706 </r>
       <r>    43.2811     0.0891     9.9898 </r>
       <r>    43.4966     0.0828    10.0076 </r>
       <r>    43.7121     0.1643    10.0430 </r>
       <r>    43.9275     0.1408    10.0734 </r>
       <r>    44.1430     0.0907    10.0929 </r>
       <r>    44.3585     0.1808    10.1319 </r>
       <r>    44.5739     0.2418    10.1839 </r>
       <r>    44.7894     0.1662    10.2197 </r>
       <r>    45.0049     0.1065    10.2427 </r>
       <r>    45.2203     0.1053    10.2654 </r>
       <r>    45.4358     0.2613    10.3217 </r>
       <r>    45.6512     0.2477    10.3751 </r>
       <r>    45.8667     0.0985    10.3963 </r>
       <r>    46.0822     0.3161    10.4644 </r>
       <r>    46.2976     0.3742    10.5450 </r>
       <r>    46.5131     0.2521    10.5994 </r>
       <r>    46.7286     0.4106    10.6878 </r>
       <r>    46.9440     0.2522    10.7422 </r>
       <r>    47.1595     0.2042    10.7862 </r>
       <r>    47.3750     0.1500    10.8185 </r>
       <r>    47.5904     0.2282    10.8677 </r>
       <r>    47.8059     0.3157    10.9357 </r>
       <r>    48.0214     0.2122    10.9814 </r>
       <r>    48.2368     0.1134    11.0058 </r>
       <r>    48.4523     0.0796    11.0230 </r>
       <r>    48.6678     0.2374    11.0741 </r>
       <r>    48.8832     0.1865    11.1143 </r>
       <r>    49.0987     0.2132    11.1602 </r>
       <r>    49.3141     0.2911    11.2230 </r>
       <r>    49.5296     0.1347    11.2520 </r>
       <r>    49.7451     0.0159    11.2554 </r>
       <r>    49.9605     0.1209    11.2815 </r>
       <r>    50.1760     0.1799    11.3202 </r>
       <r>    50.3915     0.0968    11.3411 </r>
       <r>    50.6069     0.1644    11.3765 </r>
       <r>    50.8224     0.1387    11.4064 </r>
       <r>    51.0379     0.0995    11.4278 </r>
       <r>    51.2533     0.1445    11.4590 </r>
       <r>    51.4688     0.3134    11.5265 </r>
       <r>    51.6843     0.3097    11.5932 </r>
       <r>    51.8997     0.0912    11.6129 </r>
       <r>    52.1152     0.0115    11.6153 </r>
       <r>    52.3307     0.0817    11.6329 </r>
       <r>    52.5461     0.1299    11.6609 </r>
       <r>    52.7616     0.1077    11.6841 </r>
       <r>    52.9770     0.2086    11.7291 </r>
       <r>    53.1925     0.1818    11.7683 </r>
       <r>    53.4080     0.0494    11.7789 </r>
       <r>    53.6234     0.0415    11.7879 </r>
       <r>    53.8389     0.0738    11.8038 </r>
       <r>    54.0544     0.0577    11.8162 </r>
       <r>    54.2698     0.0799    11.8334 </r>
       <r>    54.4853     0.0979    11.8545 </r>
       <r>    54.7008     0.0302    11.8610 </r>
       <r>    54.9162     0.0597    11.8739 </r>
       <r>    55.1317     0.0749    11.8900 </r>
       <r>    55.3472     0.1145    11.9147 </r>
       <r>    55.5626     0.0088    11.9166 </r>
       <r>    55.7781     0.0175    11.9203 </r>
       <r>    55.9936     0.0077    11.9220 </r>
       <r>    56.2090     0.0135    11.9249 </r>
       <r>    56.4245     0.0399    11.9335 </r>
       <r>    56.6399     0.0317    11.9403 </r>
       <r>    56.8554    -0.0012    11.9401 </r>
       <r>    57.0709    -0.0010    11.9399 </r>
       <r>    57.2863     0.0043    11.9408 </r>
       <r>    57.5018     0.0199    11.9451 </r>
       <r>    57.7173     0.0196    11.9493 </r>
       <r>    57.9327     0.0391    11.9577 </r>
       <r>    58.1482     0.0352    11.9653 </r>
       <r>    58.3637     0.0217    11.9700 </r>
       <r>    58.5791     0.0255    11.9755 </r>
       <r>    58.7946     0.0318    11.9823 </r>
       <r>    59.0101    -0.0012    11.9821 </r>
       <r>    59.2255    -0.0003    11.9820 </r>
       <r>    59.4410    -0.0007    11.9818 </r>
       <r>    59.6565     0.0054    11.9830 </r>
       <r>    59.8719     0.0215    11.9876 </r>
       <r>    60.0874     0.0022    11.9881 </r>
       <r>    60.3029    -0.0014    11.9878 </r>
       <r>    60.5183     0.0111    11.9902 </r>
       <r>    60.7338     0.0237    11.9953 </r>
       <r>    60.9492     0.0208    11.9998 </r>
       <r>    61.1647     0.0015    12.0001 </r>
       <r>    61.3802    -0.0004    12.0000 </r>
       <r>    61.5956    -0.0000    12.0000 </r>
       <r>    61.8111    -0.0000    12.0000 </r>
       <r>    62.0266    -0.0000    12.0000 </r>
       <r>    62.2420    -0.0000    12.0000 </r>
       <r>    62.4575     0.0000    12.0000 </r>
       <r>    62.6730     0.0000    12.0000 </r>
       <r>    62.8884     0.0000    12.0000 </r>
       <r>    63.1039     0.0000    12.0000 </r>
       <r>    63.3194     0.0000    12.0000 </r>
       <r>    63.5348     0.0000    12.0000 </r>
       <r>    63.7503     0.0000    12.0000 </r>
      </set>
     </set>
    </array>
   </total>
  </dos>
 </calculation>
 <structure name="finalpos" >
  <crystal>
   <varray name="basis" >
    <v>       0.00000000       1.65000000       1.65000000 </v>
    <v>       1.65000000       0.00000000       1.65000000 </v>
    <v>       1.65000000       1.65000000       0.00000000 </v>
   </varray>
   <i name="volume">      8.98425000 </i>
   <varray name="rec_basis" >
    <v>      -0.30303030       0.30303030       0.30303030 </v>
    <v>       0.30303030      -0.30303030       0.30303030 </v>
    <v>       0.30303030       0.30303030      -0.30303030 </v>
   </varray>
  </crystal>
  <varray name="positions" >
   <v>       0.00000000       0.00000000       0.00000000 </v>
  </varray>
 </structure>
</modeling>
