FCC Au                                  
   4.20000000000000     
     0.000000    0.500000    0.500000
     0.500000    0.000000    0.500000
     0.500000    0.500000    0.000000
   Au
     1
Direct
  0.000000  0.000000  0.000000
 
   24   24   24
  89.932      86.322      77.060      65.407      53.684      42.344      31.271      21.195      13.449      8.6614    
  6.1317      4.8140      4.4033      4.8140      6.1317      8.6614      13.449      21.195      31.271      42.344    
  53.684      65.407      77.060      86.322      86.322      79.921      69.625      58.248      47.034      35.989    
  25.435      16.567      10.478      7.0800      5.2746      4.4530      4.4528      5.2743      7.0799      10.478    
  16.568      25.439      35.995      47.038      58.243      69.608      79.902      86.313      77.060      69.625    
  59.900      49.549      39.036      28.629      19.297      12.295      8.0496      5.7759      4.5841      4.2152    
  4.5840      5.7758      8.0491      12.294      19.298      28.634      39.044      49.551      59.890      69.606    
  77.044      79.902      65.407      58.248      49.549      40.088      30.331      21.149      13.773      8.9326    
  6.2433      4.7529      4.0865      4.0866      4.7531      6.2433      8.9317      13.771      21.149      30.334    
  40.093      49.552      58.247      65.403      69.606      69.608      53.684      47.034      39.036      30.331    
  21.804      14.602      9.5619      6.6040      4.9104      4.0305      3.7620      4.0306      4.9109      6.6047    
  9.5617      14.600      21.800      30.329      39.037      47.038      53.690      58.247      59.890      58.243    
  42.344      35.989      28.629      21.149      14.602      9.7909      6.8021      5.0184      4.0103      3.5686    
  3.5685      4.0102      5.0191      6.8041      9.7931      14.603      21.146      28.623      35.984      42.342    
  47.038      49.552      49.551      47.038      31.271      25.435      19.297      13.773      9.5619      6.8021    
  5.0563      4.0037      3.4674      3.3049      3.4671      4.0031      5.0564      6.8045      9.5668      13.778    
  19.298      25.430      31.261      35.984      39.037      40.093      39.044      35.995      21.195      16.567    
  12.295      8.9326      6.6040      5.0184      4.0037      3.4357      3.1870      3.1870      3.4353      4.0019    
  5.0162      6.6041      8.9373      12.303      16.574      21.194      25.430      28.623      30.329      30.334    
  28.634      25.439      13.449      10.478      8.0496      6.2433      4.9104      4.0103      3.4674      3.1870    
  3.1016      3.1875      3.4673      4.0080      4.9058      6.2391      8.0500      10.485      13.458      16.574    
  19.298      21.146      21.800      21.149      19.298      16.568      8.6614      7.0800      5.7759      4.7529    
  4.0305      3.5686      3.3049      3.1870      3.1875      3.3064      3.5706      4.0305      4.7486      5.7685    
  7.0743      8.6617      10.485      12.303      13.778      14.603      14.600      13.771      12.294      10.478    
  6.1317      5.2746      4.5841      4.0865      3.7620      3.5685      3.4671      3.4353      3.4673      3.5706    
  3.7665      4.0907      4.5838      5.2684      6.1230      7.0743      8.0500      8.9373      9.5668      9.7931    
  9.5617      8.9317      8.0491      7.0799      4.8140      4.4530      4.2152      4.0866      4.0306      4.0102    
  4.0031      4.0019      4.0080      4.0305      4.0907      4.2222      4.4585      4.8138      5.2684      5.7685    
  6.2391      6.6041      6.8045      6.8041      6.6047      6.2433      5.7758      5.2743      4.4033      4.4528    
  4.5840      4.7531      4.9109      5.0191      5.0564      5.0162      4.9058      4.7486      4.5838      4.4585    
  4.4117      4.4585      4.5838      4.7486      4.9058      5.0162      5.0564      5.0191      4.9109      4.7531    
  4.5840      4.4528      4.8140      5.2743      5.7758      6.2433      6.6047      6.8041      6.8045      6.6041    
  6.2391      5.7685      5.2684      4.8138      4.4585      4.2222      4.0907      4.0305      4.0080      4.0019    
  4.0031      4.0102      4.0306      4.0866      4.2152      4.4530      6.1317      7.0799      8.0491      8.9317    
  9.5617      9.7931      9.5668      8.9373      8.0500      7.0743      6.1230      5.2684      4.5838      4.0907    
  3.7665      3.5706      3.4673      3.4353      3.4671      3.5685      3.7620      4.0865      4.5841      5.2746    
  8.6614      10.478      12.294      13.771      14.600      14.603      13.778      12.303      10.485      8.6617    
  7.0743      5.7685      4.7486      4.0305      3.5706      3.3064      3.1875      3.1870      3.3049      3.5686    
  4.0305      4.7529      5.7759      7.0800      13.449      16.568      19.298      21.149      21.800      21.146    
  19.298      16.574      13.458      10.485      8.0500      6.2391      4.9058      4.0080      3.4673      3.1875    
  3.1016      3.1870      3.4674      4.0103      4.9104      6.2433      8.0496      10.478      21.195      25.439    
  28.634      30.334      30.329      28.623      25.430      21.194      16.574      12.303      8.9373      6.6041    
  5.0162      4.0019      3.4353      3.1870      3.1870      3.4357      4.0037      5.0184      6.6040      8.9326    
  12.295      16.567      31.271      35.995      39.044      40.093      39.037      35.984      31.261      25.430    
  19.298      13.778      9.5668      6.8045      5.0564      4.0031      3.4671      3.3049      3.4674      4.0037    
  5.0563      6.8021      9.5619      13.773      19.297      25.435      42.344      47.038      49.551      49.552    
  47.038      42.342      35.984      28.623      21.146      14.603      9.7931      6.8041      5.0191      4.0102    
  3.5685      3.5686      4.0103      5.0184      6.8021      9.7909      14.602      21.149      28.629      35.989    
  53.684      58.243      59.890      58.247      53.690      47.038      39.037      30.329      21.800      14.600    
  9.5617      6.6047      4.9109      4.0306      3.7620      4.0305      4.9104      6.6040      9.5619      14.602    
  21.804      30.331      39.036      47.034      65.407      69.608      69.606      65.403      58.247      49.552    
  40.093      30.334      21.149      13.771      8.9317      6.2433      4.7531      4.0866      4.0865      4.7529    
  6.2433      8.9326      13.773      21.149      30.331      40.088      49.549      58.248      77.060      79.902    
  77.044      69.606      59.890      49.551      39.044      28.634      19.298      12.294      8.0491      5.7758    
  4.5840      4.2152      4.5841      5.7759      8.0496      12.295      19.297      28.629      39.036      49.549    
  59.900      69.625      86.322      86.313      79.902      69.608      58.243      47.038      35.995      25.439    
  16.568      10.478      7.0799      5.2743      4.4528      4.4530      5.2746      7.0800      10.478      16.567    
  25.435      35.989      47.034      58.248      69.625      79.921      86.322      79.921      69.625      58.248    
  47.034      35.989      25.435      16.567      10.478      7.0800      5.2746      4.4530      4.4528      5.2743    
  7.0799      10.478      16.568      25.439      35.995      47.038      58.243      69.608      79.902      86.313    
  79.921      71.900      61.558      50.778      40.022      29.429      19.882      12.657      8.2464      5.8945    
  4.6631      4.2811      4.6631      5.8943      8.2457      12.657      19.885      29.437      40.032      50.779    
  61.542      71.871      79.898      83.004      69.625      61.558      52.091      42.136      32.015      22.433    
  14.614      9.4034      6.5093      4.9232      4.2097      4.2098      4.9233      6.5089      9.4019      14.613    
  22.436      32.023      42.145      52.091      61.545      69.608      74.456      74.464      58.248      50.778    
  42.136      32.907      23.811      15.970      10.354      7.0356      5.1787      4.2073      3.9097      4.2074    
  5.1790      7.0354      10.353      15.967      23.809      32.909      42.142      50.784      58.252      63.571    
  65.536      63.571      47.034      40.022      32.015      23.811      16.454      10.894      7.3998      5.3784    
  4.2332      3.7292      3.7291      4.2334      5.3792      7.4006      10.893      16.450      23.806      32.013    
  40.025      47.042      52.380      55.319      55.315      52.372      35.989      29.429      22.433      15.970    
  10.894      7.5313      5.4870      4.2575      3.6295      3.4391      3.6294      4.2576      5.4881      7.5335    
  10.896      15.969      22.430      29.423      35.985      41.313      44.795      46.009      44.794      41.313    
  25.435      19.882      14.614      10.354      7.3998      5.4870      4.2667      3.5849      3.2869      3.2869    
  3.5844      4.2658      5.4871      7.4026      10.360      14.619      19.883      25.430      30.423      34.152    
  36.138      36.141      34.160      30.432      16.567      12.657      9.4034      7.0356      5.3784      4.2575    
  3.5849      3.2399      3.1350      3.2399      3.5840      4.2551      5.3758      7.0357      9.4081      12.665    
  16.573      20.572      23.998      26.290      27.097      26.296      24.003      20.572      10.478      8.2464    
  6.5093      5.1787      4.2332      3.6295      3.2869      3.1350      3.1354      3.2878      3.6294      4.2305    
  5.1734      6.5045      8.2465      10.484      13.065      15.601      17.625      18.746      18.745      17.623    
  15.595      13.057      7.0800      5.8945      4.9232      4.2073      3.7292      3.4391      3.2869      3.2399    
  3.2878      3.4414      3.7318      4.2073      4.9184      5.8867      7.0742      8.4478      9.9271      11.287    
  12.249      12.595      12.244      11.278      9.9209      8.4475      5.2746      4.6631      4.2097      3.9097    
  3.7291      3.6294      3.5844      3.5840      3.6294      3.7318      3.9149      4.2143      4.6629      5.2684    
  5.9962      6.7686      7.5007      8.0948      8.4307      8.4285      8.0907      7.4999      6.7737      6.0046    
  4.4530      4.2811      4.2098      4.2074      4.2334      4.2576      4.2658      4.2551      4.2305      4.2073    
  4.2143      4.2885      4.4586      4.7287      5.0714      5.4336      5.7516      5.9678      6.0443      5.9689    
  5.7553      5.4399      5.0768      4.7289      4.4528      4.6631      4.9233      5.1790      5.3792      5.4881    
  5.4871      5.3758      5.1734      4.9184      4.6629      4.4586      4.3403      4.3146      4.3596      4.4373    
  4.5103      4.5533      4.5549      4.5142      4.4411      4.3599      4.3095      4.3323      5.2743      5.8943    
  6.5089      7.0354      7.4006      7.5335      7.4026      7.0357      6.5045      5.8867      5.2684      4.7287    
  4.3146      4.0336      3.8625      3.7668      3.7194      3.7056      3.7206      3.7670      3.8592      4.0277    
  4.3097      4.7289      7.0799      8.2457      9.4019      10.353      10.893      10.896      10.360      9.4081    
  8.2465      7.0742      5.9962      5.0714      4.3596      3.8625      3.5434      3.3582      3.2739      3.2737    
  3.3568      3.5401      3.8591      4.3598      5.0771      6.0046      10.478      12.657      14.613      15.967    
  16.450      15.969      14.619      12.665      10.484      8.4478      6.7686      5.4336      4.4373      3.7668    
  3.3582      3.1436      3.0769      3.1427      3.3570      3.7670      4.4407      5.4399      6.7738      8.4475    
  16.568      19.885      22.436      23.809      23.806      22.430      19.883      16.573      13.065      9.9271    
  7.5007      5.7516      4.5103      3.7194      3.2739      3.0769      3.0767      3.2739      3.7210      4.5139    
  5.7549      7.5002      9.9209      13.057      25.439      29.437      32.023      32.909      32.013      29.423    
  25.430      20.572      15.601      11.287      8.0948      5.9678      4.5533      3.7056      3.2737      3.1427    
  3.2739      3.7067      4.5548      5.9678      8.0910      11.280      15.595      20.572      35.995      40.032    
  42.145      42.142      40.025      35.985      30.423      23.998      17.625      12.249      8.4307      6.0443    
  4.5549      3.7206      3.3568      3.3570      3.7210      4.5548      6.0426      8.4270      12.245      17.624    
  24.002      30.432      47.038      50.779      52.091      50.784      47.042      41.313      34.152      26.290    
  18.746      12.595      8.4285      5.9689      4.5142      3.7670      3.5401      3.7670      4.5139      5.9678    
  8.4270      12.595      18.748      26.296      34.157      41.313      58.243      61.542      61.545      58.252    
  52.380      44.795      36.138      27.097      18.745      12.244      8.0907      5.7553      4.4411      3.8592    
  3.8591      4.4407      5.7549      8.0910      12.245      18.748      27.100      36.138      44.791      52.372    
  69.608      71.871      69.608      63.571      55.319      46.009      36.141      26.296      17.623      11.278    
  7.4999      5.4399      4.3599      4.0277      4.3598      5.4399      7.5002      11.280      17.624      26.296    
  36.138      46.004      55.315      63.571      79.902      79.898      74.456      65.536      55.315      44.794    
  34.160      24.003      15.595      9.9209      6.7737      5.0768      4.3095      4.3097      5.0771      6.7738    
  9.9209      15.595      24.002      34.157      44.791      55.315      65.542      74.464      86.313      83.004    
  74.464      63.571      52.372      41.313      30.432      20.572      13.057      8.4475      6.0046      4.7289    
  4.3323      4.7289      6.0046      8.4475      13.057      20.572      30.432      41.313      52.372      63.571    
  74.464      83.004      77.060      69.625      59.900      49.549      39.036      28.629      19.297      12.295    
  8.0496      5.7759      4.5841      4.2152      4.5840      5.7758      8.0491      12.294      19.298      28.634    
  39.044      49.551      59.890      69.606      77.044      79.902      69.625      61.558      52.091      42.136    
  32.015      22.433      14.614      9.4034      6.5093      4.9232      4.2097      4.2098      4.9233      6.5089    
  9.4019      14.613      22.436      32.023      42.145      52.091      61.545      69.608      74.456      74.464    
  59.900      52.091      43.198      33.786      24.506      16.453      10.639      7.1896      5.2739      4.2698    
  3.9616      4.2698      5.2739      7.1888      10.636      16.450      24.505      33.791      43.206      52.097    
  59.901      65.540      67.640      65.542      49.549      42.136      33.786      25.226      17.465      11.511    
  7.7332      5.5760      4.3554      3.8163      3.8162      4.3554      5.5764      7.7329      11.508      17.459    
  25.221      33.787      42.146      49.565      55.330      58.560      58.554      55.315      39.036      32.015    
  24.506      17.465      11.826      8.0404      5.7794      4.4298      3.7382      3.5283      3.7383      4.4303    
  5.7805      8.0411      11.824      17.459      24.499      32.013      39.043      44.804      48.627      49.970    
  48.616      44.791      28.629      22.433      16.453      11.511      8.0404      5.8513      4.4715      3.6997    
  3.3627      3.3627      3.6997      4.4717      5.8525      8.0429      11.513      16.451      22.428      28.624    
  34.155      38.288      40.495      40.494      38.286      34.157      19.297      14.614      10.639      7.7332    
  5.7794      4.4715      3.6881      3.2878      3.1661      3.2875      3.6871      4.4703      5.7797      7.7363    
  10.644      14.618      19.296      23.997      27.974      30.616      31.542      30.621      27.981      24.002    
  12.295      9.4034      7.1896      5.5760      4.4298      3.6997      3.2878      3.1057      3.1059      3.2877    
  3.6985      4.4270      5.5731      7.1895      9.4077      12.302      15.600      18.787      21.296      22.673    
  22.675      21.298      18.787      15.595      8.0496      6.5093      5.2739      4.3554      3.7382      3.3627    
  3.1661      3.1059      3.1671      3.3640      3.7381      4.3522      5.2681      6.5045      8.0496      9.9263    
  11.964      13.823      15.126      15.595      15.124      13.816      11.956      9.9209      5.7759      4.9232    
  4.2698      3.8163      3.5283      3.3627      3.2875      3.2877      3.3640      3.5311      3.8192      4.2696    
  4.9184      5.7686      6.7685      7.8509      8.9279      9.8185      10.325      10.322      9.8123      8.9226    
  7.8507      6.7738      4.5841      4.2097      3.9616      3.8162      3.7383      3.6997      3.6871      3.6985    
  3.7381      3.8192      3.9672      4.2143      4.5839      5.0715      5.6370      6.2091      6.7033      7.0441    
  7.1658      7.0422      6.7029      6.2131      5.6441      5.0771      4.2152      4.2098      4.2698      4.3554    
  4.4303      4.4717      4.4703      4.4270      4.3522      4.2696      4.2143      4.2222      4.3147      4.4873    
  4.7100      4.9364      5.1186      5.2196      5.2204      5.1215      4.9413      4.7144      4.4875      4.3097    
  4.5840      4.9233      5.2739      5.5764      5.7805      5.8525      5.7797      5.5731      5.2681      4.9184    
  4.5839      4.3147      4.1373      4.0492      4.0252      4.0329      4.0470      4.0539      4.0493      4.0357    
  4.0254      4.0451      4.1305      4.3095      5.7758      6.5089      7.1888      7.7329      8.0411      8.0429    
  7.7363      7.1895      6.5045      5.7686      5.0715      4.4873      4.0492      3.7505      3.5621      3.4530    
  3.4032      3.4035      3.4531      3.5598      3.7459      4.0452      4.4875      5.0768      8.0491      9.4019    
  10.636      11.508      11.824      11.513      10.644      9.4077      8.0496      6.7685      5.6370      4.7100    
  4.0252      3.5621      3.2748      3.1204      3.0717      3.1195      3.2727      3.5597      4.0253      4.7145    
  5.6441      6.7737      12.294      14.613      16.450      17.459      17.459      16.451      14.618      12.302    
  9.9263      7.8509      6.2091      4.9364      4.0329      3.4530      3.1204      2.9709      2.9705      3.1197    
  3.4531      4.0354      4.9411      6.2132      7.8507      9.9209      19.298      22.436      24.505      25.221    
  24.499      22.428      19.296      15.600      11.964      8.9279      6.7033      5.1186      4.0470      3.4032    
  3.0717      2.9705      3.0718      3.4041      4.0492      5.1209      6.7029      8.9230      11.956      15.595    
  28.634      32.023      33.791      33.787      32.013      28.624      23.997      18.787      13.823      9.8185    
  7.0441      5.2196      4.0539      3.4035      3.1195      3.1197      3.4041      4.0547      5.2194      7.0414    
  9.8133      13.818      18.787      24.003      39.044      42.145      43.206      42.146      39.043      34.155    
  27.974      21.296      15.126      10.325      7.1658      5.2204      4.0493      3.4531      3.2727      3.4531    
  4.0492      5.2194      7.1634      10.322      15.127      21.300      27.981      34.160      49.551      52.091    
  52.097      49.565      44.804      38.288      30.616      22.673      15.595      10.322      7.0422      5.1215    
  4.0357      3.5598      3.5597      4.0354      5.1209      7.0414      10.322      15.598      22.679      30.622    
  38.286      44.794      59.890      61.545      59.901      55.330      48.627      40.495      31.542      22.675    
  15.124      9.8123      6.7029      4.9413      4.0254      3.7459      4.0253      4.9411      6.7029      9.8133    
  15.127      22.679      31.544      40.492      48.616      55.315      69.606      69.608      65.540      58.560    
  49.970      40.494      30.621      21.298      13.816      8.9226      6.2131      4.7144      4.0451      4.0452    
  4.7145      6.2132      8.9230      13.818      21.300      30.622      40.492      49.965      58.554      65.536    
  77.044      74.456      67.640      58.554      48.616      38.286      27.981      18.787      11.956      7.8507    
  5.6441      4.4875      4.1305      4.4875      5.6441      7.8507      11.956      18.787      27.981      38.286    
  48.616      58.554      67.640      74.456      79.902      74.464      65.542      55.315      44.791      34.157    
  24.002      15.595      9.9209      6.7738      5.0771      4.3097      4.3095      5.0768      6.7737      9.9209    
  15.595      24.003      34.160      44.794      55.315      65.536      74.456      79.898      65.407      58.248    
  49.549      40.088      30.331      21.149      13.773      8.9326      6.2433      4.7529      4.0865      4.0866    
  4.7531      6.2433      8.9317      13.771      21.149      30.334      40.093      49.552      58.247      65.403    
  69.606      69.608      58.248      50.778      42.136      32.907      23.811      15.970      10.354      7.0356    
  5.1787      4.2073      3.9097      4.2074      5.1790      7.0354      10.353      15.967      23.809      32.909    
  42.142      50.784      58.252      63.571      65.536      63.571      49.549      42.136      33.786      25.226    
  17.465      11.511      7.7332      5.5760      4.3554      3.8163      3.8162      4.3554      5.5764      7.7329    
  11.508      17.459      25.221      33.787      42.146      49.565      55.330      58.560      58.554      55.315    
  40.088      32.907      25.226      17.993      12.161      8.2238      5.8831      4.4910      3.7766      3.5597    
  3.7767      4.4916      5.8841      8.2239      12.157      17.985      25.218      32.906      40.101      46.025    
  49.981      51.376      49.965      46.004      30.331      23.811      17.465      12.161      8.4016      6.0507    
  4.5840      3.7624      3.4037      3.4038      3.7627      4.5849      6.0526      8.4032      12.159      17.457    
  23.802      30.328      36.145      40.503      42.839      42.833      40.492      36.138      21.149      15.970    
  11.511      8.2238      6.0507      4.6169      3.7581      3.3202      3.1873      3.3201      3.7578      4.6172    
  6.0530      8.2274      11.513      15.967      21.143      26.290      30.618      33.487      34.490      33.488    
  30.622      26.296      13.773      10.354      7.7332      5.8831      4.5840      3.7581      3.2940      3.0892    
  3.0892      3.2935      3.7569      4.5829      5.8840      7.7368      10.359      13.775      17.622      21.294    
  24.158      25.721      25.724      24.164      21.300      17.624      8.9326      7.0356      5.5760      4.4910    
  3.7624      3.3202      3.0892      3.0183      3.0896      3.3202      3.7609      4.4881      5.5735      7.0360    
  8.9365      11.285      13.821      16.109      17.701      18.271      17.702      16.109      13.818      11.280    
  6.2433      5.1787      4.3554      3.7766      3.4037      3.1873      3.0892      3.0896      3.1887      3.4051    
  3.7764      4.3522      5.1736      6.2394      7.5003      8.9272      10.369      11.561      12.238      12.236    
  11.556      10.363      8.9230      7.5002      4.7529      4.2073      3.8163      3.5597      3.4038      3.3201    
  3.2935      3.3202      3.4051      3.5627      3.8192      4.2072      4.7487      5.4338      6.2091      6.9881    
  7.6848      8.1795      8.3584      8.1763      7.6814      6.9878      6.2132      5.4399      4.0865      3.9097    
  3.8162      3.7767      3.7627      3.7578      3.7569      3.7609      3.7764      3.8192      3.9150      4.0907    
  4.3597      4.7101      5.1030      5.4800      5.7771      5.9404      5.9400      5.7773      5.4830      5.1083    
  4.7145      4.3598      4.0866      4.2074      4.3554      4.4916      4.5849      4.6172      4.5829      4.4881    
  4.3522      4.2072      4.0907      4.0337      4.0492      4.1274      4.2401      4.3519      4.4322      4.4616    
  4.4340      4.3552      4.2431      4.1275      4.0452      4.0277      4.7531      5.1790      5.5764      5.8841    
  6.0526      6.0530      5.8840      5.5735      5.1736      4.7487      4.3597      4.0492      3.8327      3.7001    
  3.6272      3.5903      3.5751      3.5760      3.5919      3.6273      3.6971      3.8275      4.0451      4.3599    
  6.2433      7.0354      7.7329      8.2239      8.4032      8.2274      7.7368      7.0360      6.2394      5.4338    
  4.7101      4.1274      3.7001      3.4099      3.2264      3.1251      3.0928      3.1251      3.2250      3.4068    
  3.6972      4.1275      4.7144      5.4399      8.9317      10.353      11.508      12.157      12.159      11.513    
  10.359      8.9365      7.5003      6.2091      5.1030      4.2401      3.6272      3.2264      2.9896      2.8803    
  2.8799      2.9884      3.2250      3.6273      4.2433      5.1083      6.2131      7.4999      13.771      15.967    
  17.459      17.985      17.457      15.967      13.775      11.285      8.9272      6.9881      5.4800      4.3519    
  3.5903      3.1251      2.8803      2.8044      2.8800      3.1252      3.5918      4.3550      5.4829      6.9878    
  8.9226      11.278      21.149      23.809      25.221      25.218      23.802      21.143      17.622      13.821    
  10.369      7.6848      5.7771      4.4322      3.5751      3.0928      2.8799      2.8800      3.0934      3.5764    
  4.4335      5.7767      7.6814      10.363      13.816      17.623      30.334      32.909      33.787      32.906    
  30.328      26.290      21.294      16.109      11.561      8.1795      5.9404      4.4616      3.5760      3.1251    
  2.9884      3.1252      3.5764      4.4617      5.9388      8.1760      11.558      16.109      21.298      26.296    
  40.093      42.142      42.146      40.101      36.145      30.618      24.158      17.701      12.238      8.3584    
  5.9400      4.4340      3.5919      3.2250      3.2250      3.5918      4.4335      5.9388      8.3567      12.238    
  17.705      24.164      30.621      36.141      49.552      50.784      49.565      46.025      40.503      33.487    
  25.721      18.271      12.236      8.1763      5.7773      4.3552      3.6273      3.4068      3.6273      4.3550    
  5.7767      8.1760      12.238      18.277      25.727      33.488      40.494      46.009      58.247      58.252    
  55.330      49.981      42.839      34.490      25.724      17.702      11.556      7.6814      5.4830      4.2431    
  3.6971      3.6972      4.2433      5.4829      7.6814      11.558      17.705      25.727      34.490      42.833    
  49.970      55.319      65.403      63.571      58.560      51.376      42.833      33.488      24.164      16.109    
  10.363      6.9878      5.1083      4.1275      3.8275      4.1275      5.1083      6.9878      10.363      16.109    
  24.164      33.488      42.833      51.376      58.560      63.571      69.606      65.536      58.554      49.965    
  40.492      30.622      21.300      13.818      8.9230      6.2132      4.7145      4.0452      4.0451      4.7144    
  6.2131      8.9226      13.816      21.298      30.621      40.494      49.970      58.560      65.540      69.608    
  69.608      63.571      55.315      46.004      36.138      26.296      17.624      11.280      7.5002      5.4399    
  4.3598      4.0277      4.3599      5.4399      7.4999      11.278      17.623      26.296      36.141      46.009    
  55.319      63.571      69.608      71.871      53.684      47.034      39.036      30.331      21.804      14.602    
  9.5619      6.6040      4.9104      4.0305      3.7620      4.0306      4.9109      6.6047      9.5617      14.600    
  21.800      30.329      39.037      47.038      53.690      58.247      59.890      58.243      47.034      40.022    
  32.015      23.811      16.454      10.894      7.3998      5.3784      4.2332      3.7292      3.7291      4.2334    
  5.3792      7.4006      10.893      16.450      23.806      32.013      40.025      47.042      52.380      55.319    
  55.315      52.372      39.036      32.015      24.506      17.465      11.826      8.0404      5.7794      4.4298    
  3.7382      3.5283      3.7383      4.4303      5.7805      8.0411      11.824      17.459      24.499      32.013    
  39.043      44.804      48.627      49.970      48.616      44.791      30.331      23.811      17.465      12.161    
  8.4016      6.0507      4.5840      3.7624      3.4037      3.4038      3.7627      4.5849      6.0526      8.4032    
  12.159      17.457      23.802      30.328      36.145      40.503      42.839      42.833      40.492      36.138    
  21.804      16.454      11.826      8.4016      6.1466      4.6682      3.7828      3.3317      3.1949      3.3317    
  3.7829      4.6694      6.1497      8.4050      11.826      16.448      21.794      27.094      31.544      34.492    
  35.522      34.490      31.544      27.100      14.602      10.894      8.0404      6.0507      4.6682      3.7901    
  3.2980      3.0813      3.0813      3.2978      3.7897      4.6689      6.0539      8.0451      10.897      14.600    
  18.741      22.670      25.720      27.382      27.385      25.727      22.679      18.748      9.5619      7.3998    