FCC Au                                  
   4.20000000000000     
     0.000000    0.500000    0.500000
     0.500000    0.000000    0.500000
     0.500000    0.500000    0.000000
   Au
     1
Direct
  0.000000  0.000000  0.000000
 
   24   24   24
 0.89931636310E+02 0.86321924848E+02 0.77060145305E+02 0.65407045434E+02 0.53684155973E+02
 0.42344118613E+02 0.31271000348E+02 0.21195068627E+02 0.13448650390E+02 0.86613999524E+01
 0.61317165347E+01 0.48139955324E+01 0.44032508119E+01 0.48139955324E+01 0.61317165347E+01
 0.86613999524E+01 0.13448650390E+02 0.21195068627E+02 0.31271000348E+02 0.42344118613E+02
 0.53684155973E+02 0.65407045434E+02 0.77060145305E+02 0.86321924848E+02 0.86321924848E+02
 0.79921171594E+02 0.69625189753E+02 0.58248415576E+02 0.47033752119E+02 0.35989035603E+02
 0.25435350995E+02 0.16566922166E+02 0.10478279009E+02 0.70800291285E+01 0.52745560499E+01
 0.44530086293E+01 0.44528494418E+01 0.52742847867E+01 0.70798601872E+01 0.10478284376E+02
 0.16567966066E+02 0.25439129529E+02 0.35995314839E+02 0.47037584332E+02 0.58242662277E+02
 0.69608214466E+02 0.79901593282E+02 0.86313218682E+02 0.77060145305E+02 0.69625189753E+02
 0.59900313777E+02 0.49548801462E+02 0.39036254294E+02 0.28628642579E+02 0.19296869548E+02
 0.12294759852E+02 0.80495547223E+01 0.57758961655E+01 0.45841051589E+01 0.42151808885E+01
 0.45840248059E+01 0.57757649620E+01 0.80490909313E+01 0.12294230868E+02 0.19298313643E+02
 0.28634236782E+02 0.39043954645E+02 0.49551084898E+02 0.59890441252E+02 0.69605949724E+02
 0.77044399961E+02 0.79901593282E+02 0.65407045434E+02 0.58248415576E+02 0.49548801462E+02
 0.40088495043E+02 0.30331306098E+02 0.21149459787E+02 0.13772850976E+02 0.89325895920E+01
 0.62433085844E+01 0.47528596321E+01 0.40865377120E+01 0.40866495037E+01 0.47531435921E+01
 0.62433483771E+01 0.89316804714E+01 0.13771177847E+02 0.21148855766E+02 0.30333631038E+02
 0.40092882040E+02 0.49551575934E+02 0.58246833466E+02 0.65402778530E+02 0.69605949724E+02
 0.69608214466E+02 0.53684155973E+02 0.47033752119E+02 0.39036254294E+02 0.30331306098E+02
 0.21803547093E+02 0.14602367645E+02 0.95619256061E+01 0.66040132217E+01 0.49103971024E+01
 0.40304863235E+01 0.37619966707E+01 0.40306094871E+01 0.49108904933E+01 0.66046513223E+01
 0.95616972305E+01 0.14600329813E+02 0.21800134784E+02 0.30328597537E+02 0.39036591366E+02
 0.47037767515E+02 0.53689933565E+02 0.58246833466E+02 0.59890441252E+02 0.58242662277E+02
 0.42344118613E+02 0.35989035603E+02 0.28628642579E+02 0.21149459787E+02 0.14602367645E+02
 0.97909197840E+01 0.68021298537E+01 0.50184087074E+01 0.40102946820E+01 0.35686206390E+01
 0.35684588029E+01 0.40101744873E+01 0.50191299957E+01 0.68040710787E+01 0.97931298728E+01
 0.14602735746E+02 0.21146436499E+02 0.28623067526E+02 0.35983844558E+02 0.42341751891E+02
 0.47037767515E+02 0.49551575934E+02 0.49551084898E+02 0.47037584332E+02 0.31271000348E+02
 0.25435350995E+02 0.19296869548E+02 0.13772850976E+02 0.95619256061E+01 0.68021298537E+01
 0.50562986032E+01 0.40036707362E+01 0.34673968866E+01 0.33049096325E+01 0.34670500007E+01
 0.40030967708E+01 0.50564285813E+01 0.68044667912E+01 0.95667857956E+01 0.13777909507E+02
 0.19298145983E+02 0.25430224255E+02 0.31260530178E+02 0.35983844558E+02 0.39036591366E+02
 0.40092882040E+02 0.39043954645E+02 0.35995314839E+02 0.21195068627E+02 0.16566922166E+02
 0.12294759852E+02 0.89325895920E+01 0.66040132217E+01 0.50184087074E+01 0.40036707362E+01
 0.34357254060E+01 0.31869657052E+01 0.31870101852E+01 0.34352744966E+01 0.40019422924E+01
 0.50162200868E+01 0.66041029865E+01 0.89373443474E+01 0.12303056124E+02 0.16573532579E+02
 0.21194322674E+02 0.25430224255E+02 0.28623067526E+02 0.30328597537E+02 0.30333631038E+02
 0.28634236782E+02 0.25439129529E+02 0.13448650390E+02 0.10478279009E+02 0.80495547223E+01
 0.62433085844E+01 0.49103971024E+01 0.40102946820E+01 0.34673968866E+01 0.31869657052E+01
 0.31015523092E+01 0.31874636442E+01 0.34672817647E+01 0.40080347769E+01 0.49058244930E+01
 0.62391356263E+01 0.80499878351E+01 0.10484849675E+02 0.13457686073E+02 0.16573532579E+02
 0.19298145983E+02 0.21146436499E+02 0.21800134784E+02 0.21148855766E+02 0.19298313643E+02
 0.16567966066E+02 0.86613999524E+01 0.70800291285E+01 0.57758961655E+01 0.47528596321E+01
 0.40304863235E+01 0.35686206390E+01 0.33049096325E+01 0.31870101852E+01 0.31874636442E+01
 0.33064173910E+01 0.35705710153E+01 0.40304782363E+01 0.47485867395E+01 0.57684736166E+01
 0.70742575587E+01 0.86617479732E+01 0.10484849675E+02 0.12303056124E+02 0.13777909507E+02
 0.14602735746E+02 0.14600329813E+02 0.13771177847E+02 0.12294230868E+02 0.10478284376E+02
 0.61317165347E+01 0.52745560499E+01 0.45841051589E+01 0.40865377120E+01 0.37619966707E+01
 0.35684588029E+01 0.34670500007E+01 0.34352744966E+01 0.34672817647E+01 0.35705710153E+01
 0.37664592764E+01 0.40906627240E+01 0.45838073623E+01 0.52684035951E+01 0.61229962351E+01
 0.70742575587E+01 0.80499878351E+01 0.89373443474E+01 0.95667857956E+01 0.97931298728E+01
 0.95616972305E+01 0.89316804714E+01 0.80490909313E+01 0.70798601872E+01 0.48139955324E+01
 0.44530086293E+01 0.42151808885E+01 0.40866495037E+01 0.40306094871E+01 0.40101744873E+01
 0.40030967708E+01 0.40019422924E+01 0.40080347769E+01 0.40304782363E+01 0.40906627240E+01
 0.42221544535E+01 0.44585206124E+01 0.48138346407E+01 0.52684035951E+01 0.57684736166E+01
 0.62391356263E+01 0.66041029865E+01 0.68044667912E+01 0.68040710787E+01 0.66046513223E+01
 0.62433483771E+01 0.57757649620E+01 0.52742847867E+01 0.44032508119E+01 0.44528494418E+01
 0.45840248059E+01 0.47531435921E+01 0.49108904933E+01 0.50191299957E+01 0.50564285813E+01
 0.50162200868E+01 0.49058244930E+01 0.47485867395E+01 0.45838073623E+01 0.44585206124E+01
 0.44116986533E+01 0.44585206124E+01 0.45838073623E+01 0.47485867395E+01 0.49058244930E+01
 0.50162200868E+01 0.50564285813E+01 0.50191299957E+01 0.49108904933E+01 0.47531435921E+01
 0.45840248059E+01 0.44528494418E+01 0.48139955324E+01 0.52742847867E+01 0.57757649620E+01
 0.62433483771E+01 0.66046513223E+01 0.68040710787E+01 0.68044667912E+01 0.66041029865E+01
 0.62391356263E+01 0.57684736166E+01 0.52684035951E+01 0.48138346407E+01 0.44585206124E+01
 0.42221544535E+01 0.40906627240E+01 0.40304782363E+01 0.40080347769E+01 0.40019422924E+01
 0.40030967708E+01 0.40101744873E+01 0.40306094871E+01 0.40866495037E+01 0.42151808885E+01
 0.44530086293E+01 0.61317165347E+01 0.70798601872E+01 0.80490909313E+01 0.89316804714E+01
 0.95616972305E+01 0.97931298728E+01 0.95667857956E+01 0.89373443474E+01 0.80499878351E+01
 0.70742575587E+01 0.61229962351E+01 0.52684035951E+01 0.45838073623E+01 0.40906627240E+01
 0.37664592764E+01 0.35705710153E+01 0.34672817647E+01 0.34352744966E+01 0.34670500007E+01
 0.35684588029E+01 0.37619966707E+01 0.40865377120E+01 0.45841051589E+01 0.52745560499E+01
 0.86613999524E+01 0.10478284376E+02 0.12294230868E+02 0.13771177847E+02 0.14600329813E+02
 0.14602735746E+02 0.13777909507E+02 0.12303056124E+02 0.10484849675E+02 0.86617479732E+01
 0.70742575587E+01 0.57684736166E+01 0.47485867395E+01 0.40304782363E+01 0.35705710153E+01
 0.33064173910E+01 0.31874636442E+01 0.31870101852E+01 0.33049096325E+01 0.35686206390E+01
 0.40304863235E+01 0.47528596321E+01 0.57758961655E+01 0.70800291285E+01 0.13448650390E+02
 0.16567966066E+02 0.19298313643E+02 0.21148855766E+02 0.21800134784E+02 0.21146436499E+02
 0.19298145983E+02 0.16573532579E+02 0.13457686073E+02 0.10484849675E+02 0.80499878351E+01
 0.62391356263E+01 0.49058244930E+01 0.40080347769E+01 0.34672817647E+01 0.31874636442E+01
 0.31015523092E+01 0.31869657052E+01 0.34673968866E+01 0.40102946820E+01 0.49103971024E+01
 0.62433085844E+01 0.80495547223E+01 0.10478279009E+02 0.21195068627E+02 0.25439129529E+02
 0.28634236782E+02 0.30333631038E+02 0.30328597537E+02 0.28623067526E+02 0.25430224255E+02
 0.21194322674E+02 0.16573532579E+02 0.12303056124E+02 0.89373443474E+01 0.66041029865E+01
 0.50162200868E+01 0.40019422924E+01 0.34352744966E+01 0.31870101852E+01 0.31869657052E+01
 0.34357254060E+01 0.40036707362E+01 0.50184087074E+01 0.66040132217E+01 0.89325895920E+01
 0.12294759852E+02 0.16566922166E+02 0.31271000348E+02 0.35995314839E+02 0.39043954645E+02
 0.40092882040E+02 0.39036591366E+02 0.35983844558E+02 0.31260530178E+02 0.25430224255E+02
 0.19298145983E+02 0.13777909507E+02 0.95667857956E+01 0.68044667912E+01 0.50564285813E+01
 0.40030967708E+01 0.34670500007E+01 0.33049096325E+01 0.34673968866E+01 0.40036707362E+01
 0.50562986032E+01 0.68021298537E+01 0.95619256061E+01 0.13772850976E+02 0.19296869548E+02
 0.25435350995E+02 0.42344118613E+02 0.47037584332E+02 0.49551084898E+02 0.49551575934E+02
 0.47037767515E+02 0.42341751891E+02 0.35983844558E+02 0.28623067526E+02 0.21146436499E+02
 0.14602735746E+02 0.97931298728E+01 0.68040710787E+01 0.50191299957E+01 0.40101744873E+01
 0.35684588029E+01 0.35686206390E+01 0.40102946820E+01 0.50184087074E+01 0.68021298537E+01
 0.97909197840E+01 0.14602367645E+02 0.21149459787E+02 0.28628642579E+02 0.35989035603E+02
 0.53684155973E+02 0.58242662277E+02 0.59890441252E+02 0.58246833466E+02 0.53689933565E+02
 0.47037767515E+02 0.39036591366E+02 0.30328597537E+02 0.21800134784E+02 0.14600329813E+02
 0.95616972305E+01 0.66046513223E+01 0.49108904933E+01 0.40306094871E+01 0.37619966707E+01
 0.40304863235E+01 0.49103971024E+01 0.66040132217E+01 0.95619256061E+01 0.14602367645E+02
 0.21803547093E+02 0.30331306098E+02 0.39036254294E+02 0.47033752119E+02 0.65407045434E+02
 0.69608214466E+02 0.69605949724E+02 0.65402778530E+02 0.58246833466E+02 0.49551575934E+02
 0.40092882040E+02 0.30333631038E+02 0.21148855766E+02 0.13771177847E+02 0.89316804714E+01
 0.62433483771E+01 0.47531435921E+01 0.40866495037E+01 0.40865377120E+01 0.47528596321E+01
 0.62433085844E+01 0.89325895920E+01 0.13772850976E+02 0.21149459787E+02 0.30331306098E+02
 0.40088495043E+02 0.49548801462E+02 0.58248415576E+02 0.77060145305E+02 0.79901593282E+02
 0.77044399961E+02 0.69605949724E+02 0.59890441252E+02 0.49551084898E+02 0.39043954645E+02
 0.28634236782E+02 0.19298313643E+02 0.12294230868E+02 0.80490909313E+01 0.57757649620E+01
 0.45840248059E+01 0.42151808885E+01 0.45841051589E+01 0.57758961655E+01 0.80495547223E+01
 0.12294759852E+02 0.19296869548E+02 0.28628642579E+02 0.39036254294E+02 0.49548801462E+02
 0.59900313777E+02 0.69625189753E+02 0.86321924848E+02 0.86313218682E+02 0.79901593282E+02
 0.69608214466E+02 0.58242662277E+02 0.47037584332E+02 0.35995314839E+02 0.25439129529E+02
 0.16567966066E+02 0.10478284376E+02 0.70798601872E+01 0.52742847867E+01 0.44528494418E+01
 0.44530086293E+01 0.52745560499E+01 0.70800291285E+01 0.10478279009E+02 0.16566922166E+02
 0.25435350995E+02 0.35989035603E+02 0.47033752119E+02 0.58248415576E+02 0.69625189753E+02
 0.79921171594E+02 0.86321924848E+02 0.79921171594E+02 0.69625189753E+02 0.58248415576E+02
 0.47033752119E+02 0.35989035603E+02 0.25435350995E+02 0.16566922166E+02 0.10478279009E+02
 0.70800291285E+01 0.52745560499E+01 0.44530086293E+01 0.44528494418E+01 0.52742847867E+01
 0.70798601872E+01 0.10478284376E+02 0.16567966066E+02 0.25439129529E+02 0.35995314839E+02
 0.47037584332E+02 0.58242662277E+02 0.69608214466E+02 0.79901593282E+02 0.86313218682E+02
 0.79921171594E+02 0.71900150109E+02 0.61558215108E+02 0.50777744113E+02 0.40022114727E+02
 0.29428719481E+02 0.19882371330E+02 0.12657142913E+02 0.82463790108E+01 0.58945151992E+01
 0.46631105233E+01 0.42810691106E+01 0.46630731436E+01 0.58943106171E+01 0.82456875025E+01
 0.12656727082E+02 0.19885204668E+02 0.29437220349E+02 0.40032452575E+02 0.50779031044E+02
 0.61541672927E+02 0.71870788595E+02 0.79897779031E+02 0.83004387781E+02 0.69625189753E+02
 0.61558215108E+02 0.52091289676E+02 0.42136256836E+02 0.32015064063E+02 0.22433486559E+02
 0.14614203099E+02 0.94034350615E+01 0.65093100055E+01 0.49231901676E+01 0.42097277354E+01
 0.42098249804E+01 0.49233323173E+01 0.65088749495E+01 0.94018993892E+01 0.14612966806E+02
 0.22436027117E+02 0.32022923077E+02 0.42144575131E+02 0.52091033166E+02 0.61545465334E+02
 0.69607698729E+02 0.74456101212E+02 0.74464279391E+02 0.58248415576E+02 0.50777744113E+02
 0.42136256836E+02 0.32906507370E+02 0.23810693200E+02 0.15969720619E+02 0.10354393558E+02
 0.70356115167E+01 0.51787302608E+01 0.42073433811E+01 0.39096774680E+01 0.42074072651E+01
 0.51789747390E+01 0.70353945559E+01 0.10352636528E+02 0.15966782715E+02 0.23809127374E+02
 0.32908816939E+02 0.42141950171E+02 0.50783545565E+02 0.58251633886E+02 0.63571412754E+02
 0.65535671738E+02 0.63570577930E+02 0.47033752119E+02 0.40022114727E+02 0.32015064063E+02
 0.23810693200E+02 0.16453836243E+02 0.10894324612E+02 0.73998138818E+01 0.53783914428E+01
 0.42332393994E+01 0.37291975786E+01 0.37291359331E+01 0.42334124205E+01 0.53792093136E+01
 0.74006189075E+01 0.10893441353E+02 0.16450247113E+02 0.23805828396E+02 0.32012575623E+02
 0.40025175224E+02 0.47041961788E+02 0.52380395847E+02 0.55318675099E+02 0.55314876092E+02
 0.52371555353E+02 0.35989035603E+02 0.29428719481E+02 0.22433486559E+02 0.15969720619E+02
 0.10894324612E+02 0.75313353754E+01 0.54870416004E+01 0.42574848136E+01 0.36294813895E+01
 0.34391052243E+01 0.36293850698E+01 0.42576103387E+01 0.54880600205E+01 0.75335277018E+01
 0.10896476482E+02 0.15969496073E+02 0.22429760809E+02 0.29423364365E+02 0.35985491983E+02
 0.41312597534E+02 0.44795010741E+02 0.46008679686E+02 0.44793791482E+02 0.41312826253E+02
 0.25435350995E+02 0.19882371330E+02 0.14614203099E+02 0.10354393558E+02 0.73998138818E+01
 0.54870416004E+01 0.42666828049E+01 0.35848716064E+01 0.32869415730E+01 0.32868576319E+01
 0.35843623925E+01 0.42657803361E+01 0.54870837723E+01 0.74025642859E+01 0.10359720293E+02
 0.14619115447E+02 0.19883008064E+02 0.25430183483E+02 0.30422731975E+02 0.34151862244E+02
 0.36137525681E+02 0.36140705636E+02 0.34159848381E+02 0.30431525755E+02 0.16566922166E+02
 0.12657142913E+02 0.94034350615E+01 0.70356115167E+01 0.53783914428E+01 0.42574848136E+01
 0.35848716064E+01 0.32398803151E+01 0.31350074047E+01 0.32398684292E+01 0.35839551607E+01
 0.42551308240E+01 0.53758231532E+01 0.70356558024E+01 0.94081398508E+01 0.12665008656E+02
 0.16573015087E+02 0.20571548759E+02 0.23997671090E+02 0.26290496083E+02 0.27096702040E+02
 0.26296035177E+02 0.24003274990E+02 0.20571608499E+02 0.10478279009E+02 0.82463790108E+01
 0.65093100055E+01 0.51787302608E+01 0.42332393994E+01 0.36294813895E+01 0.32869415730E+01
 0.31350074047E+01 0.31354218462E+01 0.32877899151E+01 0.36294189251E+01 0.42305332300E+01
 0.51733680714E+01 0.65044821241E+01 0.82464528991E+01 0.10484477932E+02 0.13065424722E+02
 0.15601287183E+02 0.17625098193E+02 0.18745507600E+02 0.18745193153E+02 0.17622692266E+02
 0.15594890293E+02 0.13056669774E+02 0.70800291285E+01 0.58945151992E+01 0.49231901676E+01
 0.42073433811E+01 0.37291975786E+01 0.34391052243E+01 0.32868576319E+01 0.32398684292E+01
 0.32877899151E+01 0.34413910989E+01 0.37317825340E+01 0.42072801830E+01 0.49183791426E+01
 0.58867124090E+01 0.70742095892E+01 0.84477951607E+01 0.99271489873E+01 0.11286822723E+02
 0.12249286934E+02 0.12595364106E+02 0.12243634524E+02 0.11278458178E+02 0.99208524200E+01
 0.84475083288E+01 0.52745560499E+01 0.46631105233E+01 0.42097277354E+01 0.39096774680E+01
 0.37291359331E+01 0.36293850698E+01 0.35843623925E+01 0.35839551607E+01 0.36294189251E+01
 0.37317825340E+01 0.39149453778E+01 0.42143203301E+01 0.46628655764E+01 0.52684322071E+01
 0.59962442472E+01 0.67686374928E+01 0.75007266054E+01 0.80948216618E+01 0.84307280034E+01
 0.84285128626E+01 0.80907350316E+01 0.74999061255E+01 0.67736969725E+01 0.60046014147E+01
 0.44530086293E+01 0.42810691106E+01 0.42098249804E+01 0.42074072651E+01 0.42334124205E+01
 0.42576103387E+01 0.42657803361E+01 0.42551308240E+01 0.42305332300E+01 0.42072801830E+01
 0.42143203301E+01 0.42884680528E+01 0.44585523399E+01 0.47287138407E+01 0.50714257733E+01
 0.54336057367E+01 0.57515555499E+01 0.59678177073E+01 0.60443271409E+01 0.59688893758E+01
 0.57552916227E+01 0.54399201721E+01 0.50767903516E+01 0.47289100980E+01 0.44528494418E+01
 0.46630731436E+01 0.49233323173E+01 0.51789747390E+01 0.53792093136E+01 0.54880600205E+01
 0.54870837723E+01 0.53758231532E+01 0.51733680714E+01 0.49183791426E+01 0.46628655764E+01
 0.44585523399E+01 0.43403109651E+01 0.43146114482E+01 0.43596259512E+01 0.44373320393E+01
 0.45103229247E+01 0.45533095578E+01 0.45548732240E+01 0.45142452930E+01 0.44411427329E+01
 0.43598635521E+01 0.43095160236E+01 0.43322758851E+01 0.52742847867E+01 0.58943106171E+01
 0.65088749495E+01 0.70353945559E+01 0.74006189075E+01 0.75335277018E+01 0.74025642859E+01
 0.70356558024E+01 0.65044821241E+01 0.58867124090E+01 0.52684322071E+01 0.47287138407E+01
 0.43146114482E+01 0.40336201151E+01 0.38624537185E+01 0.37668498878E+01 0.37194082795E+01
 0.37056377789E+01 0.37206224225E+01 0.37669600449E+01 0.38592292644E+01 0.40276534043E+01
 0.43096872268E+01 0.47289100980E+01 0.70798601872E+01 0.82456875025E+01 0.94018993892E+01
 0.10352636528E+02 0.10893441353E+02 0.10896476482E+02 0.10359720293E+02 0.94081398508E+01
 0.82464528991E+01 0.70742095892E+01 0.59962442472E+01 0.50714257733E+01 0.43596259512E+01
 0.38624537185E+01 0.35434311365E+01 0.33582391574E+01 0.32738751350E+01 0.32736577337E+01
 0.33568223521E+01 0.35401259782E+01 0.38590742414E+01 0.43598447412E+01 0.50770512846E+01
 0.60046014147E+01 0.10478284376E+02 0.12656727082E+02 0.14612966806E+02 0.15966782715E+02
 0.16450247113E+02 0.15969496073E+02 0.14619115447E+02 0.12665008656E+02 0.10484477932E+02
 0.84477951607E+01 0.67686374928E+01 0.54336057367E+01 0.44373320393E+01 0.37668498878E+01
 0.33582391574E+01 0.31435599253E+01 0.30769427753E+01 0.31427027579E+01 0.33570173539E+01
 0.37669574758E+01 0.44407421016E+01 0.54398518765E+01 0.67737855394E+01 0.84475083288E+01
 0.16567966066E+02 0.19885204668E+02 0.22436027117E+02 0.23809127374E+02 0.23805828396E+02
 0.22429760809E+02 0.19883008064E+02 0.16573015087E+02 0.13065424722E+02 0.99271489873E+01
 0.75007266054E+01 0.57515555499E+01 0.45103229247E+01 0.37194082795E+01 0.32738751350E+01
 0.30769427753E+01 0.30767275560E+01 0.32739015632E+01 0.37210334636E+01 0.45138851412E+01
 0.57549260358E+01 0.75001907812E+01 0.99209447033E+01 0.13056669774E+02 0.25439129529E+02
 0.29437220349E+02 0.32022923077E+02 0.32908816939E+02 0.32012575623E+02 0.29423364365E+02
 0.25430183483E+02 0.20571548759E+02 0.15601287183E+02 0.11286822723E+02 0.80948216618E+01
 0.59678177073E+01 0.45533095578E+01 0.37056377789E+01 0.32736577337E+01 0.31427027579E+01
 0.32739015632E+01 0.37066532033E+01 0.45547781588E+01 0.59677666924E+01 0.80910264328E+01
 0.11279616442E+02 0.15594865775E+02 0.20571608499E+02 0.35995314839E+02 0.40032452575E+02
 0.42144575131E+02 0.42141950171E+02 0.40025175224E+02 0.35985491983E+02 0.30422731975E+02
 0.23997671090E+02 0.17625098193E+02 0.12249286934E+02 0.84307280034E+01 0.60443271409E+01
 0.45548732240E+01 0.37206224225E+01 0.33568223521E+01 0.33570173539E+01 0.37210334636E+01
 0.45547781588E+01 0.60425813454E+01 0.84269986315E+01 0.12245343229E+02 0.17624206100E+02
 0.24002051335E+02 0.30431525755E+02 0.47037584332E+02 0.50779031044E+02 0.52091033166E+02
 0.50783545565E+02 0.47041961788E+02 0.41312597534E+02 0.34151862244E+02 0.26290496083E+02
 0.18745507600E+02 0.12595364106E+02 0.84285128626E+01 0.59688893758E+01 0.45142452930E+01
 0.37669600449E+01 0.35401259782E+01 0.37669574758E+01 0.45138851412E+01 0.59677666924E+01
 0.84269986315E+01 0.12595145686E+02 0.18748433309E+02 0.26296141016E+02 0.34156706014E+02
 0.41312826253E+02 0.58242662277E+02 0.61541672927E+02 0.61545465334E+02 0.58251633886E+02
 0.52380395847E+02 0.44795010741E+02 0.36137525681E+02 0.27096702040E+02 0.18745193153E+02
 0.12243634524E+02 0.80907350316E+01 0.57552916227E+01 0.44411427329E+01 0.38592292644E+01
 0.38590742414E+01 0.44407421016E+01 0.57549260358E+01 0.80910264328E+01 0.12245343229E+02
 0.18748433309E+02 0.27100038268E+02 0.36138130318E+02 0.44790560690E+02 0.52371555353E+02
 0.69608214466E+02 0.71870788595E+02 0.69607698729E+02 0.63571412754E+02 0.55318675099E+02
 0.46008679686E+02 0.36140705636E+02 0.26296035177E+02 0.17622692266E+02 0.11278458178E+02
 0.74999061255E+01 0.54399201721E+01 0.43598635521E+01 0.40276534043E+01 0.43598447412E+01
 0.54398518765E+01 0.75001907812E+01 0.11279616442E+02 0.17624206100E+02 0.26296141016E+02
 0.36138130318E+02 0.46004447722E+02 0.55315405150E+02 0.63570577930E+02 0.79901593282E+02
 0.79897779031E+02 0.74456101212E+02 0.65535671738E+02 0.55314876092E+02 0.44793791482E+02
 0.34159848381E+02 0.24003274990E+02 0.15594890293E+02 0.99208524200E+01 0.67736969725E+01
 0.50767903516E+01 0.43095160236E+01 0.43096872268E+01 0.50770512846E+01 0.67737855394E+01
 0.99209447033E+01 0.15594865775E+02 0.24002051335E+02 0.34156706014E+02 0.44790560690E+02
 0.55315405150E+02 0.65541758839E+02 0.74464279391E+02 0.86313218682E+02 0.83004387781E+02
 0.74464279391E+02 0.63570577930E+02 0.52371555353E+02 0.41312826253E+02 0.30431525755E+02
 0.20571608499E+02 0.13056669774E+02 0.84475083288E+01 0.60046014147E+01 0.47289100980E+01
 0.43322758851E+01 0.47289100980E+01 0.60046014147E+01 0.84475083288E+01 0.13056669774E+02
 0.20571608499E+02 0.30431525755E+02 0.41312826253E+02 0.52371555353E+02 0.63570577930E+02
 0.74464279391E+02 0.83004387781E+02 0.77060145305E+02 0.69625189753E+02 0.59900313777E+02
 0.49548801462E+02 0.39036254294E+02 0.28628642579E+02 0.19296869548E+02 0.12294759852E+02
 0.80495547223E+01 0.57758961655E+01 0.45841051589E+01 0.42151808885E+01 0.45840248059E+01
 0.57757649620E+01 0.80490909313E+01 0.12294230868E+02 0.19298313643E+02 0.28634236782E+02
 0.39043954645E+02 0.49551084898E+02 0.59890441252E+02 0.69605949724E+02 0.77044399961E+02
 0.79901593282E+02 0.69625189753E+02 0.61558215108E+02 0.52091289676E+02 0.42136256836E+02
 0.32015064063E+02 0.22433486559E+02 0.14614203099E+02 0.94034350615E+01 0.65093100055E+01
 0.49231901676E+01 0.42097277354E+01 0.42098249804E+01 0.49233323173E+01 0.65088749495E+01
 0.94018993892E+01 0.14612966806E+02 0.22436027117E+02 0.32022923077E+02 0.42144575131E+02
 0.52091033166E+02 0.61545465334E+02 0.69607698729E+02 0.74456101212E+02 0.74464279391E+02
 0.59900313777E+02 0.52091289676E+02 0.43198098604E+02 0.33785842367E+02 0.24505598785E+02
 0.16452616884E+02 0.10638876457E+02 0.71895777490E+01 0.52738693447E+01 0.42697778166E+01
 0.39615515779E+01 0.42697620179E+01 0.52738609890E+01 0.71888018979E+01 0.10636418307E+02
 0.16449599073E+02 0.24505452618E+02 0.33790888252E+02 0.43206144513E+02 0.52097181021E+02
 0.59901349286E+02 0.65540346541E+02 0.67639526211E+02 0.65541758839E+02 0.49548801462E+02
 0.42136256836E+02 0.33785842367E+02 0.25226207774E+02 0.17464685564E+02 0.11511115879E+02
 0.77332157444E+01 0.55759551287E+01 0.43553914009E+01 0.38163118781E+01 0.38161994727E+01
 0.43554368825E+01 0.55763972078E+01 0.77328688101E+01 0.11508075480E+02 0.17458925294E+02
 0.25221197082E+02 0.33786785613E+02 0.42145931710E+02 0.49564553935E+02 0.55330011447E+02
 0.58560222758E+02 0.58554296999E+02 0.55315405150E+02 0.39036254294E+02 0.32015064063E+02
 0.24505598785E+02 0.17464685564E+02 0.11826360234E+02 0.80404050304E+01 0.57794094859E+01
 0.44297520034E+01 0.37381563375E+01 0.35282986995E+01 0.37382783865E+01 0.44303118835E+01
 0.57805184971E+01 0.80410765642E+01 0.11824453080E+02 0.17458967806E+02 0.24498600690E+02
 0.32012852556E+02 0.39043395401E+02 0.44804451506E+02 0.48627000898E+02 0.49970310848E+02
 0.48615755813E+02 0.44790560690E+02 0.28628642579E+02 0.22433486559E+02 0.16452616884E+02
 0.11511115879E+02 0.80404050304E+01 0.58513156603E+01 0.44715224778E+01 0.36997020572E+01
 0.33626871298E+01 0.33627253557E+01 0.36996863636E+01 0.44716575408E+01 0.58525273187E+01
 0.80429405818E+01 0.11513036345E+02 0.16451144418E+02 0.22428456765E+02 0.28623552249E+02
 0.34155195377E+02 0.38287873360E+02 0.40494984571E+02 0.40493682989E+02 0.38286141821E+02
 0.34156706014E+02 0.19296869548E+02 0.14614203099E+02 0.10638876457E+02 0.77332157444E+01
 0.57794094859E+01 0.44715224778E+01 0.36881052373E+01 0.32877786463E+01 0.31661428418E+01
 0.32874940003E+01 0.36871481444E+01 0.44703364734E+01 0.57796772674E+01 0.77363070827E+01
 0.10643881459E+02 0.14617993872E+02 0.19296485883E+02 0.23997174654E+02 0.27974018727E+02
 0.30616353360E+02 0.31541824336E+02 0.30621028117E+02 0.27980716813E+02 0.24002051335E+02
 0.12294759852E+02 0.94034350615E+01 0.71895777490E+01 0.55759551287E+01 0.44297520034E+01
 0.36997020572E+01 0.32877786463E+01 0.31057211977E+01 0.31058569498E+01 0.32877148140E+01
 0.36984528415E+01 0.44269899633E+01 0.55731313752E+01 0.71894711935E+01 0.94076884468E+01
 0.12301588210E+02 0.15599942804E+02 0.18787122158E+02 0.21295590380E+02 0.22672848366E+02
 0.22674525656E+02 0.21298348066E+02 0.18786705286E+02 0.15594865775E+02 0.80495547223E+01
 0.65093100055E+01 0.52738693447E+01 0.43553914009E+01 0.37381563375E+01 0.33626871298E+01
 0.31661428418E+01 0.31058569498E+01 0.31671316840E+01 0.33639839111E+01 0.37380692642E+01
 0.43522153171E+01 0.52681426779E+01 0.65045316744E+01 0.80495543721E+01 0.99263037548E+01
 0.11964056359E+02 0.13822517445E+02 0.15126451511E+02 0.15594604788E+02 0.15123515151E+02
 0.13816464327E+02 0.11956469598E+02 0.99209447033E+01 0.57758961655E+01 0.49231901676E+01
 0.42697778166E+01 0.38163118781E+01 0.35282986995E+01 0.33627253557E+01 0.32874940003E+01
 0.32877148140E+01 0.33639839111E+01 0.35311142045E+01 0.38191801648E+01 0.42696354928E+01
 0.49184115890E+01 0.57685747580E+01 0.67685424950E+01 0.78509461824E+01 0.89279053425E+01
 0.98185339463E+01 0.10325076184E+02 0.10322353695E+02 0.98122871023E+01 0.89226443776E+01
 0.78506769405E+01 0.67737855394E+01 0.45841051589E+01 0.42097277354E+01 0.39615515779E+01
 0.38161994727E+01 0.37382783865E+01 0.36996863636E+01 0.36871481444E+01 0.36984528415E+01
 0.37380692642E+01 0.38191801648E+01 0.39671541785E+01 0.42143341355E+01 0.45838578532E+01
 0.50714937800E+01 0.56369519577E+01 0.62091111397E+01 0.67033399922E+01 0.70441124265E+01
 0.71658148360E+01 0.70421838494E+01 0.67029498540E+01 0.62131322531E+01 0.56440761005E+01
 0.50770512846E+01 0.42151808885E+01 0.42098249804E+01 0.42697620179E+01 0.43554368825E+01
 0.44303118835E+01 0.44716575408E+01 0.44703364734E+01 0.44269899633E+01 0.43522153171E+01
 0.42696354928E+01 0.42143341355E+01 0.42222338932E+01 0.43146646041E+01 0.44873325528E+01
 0.47100197199E+01 0.49364291410E+01 0.51185969969E+01 0.52195546171E+01 0.52203643877E+01
 0.51214689080E+01 0.49412763247E+01 0.47143587875E+01 0.44875472372E+01 0.43096872268E+01
 0.45840248059E+01 0.49233323173E+01 0.52738609890E+01 0.55763972078E+01 0.57805184971E+01
 0.58525273187E+01 0.57796772674E+01 0.55731313752E+01 0.52681426779E+01 0.49184115890E+01
 0.45838578532E+01 0.43146646041E+01 0.41373159173E+01 0.40491833572E+01 0.40251734300E+01
 0.40329245781E+01 0.40469732111E+01 0.40538693128E+01 0.40493015145E+01 0.40356536897E+01
 0.40253626311E+01 0.40450641071E+01 0.41304666863E+01 0.43095160236E+01 0.57757649620E+01
 0.65088749495E+01 0.71888018979E+01 0.77328688101E+01 0.80410765642E+01 0.80429405818E+01
 0.77363070827E+01 0.71894711935E+01 0.65045316744E+01 0.57685747580E+01 0.50714937800E+01
 0.44873325528E+01 0.40491833572E+01 0.37505042475E+01 0.35620636442E+01 0.34529984129E+01
 0.34031503120E+01 0.34035480851E+01 0.34530514952E+01 0.35598038163E+01 0.37459133121E+01
 0.40451775598E+01 0.44875472372E+01 0.50767903516E+01 0.80490909313E+01 0.94018993892E+01
 0.10636418307E+02 0.11508075480E+02 0.11824453080E+02 0.11513036345E+02 0.10643881459E+02
 0.94076884468E+01 0.80495543721E+01 0.67685424950E+01 0.56369519577E+01 0.47100197199E+01
 0.40251734300E+01 0.35620636442E+01 0.32747829721E+01 0.31203850495E+01 0.30717374862E+01
 0.31195282626E+01 0.32726820920E+01 0.35597120379E+01 0.40253015569E+01 0.47145075706E+01
 0.56440761005E+01 0.67736969725E+01 0.12294230868E+02 0.14612966806E+02 0.16449599073E+02
 0.17458925294E+02 0.17458967806E+02 0.16451144418E+02 0.14617993872E+02 0.12301588210E+02
 0.99263037548E+01 0.78509461824E+01 0.62091111397E+01 0.49364291410E+01 0.40329245781E+01
 0.34529984129E+01 0.31203850495E+01 0.29709017846E+01 0.29705458110E+01 0.31196819672E+01
 0.34531409580E+01 0.40353776554E+01 0.49411016870E+01 0.62131692459E+01 0.78506769405E+01
 0.99208524200E+01 0.19298313643E+02 0.22436027117E+02 0.24505452618E+02 0.25221197082E+02
 0.24498600690E+02 0.22428456765E+02 0.19296485883E+02 0.15599942804E+02 0.11964056359E+02
 0.89279053425E+01 0.67033399922E+01 0.51185969969E+01 0.40469732111E+01 0.34031503120E+01
 0.30717374862E+01 0.29705458110E+01 0.30718461938E+01 0.34041411709E+01 0.40492482816E+01
 0.51208987440E+01 0.67029437612E+01 0.89229986735E+01 0.11956469598E+02 0.15594890293E+02
 0.28634236782E+02 0.32022923077E+02 0.33790888252E+02 0.33786785613E+02 0.32012852556E+02
 0.28623552249E+02 0.23997174654E+02 0.18787122158E+02 0.13822517445E+02 0.98185339463E+01
 0.70441124265E+01 0.52195546171E+01 0.40538693128E+01 0.34035480851E+01 0.31195282626E+01
 0.31196819672E+01 0.34041411709E+01 0.40547098916E+01 0.52193934140E+01 0.70413829512E+01
 0.98133400411E+01 0.13817690059E+02 0.18786705286E+02 0.24003274990E+02 0.39043954645E+02
 0.42144575131E+02 0.43206144513E+02 0.42145931710E+02 0.39043395401E+02 0.34155195377E+02
 0.27974018727E+02 0.21295590380E+02 0.15126451511E+02 0.10325076184E+02 0.71658148360E+01
 0.52203643877E+01 0.40493015145E+01 0.34530514952E+01 0.32726820920E+01 0.34531409580E+01
 0.40492482816E+01 0.52193934140E+01 0.71633843827E+01 0.10322452346E+02 0.15126538512E+02
 0.21300036561E+02 0.27980716813E+02 0.34159848381E+02 0.49551084898E+02 0.52091033166E+02
 0.52097181021E+02 0.49564553935E+02 0.44804451506E+02 0.38287873360E+02 0.30616353360E+02
 0.22672848366E+02 0.15594604788E+02 0.10322353695E+02 0.70421838494E+01 0.51214689080E+01
 0.40356536897E+01 0.35598038163E+01 0.35597120379E+01 0.40353776554E+01 0.51208987440E+01
 0.70413829512E+01 0.10322452346E+02 0.15597579528E+02 0.22678926248E+02 0.30621577448E+02