   1   1   0   0
  0.1852200E+02  0.2969849E-09  0.2969849E-09  0.2969849E-09  0.5000000E-15
  1.000000000000000E-004
  CAR 
 FCC Au                                  
     35.28752340     -6.50098101  301      4.41684745      1.00000000
     -6.501  0.0000E+00  0.0000E+00
     -6.362  0.0000E+00  0.0000E+00
     -6.222 -0.4680E-33 -0.6519E-34
     -6.083 -0.4264E-28 -0.5939E-29
     -5.944 -0.1461E-23 -0.2035E-24
     -5.805 -0.1879E-19 -0.2618E-20
     -5.665 -0.8739E-16 -0.1218E-16
     -5.526 -0.1570E-12 -0.2188E-13
     -5.387 -0.1037E-09 -0.1447E-10
     -5.247 -0.2510E-07 -0.3511E-08
     -5.108 -0.2178E-05 -0.3070E-06
     -4.969 -0.6476E-04 -0.9327E-05
     -4.829 -0.5762E-03 -0.8959E-04
     -4.690 -0.5482E-03 -0.1660E-03
     -4.551  0.6559E-02  0.7477E-03
     -4.412  0.2294E-01  0.3944E-02
     -4.272  0.4701E-01  0.1049E-01
     -4.133  0.5820E-01  0.1860E-01
     -3.994  0.6011E-01  0.2697E-01
     -3.854  0.7402E-01  0.3728E-01
     -3.715  0.1026E+00  0.5158E-01
     -3.576  0.1101E+00  0.6692E-01
     -3.436  0.7800E-01  0.7778E-01
     -3.297  0.1000E+00  0.9171E-01
     -3.158  0.1691E+00  0.1153E+00
     -3.019  0.1665E+00  0.1385E+00
     -2.879  0.1193E+00  0.1551E+00
     -2.740  0.1663E+00  0.1782E+00
     -2.601  0.2075E+00  0.2072E+00
     -2.461  0.2043E+00  0.2356E+00
     -2.322  0.2688E+00  0.2731E+00
     -2.183  0.3980E+00  0.3285E+00
     -2.044  0.5556E+00  0.4059E+00
     -1.904  0.6551E+00  0.4972E+00
     -1.765  0.9070E+00  0.6235E+00
     -1.626  0.1230E+01  0.7948E+00
     -1.486  0.1586E+01  0.1016E+01
     -1.347  0.1947E+01  0.1287E+01
     -1.208  0.2036E+01  0.1571E+01
     -1.068  0.1942E+01  0.1841E+01
     -0.929  0.1752E+01  0.2085E+01
     -0.790  0.1677E+01  0.2319E+01
     -0.651  0.1393E+01  0.2513E+01
     -0.511  0.1486E+01  0.2720E+01
     -0.372  0.1964E+01  0.2993E+01
     -0.233  0.2186E+01  0.3298E+01
     -0.093  0.2178E+01  0.3601E+01
      0.046  0.2298E+01  0.3922E+01
      0.185  0.2545E+01  0.4276E+01
      0.324  0.2686E+01  0.4650E+01
      0.464  0.3255E+01  0.5104E+01
      0.603  0.3492E+01  0.5590E+01
      0.742  0.2642E+01  0.5958E+01
      0.882  0.1828E+01  0.6213E+01
      1.021  0.1696E+01  0.6449E+01
      1.160  0.1940E+01  0.6719E+01
      1.300  0.2267E+01  0.7035E+01
      1.439  0.2560E+01  0.7392E+01
      1.578  0.2214E+01  0.7700E+01
      1.717  0.2108E+01  0.7994E+01
      1.857  0.2099E+01  0.8286E+01
      1.996  0.1761E+01  0.8531E+01
      2.135  0.1905E+01  0.8797E+01
      2.275  0.2033E+01  0.9080E+01
      2.414  0.2614E+01  0.9444E+01
      2.553  0.3100E+01  0.9876E+01
      2.692  0.2583E+01  0.1024E+02
      2.832  0.1540E+01  0.1045E+02
      2.971  0.8137E+00  0.1056E+02
      3.110  0.3280E+00  0.1061E+02
      3.250  0.1325E+00  0.1063E+02
      3.389  0.1825E+00  0.1065E+02
      3.528  0.4107E+00  0.1071E+02
      3.668  0.4248E+00  0.1077E+02
      3.807  0.2527E+00  0.1080E+02
      3.946  0.1114E+00  0.1082E+02
      4.085  0.2345E+00  0.1085E+02
      4.225  0.5363E+00  0.1093E+02
      4.364  0.4238E+00  0.1099E+02
      4.503  0.2209E+00  0.1102E+02
      4.643  0.1857E+00  0.1104E+02
      4.782  0.1824E+00  0.1107E+02
      4.921  0.3224E+00  0.1111E+02
      5.061  0.4514E+00  0.1118E+02
      5.200  0.3061E+00  0.1122E+02
      5.339  0.2595E+00  0.1126E+02
      5.478  0.3155E+00  0.1130E+02
      5.618  0.2747E+00  0.1134E+02
      5.757  0.2459E+00  0.1137E+02
      5.896  0.2503E+00  0.1141E+02
      6.036  0.3209E+00  0.1145E+02
      6.175  0.3255E+00  0.1150E+02
      6.314  0.3074E+00  0.1154E+02
      6.453  0.2282E+00  0.1157E+02
      6.593  0.1954E+00  0.1160E+02
      6.732  0.3377E+00  0.1165E+02
      6.871  0.3595E+00  0.1170E+02
      7.011  0.2492E+00  0.1173E+02
      7.150  0.2138E+00  0.1176E+02
      7.289  0.4889E+00  0.1183E+02
      7.429  0.6161E+00  0.1191E+02
      7.568  0.3957E+00  0.1197E+02
      7.707  0.2201E+00  0.1200E+02
      7.846  0.1846E+00  0.1203E+02
      7.986  0.2679E+00  0.1206E+02
      8.125  0.4097E+00  0.1212E+02
      8.264  0.4165E+00  0.1218E+02
      8.404  0.3585E+00  0.1223E+02
      8.543  0.2352E+00  0.1226E+02
      8.682  0.6499E-01  0.1227E+02
      8.821  0.1437E+00  0.1229E+02
      8.961  0.3643E+00  0.1234E+02
      9.100  0.4753E+00  0.1241E+02
      9.239  0.4213E+00  0.1247E+02
      9.379  0.3859E+00  0.1252E+02
      9.518  0.4000E+00  0.1257E+02
      9.657  0.3172E+00  0.1262E+02
      9.797  0.3563E+00  0.1267E+02
      9.936  0.4118E+00  0.1273E+02
     10.075  0.4105E+00  0.1278E+02
     10.214  0.3853E+00  0.1284E+02
     10.354  0.2692E+00  0.1287E+02
     10.493  0.1584E+00  0.1290E+02
     10.632  0.2896E+00  0.1294E+02
     10.772  0.4915E+00  0.1301E+02
     10.911  0.3806E+00  0.1306E+02
     11.050  0.9929E-01  0.1307E+02
     11.189  0.1202E+00  0.1309E+02
     11.329  0.3988E+00  0.1314E+02
     11.468  0.4348E+00  0.1320E+02
     11.607  0.3219E+00  0.1325E+02
     11.747  0.4269E+00  0.1331E+02
     11.886  0.3771E+00  0.1336E+02
     12.025  0.4135E+00  0.1342E+02
     12.165  0.6477E+00  0.1351E+02
     12.304  0.3987E+00  0.1356E+02
     12.443  0.3667E-01  0.1357E+02
     12.582  0.3735E-01  0.1358E+02
     12.722  0.3034E+00  0.1362E+02
     12.861  0.5513E+00  0.1369E+02
     13.000  0.4394E+00  0.1376E+02
     13.140  0.2951E+00  0.1380E+02
     13.279  0.4288E+00  0.1386E+02
     13.418  0.4515E+00  0.1392E+02
     13.558  0.4662E+00  0.1398E+02
     13.697  0.5365E+00  0.1406E+02
     13.836  0.3416E+00  0.1411E+02
     13.975  0.3054E+00  0.1415E+02
     14.115  0.4892E+00  0.1422E+02
     14.254  0.4432E+00  0.1428E+02
     14.393  0.3640E+00  0.1433E+02
     14.533  0.6096E+00  0.1441E+02
     14.672  0.8027E+00  0.1453E+02
     14.811  0.5032E+00  0.1460E+02
     14.950  0.2942E+00  0.1464E+02
     15.090  0.4052E+00  0.1469E+02
     15.229  0.3936E+00  0.1475E+02
     15.368  0.4645E+00  0.1481E+02
     15.508  0.6989E+00  0.1491E+02
     15.647  0.8404E+00  0.1503E+02
     15.786  0.8160E+00  0.1514E+02
     15.926  0.4812E+00  0.1521E+02
     16.065  0.2437E+00  0.1524E+02
     16.204  0.1935E+00  0.1527E+02
     16.343  0.3853E+00  0.1532E+02
     16.483  0.5231E+00  0.1540E+02
     16.622  0.5451E+00  0.1547E+02
     16.761  0.6298E+00  0.1556E+02
     16.901  0.5647E+00  0.1564E+02
     17.040  0.4505E+00  0.1570E+02
     17.179  0.4539E+00  0.1576E+02
     17.318  0.6159E+00  0.1585E+02
     17.458  0.5004E+00  0.1592E+02
     17.597  0.3735E+00  0.1597E+02
     17.736  0.5248E+00  0.1604E+02
     17.876  0.5798E+00  0.1613E+02
     18.015  0.4218E+00  0.1618E+02
     18.154  0.3925E+00  0.1624E+02
     18.294  0.5414E+00  0.1631E+02
     18.433  0.5368E+00  0.1639E+02
     18.572  0.3116E+00  0.1643E+02
     18.711  0.2541E+00  0.1647E+02
     18.851  0.5302E+00  0.1654E+02
     18.990  0.6319E+00  0.1663E+02
     19.129  0.5676E+00  0.1671E+02
     19.269  0.5858E+00  0.1679E+02
     19.408  0.6318E+00  0.1688E+02
     19.547  0.6750E+00  0.1697E+02
     19.686  0.5037E+00  0.1704E+02
     19.826  0.4026E+00  0.1710E+02
     19.965  0.4784E+00  0.1717E+02
     20.104  0.5963E+00  0.1725E+02
     20.244  0.5510E+00  0.1733E+02
     20.383  0.3571E+00  0.1738E+02
     20.522  0.2234E+00  0.1741E+02
     20.662  0.4798E+00  0.1747E+02
     20.801  0.1007E+01  0.1761E+02
     20.940  0.1140E+01  0.1777E+02
     21.079  0.8169E+00  0.1789E+02
     21.219  0.7321E+00  0.1799E+02
     21.358  0.7611E+00  0.1809E+02
     21.497  0.7196E+00  0.1819E+02
     21.637  0.9576E+00  0.1833E+02
     21.776  0.1134E+01  0.1849E+02
     21.915  0.1008E+01  0.1863E+02
     22.054  0.7837E+00  0.1874E+02
     22.194  0.6407E+00  0.1882E+02
     22.333  0.5016E+00  0.1889E+02
     22.472  0.5601E+00  0.1897E+02
     22.612  0.8426E+00  0.1909E+02
     22.751  0.7190E+00  0.1919E+02
     22.890  0.5294E+00  0.1926E+02
     23.030  0.7476E+00  0.1937E+02
     23.169  0.9354E+00  0.1950E+02
     23.308  0.7602E+00  0.1960E+02
     23.447  0.4459E+00  0.1967E+02
     23.587  0.4286E+00  0.1973E+02
     23.726  0.6021E+00  0.1981E+02
     23.865  0.5310E+00  0.1988E+02
     24.005  0.3821E+00  0.1994E+02
     24.144  0.4787E+00  0.2000E+02
     24.283  0.3761E+00  0.2006E+02
     24.423  0.3117E+00  0.2010E+02
     24.562  0.5423E+00  0.2017E+02
     24.701  0.7281E+00  0.2028E+02
     24.840  0.5003E+00  0.2035E+02
     24.980  0.3761E+00  0.2040E+02
     25.119  0.4009E+00  0.2045E+02
     25.258  0.3075E+00  0.2050E+02
     25.398  0.1816E+00  0.2052E+02
     25.537  0.2302E+00  0.2055E+02
     25.676  0.3665E+00  0.2061E+02
     25.815  0.3049E+00  0.2065E+02
     25.955  0.2875E+00  0.2069E+02
     26.094  0.6547E+00  0.2078E+02
     26.233  0.9199E+00  0.2091E+02
     26.373  0.5530E+00  0.2098E+02
     26.512  0.1963E+00  0.2101E+02
     26.651  0.2359E+00  0.2104E+02
     26.791  0.3089E+00  0.2109E+02
     26.930  0.2464E+00  0.2112E+02
     27.069  0.2815E+00  0.2116E+02
     27.208  0.5276E+00  0.2123E+02
     27.348  0.6828E+00  0.2133E+02
     27.487  0.5688E+00  0.2141E+02
     27.626  0.4274E+00  0.2147E+02
     27.766  0.5660E+00  0.2155E+02
     27.905  0.9258E+00  0.2168E+02
     28.044  0.1227E+01  0.2185E+02
     28.183  0.1066E+01  0.2200E+02
     28.323  0.7112E+00  0.2209E+02
     28.462  0.5191E+00  0.2217E+02
     28.601  0.5440E+00  0.2224E+02
     28.741  0.5210E+00  0.2232E+02
     28.880  0.4948E+00  0.2238E+02
     29.019  0.6706E+00  0.2248E+02
     29.159  0.7147E+00  0.2258E+02
     29.298  0.6014E+00  0.2266E+02
     29.437  0.9182E+00  0.2279E+02
     29.576  0.1175E+01  0.2295E+02
     29.716  0.8479E+00  0.2307E+02
     29.855  0.4754E+00  0.2314E+02
     29.994  0.5235E+00  0.2321E+02
     30.134  0.6401E+00  0.2330E+02
     30.273  0.5664E+00  0.2338E+02
     30.412  0.5236E+00  0.2345E+02
     30.551  0.3635E+00  0.2350E+02
     30.691  0.2894E+00  0.2354E+02
     30.830  0.4298E+00  0.2360E+02
     30.969  0.4847E+00  0.2367E+02
     31.109  0.4885E+00  0.2374E+02
     31.248  0.3823E+00  0.2379E+02
     31.387  0.2125E+00  0.2382E+02
     31.527  0.1109E+00  0.2384E+02
     31.666  0.7367E-01  0.2385E+02
     31.805  0.8545E-01  0.2386E+02
     31.944  0.1150E+00  0.2387E+02
     32.084  0.9298E-01  0.2389E+02
     32.223  0.1292E+00  0.2390E+02
     32.362  0.2257E+00  0.2394E+02
     32.502  0.1809E+00  0.2396E+02
     32.641  0.3183E-01  0.2397E+02
     32.780 -0.1235E-01  0.2396E+02
     32.920 -0.6268E-03  0.2396E+02
     33.059  0.3665E-01  0.2397E+02
     33.198  0.8837E-01  0.2398E+02
     33.337  0.1006E+00  0.2400E+02
     33.477  0.3883E-01  0.2400E+02
     33.616 -0.2449E-02  0.2400E+02
     33.755 -0.2532E-02  0.2400E+02
     33.895 -0.2562E-03  0.2400E+02
     34.034 -0.7959E-05  0.2400E+02
     34.173 -0.8659E-07  0.2400E+02
     34.312 -0.3434E-09  0.2400E+02
     34.452 -0.5048E-12  0.2400E+02
     34.591 -0.2869E-15  0.2400E+02
     34.730  0.0000E+00  0.2400E+02
     34.870  0.0000E+00  0.2400E+02
     35.009  0.0000E+00  0.2400E+02
     35.148  0.0000E+00  0.2400E+02
     35.288  0.0000E+00  0.2400E+02
