    1    1    1    1
  0.1852200E+02  0.2969848E-09  0.2969848E-09  0.2969848E-09  0.5000000E-15
  1.000000000000000E-004
  CAR 
 FCC Au                                  
     11    110     12
 
  0.5000000E-01  0.5000000E-01  0.5000000E-01  0.2000000E-02
    1       -4.500981   1.000000
    2        0.187467   1.000000
    3        0.239389   1.000000
    4        0.239389   1.000000
    5        1.533647   1.000000
    6        1.533647   1.000000
    7       19.864854   0.000000
    8       22.445192   0.000000
    9       23.185303   0.000000
   10       23.185303   0.000000
   11       27.824944   0.000000
   12       30.212122   0.000000
 
  0.1500000E+00  0.5000000E-01  0.5000000E-01  0.6000000E-02
    1       -4.079458   1.000000
    2        0.058853   1.000000
    3        0.360037   1.000000
    4        0.387797   1.000000
    5        1.406550   1.000000
    6        1.577203   1.000000
    7       19.906907   0.000000
    8       20.621633   0.000000
    9       22.695458   0.000000
   10       24.015708   0.000000
   11       26.949695   0.000000
   12       29.513976   0.000000
 
  0.2500000E+00  0.5000000E-01  0.5000000E-01  0.6000000E-02
    1       -3.159082   1.000000
    2       -0.030856   1.000000
    3        0.494415   1.000000
    4        0.511416   1.000000
    5        1.419172   1.000000
    6        1.765006   1.000000
    7       16.515969   0.000000
    8       20.527218   0.000000
    9       22.670818   0.000000
   10       24.903088   0.000000
   11       25.312847   0.000000
   12       27.396607   0.000000
 
  0.3500000E+00  0.5000000E-01  0.5000000E-01  0.6000000E-02
    1       -2.313545   1.000000
    2        0.342765   1.000000
    3        0.413660   1.000000
    4        0.592224   1.000000
    5        1.840495   1.000000
    6        2.262495   1.000000
    7       12.563672   0.000000
    8       19.938475   0.000000
    9       21.679860   0.000000
   10       23.667391   0.000000
   11       26.404202   0.000000
   12       27.317857   0.000000
 
  0.4500000E+00  0.5000000E-01  0.5000000E-01  0.6000000E-02
    1       -2.087285   1.000000
    2        0.210311   1.000000
    3        0.269943   1.000000
    4        1.948099   1.000000
    5        2.350925   1.000000
    6        3.150151   1.000000
    7        8.899033  -0.000000
    8       19.298813   0.000000
    9       20.847183   0.000000
   10       21.895317   0.000000
   11       27.877197   0.000000
   12       28.027575   0.000000
 
 -0.4500000E+00  0.5000000E-01  0.5000000E-01  0.6000000E-02
    1       -2.077526   1.000000
    2        0.153355   1.000000
    3        0.235951   1.000000
    4        2.245661   1.000000
    5        2.589699   1.000000
    6        4.162092   1.035111
    7        7.210203  -0.000000
    8       19.129554   0.000000
    9       20.911487   0.000000
   10       21.044471   0.000000
   11       28.245431   0.000000
   12       28.295646   0.000000
 
 -0.3500000E+00  0.5000000E-01  0.5000000E-01  0.6000000E-02
    1       -2.116842   1.000000
    2        0.236558   1.000000
    3        0.330414   1.000000
    4        1.451566   1.000000
    5        2.417648   1.000000
    6        2.602052   1.000000
    7       10.043317   0.000000
    8       19.531783   0.000000
    9       21.253536   0.000000
   10       22.018288   0.000000
   11       27.811251   0.000000
   12       28.052396   0.000000
 
 -0.2500000E+00  0.5000000E-01  0.5000000E-01  0.6000000E-02
    1       -2.530707   1.000000
    2        0.202315   1.000000
    3        0.433069   1.000000
    4        0.478800   1.000000
    5        1.769906   1.000000
    6        1.989216   1.000000
    7       13.875823   0.000000
    8       20.328271   0.000000
    9       22.074501   0.000000
   10       23.798247   0.000000
   11       26.063798   0.000000
   12       27.884347   0.000000
 
 -0.1500000E+00  0.5000000E-01  0.5000000E-01  0.6000000E-02
    1       -3.499037   1.000000
    2       -0.045925   1.000000
    3        0.486250   1.000000
    4        0.495614   1.000000
    5        1.381374   1.000000
    6        1.655197   1.000000
    7       17.802744   0.000000
    8       20.717977   0.000000
    9       22.657986   0.000000
   10       24.377118   0.000000
   11       25.715487   0.000000
   12       28.416975   0.000000
 
 -0.5000000E-01  0.5000000E-01  0.5000000E-01  0.6000000E-02
    1       -4.286839   1.000000
    2        0.096042   1.000000
    3        0.322032   1.000000
    4        0.326434   1.000000
    5        1.427034   1.000000
    6        1.583263   1.000000
    7       20.032769   0.000000
    8       21.542861   0.000000
    9       22.831438   0.000000
   10       23.261178   0.000000
   11       28.103574   0.000000
   12       29.579082   0.000000
 
  0.1500000E+00  0.1500000E+00  0.5000000E-01  0.6000000E-02
    1       -3.869915   1.000000
    2       -0.087507   1.000000
    3        0.496092   1.000000
    4        0.499075   1.000000
    5        1.243629   1.000000
    6        1.678253   1.000000
    7       20.171899   0.000000
    8       20.770582   0.000000
    9       22.038072   0.000000
   10       22.797112   0.000000
   11       26.984888   0.000000
   12       29.111246   0.000000
 
  0.2500000E+00  0.1500000E+00  0.5000000E-01  0.1200000E-01
    1       -3.106752   1.000000
    2       -0.296785   1.000000
    3        0.585592   1.000000
    4        0.741256   1.000000
    5        1.205218   1.000000
    6        1.870389   1.000000
    7       18.032812   0.000000
    8       19.849186   0.000000
    9       21.912770   0.000000
   10       23.099770   0.000000
   11       24.957529   0.000000
   12       28.354054   0.000000
 
  0.3500000E+00  0.1500000E+00  0.5000000E-01  0.1200000E-01
    1       -2.155104   1.000000
    2       -0.210993   1.000000
    3        0.332081   1.000000
    4        0.751407   1.000000
    5        1.782193   1.000000
    6        2.381304   1.000000
    7       14.098971   0.000000
    8       19.265016   0.000000
    9       20.898242   0.000000
   10       22.593770   0.000000
   11       26.174433   0.000000
   12       28.104537   0.000000
 
  0.4500000E+00  0.1500000E+00  0.5000000E-01  0.1200000E-01
    1       -1.775350   1.000000
    2        0.073771   1.000000
    3        0.548261   1.000000
    4        0.697549   1.000000
    5        2.410838   1.000000
    6        3.498754   1.000000
    7       10.261262   0.000000
    8       18.909037   0.000000
    9       19.550060   0.000000
   10       21.430380   0.000000
   11       28.037500   0.000000
   12       28.985354   0.000000
 
 -0.4500000E+00  0.1500000E+00  0.5000000E-01  0.1200000E-01
    1       -1.747560   1.000000
    2       -0.037126   1.000000
    3        0.495579   1.000000
    4        1.365144   1.000000
    5        2.550879   1.000000
    6        5.405360  -0.000000
    7        7.233462  -0.000000
    8       18.520139   0.000000
    9       19.118218   0.000000
   10       20.868844   0.000000
   11       28.288429   0.000000
   12       29.416737   0.000000
 
 -0.3500000E+00  0.1500000E+00  0.5000000E-01  0.1200000E-01
    1       -1.737466   1.000000
    2        0.031145   1.000000
    3        0.517754   1.000000
    4        1.085306   1.000000
    5        2.284507   1.000000
    6        4.160983   1.035032
    7        9.153732  -0.000000
    8       18.054908   0.000000
    9       19.809438   0.000000
   10       21.614484   0.000000
   11       27.644748   0.000000
   12       29.016026   0.000000
 
 -0.2500000E+00  0.1500000E+00  0.5000000E-01  0.1200000E-01
    1       -1.924893   1.000000
    2        0.034457   1.000000
    3        0.303149   1.000000
    4        0.680072   1.000000
    5        1.698548   1.000000
    6        2.864066   1.000000
    7       12.808845   0.000000
    8       18.231135   0.000000
    9       20.927913   0.000000
   10       23.398780   0.000000
   11       26.041706   0.000000
   12       28.165959   0.000000
 
 -0.1500000E+00  0.1500000E+00  0.5000000E-01  0.1200000E-01
    1       -2.774767   1.000000
    2       -0.255888   1.000000
    3        0.498338   1.000000
    4        0.760837   1.000000
    5        1.198426   1.000000
    6        2.101018   1.000000
    7       16.651837   0.000000
    8       18.843107   0.000000
    9       22.529860   0.000000
   10       23.485879   0.000000
   11       26.140576   0.000000
   12       27.121151   0.000000
 
 -0.5000000E-01  0.1500000E+00  0.5000000E-01  0.1200000E-01
    1       -3.676236   1.000000
    2       -0.081963   1.000000
    3        0.499789   1.000000
    4        0.507096   1.000000
    5        1.277591   1.000000
    6        1.686969   1.000000
    7       19.082007   0.000000
    8       20.309995   0.000000
    9       22.280629   0.000000
   10       24.055957   0.000000
   11       26.045915   0.000000
   12       28.801133   0.000000
 
  0.2500000E+00  0.2500000E+00  0.5000000E-01  0.6000000E-02
    1       -2.591870   1.000000
    2       -0.605022   1.000000
    3        0.725591   1.000000
    4        1.072292   1.000000
    5        1.243573   1.000000
    6        1.971045   1.000000
    7       18.416541   0.000000
    8       19.474547   0.000000
    9       20.900235   0.000000
   10       21.601731   0.000000
   11       22.130788   0.000000
   12       30.000996   0.000000
 
  0.3500000E+00  0.2500000E+00  0.5000000E-01  0.1200000E-01
    1       -1.835564   1.000000
    2       -0.797721   1.000000
    3        0.508256   1.000000
    4        1.375237   1.000000
    5        1.820768   1.000000
    6        2.398917   1.000000
    7       15.754824   0.000000
    8       17.656221   0.000000
    9       19.275553   0.000000
   10       21.836540   0.000000
   11       23.234579   0.000000
   12       29.989876   0.000000
 
  0.4500000E+00  0.2500000E+00  0.5000000E-01  0.1200000E-01
    1       -1.389909   1.000000
    2       -0.559465   1.000000
    3        0.297405   1.000000
    4        1.262058   1.000000
    5        2.483003   1.000000
    6        3.736931   1.000008
    7       11.879998   0.000000
    8       16.957792   0.000000
    9       17.628574   0.000000
   10       21.583805   0.000000
   11       26.266907   0.000000
   12       29.775850   0.000000
 
 -0.4500000E+00  0.2500000E+00  0.5000000E-01  0.1200000E-01
    1       -1.282262   1.000000
    2       -0.323880   1.000000
    3        0.488266   1.000000
    4        1.092900   1.000000
    5        2.581865   1.000000
    6        6.024787  -0.000000
    7        8.482578  -0.000000
    8       15.709436   0.000000
    9       17.694733   0.000000
   10       21.316243   0.000000
   11       28.869812   0.000000
   12       30.119795   0.000000
 
 -0.3500000E+00  0.2500000E+00  0.5000000E-01  0.1200000E-01
    1       -1.135295   1.000000
    2       -0.271964   1.000000
    3        0.520468   1.000000
    4        1.002623   1.000000
    5        2.245580   1.000000
    6        5.871956  -0.000000
    7        8.940121  -0.000000
    8       14.690151   0.000000
    9       18.838861   0.000000
   10       21.505380   0.000000
   11       28.155305   0.000000
   12       30.403542   0.000000
 
 -0.2500000E+00  0.2500000E+00  0.5000000E-01  0.1200000E-01
    1       -1.073875   1.000000
    2       -0.217877   1.000000
    3        0.026176   1.000000
    4        1.073959   1.000000
    5        1.660056   1.000000
    6        4.147730   1.033559
    7       12.175404   0.000000
    8       14.592171   0.000000
    9       20.202889   0.000000
   10       22.659691   0.000000
   11       26.249176   0.000000
   12       30.126260   0.000000
 
 -0.1500000E+00  0.2500000E+00  0.5000000E-01  0.1200000E-01
    1       -1.794856   1.000000
    2       -0.319496   1.000000
    3        0.273876   1.000000
    4        0.963030   1.000000
    5        1.319551   1.000000
    6        2.938146   1.000000
    7       14.225800   0.000000
    8       16.735934   0.000000
    9       21.340000   0.000000
   10       24.115800   0.000000
   11       24.970739   0.000000
   12       28.615123   0.000000
 
 -0.5000000E-01  0.2500000E+00  0.5000000E-01  0.1200000E-01
    1       -2.689869   1.000000
    2       -0.094085   1.000000
    3        0.473846   1.000000
    4        0.595768   1.000000
    5        1.478291   1.000000
    6        2.037703   1.000000
    7       15.281437   0.000000
    8       20.053869   0.000000
    9       21.860355   0.000000
   10       24.196171   0.000000
   11       25.640056   0.000000
   12       27.365785   0.000000
 
  0.3500000E+00  0.3500000E+00  0.5000000E-01  0.6000000E-02
    1       -1.677946   1.000000
    2       -1.127749   1.000000
    3        1.307695   1.000000
    4        1.828285   1.000000
    5        2.239395   1.000000
    6        2.325503   1.000000
    7       15.634195   0.000000
    8       16.788660   0.000000
    9       16.866593   0.000000
   10       20.764349   0.000000
   11       22.612057   0.000000
   12       32.380992   0.000000
 
  0.4500000E+00  0.3500000E+00  0.5000000E-01  0.1200000E-01
    1       -1.528175   1.000000
    2       -1.221861   1.000000
    3        1.337141   1.000000
    4        2.091312   1.000000
    5        2.496495   1.000000
    6        3.828058   1.000127
    7       12.949364   0.000000
    8       15.108637   0.000000
    9       15.754741   0.000000
   10       21.688983   0.000000
   11       23.520677   0.000000
   12       31.885209   0.000000
 
 -0.4500000E+00  0.3500000E+00  0.5000000E-01  0.1200000E-01
    1       -1.377848   1.000000
    2       -0.938585   1.000000
    3        1.024821   1.000000
    4        1.832134   1.000000
    5        2.664173   1.000000
    6        6.248729  -0.000000
    7        9.994488   0.000000
    8       13.338868   0.000000
    9       15.889178   0.000000
   10       21.935085   0.000000
   11       26.135273   0.000000
   12       30.886428   0.000000
 
 -0.3500000E+00  0.3500000E+00  0.5000000E-01  0.1200000E-01
    1       -1.125047   1.000000
    2       -0.483738   1.000000
    3        0.549315   1.000000
    4        1.548131   1.000000
    5        2.394413   1.000000
    6        7.362023  -0.000000
    7        9.460640  -0.000000
    8       11.735094   0.000000
    9       17.093702   0.000000
   10       21.826422   0.000000
   11       29.364123   0.000000
   12       29.748679   0.000000
 
 -0.2500000E+00  0.3500000E+00  0.5000000E-01  0.1200000E-01
    1       -0.888436   1.000000
    2       -0.224159   1.000000
    3        0.120659   1.000000
    4        1.239409   1.000000
    5        2.043043   1.000000
    6        5.685098  -0.000000
    7       10.710583   0.000000
    8       12.722966   0.000000
    9       18.792710   0.000000
   10       21.815680   0.000000
   11       27.992434   0.000000
   12       30.707913   0.000000
 
 -0.1500000E+00  0.3500000E+00  0.5000000E-01  0.1200000E-01
    1       -1.418404   1.000000
    2       -0.052089   1.000000
    3        0.412214   1.000000
    4        0.811265   1.000000
    5        1.970227   1.000000
    6        4.154270   1.034399
    7       10.637894   0.000000
    8       16.295708   0.000000
    9       20.041470   0.000000
   10       22.174775   0.000000
   11       26.889172   0.000000
   12       29.518552   0.000000
 
 -0.5000000E-01  0.3500000E+00  0.5000000E-01  0.1200000E-01
    1       -2.055341   1.000000
    2        0.240080   1.000000
    3        0.453243   1.000000
    4        0.733014   1.000000
    5        2.087735   1.000000
    6        2.719999   1.000000
    7       11.358313   0.000000
    8       19.502844   0.000000
    9       20.682698   0.000000
   10       22.637230   0.000000
   11       27.174916   0.000000
   12       27.919316   0.000000
 
  0.4500000E+00  0.4500000E+00  0.5000000E-01  0.6000000E-02
    1       -1.752555   1.000000
    2       -1.475787   1.000000
    3        2.403667   1.000000
    4        2.442126   1.000000
    5        2.693573   1.000000
    6        4.422366   0.476660
    7       11.468811   0.000000
    8       14.571089   0.000000
    9       14.916678   0.000000
   10       20.982656   0.000000
   11       23.169731   0.000000
   12       33.236433   0.000000
 
 -0.4500000E+00  0.4500000E+00  0.5000000E-01  0.1200000E-01
    1       -1.684394   1.000000
    2       -1.431223   1.000000
    3        2.123571   1.000000
    4        2.368478   1.000000
    5        2.815710   1.000000
    6        6.338494  -0.000000
    7        9.665260  -0.000000
    8       13.555263   0.000000
    9       14.512046   0.000000
   10       21.849921   0.000000
   11       23.745475   0.000000
   12       32.395472   0.000000
 
 -0.3500000E+00  0.4500000E+00  0.5000000E-01  0.1200000E-01
    1       -1.421769   1.000000
    2       -1.019489   1.000000
    3        1.280479   1.000000
    4        1.974679   1.000000
    5        2.663608   1.000000
    6        7.659617  -0.000000
    7        9.066205  -0.000000
    8       12.140526   0.000000
    9       15.569301   0.000000
   10       22.073848   0.000000
   11       26.121745   0.000000
   12       31.112678   0.000000
 
 -0.2500000E+00  0.4500000E+00  0.5000000E-01  0.1200000E-01
    1       -1.159702   1.000000
    2       -0.443219   1.000000
    3        0.510777   1.000000
    4        1.355705   1.000000
    5        2.495942   1.000000
    6        7.344245  -0.000000
    7        8.141850  -0.000000
    8       13.646395   0.000000
    9       17.291865   0.000000
   10       21.614809   0.000000
   11       29.125734   0.000000
   12       29.931923   0.000000
 
 -0.1500000E+00  0.4500000E+00  0.5000000E-01  0.1200000E-01
    1       -1.458733   1.000000
    2       -0.178925   1.000000
    3        0.726321   1.000000
    4        0.951335   1.000000
    5        2.446013   1.000000
    6        6.111409  -0.000000
    7        7.437839  -0.000000
    8       16.684985   0.000000
    9       18.937713   0.000000
   10       21.094325   0.000000
   11       28.297418   0.000000
   12       29.963274   0.000000
 
 -0.5000000E-01  0.4500000E+00  0.5000000E-01  0.1200000E-01
    1       -1.962293   1.000000
    2        0.104468   1.000000
    3        0.337122   1.000000
    4        1.738411   1.000000
    5        2.515827   1.000000
    6        4.166613   1.035354
    7        7.942506  -0.000000
    8       19.141603   0.000000
    9       20.067348   0.000000
   10       21.192919   0.000000
   11       28.137373   0.000000
   12       28.651320   0.000000
 
 -0.4500000E+00 -0.4500000E+00  0.5000000E-01  0.6000000E-02
    1       -1.816671   1.000000
    2       -1.550393   1.000000
    3        2.498092   1.000000
    4        2.669584   1.000000
    5        2.824333   1.000000
    6        5.669118  -0.000000
    7        9.824980  -0.000000
    8       14.126678   0.000000
    9       14.496183   0.000000
   10       21.065518   0.000000
   11       23.279990   0.000000
   12       33.068292   0.000000
 
 -0.3500000E+00 -0.4500000E+00  0.5000000E-01  0.1200000E-01
    1       -1.618268   1.000000
    2       -1.359716   1.000000
    3        1.815438   1.000000
    4        2.319996   1.000000
    5        2.687358   1.000000
    6        5.075758  -0.000016
    7       11.213346   0.000000
    8       14.071548   0.000000
    9       14.924034   0.000000
   10       21.775851   0.000000
   11       23.668146   0.000000
   12       32.303154   0.000000
 
 -0.2500000E+00 -0.4500000E+00  0.5000000E-01  0.1200000E-01
    1       -1.334560   1.000000
    2       -0.776941   1.000000
    3        0.642663   1.000000
    4        1.568529   1.000000
    5        2.622564   1.000000
    6        4.888977  -0.002110
    7       10.889229   0.000000
    8       15.141380   0.000000
    9       16.529460   0.000000
   10       21.730931   0.000000
   11       26.184351   0.000000
   12       30.430072   0.000000
 
 -0.1500000E+00 -0.4500000E+00  0.5000000E-01  0.1200000E-01
    1       -1.502568   1.000000
    2       -0.132234   1.000000
    3        0.520423   1.000000
    4        0.840715   1.000000
    5        2.567881   1.000000
    6        4.642672  -0.033859
    7        9.286528  -0.000000
    8       17.724916   0.000000
    9       18.305219   0.000000
   10       21.125674   0.000000
   11       28.537462   0.000000
   12       30.040345   0.000000
 
 -0.3500000E+00 -0.3500000E+00  0.5000000E-01  0.6000000E-02
    1       -1.668298   1.000000
    2       -1.331712   1.000000
    3        1.976580   1.000000
    4        2.175041   1.000000
    5        2.504787   1.000000
    6        3.133389   1.000000
    7       13.583697   0.000000
    8       15.437388   0.000000
    9       15.706766   0.000000
   10       20.848879   0.000000
   11       22.940743   0.000000
   12       33.287523   0.000000
 
 -0.2500000E+00 -0.3500000E+00  0.5000000E-01  0.1200000E-01
    1       -1.533007   1.000000
    2       -1.029178   1.000000
    3        0.810336   1.000000
    4        1.744434   1.000000
    5        2.230023   1.000000
    6        2.909623   1.000000
    7       14.457019   0.000000
    8       16.407846   0.000000
    9       17.222866   0.000000
   10       21.678286   0.000000
   11       23.340322   0.000000
   12       31.031777   0.000000
 
 -0.1500000E+00 -0.3500000E+00  0.5000000E-01  0.1200000E-01
    1       -1.670484   1.000000
    2       -0.356715   1.000000
    3        0.193089   1.000000
    4        0.978333   1.000000
    5        2.196530   1.000000
    6        2.888984   1.000000
    7       12.960683   0.000000
    8       18.202773   0.000000
    9       19.436248   0.000000
   10       21.699859   0.000000
   11       26.326663   0.000000
   12       28.976913   0.000000
 
 -0.2500000E+00 -0.2500000E+00  0.5000000E-01  0.6000000E-02
    1       -1.978537   1.000000
    2       -0.878729   1.000000
    3        0.813350   1.000000
    4        1.441601   1.000000
    5        1.667031   1.000000
    6        2.147124   1.000000
    7       17.164532   0.000000
    8       18.076267   0.000000
    9       19.088606   0.000000
   10       20.833225   0.000000
   11       22.222451   0.000000
   12       31.090698   0.000000
 
 -0.1500000E+00 -0.2500000E+00  0.5000000E-01  0.1200000E-01
    1       -2.439792   1.000000
    2       -0.545197   1.000000
    3        0.521598   1.000000
    4        1.034716   1.000000
    5        1.411242   1.000000
    6        2.103213   1.000000
    7       16.937771   0.000000
    8       18.872821   0.000000
    9       21.210176   0.000000
   10       22.167980   0.000000
   11       23.618960   0.000000
   12       29.003938   0.000000
 
 -0.1500000E+00 -0.1500000E+00  0.5000000E-01  0.6000000E-02
    1       -3.280374   1.000000
    2       -0.331227   1.000000
    3        0.706923   1.000000
    4        0.751268   1.000000
    5        1.077511   1.000000
    6        1.812833   1.000000
    7       19.468520   0.000000
    8       20.853719   0.000000
    9       20.888829   0.000000
   10       22.090341   0.000000
   11       24.545825   0.000000
   12       29.296023   0.000000
 
  0.1500000E+00  0.1500000E+00  0.1500000E+00  0.2000000E-02
    1       -3.881865   1.000000
    2        0.048167   1.000000
    3        0.402661   1.000000
    4        0.402661   1.000000
    5        1.494235   1.000000
    6        1.494235   1.000000
    7       18.948521   0.000000
    8       20.651079   0.000000
    9       23.592739   0.000000
   10       23.592739   0.000000
   11       26.662929   0.000000
   12       28.804038   0.000000
 
  0.2500000E+00  0.1500000E+00  0.1500000E+00  0.6000000E-02
    1       -3.301307   1.000000
    2       -0.126695   1.000000
    3        0.518353   1.000000
    4        0.582955   1.000000
    5        1.231372   1.000000
    6        1.828207   1.000000
    7       17.841133   0.000000
    8       19.680041   0.000000
    9       22.567847   0.000000
   10       24.537584   0.000000
   11       25.578468   0.000000
   12       27.957498   0.000000
 
  0.3500000E+00  0.1500000E+00  0.1500000E+00  0.6000000E-02
    1       -2.318234   1.000000
    2       -0.257361   1.000000
    3        0.434921   1.000000
    4        0.829562   1.000000
    5        1.156887   1.000000
    6        2.473690   1.000000
    7       15.381676   0.000000
    8       17.803115   0.000000
    9       22.279255   0.000000
   10       24.042082   0.000000
   11       25.545334   0.000000
   12       27.692221   0.000000
 
  0.4500000E+00  0.1500000E+00  0.1500000E+00  0.6000000E-02
    1       -1.675207   1.000000
    2        0.070527   1.000000
    3        0.435349   1.000000
    4        0.656305   1.000000
    5        1.734894   1.000000
    6        3.435604   1.000000
    7       11.655024   0.000000
    8       17.224837   0.000000
    9       20.837551   0.000000
   10       22.851827   0.000000
   11       26.226044   0.000000
   12       28.767693   0.000000
 
 -0.4500000E+00  0.1500000E+00  0.1500000E+00  0.6000000E-02
    1       -1.632342   1.000000
    2       -0.046748   1.000000
    3        0.561715   1.000000
    4        1.175816   1.000000
    5        2.320880   1.000000
    6        5.015953  -0.000096
    7        8.213911  -0.000000
    8       17.305514   0.000000
    9       20.181535   0.000000
   10       20.739305   0.000000
   11       28.187712   0.000000
   12       29.041269   0.000000
 
 -0.3500000E+00  0.1500000E+00  0.1500000E+00  0.6000000E-02
    1       -1.665262   1.000000
    2       -0.067443   1.000000
    3        0.603253   1.000000
    4        1.015477   1.000000
    5        2.616986   1.000000
    6        5.015441  -0.000097
    7        8.063981  -0.000000
    8       18.114514   0.000000
    9       19.557897   0.000000
   10       20.233168   0.000000
   11       29.139734   0.000000
   12       29.205290   0.000000
 
 -0.2500000E+00  0.1500000E+00  0.1500000E+00  0.6000000E-02
    1       -1.749368   1.000000
    2        0.034239   1.000000
    3        0.215220   1.000000
    4        0.742144   1.000000
    5        2.488176   1.000000
    6        3.007051   1.000000
    7       11.538443   0.000000
    8       19.378318   0.000000
    9       19.426512   0.000000
   10       20.861930   0.000000
   11       28.049165   0.000000
   12       29.211108   0.000000
 
 -0.1500000E+00  0.1500000E+00  0.1500000E+00  0.6000000E-02
    1       -2.337770   1.000000
    2       -0.430684   1.000000
    3        0.436838   1.000000
    4        0.856925   1.000000
    5        1.722885   1.000000
    6        2.101805   1.000000
    7       15.510664   0.000000
    8       19.930593   0.000000
    9       20.674849   0.000000
   10       21.933666   0.000000
   11       24.935747   0.000000
   12       29.302859   0.000000
 
  0.2500000E+00  0.2500000E+00  0.1500000E+00  0.6000000E-02
    1       -2.961793   1.000000
    2       -0.219867   1.000000
    3        0.536374   1.000000
    4        0.646273   1.000000
    5        1.397758   1.000000
    6        1.866766   1.000000
    7       16.658357   0.000000
    8       20.763534   0.000000
    9       21.352499   0.000000
   10       23.784778   0.000000
   11       25.064063   0.000000
   12       28.658505   0.000000
 
  0.3500000E+00  0.2500000E+00  0.1500000E+00  0.1200000E-01
    1       -2.158174   1.000000
    2       -0.440137   1.000000
    3        0.353520   1.000000
    4        1.009207   1.000000
    5        1.385661   1.000000
    6        2.456000   1.000000
    7       15.504035   0.000000
    8       17.828815   0.000000
    9       21.283795   0.000000
   10       23.235907   0.000000
   11       25.127230   0.000000
   12       27.936677   0.000000
 
  0.4500000E+00  0.2500000E+00  0.1500000E+00  0.1200000E-01
    1       -1.293173   1.000000
    2       -0.415906   1.000000
    3        0.021790   1.000000
    4        1.212864   1.000000
    5        1.649778   1.000000
    6        3.515667   1.000000
    7       13.172762   0.000000
    8       15.665007   0.000000
    9       19.742792   0.000000
   10       23.726930   0.000000
   11       25.322928   0.000000
   12       29.108961   0.000000
 
 -0.4500000E+00  0.2500000E+00  0.1500000E+00  0.1200000E-01
    1       -1.159886   1.000000
    2       -0.257399   1.000000
    3        0.310358   1.000000
    4        1.044234   1.000000
    5        2.238894   1.000000
    6        5.102021  -0.000007
    7        9.762843  -0.000000
    8       15.447417   0.000000
    9       18.320593   0.000000
   10       22.464559   0.000000
   11       27.225614   0.000000
   12       30.665746   0.000000
 
 -0.3500000E+00  0.2500000E+00  0.1500000E+00  0.1200000E-01
    1       -1.218607   1.000000
    2       -0.332971   1.000000
    3        0.605100   1.000000
    4        0.983791   1.000000
    5        2.486159   1.000000
    6        6.730151  -0.000000
    7        7.539564  -0.000000
    8       15.999650   0.000000
    9       17.341585   0.000000
   10       22.029849   0.000000
   11       27.967252   0.000000
   12       31.233372   0.000000
 
 -0.2500000E+00  0.2500000E+00  0.1500000E+00  0.1200000E-01
    1       -1.262919   1.000000
    2       -0.247159   1.000000
    3        0.084008   1.000000
    4        1.152359   1.000000
    5        2.346638   1.000000
    6        4.402850   0.559069
    7       10.735401   0.000000
    8       16.277240   0.000000
    9       17.893214   0.000000
   10       22.376155   0.000000
   11       27.165310   0.000000
   12       29.508979   0.000000
 
 -0.1500000E+00  0.2500000E+00  0.1500000E+00  0.1200000E-01
    1       -1.581967   1.000000
    2       -0.638633   1.000000
    3        0.207255   1.000000
    4        1.317660   1.000000
    5        1.742186   1.000000
    6        2.921339   1.000000
    7       14.375348   0.000000
    8       16.727168   0.000000
    9       19.455097   0.000000
   10       23.047450   0.000000
   11       24.620577   0.000000