 running on    4 total cores
 distrk:  each k-point on    4 cores,    1 groups
 distr:  one band on    1 cores,    4 groups
 using from now: INCAR     
 vasp.5.4.4.18Apr17-6-g9f103f2a35 (build Jul 01 2019 03:25:34) complex          
  
 POSCAR found type information on POSCAR  Au
 POSCAR found :  1 types and       1 ions
 scaLAPACK will be used
 LDA part: xc-table for Ceperly-Alder, standard interpolation
 found WAVECAR, reading the header
 WAVECAR: different cutoff or change in lattice found
 POSCAR, INCAR and KPOINTS ok, starting setup
 FFT: planning ...
 reading WAVECAR
 the WAVECAR file was read successfully
 initial charge from wavefunction
 entering main loop
       N       E                     dE             d eps       ncg     rms          rms(c)
DAV:   1    -0.700452629124E+01   -0.70045E+01   -0.37509E+01  2916   0.711E+01    0.932E+00
DAV:   2    -0.438861045166E+01    0.26159E+01   -0.76640E+00  2976   0.295E+01    0.175E+00
DAV:   3    -0.430344131248E+01    0.85169E-01   -0.48749E-01  3088   0.661E+00    0.140E-01
DAV:   4    -0.430374538505E+01   -0.30407E-03   -0.36528E-03  2864   0.551E-01    0.956E-02
DAV:   5    -0.430416256669E+01   -0.41718E-03   -0.18711E-04  3024   0.129E-01    0.470E-02
DAV:   6    -0.430419396773E+01   -0.31401E-04   -0.28418E-04  2800   0.174E-01
   1 F= -.43041940E+01 E0= -.43045142E+01  d E =0.960636E-03
 writing wavefunctions
