       N       E                     dE             d eps       ncg     rms          rms(c)
DAV:   1    -0.700452629124E+01   -0.70045E+01   -0.37509E+01  2916   0.711E+01    0.932E+00
DAV:   2    -0.438861045166E+01    0.26159E+01   -0.76640E+00  2976   0.295E+01    0.175E+00
DAV:   3    -0.430344131248E+01    0.85169E-01   -0.48749E-01  3088   0.661E+00    0.140E-01
DAV:   4    -0.430374538505E+01   -0.30407E-03   -0.36528E-03  2864   0.551E-01    0.956E-02
DAV:   5    -0.430416256669E+01   -0.41718E-03   -0.18711E-04  3024   0.129E-01    0.470E-02
DAV:   6    -0.430419396773E+01   -0.31401E-04   -0.28418E-04  2800   0.174E-01
   1 F= -.43041940E+01 E0= -.43045142E+01  d E =0.960636E-03
