 vasp.5.4.4.18Apr17-6-g9f103f2a35 (build Jul 01 2019 03:25:34) complex          
  
 executed on             LinuxIFC date 2020.07.08  00:55:58
 running on    4 total cores
 distrk:  each k-point on    4 cores,    1 groups
 distr:  one band on NCORES_PER_BAND=   1 cores,    4 groups


--------------------------------------------------------------------------------------------------------


 INCAR:
 POTCAR:   PAW Au 04Feb1998                       
 POTCAR:   PAW Au 04Feb1998                       
   VRHFIN =Au: s1d10                                                            
   LEXCH  = CA                                                                  
   EATOM  =   929.4667 eV,   68.3139 Ry                                         
                                                                                
   TITEL  = PAW Au 04Feb1998                                                    
   LULTRA =        F    use ultrasoft PP ?                                      
   IUNSCR =        1    unscreen: 0-lin 1-nonlin 2-no                           
   RPACOR =    2.330    partial core radius                                     
   POMASS =  196.966; ZVAL   =   11.000    mass and valenz                      
   RCORE  =    2.500    outmost cutoff radius                                   
   RWIGS  =    2.840; RWIGS  =    1.503    wigner-seitz radius (au A)           
   ENMAX  =  229.869; ENMIN  =  172.402 eV                                      
   RCLOC  =    1.964    cutoff for local pot                                    
   LCOR   =        T    correct aug charges                                     
   LPAW   =        T    paw PP                                                  
   EAUG   =  356.670                                                            
   DEXC   =    -.020                                                            
   RMAX   =    3.041    core radius for proj-oper                               
   RDEP   =    2.598    core radius for depl-charge                             
   QCUT   =   -4.110; QGAM   =    8.221    optimization parameters              
                                                                                
   Description                                                                  
     l     E      TYP  RCUT    TYP  RCUT                                        
     2   .000     23  2.500                                                     
     2   .000     23  2.500                                                     
     0   .000     23  2.500                                                     
     0   .000     23  2.500                                                     
     1  -.200     23  2.500                                                     
     1   .000     23  2.500                                                     
     3   .000      7   .000                                                     
  local pseudopotential read in
  partial core-charges read in
  atomic valenz-charges read in
  non local Contribution for L=           2  read in
    real space projection operators read in
  non local Contribution for L=           2  read in
    real space projection operators read in
  non local Contribution for L=           0  read in
    real space projection operators read in
  non local Contribution for L=           0  read in
    real space projection operators read in
  non local Contribution for L=           1  read in
    real space projection operators read in
  non local Contribution for L=           1  read in
    real space projection operators read in
    PAW grid and wavefunctions read in
 
   number of l-projection  operators is LMAX  =           6
   number of lm-projection operators is LMMAX =          18
 
 PAW Au 04Feb1998                       :
 energy of atom  1       EATOM= -929.4667
 kinetic energy error for atom=    0.0704 (will be added to EATOM!!)
 
 
 POSCAR: FCC Au Bulk                             
  positions in direct lattice
  No initial velocities read in
 exchange correlation table for  LEXCH =        2
   RHO(1)=    0.500       N(1)  =     2000
   RHO(2)=  100.500       N(2)  =     4000
 


--------------------------------------------------------------------------------------------------------


 ion  position               nearest neighbor table
   1  0.000  0.000  0.000-
 
  LATTYP: Found a face centered cubic cell.
 ALAT       =     4.2000000000
  
  Lattice vectors:
  
 A1 = (   0.0000000000,   2.1000000000,   2.1000000000)
 A2 = (   2.1000000000,   0.0000000000,   2.1000000000)
 A3 = (   2.1000000000,   2.1000000000,   0.0000000000)


Analysis of symmetry for initial positions (statically):
=====================================================================
 Subroutine PRICEL returns:
 Original cell was already a primitive cell.
 

 Routine SETGRP: Setting up the symmetry group for a 
 face centered cubic supercell.


 Subroutine GETGRP returns: Found 48 space group operations
 (whereof 48 operations were pure point group operations)
 out of a pool of 48 trial point group operations.


The static configuration has the point symmetry O_h .


Analysis of symmetry for dynamics (positions and initial velocities):
=====================================================================
 Subroutine PRICEL returns:
 Original cell was already a primitive cell.
 

 Routine SETGRP: Setting up the symmetry group for a 
 face centered cubic supercell.


 Subroutine GETGRP returns: Found 48 space group operations
 (whereof 48 operations were pure point group operations)
 out of a pool of 48 trial point group operations.


The dynamic configuration has the point symmetry O_h .


 Subroutine INISYM returns: Found 48 space group operations
 (whereof 48 operations are pure point group operations),
 and found     1 'primitive' translations

 
 
 KPOINTS: 10x10x10                                

Automatic generation of k-mesh.
Space group operators:
 irot       det(A)        alpha          n_x          n_y          n_z        tau_x        tau_y        tau_z
    1     1.000000     0.000000     1.000000     0.000000     0.000000     0.000000     0.000000     0.000000
    2    -1.000000     0.000000     1.000000     0.000000     0.000000     0.000000     0.000000     0.000000
    3     1.000000   120.000000    -0.577350    -0.577350    -0.577350     0.000000     0.000000     0.000000
    4    -1.000000   120.000000    -0.577350    -0.577350    -0.577350     0.000000     0.000000     0.000000
    5     1.000000   120.000000     0.577350     0.577350     0.577350     0.000000     0.000000     0.000000
    6    -1.000000   120.000000     0.577350     0.577350     0.577350     0.000000     0.000000     0.000000
    7     1.000000    90.000000     0.000000     0.000000    -1.000000     0.000000     0.000000     0.000000
    8    -1.000000    90.000000     0.000000     0.000000    -1.000000     0.000000     0.000000     0.000000
    9     1.000000   180.000000     0.000000     0.707107     0.707107     0.000000     0.000000     0.000000
   10    -1.000000   180.000000     0.000000     0.707107     0.707107     0.000000     0.000000     0.000000
   11     1.000000    90.000000     0.000000     1.000000     0.000000     0.000000     0.000000     0.000000
   12    -1.000000    90.000000     0.000000     1.000000     0.000000     0.000000     0.000000     0.000000
   13     1.000000   180.000000     0.000000     0.000000     1.000000     0.000000     0.000000     0.000000
   14    -1.000000   180.000000     0.000000     0.000000     1.000000     0.000000     0.000000     0.000000
   15     1.000000   120.000000    -0.577350     0.577350     0.577350     0.000000     0.000000     0.000000
   16    -1.000000   120.000000    -0.577350     0.577350     0.577350     0.000000     0.000000     0.000000
   17     1.000000   120.000000    -0.577350     0.577350    -0.577350     0.000000     0.000000     0.000000
   18    -1.000000   120.000000    -0.577350     0.577350    -0.577350     0.000000     0.000000     0.000000
   19     1.000000    90.000000     0.000000     0.000000     1.000000     0.000000     0.000000     0.000000
   20    -1.000000    90.000000     0.000000     0.000000     1.000000     0.000000     0.000000     0.000000
   21     1.000000    90.000000    -1.000000     0.000000     0.000000     0.000000     0.000000     0.000000
   22    -1.000000    90.000000    -1.000000     0.000000     0.000000     0.000000     0.000000     0.000000
   23     1.000000   180.000000     0.707107     0.000000     0.707107     0.000000     0.000000     0.000000
   24    -1.000000   180.000000     0.707107     0.000000     0.707107     0.000000     0.000000     0.000000
   25     1.000000   120.000000     0.577350    -0.577350     0.577350     0.000000     0.000000     0.000000
   26    -1.000000   120.000000     0.577350    -0.577350     0.577350     0.000000     0.000000     0.000000
   27     1.000000   120.000000    -0.577350    -0.577350     0.577350     0.000000     0.000000     0.000000
   28    -1.000000   120.000000    -0.577350    -0.577350     0.577350     0.000000     0.000000     0.000000
   29     1.000000   180.000000     1.000000     0.000000     0.000000     0.000000     0.000000     0.000000
   30    -1.000000   180.000000     1.000000     0.000000     0.000000     0.000000     0.000000     0.000000
   31     1.000000    90.000000     0.000000    -1.000000     0.000000     0.000000     0.000000     0.000000
   32    -1.000000    90.000000     0.000000    -1.000000     0.000000     0.000000     0.000000     0.000000
   33     1.000000   180.000000     0.707107     0.707107     0.000000     0.000000     0.000000     0.000000
   34    -1.000000   180.000000     0.707107     0.707107     0.000000     0.000000     0.000000     0.000000
   35     1.000000    90.000000     1.000000     0.000000     0.000000     0.000000     0.000000     0.000000
   36    -1.000000    90.000000     1.000000     0.000000     0.000000     0.000000     0.000000     0.000000
   37     1.000000   120.000000     0.577350    -0.577350    -0.577350     0.000000     0.000000     0.000000
   38    -1.000000   120.000000     0.577350    -0.577350    -0.577350     0.000000     0.000000     0.000000
   39     1.000000   180.000000     0.000000     1.000000     0.000000     0.000000     0.000000     0.000000
   40    -1.000000   180.000000     0.000000     1.000000     0.000000     0.000000     0.000000     0.000000
   41     1.000000   120.000000     0.577350     0.577350    -0.577350     0.000000     0.000000     0.000000
   42    -1.000000   120.000000     0.577350     0.577350    -0.577350     0.000000     0.000000     0.000000
   43     1.000000   180.000000     0.000000    -0.707107     0.707107     0.000000     0.000000     0.000000
   44    -1.000000   180.000000     0.000000    -0.707107     0.707107     0.000000     0.000000     0.000000
   45     1.000000   180.000000     0.707107    -0.707107     0.000000     0.000000     0.000000     0.000000
   46    -1.000000   180.000000     0.707107    -0.707107     0.000000     0.000000     0.000000     0.000000
   47     1.000000   180.000000     0.707107     0.000000    -0.707107     0.000000     0.000000     0.000000
   48    -1.000000   180.000000     0.707107     0.000000    -0.707107     0.000000     0.000000     0.000000
 
 Subroutine IBZKPT returns following result:
 ===========================================
 
 Found    110 irreducible k-points:
 
 Following reciprocal coordinates:
            Coordinates               Weight
  0.050000  0.050000  0.050000     96.000000
  0.150000  0.050000  0.050000    288.000000
  0.250000  0.050000  0.050000    288.000000
  0.350000  0.050000  0.050000    288.000000
  0.450000  0.050000  0.050000    288.000000
 -0.450000  0.050000  0.050000    288.000000
 -0.350000  0.050000  0.050000    288.000000
 -0.250000  0.050000  0.050000    288.000000
 -0.150000  0.050000  0.050000    288.000000
 -0.050000  0.050000  0.050000    288.000000
  0.150000  0.150000  0.050000    288.000000
  0.250000  0.150000  0.050000    576.000000
  0.350000  0.150000  0.050000    576.000000
  0.450000  0.150000  0.050000    576.000000
 -0.450000  0.150000  0.050000    576.000000
 -0.350000  0.150000  0.050000    576.000000
 -0.250000  0.150000  0.050000    576.000000
 -0.150000  0.150000  0.050000    576.000000
 -0.050000  0.150000  0.050000    576.000000
  0.250000  0.250000  0.050000    288.000000
  0.350000  0.250000  0.050000    576.000000
  0.450000  0.250000  0.050000    576.000000
 -0.450000  0.250000  0.050000    576.000000
 -0.350000  0.250000  0.050000    576.000000
 -0.250000  0.250000  0.050000    576.000000
 -0.150000  0.250000  0.050000    576.000000
 -0.050000  0.250000  0.050000    576.000000
  0.350000  0.350000  0.050000    288.000000
  0.450000  0.350000  0.050000    576.000000
 -0.450000  0.350000  0.050000    576.000000
 -0.350000  0.350000  0.050000    576.000000
 -0.250000  0.350000  0.050000    576.000000
 -0.150000  0.350000  0.050000    576.000000
 -0.050000  0.350000  0.050000    576.000000
  0.450000  0.450000  0.050000    288.000000
 -0.450000  0.450000  0.050000    576.000000
 -0.350000  0.450000  0.050000    576.000000
 -0.250000  0.450000  0.050000    576.000000
 -0.150000  0.450000  0.050000    576.000000
 -0.050000  0.450000  0.050000    576.000000
 -0.450000 -0.450000  0.050000    288.000000
 -0.350000 -0.450000  0.050000    576.000000
 -0.250000 -0.450000  0.050000    576.000000
 -0.150000 -0.450000  0.050000    576.000000
 -0.350000 -0.350000  0.050000    288.000000
 -0.250000 -0.350000  0.050000    576.000000
 -0.150000 -0.350000  0.050000    576.000000
 -0.250000 -0.250000  0.050000    288.000000
 -0.150000 -0.250000  0.050000    576.000000
 -0.150000 -0.150000  0.050000    288.000000
  0.150000  0.150000  0.150000     96.000000
  0.250000  0.150000  0.150000    288.000000
  0.350000  0.150000  0.150000    288.000000
  0.450000  0.150000  0.150000    288.000000
 -0.450000  0.150000  0.150000    288.000000
 -0.350000  0.150000  0.150000    288.000000
 -0.250000  0.150000  0.150000    288.000000
 -0.150000  0.150000  0.150000    288.000000
  0.250000  0.250000  0.150000    288.000000
  0.350000  0.250000  0.150000    576.000000
  0.450000  0.250000  0.150000    576.000000
 -0.450000  0.250000  0.150000    576.000000
 -0.350000  0.250000  0.150000    576.000000
 -0.250000  0.250000  0.150000    576.000000
 -0.150000  0.250000  0.150000    576.000000
  0.350000  0.350000  0.150000    288.000000
  0.450000  0.350000  0.150000    576.000000
 -0.450000  0.350000  0.150000    576.000000
 -0.350000  0.350000  0.150000    576.000000
 -0.250000  0.350000  0.150000    576.000000
 -0.150000  0.350000  0.150000    576.000000
  0.450000  0.450000  0.150000    288.000000
 -0.450000  0.450000  0.150000    576.000000
 -0.350000  0.450000  0.150000    576.000000
 -0.250000  0.450000  0.150000    576.000000
 -0.150000  0.450000  0.150000    576.000000
 -0.450000 -0.450000  0.150000    288.000000
 -0.350000 -0.450000  0.150000    576.000000
 -0.250000 -0.450000  0.150000    576.000000
 -0.350000 -0.350000  0.150000    288.000000
 -0.250000 -0.350000  0.150000    576.000000
 -0.250000 -0.250000  0.150000    288.000000
  0.250000  0.250000  0.250000     96.000000
  0.350000  0.250000  0.250000    288.000000
  0.450000  0.250000  0.250000    288.000000
 -0.450000  0.250000  0.250000    288.000000
 -0.350000  0.250000  0.250000    288.000000
 -0.250000  0.250000  0.250000    288.000000
  0.350000  0.350000  0.250000    288.000000
  0.450000  0.350000  0.250000    576.000000
 -0.450000  0.350000  0.250000    576.000000
 -0.350000  0.350000  0.250000    576.000000
 -0.250000  0.350000  0.250000    576.000000
  0.450000  0.450000  0.250000    288.000000
 -0.450000  0.450000  0.250000    576.000000
 -0.350000  0.450000  0.250000    576.000000
 -0.250000  0.450000  0.250000    576.000000
 -0.450000 -0.450000  0.250000    288.000000
 -0.350000 -0.450000  0.250000    576.000000
 -0.350000 -0.350000  0.250000    288.000000
  0.350000  0.350000  0.350000     96.000000
  0.450000  0.350000  0.350000    288.000000
 -0.450000  0.350000  0.350000    288.000000
 -0.350000  0.350000  0.350000    288.000000
  0.450000  0.450000  0.350000    288.000000
 -0.450000  0.450000  0.350000    576.000000
 -0.350000  0.450000  0.350000    576.000000
 -0.450000 -0.450000  0.350000    288.000000
  0.450000  0.450000  0.450000     96.000000
 -0.450000  0.450000  0.450000    288.000000
 
 Following cartesian coordinates:
            Coordinates               Weight
  0.050000  0.050000  0.050000     96.000000
 -0.050000  0.150000  0.150000    288.000000
 -0.150000  0.250000  0.250000    288.000000
 -0.250000  0.350000  0.350000    288.000000
 -0.350000  0.450000  0.450000    288.000000
  0.550000 -0.450000 -0.450000    288.000000
  0.450000 -0.350000 -0.350000    288.000000
  0.350000 -0.250000 -0.250000    288.000000
  0.250000 -0.150000 -0.150000    288.000000
  0.150000 -0.050000 -0.050000    288.000000
  0.050000  0.050000  0.250000    288.000000
 -0.050000  0.150000  0.350000    576.000000
 -0.150000  0.250000  0.450000    576.000000
 -0.250000  0.350000  0.550000    576.000000
  0.650000 -0.550000 -0.350000    576.000000
  0.550000 -0.450000 -0.250000    576.000000
  0.450000 -0.350000 -0.150000    576.000000
  0.350000 -0.250000 -0.050000    576.000000
  0.250000 -0.150000  0.050000    576.000000
  0.050000  0.050000  0.450000    288.000000
 -0.050000  0.150000  0.550000    576.000000
 -0.150000  0.250000  0.650000    576.000000
  0.750000 -0.650000 -0.250000    576.000000
  0.650000 -0.550000 -0.150000    576.000000
  0.550000 -0.450000 -0.050000    576.000000
  0.450000 -0.350000  0.050000    576.000000
  0.350000 -0.250000  0.150000    576.000000
  0.050000  0.050000  0.650000    288.000000
 -0.050000  0.150000  0.750000    576.000000
  0.850000 -0.750000 -0.150000    576.000000
  0.750000 -0.650000 -0.050000    576.000000
  0.650000 -0.550000  0.050000    576.000000
  0.550000 -0.450000  0.150000    576.000000
  0.450000 -0.350000  0.250000    576.000000
  0.050000  0.050000  0.850000    288.000000
  0.950000 -0.850000 -0.050000    576.000000
  0.850000 -0.750000  0.050000    576.000000
  0.750000 -0.650000  0.150000    576.000000
  0.650000 -0.550000  0.250000    576.000000
  0.550000 -0.450000  0.350000    576.000000
  0.050000  0.050000 -0.950000    288.000000
 -0.050000  0.150000 -0.850000    576.000000
 -0.150000  0.250000 -0.750000    576.000000
 -0.250000  0.350000 -0.650000    576.000000
  0.050000  0.050000 -0.750000    288.000000
 -0.050000  0.150000 -0.650000    576.000000
 -0.150000  0.250000 -0.550000    576.000000
  0.050000  0.050000 -0.550000    288.000000
 -0.050000  0.150000 -0.450000    576.000000
  0.050000  0.050000 -0.350000    288.000000
  0.150000  0.150000  0.150000     96.000000
  0.050000  0.250000  0.250000    288.000000
 -0.050000  0.350000  0.350000    288.000000
 -0.150000  0.450000  0.450000    288.000000
  0.750000 -0.450000 -0.450000    288.000000
  0.650000 -0.350000 -0.350000    288.000000
  0.550000 -0.250000 -0.250000    288.000000
  0.450000 -0.150000 -0.150000    288.000000
  0.150000  0.150000  0.350000    288.000000
  0.050000  0.250000  0.450000    576.000000
 -0.050000  0.350000  0.550000    576.000000
  0.850000 -0.550000 -0.350000    576.000000
  0.750000 -0.450000 -0.250000    576.000000
  0.650000 -0.350000 -0.150000    576.000000
  0.550000 -0.250000 -0.050000    576.000000
  0.150000  0.150000  0.550000    288.000000
  0.050000  0.250000  0.650000    576.000000
  0.950000 -0.650000 -0.250000    576.000000
  0.850000 -0.550000 -0.150000    576.000000
  0.750000 -0.450000 -0.050000    576.000000
  0.650000 -0.350000  0.050000    576.000000
  0.150000  0.150000  0.750000    288.000000
  1.050000 -0.750000 -0.150000    576.000000
  0.950000 -0.650000 -0.050000    576.000000
  0.850000 -0.550000  0.050000    576.000000
  0.750000 -0.450000  0.150000    576.000000
  0.150000  0.150000 -1.050000    288.000000
  0.050000  0.250000 -0.950000    576.000000
 -0.050000  0.350000 -0.850000    576.000000
  0.150000  0.150000 -0.850000    288.000000
  0.050000  0.250000 -0.750000    576.000000
  0.150000  0.150000 -0.650000    288.000000
  0.250000  0.250000  0.250000     96.000000
  0.150000  0.350000  0.350000    288.000000
  0.050000  0.450000  0.450000    288.000000
  0.950000 -0.450000 -0.450000    288.000000
  0.850000 -0.350000 -0.350000    288.000000
  0.750000 -0.250000 -0.250000    288.000000
  0.250000  0.250000  0.450000    288.000000
  0.150000  0.350000  0.550000    576.000000
  1.050000 -0.550000 -0.350000    576.000000
  0.950000 -0.450000 -0.250000    576.000000
  0.850000 -0.350000 -0.150000    576.000000
  0.250000  0.250000  0.650000    288.000000
  1.150000 -0.650000 -0.250000    576.000000
  1.050000 -0.550000 -0.150000    576.000000
  0.950000 -0.450000 -0.050000    576.000000
  0.250000  0.250000 -1.150000    288.000000
  0.150000  0.350000 -1.050000    576.000000
  0.250000  0.250000 -0.950000    288.000000
  0.350000  0.350000  0.350000     96.000000
  0.250000  0.450000  0.450000    288.000000
  1.150000 -0.450000 -0.450000    288.000000
  1.050000 -0.350000 -0.350000    288.000000
  0.350000  0.350000  0.550000    288.000000
  1.250000 -0.550000 -0.350000    576.000000
  1.150000 -0.450000 -0.250000    576.000000
  0.350000  0.350000 -1.250000    288.000000
  0.450000  0.450000  0.450000     96.000000
  1.350000 -0.450000 -0.450000    288.000000
 


--------------------------------------------------------------------------------------------------------




 Dimension of arrays:
   k-points           NKPTS =    110   k-points in BZ     NKDIM =    110   number of bands    NBANDS=     12
   number of dos      NEDOS =    301   number of ions     NIONS =      1
   non local maximal  LDIM  =      6   non local SUM 2l+1 LMDIM =     18
   total plane-waves  NPLWV =   1728
   max r-space proj   IRMAX =      1   max aug-charges    IRDMAX=   5904
   dimension x,y,z NGX =    12 NGY =   12 NGZ =   12
   dimension x,y,z NGXF=    24 NGYF=   24 NGZF=   24
   support grid    NGXF=    24 NGYF=   24 NGZF=   24
   ions per type =               1
   NGX,Y,Z   is equivalent  to a cutoff of   6.72,  6.72,  6.72 a.u.
   NGXF,Y,Z  is equivalent  to a cutoff of  13.43, 13.43, 13.43 a.u.

 SYSTEM =  FCC Au                                  
 POSCAR =  FCC Au Bulk                             

 Startparameter for this run:
   NWRITE =      2    write-flag & timer
   PREC   = normal    normal or accurate (medium, high low for compatibility)
   ISTART =      1    job   : 0-new  1-cont  2-samecut
   ICHARG =      0    charge: 1-file 2-atom 10-const
   ISPIN  =      1    spin polarized calculation?
   LNONCOLLINEAR =      F non collinear calculations
   LSORBIT =      F    spin-orbit coupling
   INIWAV =      1    electr: 0-lowe 1-rand  2-diag
   LASPH  =      F    aspherical Exc in radial PAW
   METAGGA=      F    non-selfconsistent MetaGGA calc.

 Electronic Relaxation 1
   ENCUT  =  230.0 eV  16.90 Ry    4.11 a.u.   3.67  3.67  3.67*2*pi/ulx,y,z
   ENINI  =  230.0     initial cutoff
   ENAUG  =  356.7 eV  augmentation charge cutoff
   NELM   =     60;   NELMIN=  2; NELMDL=  0     # of ELM steps 
   EDIFF  = 0.1E-03   stopping-criterion for ELM
   LREAL  =      F    real-space projection
   NLSPLINE    = F    spline interpolate recip. space projectors
   LCOMPAT=      F    compatible to vasp.4.4
   GGA_COMPAT  = T    GGA compatible to vasp.4.4-vasp.4.6
   LMAXPAW     = -100 max onsite density
   LMAXMIX     =    2 max onsite mixed and CHGCAR
   VOSKOWN=      0    Vosko Wilk Nusair interpolation
   ROPT   =    0.00000
 Ionic relaxation
   EDIFFG = 0.1E-02   stopping-criterion for IOM
   NSW    =      0    number of steps for IOM
   NBLOCK =      1;   KBLOCK =      1    inner block; outer block 
   IBRION =     -1    ionic relax: 0-MD 1-quasi-New 2-CG
   NFREE  =      0    steps in history (QN), initial steepest desc. (CG)
   ISIF   =      2    stress and relaxation
   IWAVPR =     10    prediction:  0-non 1-charg 2-wave 3-comb
   ISYM   =      2    0-nonsym 1-usesym 2-fastsym
   LCORR  =      T    Harris-Foulkes like correction to forces

   POTIM  = 0.5000    time-step for ionic-motion
   TEIN   =    0.0    initial temperature
   TEBEG  =    0.0;   TEEND  =   0.0 temperature during run
   SMASS  =  -3.00    Nose mass-parameter (am)
   estimated Nose-frequenzy (Omega)   =  0.10E-29 period in steps =****** mass=  -0.202E-27a.u.
   SCALEE = 1.0000    scale energy and forces
   NPACO  =    256;   APACO  = 16.0  distance and # of slots for P.C.
   PSTRESS=    0.0 pullay stress

  Mass of Ions in am
   POMASS = 196.97
  Ionic Valenz
   ZVAL   =  11.00
  Atomic Wigner-Seitz radii
   RWIGS  =  -1.00
  virtual crystal weights 
   VCA    =   1.00
   NELECT =      11.0000    total number of electrons
   NUPDOWN=      -1.0000    fix difference up-down

 DOS related values:
   EMIN   =  10.00;   EMAX   =-10.00  energy-range for DOS
   EFERMI =   0.00
   ISMEAR =     1;   SIGMA  =   0.20  broadening in eV -4-tet -1-fermi 0-gaus

 Electronic relaxation 2 (details)
   IALGO  =     38    algorithm
   LDIAG  =      T    sub-space diagonalisation (order eigenvalues)
   LSUBROT=      F    optimize rotation matrix (better conditioning)
   TURBO    =      0    0=normal 1=particle mesh
   IRESTART =      0    0=no restart 2=restart with 2 vectors
   NREBOOT  =      0    no. of reboots
   NMIN     =      0    reboot dimension
   EREF     =   0.00    reference energy to select bands
   IMIX   =      4    mixing-type and parameters
     AMIX     =   0.40;   BMIX     =  1.00
     AMIX_MAG =   1.60;   BMIX_MAG =  1.00
     AMIN     =   0.10
     WC   =   100.;   INIMIX=   1;  MIXPRE=   1;  MAXMIX= -45

 Intra band minimization:
   WEIMIN = 0.0000     energy-eigenvalue tresh-hold
   EBREAK =  0.21E-05  absolut break condition
   DEPER  =   0.30     relativ break condition  

   TIME   =   0.40     timestep for ELM

  volume/ion in A,a.u.               =      18.52       124.99
  Fermi-wavevector in a.u.,A,eV,Ry     =   1.376078  2.600411 25.763871  1.893591
  Thomas-Fermi vector in A             =   2.501356
 
 Write flags
   LWAVE        =      T    write WAVECAR
   LDOWNSAMPLE  =      F    k-point downsampling of WAVECAR
   LCHARG       =      T    write CHGCAR
   LVTOT        =      F    write LOCPOT, total local potential
   LVHAR        =      F    write LOCPOT, Hartree potential only
   LELF         =      F    write electronic localiz. function (ELF)
   LORBIT       =      0    0 simple, 1 ext, 2 COOP (PROOUT), +10 PAW based schemes


 Dipole corrections
   LMONO  =      F    monopole corrections only (constant potential shift)
   LDIPOL =      F    correct potential (dipole corrections)
   IDIPOL =      0    1-x, 2-y, 3-z, 4-all directions 
   EPSILON=  1.0000000 bulk dielectric constant

 Exchange correlation treatment:
   GGA     =    --    GGA type
   LEXCH   =     2    internal setting for exchange type
   VOSKOWN=      0    Vosko Wilk Nusair interpolation
   LHFCALC =     F    Hartree Fock is set to
   LHFONE  =     F    Hartree Fock one center treatment
   AEXX    =    0.0000 exact exchange contribution

 Linear response parameters
   LEPSILON=     F    determine dielectric tensor
   LRPA    =     F    only Hartree local field effects (RPA)
   LNABLA  =     F    use nabla operator in PAW spheres
   LVEL    =     F    velocity operator in full k-point grid
   LINTERFAST=   F  fast interpolation
   KINTER  =     0    interpolate to denser k-point grid
   CSHIFT  =0.1000    complex shift for real part using Kramers Kronig
   OMEGAMAX=  -1.0    maximum frequency
   DEG_THRESHOLD= 0.2000000E-02 threshold for treating states as degnerate
   RTIME   =   -0.100 relaxation time in fs
  (WPLASMAI=    0.000 imaginary part of plasma frequency in eV, 0.658/RTIME)
   DFIELD  = 0.0000000 0.0000000 0.0000000 field for delta impulse in time
 
 Orbital magnetization related:
   ORBITALMAG=     F  switch on orbital magnetization
   LCHIMAG   =     F  perturbation theory with respect to B field
   DQ        =  0.001000  dq finite difference perturbation B field
   LLRAUG    =     F  two centre corrections for induced B field



--------------------------------------------------------------------------------------------------------


 Static calculation
 charge density and potential will be updated during run
 non-spin polarized calculation
 Variant of blocked Davidson
 Davidson routine will perform the subspace rotation
 perform sub-space diagonalisation
    after iterative eigenvector-optimisation
 modified Broyden-mixing scheme, WC =      100.0
 initial mixing is a Kerker type mixing with AMIX =  0.4000 and BMIX =      1.0000
 Hartree-type preconditioning will be used
 using additional bands            6
 reciprocal scheme for non local part
 use partial core corrections
 calculate Harris-corrections to forces 
   (improved forces if not selfconsistent)
 use of overlap-Matrix (Vanderbilt PP)
 Methfessel and Paxton  Order N= 1 SIGMA  =   0.20


--------------------------------------------------------------------------------------------------------


  energy-cutoff  :      230.00
  volume of cell :       18.52
      direct lattice vectors                 reciprocal lattice vectors
     0.000000000  2.100000000  2.100000000    -0.238095238  0.238095238  0.238095238
     2.100000000  0.000000000  2.100000000     0.238095238 -0.238095238  0.238095238
     2.100000000  2.100000000  0.000000000     0.238095238  0.238095238 -0.238095238

  length of vectors
     2.969848481  2.969848481  2.969848481     0.412393049  0.412393049  0.412393049


 
 old parameters found on file WAVECAR:
  energy-cutoff  :      287.34
  volume of cell :       18.52
      direct lattice vectors                 reciprocal lattice vectors
     0.000000000  2.100000000  2.100000000    -0.238095238  0.238095238  0.238095238
     2.100000000  0.000000000  2.100000000     0.238095238 -0.238095238  0.238095238
     2.100000000  2.100000000  0.000000000     0.238095238  0.238095238 -0.238095238

  length of vectors

 
 k-points in units of 2pi/SCALE and weight: 10x10x10                                
   0.05000000  0.05000000  0.05000000       0.002
  -0.05000000  0.15000000  0.15000000       0.006
  -0.15000000  0.25000000  0.25000000       0.006
  -0.25000000  0.35000000  0.35000000       0.006
  -0.35000000  0.45000000  0.45000000       0.006
   0.55000000 -0.45000000 -0.45000000       0.006
   0.45000000 -0.35000000 -0.35000000       0.006
   0.35000000 -0.25000000 -0.25000000       0.006
   0.25000000 -0.15000000 -0.15000000       0.006
   0.15000000 -0.05000000 -0.05000000       0.006
   0.05000000  0.05000000  0.25000000       0.006
  -0.05000000  0.15000000  0.35000000       0.012
  -0.15000000  0.25000000  0.45000000       0.012
  -0.25000000  0.35000000  0.55000000       0.012
   0.65000000 -0.55000000 -0.35000000       0.012
   0.55000000 -0.45000000 -0.25000000       0.012
   0.45000000 -0.35000000 -0.15000000       0.012
   0.35000000 -0.25000000 -0.05000000       0.012
   0.25000000 -0.15000000  0.05000000       0.012
   0.05000000  0.05000000  0.45000000       0.006
  -0.05000000  0.15000000  0.55000000       0.012
  -0.15000000  0.25000000  0.65000000       0.012
   0.75000000 -0.65000000 -0.25000000       0.012
   0.65000000 -0.55000000 -0.15000000       0.012
   0.55000000 -0.45000000 -0.05000000       0.012
   0.45000000 -0.35000000  0.05000000       0.012
   0.35000000 -0.25000000  0.15000000       0.012
   0.05000000  0.05000000  0.65000000       0.006
  -0.05000000  0.15000000  0.75000000       0.012
   0.85000000 -0.75000000 -0.15000000       0.012
   0.75000000 -0.65000000 -0.05000000       0.012
   0.65000000 -0.55000000  0.05000000       0.012
   0.55000000 -0.45000000  0.15000000       0.012
   0.45000000 -0.35000000  0.25000000       0.012
   0.05000000  0.05000000  0.85000000       0.006
   0.95000000 -0.85000000 -0.05000000       0.012
   0.85000000 -0.75000000  0.05000000       0.012
   0.75000000 -0.65000000  0.15000000       0.012
   0.65000000 -0.55000000  0.25000000       0.012
   0.55000000 -0.45000000  0.35000000       0.012
   0.05000000  0.05000000 -0.95000000       0.006
  -0.05000000  0.15000000 -0.85000000       0.012
  -0.15000000  0.25000000 -0.75000000       0.012
  -0.25000000  0.35000000 -0.65000000       0.012
   0.05000000  0.05000000 -0.75000000       0.006
  -0.05000000  0.15000000 -0.65000000       0.012
  -0.15000000  0.25000000 -0.55000000       0.012
   0.05000000  0.05000000 -0.55000000       0.006
  -0.05000000  0.15000000 -0.45000000       0.012
   0.05000000  0.05000000 -0.35000000       0.006
   0.15000000  0.15000000  0.15000000       0.002
   0.05000000  0.25000000  0.25000000       0.006
  -0.05000000  0.35000000  0.35000000       0.006
  -0.15000000  0.45000000  0.45000000       0.006
   0.75000000 -0.45000000 -0.45000000       0.006
   0.65000000 -0.35000000 -0.35000000       0.006
   0.55000000 -0.25000000 -0.25000000       0.006
   0.45000000 -0.15000000 -0.15000000       0.006
   0.15000000  0.15000000  0.35000000       0.006
   0.05000000  0.25000000  0.45000000       0.012
  -0.05000000  0.35000000  0.55000000       0.012
   0.85000000 -0.55000000 -0.35000000       0.012
   0.75000000 -0.45000000 -0.25000000       0.012
   0.65000000 -0.35000000 -0.15000000       0.012
   0.55000000 -0.25000000 -0.05000000       0.012
   0.15000000  0.15000000  0.55000000       0.006
   0.05000000  0.25000000  0.65000000       0.012
   0.95000000 -0.65000000 -0.25000000       0.012
   0.85000000 -0.55000000 -0.15000000       0.012
   0.75000000 -0.45000000 -0.05000000       0.012
   0.65000000 -0.35000000  0.05000000       0.012
   0.15000000  0.15000000  0.75000000       0.006
   1.05000000 -0.75000000 -0.15000000       0.012
   0.95000000 -0.65000000 -0.05000000       0.012
   0.85000000 -0.55000000  0.05000000       0.012
   0.75000000 -0.45000000  0.15000000       0.012
   0.15000000  0.15000000 -1.05000000       0.006
   0.05000000  0.25000000 -0.95000000       0.012
  -0.05000000  0.35000000 -0.85000000       0.012
   0.15000000  0.15000000 -0.85000000       0.006
   0.05000000  0.25000000 -0.75000000       0.012
   0.15000000  0.15000000 -0.65000000       0.006
   0.25000000  0.25000000  0.25000000       0.002
   0.15000000  0.35000000  0.35000000       0.006
   0.05000000  0.45000000  0.45000000       0.006
   0.95000000 -0.45000000 -0.45000000       0.006
   0.85000000 -0.35000000 -0.35000000       0.006
   0.75000000 -0.25000000 -0.25000000       0.006
   0.25000000  0.25000000  0.45000000       0.006
   0.15000000  0.35000000  0.55000000       0.012
   1.05000000 -0.55000000 -0.35000000       0.012
   0.95000000 -0.45000000 -0.25000000       0.012
   0.85000000 -0.35000000 -0.15000000       0.012
   0.25000000  0.25000000  0.65000000       0.006
   1.15000000 -0.65000000 -0.25000000       0.012
   1.05000000 -0.55000000 -0.15000000       0.012
   0.95000000 -0.45000000 -0.05000000       0.012
   0.25000000  0.25000000 -1.15000000       0.006
   0.15000000  0.35000000 -1.05000000       0.012
   0.25000000  0.25000000 -0.95000000       0.006
   0.35000000  0.35000000  0.35000000       0.002
   0.25000000  0.45000000  0.45000000       0.006
   1.15000000 -0.45000000 -0.45000000       0.006
   1.05000000 -0.35000000 -0.35000000       0.006
   0.35000000  0.35000000  0.55000000       0.006
   1.25000000 -0.55000000 -0.35000000       0.012
   1.15000000 -0.45000000 -0.25000000       0.012
   0.35000000  0.35000000 -1.25000000       0.006
   0.45000000  0.45000000  0.45000000       0.002
   1.35000000 -0.45000000 -0.45000000       0.006
 
 k-points in reciprocal lattice and weights: 10x10x10                                
   0.05000000  0.05000000  0.05000000       0.002
   0.15000000  0.05000000  0.05000000       0.006
   0.25000000  0.05000000  0.05000000       0.006
   0.35000000  0.05000000  0.05000000       0.006
   0.45000000  0.05000000  0.05000000       0.006
  -0.45000000  0.05000000  0.05000000       0.006
  -0.35000000  0.05000000  0.05000000       0.006
  -0.25000000  0.05000000  0.05000000       0.006
  -0.15000000  0.05000000  0.05000000       0.006
  -0.05000000  0.05000000  0.05000000       0.006
   0.15000000  0.15000000  0.05000000       0.006
   0.25000000  0.15000000  0.05000000       0.012
   0.35000000  0.15000000  0.05000000       0.012
   0.45000000  0.15000000  0.05000000       0.012
  -0.45000000  0.15000000  0.05000000       0.012
  -0.35000000  0.15000000  0.05000000       0.012
  -0.25000000  0.15000000  0.05000000       0.012
  -0.15000000  0.15000000  0.05000000       0.012
  -0.05000000  0.15000000  0.05000000       0.012
   0.25000000  0.25000000  0.05000000       0.006
   0.35000000  0.25000000  0.05000000       0.012
   0.45000000  0.25000000  0.05000000       0.012
  -0.45000000  0.25000000  0.05000000       0.012
  -0.35000000  0.25000000  0.05000000       0.012
  -0.25000000  0.25000000  0.05000000       0.012
  -0.15000000  0.25000000  0.05000000       0.012
  -0.05000000  0.25000000  0.05000000       0.012
   0.35000000  0.35000000  0.05000000       0.006
   0.45000000  0.35000000  0.05000000       0.012
  -0.45000000  0.35000000  0.05000000       0.012
  -0.35000000  0.35000000  0.05000000       0.012
  -0.25000000  0.35000000  0.05000000       0.012
  -0.15000000  0.35000000  0.05000000       0.012
  -0.05000000  0.35000000  0.05000000       0.012
   0.45000000  0.45000000  0.05000000       0.006
  -0.45000000  0.45000000  0.05000000       0.012
  -0.35000000  0.45000000  0.05000000       0.012
  -0.25000000  0.45000000  0.05000000       0.012
  -0.15000000  0.45000000  0.05000000       0.012
  -0.05000000  0.45000000  0.05000000       0.012
  -0.45000000 -0.45000000  0.05000000       0.006
  -0.35000000 -0.45000000  0.05000000       0.012
  -0.25000000 -0.45000000  0.05000000       0.012
  -0.15000000 -0.45000000  0.05000000       0.012
  -0.35000000 -0.35000000  0.05000000       0.006
  -0.25000000 -0.35000000  0.05000000       0.012
  -0.15000000 -0.35000000  0.05000000       0.012
  -0.25000000 -0.25000000  0.05000000       0.006
  -0.15000000 -0.25000000  0.05000000       0.012
  -0.15000000 -0.15000000  0.05000000       0.006
   0.15000000  0.15000000  0.15000000       0.002
   0.25000000  0.15000000  0.15000000       0.006
   0.35000000  0.15000000  0.15000000       0.006
   0.45000000  0.15000000  0.15000000       0.006
  -0.45000000  0.15000000  0.15000000       0.006
  -0.35000000  0.15000000  0.15000000       0.006
  -0.25000000  0.15000000  0.15000000       0.006
  -0.15000000  0.15000000  0.15000000       0.006
   0.25000000  0.25000000  0.15000000       0.006
   0.35000000  0.25000000  0.15000000       0.012
   0.45000000  0.25000000  0.15000000       0.012
  -0.45000000  0.25000000  0.15000000       0.012
  -0.35000000  0.25000000  0.15000000       0.012
  -0.25000000  0.25000000  0.15000000       0.012
  -0.15000000  0.25000000  0.15000000       0.012
   0.35000000  0.35000000  0.15000000       0.006
   0.45000000  0.35000000  0.15000000       0.012
  -0.45000000  0.35000000  0.15000000       0.012
  -0.35000000  0.35000000  0.15000000       0.012
  -0.25000000  0.35000000  0.15000000       0.012
  -0.15000000  0.35000000  0.15000000       0.012
   0.45000000  0.45000000  0.15000000       0.006
  -0.45000000  0.45000000  0.15000000       0.012
  -0.35000000  0.45000000  0.15000000       0.012
  -0.25000000  0.45000000  0.15000000       0.012
  -0.15000000  0.45000000  0.15000000       0.012
  -0.45000000 -0.45000000  0.15000000       0.006
  -0.35000000 -0.45000000  0.15000000       0.012
  -0.25000000 -0.45000000  0.15000000       0.012
  -0.35000000 -0.35000000  0.15000000       0.006
  -0.25000000 -0.35000000  0.15000000       0.012
  -0.25000000 -0.25000000  0.15000000       0.006
   0.25000000  0.25000000  0.25000000       0.002
   0.35000000  0.25000000  0.25000000       0.006
   0.45000000  0.25000000  0.25000000       0.006
  -0.45000000  0.25000000  0.25000000       0.006
  -0.35000000  0.25000000  0.25000000       0.006
  -0.25000000  0.25000000  0.25000000       0.006
   0.35000000  0.35000000  0.25000000       0.006
   0.45000000  0.35000000  0.25000000       0.012
  -0.45000000  0.35000000  0.25000000       0.012
  -0.35000000  0.35000000  0.25000000       0.012
  -0.25000000  0.35000000  0.25000000       0.012
   0.45000000  0.45000000  0.25000000       0.006
  -0.45000000  0.45000000  0.25000000       0.012
  -0.35000000  0.45000000  0.25000000       0.012
  -0.25000000  0.45000000  0.25000000       0.012
  -0.45000000 -0.45000000  0.25000000       0.006
  -0.35000000 -0.45000000  0.25000000       0.012
  -0.35000000 -0.35000000  0.25000000       0.006
   0.35000000  0.35000000  0.35000000       0.002
   0.45000000  0.35000000  0.35000000       0.006
  -0.45000000  0.35000000  0.35000000       0.006
  -0.35000000  0.35000000  0.35000000       0.006
   0.45000000  0.45000000  0.35000000       0.006
  -0.45000000  0.45000000  0.35000000       0.012
  -0.35000000  0.45000000  0.35000000       0.012
  -0.45000000 -0.45000000  0.35000000       0.006
   0.45000000  0.45000000  0.45000000       0.002
  -0.45000000  0.45000000  0.45000000       0.006
 
 position of ions in fractional coordinates (direct lattice) 
   0.00000000  0.00000000  0.00000000
 
 position of ions in cartesian coordinates  (Angst):
   0.00000000  0.00000000  0.00000000
 


--------------------------------------------------------------------------------------------------------


 k-point  1 :   0.0500 0.0500 0.0500  plane waves:     153
 k-point  2 :   0.1500 0.0500 0.0500  plane waves:     153
 k-point  3 :   0.2500 0.0500 0.0500  plane waves:     150
 k-point  4 :   0.3500 0.0500 0.0500  plane waves:     149
 k-point  5 :   0.4500 0.0500 0.0500  plane waves:     147
 k-point  6 :  -0.4500 0.0500 0.0500  plane waves:     151
 k-point  7 :  -0.3500 0.0500 0.0500  plane waves:     149
 k-point  8 :  -0.2500 0.0500 0.0500  plane waves:     148
 k-point  9 :  -0.1500 0.0500 0.0500  plane waves:     152
 k-point 10 :  -0.0500 0.0500 0.0500  plane waves:     153
 k-point 11 :   0.1500 0.1500 0.0500  plane waves:     153
 k-point 12 :   0.2500 0.1500 0.0500  plane waves:     150
 k-point 13 :   0.3500 0.1500 0.0500  plane waves:     146
 k-point 14 :   0.4500 0.1500 0.0500  plane waves:     147
 k-point 15 :  -0.4500 0.1500 0.0500  plane waves:     150
 k-point 16 :  -0.3500 0.1500 0.0500  plane waves:     150
 k-point 17 :  -0.2500 0.1500 0.0500  plane waves:     146
 k-point 18 :  -0.1500 0.1500 0.0500  plane waves:     148
 k-point 19 :  -0.0500 0.1500 0.0500  plane waves:     153
 k-point 20 :   0.2500 0.2500 0.0500  plane waves:     149
 k-point 21 :   0.3500 0.2500 0.0500  plane waves:     145
 k-point 22 :   0.4500 0.2500 0.0500  plane waves:     146
 k-point 23 :  -0.4500 0.2500 0.0500  plane waves:     147
 k-point 24 :  -0.3500 0.2500 0.0500  plane waves:     147
 k-point 25 :  -0.2500 0.2500 0.0500  plane waves:     145
 k-point 26 :  -0.1500 0.2500 0.0500  plane waves:     146
 k-point 27 :  -0.0500 0.2500 0.0500  plane waves:     148
 k-point 28 :   0.3500 0.3500 0.0500  plane waves:     147
 k-point 29 :   0.4500 0.3500 0.0500  plane waves:     143
 k-point 30 :  -0.4500 0.3500 0.0500  plane waves:     145
 k-point 31 :  -0.3500 0.3500 0.0500  plane waves:     143
 k-point 32 :  -0.2500 0.3500 0.0500  plane waves:     145
 k-point 33 :  -0.1500 0.3500 0.0500  plane waves:     146
 k-point 34 :  -0.0500 0.3500 0.0500  plane waves:     149
 k-point 35 :   0.4500 0.4500 0.0500  plane waves:     144
 k-point 36 :  -0.4500 0.4500 0.0500  plane waves:     145
 k-point 37 :  -0.3500 0.4500 0.0500  plane waves:     143
 k-point 38 :  -0.2500 0.4500 0.0500  plane waves:     148
 k-point 39 :  -0.1500 0.4500 0.0500  plane waves:     148
 k-point 40 :  -0.0500 0.4500 0.0500  plane waves:     148
 k-point 41 :  -0.4500-0.4500 0.0500  plane waves:     150
 k-point 42 :  -0.3500-0.4500 0.0500  plane waves:     144
 k-point 43 :  -0.2500-0.4500 0.0500  plane waves:     145
 k-point 44 :  -0.1500-0.4500 0.0500  plane waves:     146
 k-point 45 :  -0.3500-0.3500 0.0500  plane waves:     147
 k-point 46 :  -0.2500-0.3500 0.0500  plane waves:     145
 k-point 47 :  -0.1500-0.3500 0.0500  plane waves:     147
 k-point 48 :  -0.2500-0.2500 0.0500  plane waves:     147
 k-point 49 :  -0.1500-0.2500 0.0500  plane waves:     145
 k-point 50 :  -0.1500-0.1500 0.0500  plane waves:     150
 k-point 51 :   0.1500 0.1500 0.1500  plane waves:     153
 k-point 52 :   0.2500 0.1500 0.1500  plane waves:     151
 k-point 53 :   0.3500 0.1500 0.1500  plane waves:     149
 k-point 54 :   0.4500 0.1500 0.1500  plane waves:     148
 k-point 55 :  -0.4500 0.1500 0.1500  plane waves:     148
 k-point 56 :  -0.3500 0.1500 0.1500  plane waves:     146
 k-point 57 :  -0.2500 0.1500 0.1500  plane waves:     147
 k-point 58 :  -0.1500 0.1500 0.1500  plane waves:     148
 k-point 59 :   0.2500 0.2500 0.1500  plane waves:     150
 k-point 60 :   0.3500 0.2500 0.1500  plane waves:     147
 k-point 61 :   0.4500 0.2500 0.1500  plane waves:     145
 k-point 62 :  -0.4500 0.2500 0.1500  plane waves:     148
 k-point 63 :  -0.3500 0.2500 0.1500  plane waves:     145
 k-point 64 :  -0.2500 0.2500 0.1500  plane waves:     146
 k-point 65 :  -0.1500 0.2500 0.1500  plane waves:     145
 k-point 66 :   0.3500 0.3500 0.1500  plane waves:     145
 k-point 67 :   0.4500 0.3500 0.1500  plane waves:     146
 k-point 68 :  -0.4500 0.3500 0.1500  plane waves:     147
 k-point 69 :  -0.3500 0.3500 0.1500  plane waves:     146
 k-point 70 :  -0.2500 0.3500 0.1500  plane waves:     148
 k-point 71 :  -0.1500 0.3500 0.1500  plane waves:     146
 k-point 72 :   0.4500 0.4500 0.1500  plane waves:     141
 k-point 73 :  -0.4500 0.4500 0.1500  plane waves:     146
 k-point 74 :  -0.3500 0.4500 0.1500  plane waves:     148
 k-point 75 :  -0.2500 0.4500 0.1500  plane waves:     150
 k-point 76 :  -0.1500 0.4500 0.1500  plane waves:     147
 k-point 77 :  -0.4500-0.4500 0.1500  plane waves:     144
 k-point 78 :  -0.3500-0.4500 0.1500  plane waves:     143
 k-point 79 :  -0.2500-0.4500 0.1500  plane waves:     146
 k-point 80 :  -0.3500-0.3500 0.1500  plane waves:     144
 k-point 81 :  -0.2500-0.3500 0.1500  plane waves:     146
 k-point 82 :  -0.2500-0.2500 0.1500  plane waves:     145
 k-point 83 :   0.2500 0.2500 0.2500  plane waves:     150
 k-point 84 :   0.3500 0.2500 0.2500  plane waves:     148
 k-point 85 :   0.4500 0.2500 0.2500  plane waves:     146
 k-point 86 :  -0.4500 0.2500 0.2500  plane waves:     144
 k-point 87 :  -0.3500 0.2500 0.2500  plane waves:     149
 k-point 88 :  -0.2500 0.2500 0.2500  plane waves:     145
 k-point 89 :   0.3500 0.3500 0.2500  plane waves:     147
 k-point 90 :   0.4500 0.3500 0.2500  plane waves:     147
 k-point 91 :  -0.4500 0.3500 0.2500  plane waves:     146
 k-point 92 :  -0.3500 0.3500 0.2500  plane waves:     148
 k-point 93 :  -0.2500 0.3500 0.2500  plane waves:     146
 k-point 94 :   0.4500 0.4500 0.2500  plane waves:     147
 k-point 95 :  -0.4500 0.4500 0.2500  plane waves:     145
 k-point 96 :  -0.3500 0.4500 0.2500  plane waves:     150
 k-point 97 :  -0.2500 0.4500 0.2500  plane waves:     148
 k-point 98 :  -0.4500-0.4500 0.2500  plane waves:     146
 k-point 99 :  -0.3500-0.4500 0.2500  plane waves:     147
 k-point ** :  -0.3500-0.3500 0.2500  plane waves:     144
 k-point ** :   0.3500 0.3500 0.3500  plane waves:     147
 k-point ** :   0.4500 0.3500 0.3500  plane waves:     149
 k-point ** :  -0.4500 0.3500 0.3500  plane waves:     146
 k-point ** :  -0.3500 0.3500 0.3500  plane waves:     142
 k-point ** :   0.4500 0.4500 0.3500  plane waves:     149
 k-point ** :  -0.4500 0.4500 0.3500  plane waves:     147
 k-point ** :  -0.3500 0.4500 0.3500  plane waves:     147
 k-point ** :  -0.4500-0.4500 0.3500  plane waves:     148
 k-point ** :   0.4500 0.4500 0.4500  plane waves:     147
 k-point ** :  -0.4500 0.4500 0.4500  plane waves:     147

 maximum and minimum number of plane-waves per node :       153      141

 maximum number of plane-waves:       153
 maximum index in each direction: 
   IXMAX=    4   IYMAX=    4   IZMAX=    3
   IXMIN=   -4   IYMIN=   -4   IZMIN=   -4


 serial   3D FFT for wavefunctions
 parallel 3D FFT for charge:
    minimum data exchange during FFTs selected (reduces bandwidth)


 total amount of memory used by VASP MPI-rank0    33986. kBytes
=======================================================================

   base      :      30000. kBytes
   nonl-proj :       2473. kBytes
   fftplans  :        238. kBytes
   grid      :        331. kBytes
   one-center:         15. kBytes
   wavefun   :        929. kBytes
 
     INWAV:  cpu time    0.0269: real time    0.0581
 Broyden mixing: mesh for mixing (old mesh)
   NGX =  7   NGY =  7   NGZ =  7
  (NGX  = 24   NGY  = 24   NGZ  = 24)
  gives a total of    343 points

 charge density for first step will be calculated from the start-wavefunctions


--------------------------------------------------------------------------------------------------------


 Maximum index for augmentation-charges         1345 (set IRDMAX)


--------------------------------------------------------------------------------------------------------


 initial charge from wavefunction
 First call to EWALD:  gamma=   0.670
 Maximum number of real-space cells 3x 3x 3
 Maximum number of reciprocal cells 3x 3x 3

    FEWALD:  cpu time    0.0014: real time    0.0012


--------------------------------------- Iteration      1(   1)  ---------------------------------------


    POTLOK:  cpu time    0.0039: real time    0.0179
    SETDIJ:  cpu time    0.0008: real time    0.0014
     EDDAV:  cpu time    0.3004: real time    0.9127
       DOS:  cpu time    0.0015: real time    0.0015
    CHARGE:  cpu time    0.0038: real time    0.0096
    MIXING:  cpu time    0.0004: real time    0.0005
    --------------------------------------------
      LOOP:  cpu time    0.3108: real time    0.9436

 eigenvalue-minimisations  :  2916
 total energy-change (2. order) :-0.7004526E+01  (-0.3750937E+01)
 number of electron      10.9999963 magnetization 
 augmentation part        4.5382752 magnetization 

 Broyden mixing:
  rms(total) = 0.93221E+00    rms(broyden)= 0.93190E+00
  rms(prec ) = 0.33296E+01
  weight for this iteration     100.00

 Free energy of the ion-electron system (eV)
  ---------------------------------------------------
  alpha Z        PSCENC =        99.22682972
  Ewald energy   TEWEN  =      -951.01733377
  -Hartree energ DENC   =       -98.91352097
  -exchange      EXHF   =         0.00000000
  -V(xc)+E(xc)   XCENC  =        14.38832462
  PAW double counting   =       718.59553418     -700.14916997
  entropy T*S    EENTRO =        -0.00119225
  eigenvalues    EBANDS =       -18.53032992
  atomic energy  EATOM  =       929.39633208
  Solvation  Ediel_sol  =         0.00000000
  ---------------------------------------------------
  free energy    TOTEN  =        -7.00452629 eV

  energy without entropy =       -7.00333404  energy(sigma->0) =       -7.00412887


--------------------------------------------------------------------------------------------------------




--------------------------------------- Iteration      1(   2)  ---------------------------------------


    POTLOK:  cpu time    0.0017: real time    0.0017
    SETDIJ:  cpu time    0.0007: real time    0.0022
     EDDAV:  cpu time    0.2998: real time    0.9161
       DOS:  cpu time    0.0014: real time    0.0014
    CHARGE:  cpu time    0.0038: real time    0.0113
    MIXING:  cpu time    0.0004: real time    0.0004
    --------------------------------------------
      LOOP:  cpu time    0.3077: real time    0.9330

 eigenvalue-minimisations  :  2976
 total energy-change (2. order) : 0.2615916E+01  (-0.7664013E+00)
 number of electron      10.9999966 magnetization 
 augmentation part        4.1189697 magnetization 

 Broyden mixing:
  rms(total) = 0.17482E+00    rms(broyden)= 0.17473E+00
  rms(prec ) = 0.62464E+00
  weight for this iteration     100.00

 eigenvalues of (default mixing * dielectric matrix)
  average eigenvalue GAMMA=   1.2304
  1.2304

 Free energy of the ion-electron system (eV)
  ---------------------------------------------------
  alpha Z        PSCENC =        99.22682972
  Ewald energy   TEWEN  =      -951.01733377
  -Hartree energ DENC   =      -118.30197177
  -exchange      EXHF   =         0.00000000
  -V(xc)+E(xc)   XCENC  =        15.28879237
  PAW double counting   =       749.94790820     -731.40097545
  entropy T*S    EENTRO =         0.00101523
  eigenvalues    EBANDS =         2.47079294
  atomic energy  EATOM  =       929.39633208
  Solvation  Ediel_sol  =         0.00000000
  ---------------------------------------------------
  free energy    TOTEN  =        -4.38861045 eV

  energy without entropy =       -4.38962568  energy(sigma->0) =       -4.38894886


--------------------------------------------------------------------------------------------------------




--------------------------------------- Iteration      1(   3)  ---------------------------------------


    POTLOK:  cpu time    0.0013: real time    0.0014
    SETDIJ:  cpu time    0.0012: real time    0.0032
     EDDAV:  cpu time    0.2990: real time    0.9057
       DOS:  cpu time    0.0013: real time    0.0014
    CHARGE:  cpu time    0.0036: real time    0.0121
    MIXING:  cpu time    0.0003: real time    0.0003
    --------------------------------------------
      LOOP:  cpu time    0.3068: real time    0.9240

 eigenvalue-minimisations  :  3088
 total energy-change (2. order) : 0.8516914E-01  (-0.4874885E-01)
 number of electron      10.9999967 magnetization 
 augmentation part        4.0091885 magnetization 

 Broyden mixing:
  rms(total) = 0.14027E-01    rms(broyden)= 0.13639E-01
  rms(prec ) = 0.53930E-01
  weight for this iteration     100.00

 eigenvalues of (default mixing * dielectric matrix)
  average eigenvalue GAMMA=   0.8468
  1.2207  0.4729

 Free energy of the ion-electron system (eV)
  ---------------------------------------------------
  alpha Z        PSCENC =        99.22682972
  Ewald energy   TEWEN  =      -951.01733377
  -Hartree energ DENC   =      -123.03829342
  -exchange      EXHF   =         0.00000000
  -V(xc)+E(xc)   XCENC  =        15.51389078
  PAW double counting   =       751.84582745     -733.31477672
  entropy T*S    EENTRO =         0.00094127
  eigenvalues    EBANDS =         7.08314130
  atomic energy  EATOM  =       929.39633208
  Solvation  Ediel_sol  =         0.00000000
  ---------------------------------------------------
  free energy    TOTEN  =        -4.30344131 eV

  energy without entropy =       -4.30438259  energy(sigma->0) =       -4.30375507


--------------------------------------------------------------------------------------------------------




--------------------------------------- Iteration      1(   4)  ---------------------------------------


    POTLOK:  cpu time    0.0015: real time    0.0080
    SETDIJ:  cpu time    0.0010: real time    0.0029
     EDDAV:  cpu time    0.3052: real time    0.9240
       DOS:  cpu time    0.0014: real time    0.0014
    CHARGE:  cpu time    0.0037: real time    0.0156
    MIXING:  cpu time    0.0023: real time    0.0045
    --------------------------------------------
      LOOP:  cpu time    0.3151: real time    0.9564

 eigenvalue-minimisations  :  2864
 total energy-change (2. order) :-0.3040726E-03  (-0.3652775E-03)
 number of electron      10.9999967 magnetization 
 augmentation part        4.0120001 magnetization 

 Broyden mixing:
  rms(total) = 0.95618E-02    rms(broyden)= 0.95460E-02
  rms(prec ) = 0.34774E-01
  weight for this iteration     100.00

 eigenvalues of (default mixing * dielectric matrix)
  average eigenvalue GAMMA=   1.4544
  1.3101  1.3101  1.7431

 Free energy of the ion-electron system (eV)
  ---------------------------------------------------
  alpha Z        PSCENC =        99.22682972
  Ewald energy   TEWEN  =      -951.01733377
  -Hartree energ DENC   =      -122.86589799
  -exchange      EXHF   =         0.00000000
  -V(xc)+E(xc)   XCENC  =        15.50523219
  PAW double counting   =       749.95914498     -731.45779658
  entropy T*S    EENTRO =         0.00095165
  eigenvalues    EBANDS =         6.94879235
  atomic energy  EATOM  =       929.39633208
  Solvation  Ediel_sol  =         0.00000000
  ---------------------------------------------------
  free energy    TOTEN  =        -4.30374539 eV

  energy without entropy =       -4.30469703  energy(sigma->0) =       -4.30406260


--------------------------------------------------------------------------------------------------------




--------------------------------------- Iteration      1(   5)  ---------------------------------------


    POTLOK:  cpu time    0.0014: real time    0.0020
    SETDIJ:  cpu time    0.0003: real time    0.0025
     EDDAV:  cpu time    0.3162: real time    0.9588
       DOS:  cpu time    0.0014: real time    0.0014
    CHARGE:  cpu time    0.0038: real time    0.0099
    MIXING:  cpu time    0.0009: real time    0.0071
    --------------------------------------------
      LOOP:  cpu time    0.3249: real time    0.9818

 eigenvalue-minimisations  :  3024
 total energy-change (2. order) :-0.4171816E-03  (-0.1871139E-04)
 number of electron      10.9999967 magnetization 
 augmentation part        4.0130501 magnetization 

 Broyden mixing:
  rms(total) = 0.47033E-02    rms(broyden)= 0.47026E-02
  rms(prec ) = 0.18768E-01
  weight for this iteration     100.00

 eigenvalues of (default mixing * dielectric matrix)
  average eigenvalue GAMMA=   1.4211
  2.5684  1.1136  1.1136  0.8887

 Free energy of the ion-electron system (eV)
  ---------------------------------------------------
  alpha Z        PSCENC =        99.22682972
  Ewald energy   TEWEN  =      -951.01733377
  -Hartree energ DENC   =      -122.68792100
  -exchange      EXHF   =         0.00000000
  -V(xc)+E(xc)   XCENC  =        15.49555600
  PAW double counting   =       744.14923062     -725.74194751
  entropy T*S    EENTRO =         0.00095363
  eigenvalues    EBANDS =         6.87413767
  atomic energy  EATOM  =       929.39633208
  Solvation  Ediel_sol  =         0.00000000
  ---------------------------------------------------
  free energy    TOTEN  =        -4.30416257 eV

  energy without entropy =       -4.30511620  energy(sigma->0) =       -4.30448044


--------------------------------------------------------------------------------------------------------




--------------------------------------- Iteration      1(   6)  ---------------------------------------


    POTLOK:  cpu time    0.0014: real time    0.0015
    SETDIJ:  cpu time    0.0006: real time    0.0033
     EDDAV:  cpu time    0.3086: real time    0.9384
       DOS:  cpu time    0.0016: real time    0.0063
    --------------------------------------------
      LOOP:  cpu time    0.3113: real time    0.9494

 eigenvalue-minimisations  :  2800
 total energy-change (2. order) :-0.3140104E-04  (-0.2841755E-04)
 number of electron      10.9999967 magnetization 
 augmentation part        4.0130501 magnetization 

 Free energy of the ion-electron system (eV)
  ---------------------------------------------------
  alpha Z        PSCENC =        99.22682972
  Ewald energy   TEWEN  =      -951.01733377
  -Hartree energ DENC   =      -122.49989576
  -exchange      EXHF   =         0.00000000
  -V(xc)+E(xc)   XCENC  =        15.48590809
  PAW double counting   =       740.54125616     -722.19530622
  entropy T*S    EENTRO =         0.00096064
  eigenvalues    EBANDS =         6.75705510
  atomic energy  EATOM  =       929.39633208
  Solvation  Ediel_sol  =         0.00000000
  ---------------------------------------------------
  free energy    TOTEN  =        -4.30419397 eV

  energy without entropy =       -4.30515460  energy(sigma->0) =       -4.30451418


--------------------------------------------------------------------------------------------------------




 average (electrostatic) potential at core
  the test charge radii are     1.2098
  (the norm of the test charge is              1.0000)
       1 -46.6037
 
 
 
 E-fermi :   4.4168     XC(G=0): -12.5072     alpha+bet : -9.4688


 k-point     1 :       0.0500    0.0500    0.0500
  band No.  band energies     occupation 
      1      -4.5010      2.00000
      2       0.1875      2.00000
      3       0.2394      2.00000
      4       0.2394      2.00000
      5       1.5336      2.00000
      6       1.5336      2.00000
      7      19.8649      0.00000
      8      22.4452      0.00000
      9      23.1853      0.00000
     10      23.1853      0.00000
     11      27.8249      0.00000
     12      30.2121      0.00000

 k-point     2 :       0.1500    0.0500    0.0500
  band No.  band energies     occupation 
      1      -4.0795      2.00000
      2       0.0589      2.00000
      3       0.3600      2.00000
      4       0.3878      2.00000
      5       1.4065      2.00000
      6       1.5772      2.00000
      7      19.9069      0.00000
      8      20.6216      0.00000
      9      22.6955      0.00000
     10      24.0157      0.00000
     11      26.9497      0.00000
     12      29.5140      0.00000

 k-point     3 :       0.2500    0.0500    0.0500
  band No.  band energies     occupation 
      1      -3.1591      2.00000
      2      -0.0309      2.00000
      3       0.4944      2.00000
      4       0.5114      2.00000
      5       1.4192      2.00000
      6       1.7650      2.00000
      7      16.5160      0.00000
      8      20.5272      0.00000
      9      22.6708      0.00000
     10      24.9031      0.00000
     11      25.3128      0.00000
     12      27.3966      0.00000

 k-point     4 :       0.3500    0.0500    0.0500
  band No.  band energies     occupation 
      1      -2.3135      2.00000
      2       0.3428      2.00000
      3       0.4137      2.00000
      4       0.5922      2.00000
      5       1.8405      2.00000
      6       2.2625      2.00000
      7      12.5637      0.00000
      8      19.9385      0.00000
      9      21.6799      0.00000
     10      23.6674      0.00000
     11      26.4042      0.00000
     12      27.3179      0.00000

 k-point     5 :       0.4500    0.0500    0.0500
  band No.  band energies     occupation 
      1      -2.0873      2.00000
      2       0.2103      2.00000
      3       0.2699      2.00000
      4       1.9481      2.00000
      5       2.3509      2.00000
      6       3.1502      2.00000
      7       8.8990     -0.00000
      8      19.2988      0.00000
      9      20.8472      0.00000
     10      21.8953      0.00000
     11      27.8772      0.00000
     12      28.0276      0.00000

 k-point     6 :      -0.4500    0.0500    0.0500
  band No.  band energies     occupation 
      1      -2.0775      2.00000
      2       0.1534      2.00000
      3       0.2360      2.00000
      4       2.2457      2.00000
      5       2.5897      2.00000
      6       4.1621      2.07022
      7       7.2102     -0.00000
      8      19.1296      0.00000
      9      20.9115      0.00000
     10      21.0445      0.00000
     11      28.2454      0.00000
     12      28.2956      0.00000

 k-point     7 :      -0.3500    0.0500    0.0500
  band No.  band energies     occupation 
      1      -2.1168      2.00000
      2       0.2366      2.00000
      3       0.3304      2.00000
      4       1.4516      2.00000
      5       2.4176      2.00000
      6       2.6021      2.00000
      7      10.0433      0.00000
      8      19.5318      0.00000
      9      21.2535      0.00000
     10      22.0183      0.00000
     11      27.8113      0.00000
     12      28.0524      0.00000

 k-point     8 :      -0.2500    0.0500    0.0500
  band No.  band energies     occupation 
      1      -2.5307      2.00000
      2       0.2023      2.00000
      3       0.4331      2.00000
      4       0.4788      2.00000
      5       1.7699      2.00000
      6       1.9892      2.00000
      7      13.8758      0.00000
      8      20.3283      0.00000
      9      22.0745      0.00000
     10      23.7982      0.00000
     11      26.0638      0.00000
     12      27.8843      0.00000

 k-point     9 :      -0.1500    0.0500    0.0500
  band No.  band energies     occupation 
      1      -3.4990      2.00000
      2      -0.0459      2.00000
      3       0.4863      2.00000
      4       0.4956      2.00000
      5       1.3814      2.00000
      6       1.6552      2.00000
      7      17.8027      0.00000
      8      20.7180      0.00000
      9      22.6580      0.00000
     10      24.3771      0.00000
     11      25.7155      0.00000
     12      28.4170      0.00000

 k-point    10 :      -0.0500    0.0500    0.0500
  band No.  band energies     occupation 
      1      -4.2868      2.00000
      2       0.0960      2.00000
      3       0.3220      2.00000
      4       0.3264      2.00000
      5       1.4270      2.00000
      6       1.5833      2.00000
      7      20.0328      0.00000
      8      21.5429      0.00000
      9      22.8314      0.00000
     10      23.2612      0.00000
     11      28.1036      0.00000
     12      29.5791      0.00000

 k-point    11 :       0.1500    0.1500    0.0500
  band No.  band energies     occupation 
      1      -3.8699      2.00000
      2      -0.0875      2.00000
      3       0.4961      2.00000
      4       0.4991      2.00000
      5       1.2436      2.00000
      6       1.6783      2.00000
      7      20.1719      0.00000
      8      20.7706      0.00000
      9      22.0381      0.00000
     10      22.7971      0.00000
     11      26.9849      0.00000
     12      29.1112      0.00000

 k-point    12 :       0.2500    0.1500    0.0500
  band No.  band energies     occupation 
      1      -3.1068      2.00000
      2      -0.2968      2.00000
      3       0.5856      2.00000
      4       0.7413      2.00000
      5       1.2052      2.00000
      6       1.8704      2.00000
      7      18.0328      0.00000
      8      19.8492      0.00000
      9      21.9128      0.00000
     10      23.0998      0.00000
     11      24.9575      0.00000
     12      28.3541      0.00000

 k-point    13 :       0.3500    0.1500    0.0500
  band No.  band energies     occupation 
      1      -2.1551      2.00000
      2      -0.2110      2.00000
      3       0.3321      2.00000
      4       0.7514      2.00000
      5       1.7822      2.00000
      6       2.3813      2.00000
      7      14.0990      0.00000
      8      19.2650      0.00000
      9      20.8982      0.00000
     10      22.5938      0.00000
     11      26.1744      0.00000
     12      28.1045      0.00000

 k-point    14 :       0.4500    0.1500    0.0500
  band No.  band energies     occupation 
      1      -1.7753      2.00000
      2       0.0738      2.00000
      3       0.5483      2.00000
      4       0.6975      2.00000
      5       2.4108      2.00000
      6       3.4988      2.00000
      7      10.2613      0.00000
      8      18.9090      0.00000
      9      19.5501      0.00000
     10      21.4304      0.00000
     11      28.0375      0.00000
     12      28.9854      0.00000

 k-point    15 :      -0.4500    0.1500    0.0500
  band No.  band energies     occupation 
      1      -1.7476      2.00000
      2      -0.0371      2.00000
      3       0.4956      2.00000
      4       1.3651      2.00000
      5       2.5509      2.00000
      6       5.4054     -0.00000
      7       7.2335     -0.00000
      8      18.5201      0.00000
      9      19.1182      0.00000
     10      20.8688      0.00000
     11      28.2884      0.00000
     12      29.4167      0.00000

 k-point    16 :      -0.3500    0.1500    0.0500
  band No.  band energies     occupation 
      1      -1.7375      2.00000
      2       0.0311      2.00000
      3       0.5178      2.00000
      4       1.0853      2.00000
      5       2.2845      2.00000
      6       4.1610      2.07006
      7       9.1537     -0.00000
      8      18.0549      0.00000
      9      19.8094      0.00000
     10      21.6145      0.00000
     11      27.6447      0.00000
     12      29.0160      0.00000

 k-point    17 :      -0.2500    0.1500    0.0500
  band No.  band energies     occupation 
      1      -1.9249      2.00000
      2       0.0345      2.00000
      3       0.3031      2.00000
      4       0.6801      2.00000
      5       1.6985      2.00000
      6       2.8641      2.00000
      7      12.8088      0.00000
      8      18.2311      0.00000
      9      20.9279      0.00000
     10      23.3988      0.00000
     11      26.0417      0.00000
     12      28.1660      0.00000

 k-point    18 :      -0.1500    0.1500    0.0500
  band No.  band energies     occupation 
      1      -2.7748      2.00000
      2      -0.2559      2.00000
      3       0.4983      2.00000
      4       0.7608      2.00000
      5       1.1984      2.00000
      6       2.1010      2.00000
      7      16.6518      0.00000
      8      18.8431      0.00000
      9      22.5299      0.00000
     10      23.4859      0.00000
     11      26.1406      0.00000
     12      27.1212      0.00000

 k-point    19 :      -0.0500    0.1500    0.0500
  band No.  band energies     occupation 
      1      -3.6762      2.00000
      2      -0.0820      2.00000
      3       0.4998      2.00000
      4       0.5071      2.00000
      5       1.2776      2.00000
      6       1.6870      2.00000
      7      19.0820      0.00000
      8      20.3100      0.00000
      9      22.2806      0.00000
     10      24.0560      0.00000
     11      26.0459      0.00000
     12      28.8011      0.00000

 k-point    20 :       0.2500    0.2500    0.0500
  band No.  band energies     occupation 
      1      -2.5919      2.00000
      2      -0.6050      2.00000
      3       0.7256      2.00000
      4       1.0723      2.00000
      5       1.2436      2.00000
      6       1.9710      2.00000
      7      18.4165      0.00000
      8      19.4745      0.00000
      9      20.9002      0.00000
     10      21.6017      0.00000
     11      22.1308      0.00000
     12      30.0010      0.00000

 k-point    21 :       0.3500    0.2500    0.0500
  band No.  band energies     occupation 
      1      -1.8356      2.00000
      2      -0.7977      2.00000
      3       0.5083      2.00000
      4       1.3752      2.00000
      5       1.8208      2.00000
      6       2.3989      2.00000
      7      15.7548      0.00000
      8      17.6562      0.00000
      9      19.2756      0.00000
     10      21.8365      0.00000
     11      23.2346      0.00000
     12      29.9899      0.00000

 k-point    22 :       0.4500    0.2500    0.0500
  band No.  band energies     occupation 
      1      -1.3899      2.00000
      2      -0.5595      2.00000
      3       0.2974      2.00000
      4       1.2621      2.00000
      5       2.4830      2.00000
      6       3.7369      2.00002
      7      11.8800      0.00000
      8      16.9578      0.00000
      9      17.6286      0.00000
     10      21.5838      0.00000
     11      26.2669      0.00000
     12      29.7759      0.00000

 k-point    23 :      -0.4500    0.2500    0.0500
  band No.  band energies     occupation 
      1      -1.2823      2.00000
      2      -0.3239      2.00000
      3       0.4883      2.00000
      4       1.0929      2.00000
      5       2.5819      2.00000
      6       6.0248     -0.00000
      7       8.4826     -0.00000
      8      15.7094      0.00000
      9      17.6947      0.00000
     10      21.3162      0.00000
     11      28.8698      0.00000
     12      30.1198      0.00000

 k-point    24 :      -0.3500    0.2500    0.0500
  band No.  band energies     occupation 
      1      -1.1353      2.00000
      2      -0.2720      2.00000
      3       0.5205      2.00000
      4       1.0026      2.00000
      5       2.2456      2.00000
      6       5.8720     -0.00000
      7       8.9401     -0.00000
      8      14.6902      0.00000
      9      18.8389      0.00000
     10      21.5054      0.00000
     11      28.1553      0.00000
     12      30.4035      0.00000

 k-point    25 :      -0.2500    0.2500    0.0500
  band No.  band energies     occupation 
      1      -1.0739      2.00000
      2      -0.2179      2.00000
      3       0.0262      2.00000
      4       1.0740      2.00000
      5       1.6601      2.00000
      6       4.1477      2.06712
      7      12.1754      0.00000
      8      14.5922      0.00000
      9      20.2029      0.00000
     10      22.6597      0.00000
     11      26.2492      0.00000
     12      30.1263      0.00000

 k-point    26 :      -0.1500    0.2500    0.0500
  band No.  band energies     occupation 
      1      -1.7949      2.00000
      2      -0.3195      2.00000
      3       0.2739      2.00000
      4       0.9630      2.00000
      5       1.3196      2.00000
      6       2.9381      2.00000
      7      14.2258      0.00000
      8      16.7359      0.00000
      9      21.3400      0.00000
     10      24.1158      0.00000
     11      24.9707      0.00000
     12      28.6151      0.00000

 k-point    27 :      -0.0500    0.2500    0.0500
  band No.  band energies     occupation 
      1      -2.6899      2.00000
      2      -0.0941      2.00000
      3       0.4738      2.00000
      4       0.5958      2.00000
      5       1.4783      2.00000
      6       2.0377      2.00000
      7      15.2814      0.00000
      8      20.0539      0.00000
      9      21.8604      0.00000
     10      24.1962      0.00000
     11      25.6401      0.00000
     12      27.3658      0.00000

 k-point    28 :       0.3500    0.3500    0.0500
  band No.  band energies     occupation 
      1      -1.6779      2.00000
      2      -1.1277      2.00000
      3       1.3077      2.00000
      4       1.8283      2.00000
      5       2.2394      2.00000
      6       2.3255      2.00000
      7      15.6342      0.00000
      8      16.7887      0.00000
      9      16.8666      0.00000
     10      20.7643      0.00000
     11      22.6121      0.00000
     12      32.3810      0.00000

 k-point    29 :       0.4500    0.3500    0.0500
  band No.  band energies     occupation 
      1      -1.5282      2.00000
      2      -1.2219      2.00000
      3       1.3371      2.00000
      4       2.0913      2.00000
      5       2.4965      2.00000
      6       3.8281      2.00025
      7      12.9494      0.00000
      8      15.1086      0.00000
      9      15.7547      0.00000
     10      21.6890      0.00000
     11      23.5207      0.00000
     12      31.8852      0.00000

 k-point    30 :      -0.4500    0.3500    0.0500
  band No.  band energies     occupation 
      1      -1.3778      2.00000
      2      -0.9386      2.00000
      3       1.0248      2.00000
      4       1.8321      2.00000
      5       2.6642      2.00000
      6       6.2487     -0.00000
      7       9.9945      0.00000
      8      13.3389      0.00000
      9      15.8892      0.00000
     10      21.9351      0.00000
     11      26.1353      0.00000
     12      30.8864      0.00000

 k-point    31 :      -0.3500    0.3500    0.0500
  band No.  band energies     occupation 
      1      -1.1250      2.00000
      2      -0.4837      2.00000
      3       0.5493      2.00000
      4       1.5481      2.00000
      5       2.3944      2.00000
      6       7.3620     -0.00000
      7       9.4606     -0.00000
      8      11.7351      0.00000
      9      17.0937      0.00000
     10      21.8264      0.00000
     11      29.3641      0.00000
     12      29.7487      0.00000

 k-point    32 :      -0.2500    0.3500    0.0500
  band No.  band energies     occupation 
      1      -0.8884      2.00000
      2      -0.2242      2.00000
      3       0.1207      2.00000
      4       1.2394      2.00000
      5       2.0430      2.00000
      6       5.6851     -0.00000
      7      10.7106      0.00000
      8      12.7230      0.00000
      9      18.7927      0.00000
     10      21.8157      0.00000
     11      27.9924      0.00000
     12      30.7079      0.00000

 k-point    33 :      -0.1500    0.3500    0.0500
  band No.  band energies     occupation 
      1      -1.4184      2.00000
      2      -0.0521      2.00000
      3       0.4122      2.00000
      4       0.8113      2.00000
      5       1.9702      2.00000
      6       4.1543      2.06880
      7      10.6379      0.00000
      8      16.2957      0.00000
      9      20.0415      0.00000
     10      22.1748      0.00000
     11      26.8892      0.00000
     12      29.5186      0.00000

 k-point    34 :      -0.0500    0.3500    0.0500
  band No.  band energies     occupation 
      1      -2.0553      2.00000
      2       0.2401      2.00000
      3       0.4532      2.00000
      4       0.7330      2.00000
      5       2.0877      2.00000
      6       2.7200      2.00000
      7      11.3583      0.00000
      8      19.5028      0.00000
      9      20.6827      0.00000
     10      22.6372      0.00000
     11      27.1749      0.00000
     12      27.9193      0.00000

 k-point    35 :       0.4500    0.4500    0.0500
  band No.  band energies     occupation 
      1      -1.7526      2.00000
      2      -1.4758      2.00000
      3       2.4037      2.00000
      4       2.4421      2.00000
      5       2.6936      2.00000
      6       4.4224      0.95332
      7      11.4688      0.00000
      8      14.5711      0.00000
      9      14.9167      0.00000
     10      20.9827      0.00000
     11      23.1697      0.00000
     12      33.2364      0.00000

 k-point    36 :      -0.4500    0.4500    0.0500
  band No.  band energies     occupation 
      1      -1.6844      2.00000
      2      -1.4312      2.00000
      3       2.1236      2.00000
      4       2.3685      2.00000
      5       2.8157      2.00000
      6       6.3385     -0.00000
      7       9.6653     -0.00000
      8      13.5553      0.00000
      9      14.5120      0.00000
     10      21.8499      0.00000
     11      23.7455      0.00000
     12      32.3955      0.00000

 k-point    37 :      -0.3500    0.4500    0.0500
  band No.  band energies     occupation 
      1      -1.4218      2.00000
      2      -1.0195      2.00000
      3       1.2805      2.00000
      4       1.9747      2.00000
      5       2.6636      2.00000
      6       7.6596     -0.00000
      7       9.0662     -0.00000
      8      12.1405      0.00000
      9      15.5693      0.00000
     10      22.0738      0.00000
     11      26.1217      0.00000
     12      31.1127      0.00000

 k-point    38 :      -0.2500    0.4500    0.0500
  band No.  band energies     occupation 
      1      -1.1597      2.00000
      2      -0.4432      2.00000
      3       0.5108      2.00000
      4       1.3557      2.00000
      5       2.4959      2.00000
      6       7.3442     -0.00000
      7       8.1419     -0.00000
      8      13.6464      0.00000
      9      17.2919      0.00000
     10      21.6148      0.00000
     11      29.1257      0.00000
     12      29.9319      0.00000

 k-point    39 :      -0.1500    0.4500    0.0500
  band No.  band energies     occupation 
      1      -1.4587      2.00000
      2      -0.1789      2.00000
      3       0.7263      2.00000
      4       0.9513      2.00000
      5       2.4460      2.00000
      6       6.1114     -0.00000
      7       7.4378     -0.00000
      8      16.6850      0.00000
      9      18.9377      0.00000
     10      21.0943      0.00000
     11      28.2974      0.00000
[...]
      6       4.9778     -0.00053
      7      11.3859      0.00000
      8      13.6330      0.00000
      9      18.2965      0.00000
     10      23.2114      0.00000
     11      26.5525      0.00000
     12      30.7844      0.00000

 k-point    92 :      -0.3500    0.3500    0.2500
  band No.  band energies     occupation 
      1      -0.8359      2.00000
      2      -0.3815      2.00000
      3       0.1234      2.00000
      4       1.4019      2.00000
      5       2.3404      2.00000
      6       6.6974     -0.00000
      7      10.1607      0.00000
      8      12.0749      0.00000
      9      16.8091      0.00000
     10      22.9726      0.00000
     11      27.9829      0.00000
     12      31.2970      0.00000

 k-point    93 :      -0.2500    0.3500    0.2500
  band No.  band energies     occupation 
      1      -1.1217      2.00000
      2      -0.6430      2.00000
      3       0.4852      2.00000
      4       1.6177      2.00000
      5       2.5926      2.00000
      6       6.9439     -0.00000
      7       9.3052     -0.00000
      8      13.2859      0.00000
      9      15.6836      0.00000
     10      22.8790      0.00000
     11      27.6161      0.00000
     12      29.5476      0.00000

 k-point    94 :       0.4500    0.4500    0.2500
  band No.  band energies     occupation 
      1      -1.4714      2.00000
      2      -0.2530      2.00000
      3       0.3208      2.00000
      4       0.9788      2.00000
      5       2.6268      2.00000
      6       4.0927      2.04423
      7      10.5017      0.00000
      8      17.5388      0.00000
      9      18.3247      0.00000
     10      20.7713      0.00000
     11      28.1155      0.00000
     12      29.9231      0.00000

 k-point    95 :      -0.4500    0.4500    0.2500
  band No.  band energies     occupation 
      1      -1.1291      2.00000
      2      -0.4896      2.00000
      3       0.2494      2.00000
      4       1.4256      2.00000
      5       2.5119      2.00000
      6       5.5902     -0.00000
      7       9.9043      0.00000
      8      15.0101      0.00000
      9      16.4198      0.00000
     10      22.5889      0.00000
     11      27.4130      0.00000
     12      29.5630      0.00000

 k-point    96 :      -0.3500    0.4500    0.2500
  band No.  band energies     occupation 
      1      -0.7732      2.00000
      2      -0.4491      2.00000
      3      -0.0488      2.00000
      4       1.5216      2.00000
      5       2.6277      2.00000
      6       7.2804     -0.00000
      7      10.2550      0.00000
      8      12.0340      0.00000
      9      14.7212      0.00000
     10      25.1390      0.00000
     11      26.7342      0.00000
     12      29.6175      0.00000

 k-point    97 :      -0.2500    0.4500    0.2500
  band No.  band energies     occupation 
      1      -0.8802      2.00000
      2      -0.4423      2.00000
      3       0.0912      2.00000
      4       1.4832      2.00000
      5       2.8130      2.00000
      6       8.4108     -0.00000
      7       9.9947      0.00000
      8      11.2531      0.00000
      9      13.7831      0.00000
     10      25.8360      0.00000
     11      27.3129      0.00000
     12      28.4919      0.00000

 k-point    98 :      -0.4500   -0.4500    0.2500
  band No.  band energies     occupation 
      1      -1.3098      2.00000
      2      -0.6719      2.00000
      3       0.8006      2.00000
      4       1.5539      2.00000
      5       2.6013      2.00000
      6       6.8193     -0.00000
      7       8.9594     -0.00000
      8      13.4026      0.00000
      9      16.9758      0.00000
     10      21.2945      0.00000
     11      27.7749      0.00000
     12      30.9717      0.00000

 k-point    99 :      -0.3500   -0.4500    0.2500
  band No.  band energies     occupation 
      1      -1.1516      2.00000
      2      -0.7092      2.00000
      3       0.6677      2.00000
      4       1.6840      2.00000
      5       2.6359      2.00000
      6       8.0660     -0.00000
      7       9.1374     -0.00000
      8      11.7459      0.00000
      9      15.3798      0.00000
     10      23.0753      0.00000
     11      27.7725      0.00000
     12      29.5091      0.00000

 k-point   100 :      -0.3500   -0.3500    0.2500
  band No.  band energies     occupation 
      1      -1.3214      2.00000
      2      -0.7531      2.00000
      3       0.9744      2.00000
      4       1.7748      2.00000
      5       2.5011      2.00000
      6       7.9209     -0.00000
      7       8.8261     -0.00000
      8      11.7695      0.00000
      9      16.7030      0.00000
     10      21.4702      0.00000
     11      27.7140      0.00000
     12      31.1866      0.00000

 k-point   101 :       0.3500    0.3500    0.3500
  band No.  band energies     occupation 
      1      -2.2484      2.00000
      2       0.3269      2.00000
      3       0.3269      2.00000
      4       1.1944      2.00000
      5       2.1626      2.00000
      6       2.1626      2.00000
      7      11.2384      0.00000
      8      19.7497      0.00000
      9      22.4027      0.00000
     10      22.4027      0.00000
     11      27.5750      0.00000
     12      27.6171      0.00000

 k-point   102 :       0.4500    0.3500    0.3500
  band No.  band energies     occupation 
      1      -1.9261      2.00000
      2       0.1732      2.00000
      3       0.4244      2.00000
      4       1.1026      2.00000
      5       2.0705      2.00000
      6       3.3184      2.00000
      7      10.1862      0.00000
      8      18.7736      0.00000
      9      20.3975      0.00000
     10      22.4165      0.00000
     11      27.1378      0.00000
     12      28.2425      0.00000

 k-point   103 :      -0.4500    0.3500    0.3500
  band No.  band energies     occupation 
      1      -1.2856      2.00000
      2      -0.1370      2.00000
      3       0.6013      2.00000
      4       0.8219      2.00000
      5       2.0540      2.00000
      6       4.9217     -0.00207
      7       9.7157     -0.00000
      8      15.4242      0.00000
      9      20.6230      0.00000
     10      20.7288      0.00000
     11      27.7469      0.00000
     12      29.5724      0.00000

 k-point   104 :      -0.3500    0.3500    0.3500
  band No.  band energies     occupation 
      1      -1.0361      2.00000
      2      -0.2688      2.00000
      3       0.3515      2.00000
      4       1.3622      2.00000
      5       2.1816      2.00000
      6       6.4763     -0.00000
      7      10.0811      0.00000
      8      12.0589      0.00000
      9      18.5732      0.00000
     10      21.1013      0.00000
     11      29.4969      0.00000
     12      30.4479      0.00000

 k-point   105 :       0.4500    0.4500    0.3500
  band No.  band energies     occupation 
      1      -1.9182      2.00000
      2       0.0984      2.00000
      3       0.4252      2.00000
      4       1.2653      2.00000
      5       2.5764      2.00000
      6       3.6766      2.00000
      7       8.9819     -0.00000
      8      19.3189      0.00000
      9      20.2958      0.00000
     10      20.7276      0.00000
     11      28.5767      0.00000
     12      28.6955      0.00000

 k-point   106 :      -0.4500    0.4500    0.3500
  band No.  band energies     occupation 
      1      -1.4954      2.00000
      2      -0.1536      2.00000
      3       0.6887      2.00000
      4       0.9018      2.00000
      5       2.4554      2.00000
      6       5.3161     -0.00000
      7       8.2644     -0.00000
      8      17.3326      0.00000
      9      18.4058      0.00000
     10      21.5820      0.00000
     11      27.8836      0.00000
     12      30.2000      0.00000

 k-point   107 :      -0.3500    0.4500    0.3500
  band No.  band energies     occupation 
      1      -0.9607      2.00000
      2      -0.4369      2.00000
      3       0.3544      2.00000
      4       1.2268      2.00000
      5       2.4196      2.00000
      6       6.9846     -0.00000
      7       8.3749     -0.00000
      8      14.0591      0.00000
      9      16.9623      0.00000
     10      22.5834      0.00000
     11      27.9869      0.00000
     12      31.5048      0.00000

 k-point   108 :      -0.4500   -0.4500    0.3500
  band No.  band energies     occupation 
      1      -1.3906      2.00000
      2      -0.2210      2.00000
      3       0.7657      2.00000
      4       0.8480      2.00000
      5       2.5348      2.00000
      6       6.5394     -0.00000
      7       7.3176     -0.00000
      8      16.1519      0.00000
      9      19.0398      0.00000
     10      20.4957      0.00000
     11      29.4162      0.00000
     12      29.6875      0.00000

 k-point   109 :       0.4500    0.4500    0.4500
  band No.  band energies     occupation 
      1      -2.1391      2.00000
      2       0.2056      2.00000
      3       0.2056      2.00000
      4       2.5329      2.00000
      5       2.5329      2.00000
      6       3.2630      2.00000
      7       7.8711     -0.00000
      8      19.1674      0.00000
      9      21.4099      0.00000
     10      21.4099      0.00000
     11      28.0474      0.00000
     12      28.0474      0.00000

 k-point   110 :      -0.4500    0.4500    0.4500
  band No.  band energies     occupation 
      1      -1.9047      2.00000
      2       0.0611      2.00000
      3       0.3585      2.00000
      4       1.7470      2.00000
      5       2.5158      2.00000
      6       4.8865     -0.00444
      7       7.2354     -0.00000
      8      18.8204      0.00000
      9      20.0398      0.00000
     10      20.8282      0.00000
     11      28.4417      0.00000
     12      28.5851      0.00000


--------------------------------------------------------------------------------------------------------


 soft charge-density along one line, spin component           1
         0         1         2         3         4         5         6         7         8         9
 total charge-density along one line
 
 pseudopotential strength for first ion, spin component:           1
-10.151   0.000  -0.000   0.000   0.000   0.000  -0.000   0.000  -0.000   0.000  -0.046   0.000   0.000   0.000  -0.000   0.000
 -0.000   0.000 -10.151   0.000  -0.000   0.000  -0.000   0.000   0.000   0.000   0.000   0.000  -0.046   0.000   0.000   0.000
  0.000   0.000  -0.000   0.000 -10.134   0.000  -0.000   0.000  -0.000   0.000  -0.000   0.000   0.000   0.000  -0.048   0.000
 -0.000   0.000  -0.000   0.000  -0.000   0.000 -10.151   0.000  -0.000   0.000   0.000   0.000   0.000   0.000   0.000   0.000
 -0.000   0.000   0.000   0.000  -0.000   0.000  -0.000   0.000 -10.134   0.000   0.000   0.000  -0.000   0.000   0.000   0.000
 -0.046   0.000   0.000   0.000  -0.000   0.000   0.000   0.000   0.000   0.000   0.276   0.000  -0.000   0.000   0.000   0.000
  0.000   0.000  -0.046   0.000   0.000   0.000   0.000   0.000  -0.000   0.000  -0.000   0.000   0.276   0.000  -0.000   0.000
 -0.000   0.000   0.000   0.000  -0.048   0.000   0.000   0.000   0.000   0.000   0.000   0.000  -0.000   0.000   0.277   0.000
  0.000   0.000   0.000   0.000   0.000   0.000  -0.046   0.000   0.000   0.000  -0.000   0.000  -0.000   0.000  -0.000   0.000
  0.000   0.000  -0.000   0.000   0.000   0.000   0.000   0.000  -0.048   0.000  -0.000   0.000   0.000   0.000  -0.000   0.000
  0.000   0.000   0.000   0.000   0.000   0.000   0.000   0.000  -0.000   0.000   0.000   0.000   0.000   0.000   0.000   0.000
 -0.000   0.000  -0.000   0.000  -0.000   0.000  -0.000   0.000   0.000   0.000   0.000   0.000   0.000   0.000  -0.000   0.000
  0.000   0.000  -0.000   0.000   0.000   0.000  -0.000   0.000   0.000   0.000  -0.000   0.000   0.000   0.000  -0.000   0.000
 -0.000   0.000  -0.000   0.000  -0.000   0.000   0.000   0.000  -0.000   0.000   0.000   0.000   0.000   0.000   0.000   0.000
 -0.000   0.000  -0.000   0.000  -0.000   0.000  -0.000   0.000   0.000   0.000   0.000   0.000   0.000   0.000   0.000   0.000
 -0.000   0.000   0.000   0.000  -0.000   0.000   0.000   0.000  -0.000   0.000   0.000   0.000  -0.000   0.000   0.000   0.000
  0.000   0.000   0.000   0.000   0.000   0.000  -0.000   0.000   0.000   0.000  -0.000   0.000  -0.000   0.000  -0.000   0.000
  0.000   0.000   0.000   0.000   0.000   0.000   0.000   0.000  -0.000   0.000  -0.000   0.000  -0.000   0.000  -0.000   0.000
 total augmentation occupancy for first ion, spin component:           1
  1.903  -0.000   0.000  -0.000   0.000  -0.055  -0.000   0.000   0.000   0.000   0.000   0.000   0.000   0.000   0.000   0.000
 -0.000   1.903   0.000   0.000   0.000  -0.000  -0.055   0.000  -0.000   0.000   0.000   0.000   0.000   0.000   0.000   0.000
 -0.000  -0.000   1.950  -0.000   0.000   0.000   0.000  -0.097  -0.000   0.000   0.000   0.000   0.000   0.000   0.000   0.000
  0.000  -0.000   0.000   1.903  -0.000  -0.000   0.000  -0.000  -0.055   0.000   0.000  -0.000   0.000   0.000   0.000   0.000
 -0.000  -0.000   0.000   0.000   1.950   0.000   0.000   0.000  -0.000  -0.097   0.000   0.000   0.000   0.000   0.000   0.000
 -0.055  -0.000   0.000  -0.000   0.000   0.158  -0.000   0.000  -0.000   0.000   0.000   0.000   0.000   0.000   0.000   0.000
  0.000  -0.055  -0.000   0.000   0.000   0.000   0.158   0.000  -0.000  -0.000   0.000  -0.000   0.000   0.000   0.000   0.000
  0.000  -0.000  -0.097  -0.000   0.000   0.000   0.000   0.127   0.000  -0.000  -0.000   0.000   0.000   0.000   0.000   0.000
  0.000  -0.000   0.000  -0.055  -0.000  -0.000  -0.000   0.000   0.158  -0.000  -0.000   0.000   0.000   0.000   0.000   0.000
  0.000   0.000   0.000  -0.000  -0.097   0.000  -0.000  -0.000   0.000   0.127   0.000   0.000   0.000   0.000   0.000   0.000
 -0.000   0.000  -0.000  -0.000   0.000   0.000  -0.000  -0.000  -0.000  -0.000   1.034  -0.337   0.000   0.000   0.000   0.000
  0.000   0.000   0.000  -0.000  -0.000   0.000  -0.000   0.000   0.000   0.000  -0.337   0.204   0.000   0.000   0.000   0.000
  0.000   0.000   0.000   0.000   0.000   0.000   0.000   0.000   0.000   0.000   0.000   0.000   0.137  -0.000   0.000  -0.011
  0.000   0.000   0.000   0.000   0.000   0.000   0.000   0.000   0.000   0.000   0.000   0.000   0.000   0.137  -0.000  -0.000
  0.000   0.000   0.000   0.000   0.000   0.000   0.000   0.000   0.000   0.000   0.000   0.000  -0.000  -0.000   0.137   0.000
  0.000   0.000   0.000   0.000   0.000   0.000   0.000   0.000   0.000   0.000   0.000   0.000  -0.011   0.000   0.000   0.001
  0.000   0.000   0.000   0.000   0.000   0.000   0.000   0.000   0.000   0.000   0.000   0.000  -0.000  -0.011  -0.000   0.000
  0.000   0.000   0.000   0.000   0.000   0.000   0.000   0.000   0.000   0.000   0.000   0.000   0.000  -0.000  -0.011   0.000


------------------------ aborting loop because EDIFF is reached ----------------------------------------


    CHARGE:  cpu time    0.0039: real time    0.0082
    FORLOC:  cpu time    0.0005: real time    0.0061
    FORNL :  cpu time    0.0087: real time    0.0281
    STRESS:  cpu time    0.0558: real time    0.1689
    FORCOR:  cpu time    0.0009: real time    0.0009
    FORHAR:  cpu time    0.0007: real time    0.0011
    MIXING:  cpu time    0.0004: real time    0.0012
    OFIELD:  cpu time    0.0000: real time    0.0000

  FORCE on cell =-STRESS in cart. coord.  units (eV):
  Direction    XX          YY          ZZ          XY          YZ          ZX
  --------------------------------------------------------------------------------------
  Alpha Z    99.22683    99.22683    99.22683
  Ewald    -317.00579  -317.00579  -317.00579    -0.00000     0.00000    -0.00000
  Hartree    40.83902    40.83902    40.83902     0.00000     0.00000     0.00000
  E(xc)     -48.69117   -48.69117   -48.69117     0.00001     0.00001     0.00001
  Local      78.63478    78.63478    78.63478     0.00025     0.00025     0.00025
  n-local   -50.99776   -48.34695   -52.12155     0.58365    -0.70764    -0.01045
  augment    42.59263    42.59263    42.59263    -0.00006    -0.00006    -0.00006
  Kinetic   152.95163   151.75780   153.83489    -0.52297     0.29557     0.00057
  Fock        0.00000     0.00000     0.00000     0.00000     0.00000     0.00000
  -------------------------------------------------------------------------------------
  Total      -2.04434    -2.04434    -2.04434    -0.00000     0.00000     0.00000
  in kB    -176.83849  -176.83849  -176.83849    -0.00000     0.00000     0.00000
  external pressure =     -176.84 kB  Pullay stress =        0.00 kB


 VOLUME and BASIS-vectors are now :
 -----------------------------------------------------------------------------
  energy-cutoff  :      230.00
  volume of cell :       18.52
      direct lattice vectors                 reciprocal lattice vectors
     0.000000000  2.100000000  2.100000000    -0.238095238  0.238095238  0.238095238
     2.100000000  0.000000000  2.100000000     0.238095238 -0.238095238  0.238095238
     2.100000000  2.100000000  0.000000000     0.238095238  0.238095238 -0.238095238

  length of vectors
     2.969848481  2.969848481  2.969848481     0.412393049  0.412393049  0.412393049


 FORCES acting on ions
    electron-ion (+dipol)            ewald-force                    non-local-force                 convergence-correction
 -----------------------------------------------------------------------------------------------
   -.239E-14 0.149E-14 -.112E-14   -.828E-15 0.649E-15 0.119E-14   0.000E+00 0.000E+00 0.000E+00   -.842E-14 0.139E-13 0.631E-14
 -----------------------------------------------------------------------------------------------
   -.239E-14 0.149E-14 -.112E-14   -.828E-15 0.649E-15 0.119E-14   0.000E+00 0.000E+00 0.000E+00   -.842E-14 0.139E-13 0.631E-14
 
 
 POSITION                                       TOTAL-FORCE (eV/Angst)
 -----------------------------------------------------------------------------------
      0.00000      0.00000      0.00000         0.000000      0.000000      0.000000
 -----------------------------------------------------------------------------------
    total drift:                               -0.000000      0.000000      0.000000


--------------------------------------------------------------------------------------------------------



  FREE ENERGIE OF THE ION-ELECTRON SYSTEM (eV)
  ---------------------------------------------------
  free  energy   TOTEN  =        -4.30419397 eV

  energy  without entropy=       -4.30515460  energy(sigma->0) =       -4.30451418
 


--------------------------------------------------------------------------------------------------------


    POTLOK:  cpu time    0.0037: real time    0.0083


--------------------------------------------------------------------------------------------------------


 writing wavefunctions
     LOOP+:  cpu time    2.0903: real time    6.3169
    4ORBIT:  cpu time    0.0000: real time    0.0000

 total amount of memory used by VASP MPI-rank0    33986. kBytes
=======================================================================

   base      :      30000. kBytes
   nonl-proj :       2473. kBytes
   fftplans  :        238. kBytes
   grid      :        331. kBytes
   one-center:         15. kBytes
   wavefun   :        929. kBytes
 
  
  
 General timing and accounting informations for this job:
 ========================================================
  
                  Total CPU time used (sec):        2.526
                            User time (sec):        2.252
                          System time (sec):        0.274
                         Elapsed time (sec):        7.708
  
                   Maximum memory used (kb):       60112.
                   Average memory used (kb):           0.
  
                          Minor page faults:        18069
                          Major page faults:            0
                 Voluntary context switches:         2390
