<?xml version="1.0" encoding="ISO-8859-1"?>
<modeling>
 <generator>
  <i name="program" type="string">vasp </i>
  <i name="version" type="string">5.4.4.18Apr17-6-g9f103f2a35  </i>
  <i name="subversion" type="string">(build Jul 01 2019 03:25:34) complex            parallel </i>
  <i name="platform" type="string">LinuxIFC </i>
  <i name="date" type="string">2020 07 08 </i>
  <i name="time" type="string">00:55:58 </i>
 </generator>
 <incar>
  <i type="string" name="SYSTEM"> FCC Au</i>
  <i type="string" name="PREC">normal</i>
  <i name="EDIFF">      0.00010000</i>
  <i name="ENCUT">    230.00000000</i>
  <v type="int" name="KPOINT_BSE">    -1     0     0     0</v>
 </incar>
 <structure name="primitive_cell" >
  <crystal>
   <varray name="basis" >
    <v>       0.00000000       2.10000000       2.10000000 </v>
    <v>       2.10000000       0.00000000       2.10000000 </v>
    <v>       2.10000000       2.10000000       0.00000000 </v>
   </varray>
   <i name="volume">     18.52200000 </i>
   <varray name="rec_basis" >
    <v>      -0.23809524       0.23809524       0.23809524 </v>
    <v>       0.23809524      -0.23809524       0.23809524 </v>
    <v>       0.23809524       0.23809524      -0.23809524 </v>
   </varray>
  </crystal>
  <varray name="positions" >
   <v>       0.00000000       0.00000000       0.00000000 </v>
  </varray>
 </structure>
 <varray name="primitive_index" >
  <v type="int" >        1 </v>
 </varray>
 <kpoints>
  <generation param="Monkhorst-Pack">
   <v type="int" name="divisions">      10       10       10 </v>
   <v name="usershift">      0.00000000       0.00000000       0.00000000 </v>
   <v name="genvec1">      0.10000000       0.00000000       0.00000000 </v>
   <v name="genvec2">      0.00000000       0.10000000       0.00000000 </v>
   <v name="genvec3">      0.00000000       0.00000000       0.10000000 </v>
   <v name="shift">      0.50000000       0.50000000       0.50000000 </v>
  </generation>
  <varray name="kpointlist" >
   <v>       0.05000000       0.05000000       0.05000000 </v>
   <v>       0.15000000       0.05000000       0.05000000 </v>
   <v>       0.25000000       0.05000000       0.05000000 </v>
   <v>       0.35000000       0.05000000       0.05000000 </v>
   <v>       0.45000000       0.05000000       0.05000000 </v>
   <v>      -0.45000000       0.05000000       0.05000000 </v>
   <v>      -0.35000000       0.05000000       0.05000000 </v>
   <v>      -0.25000000       0.05000000       0.05000000 </v>
   <v>      -0.15000000       0.05000000       0.05000000 </v>
   <v>      -0.05000000       0.05000000       0.05000000 </v>
   <v>       0.15000000       0.15000000       0.05000000 </v>
   <v>       0.25000000       0.15000000       0.05000000 </v>
   <v>       0.35000000       0.15000000       0.05000000 </v>
   <v>       0.45000000       0.15000000       0.05000000 </v>
   <v>      -0.45000000       0.15000000       0.05000000 </v>
   <v>      -0.35000000       0.15000000       0.05000000 </v>
   <v>      -0.25000000       0.15000000       0.05000000 </v>
   <v>      -0.15000000       0.15000000       0.05000000 </v>
   <v>      -0.05000000       0.15000000       0.05000000 </v>
   <v>       0.25000000       0.25000000       0.05000000 </v>
   <v>       0.35000000       0.25000000       0.05000000 </v>
   <v>       0.45000000       0.25000000       0.05000000 </v>
   <v>      -0.45000000       0.25000000       0.05000000 </v>
   <v>      -0.35000000       0.25000000       0.05000000 </v>
   <v>      -0.25000000       0.25000000       0.05000000 </v>
   <v>      -0.15000000       0.25000000       0.05000000 </v>
   <v>      -0.05000000       0.25000000       0.05000000 </v>
   <v>       0.35000000       0.35000000       0.05000000 </v>
   <v>       0.45000000       0.35000000       0.05000000 </v>
   <v>      -0.45000000       0.35000000       0.05000000 </v>
   <v>      -0.35000000       0.35000000       0.05000000 </v>
   <v>      -0.25000000       0.35000000       0.05000000 </v>
   <v>      -0.15000000       0.35000000       0.05000000 </v>
   <v>      -0.05000000       0.35000000       0.05000000 </v>
   <v>       0.45000000       0.45000000       0.05000000 </v>
   <v>      -0.45000000       0.45000000       0.05000000 </v>
   <v>      -0.35000000       0.45000000       0.05000000 </v>
   <v>      -0.25000000       0.45000000       0.05000000 </v>
   <v>      -0.15000000       0.45000000       0.05000000 </v>
   <v>      -0.05000000       0.45000000       0.05000000 </v>
   <v>      -0.45000000      -0.45000000       0.05000000 </v>
   <v>      -0.35000000      -0.45000000       0.05000000 </v>
   <v>      -0.25000000      -0.45000000       0.05000000 </v>
   <v>      -0.15000000      -0.45000000       0.05000000 </v>
   <v>      -0.35000000      -0.35000000       0.05000000 </v>
   <v>      -0.25000000      -0.35000000       0.05000000 </v>
   <v>      -0.15000000      -0.35000000       0.05000000 </v>
   <v>      -0.25000000      -0.25000000       0.05000000 </v>
   <v>      -0.15000000      -0.25000000       0.05000000 </v>
   <v>      -0.15000000      -0.15000000       0.05000000 </v>
   <v>       0.15000000       0.15000000       0.15000000 </v>
   <v>       0.25000000       0.15000000       0.15000000 </v>
   <v>       0.35000000       0.15000000       0.15000000 </v>
   <v>       0.45000000       0.15000000       0.15000000 </v>
   <v>      -0.45000000       0.15000000       0.15000000 </v>
   <v>      -0.35000000       0.15000000       0.15000000 </v>
   <v>      -0.25000000       0.15000000       0.15000000 </v>
   <v>      -0.15000000       0.15000000       0.15000000 </v>
   <v>       0.25000000       0.25000000       0.15000000 </v>
   <v>       0.35000000       0.25000000       0.15000000 </v>
   <v>       0.45000000       0.25000000       0.15000000 </v>
   <v>      -0.45000000       0.25000000       0.15000000 </v>
   <v>      -0.35000000       0.25000000       0.15000000 </v>
   <v>      -0.25000000       0.25000000       0.15000000 </v>
   <v>      -0.15000000       0.25000000       0.15000000 </v>
   <v>       0.35000000       0.35000000       0.15000000 </v>
   <v>       0.45000000       0.35000000       0.15000000 </v>
   <v>      -0.45000000       0.35000000       0.15000000 </v>
   <v>      -0.35000000       0.35000000       0.15000000 </v>
   <v>      -0.25000000       0.35000000       0.15000000 </v>
   <v>      -0.15000000       0.35000000       0.15000000 </v>
   <v>       0.45000000       0.45000000       0.15000000 </v>
   <v>      -0.45000000       0.45000000       0.15000000 </v>
   <v>      -0.35000000       0.45000000       0.15000000 </v>
   <v>      -0.25000000       0.45000000       0.15000000 </v>
   <v>      -0.15000000       0.45000000       0.15000000 </v>
   <v>      -0.45000000      -0.45000000       0.15000000 </v>
   <v>      -0.35000000      -0.45000000       0.15000000 </v>
   <v>      -0.25000000      -0.45000000       0.15000000 </v>
   <v>      -0.35000000      -0.35000000       0.15000000 </v>
   <v>      -0.25000000      -0.35000000       0.15000000 </v>
   <v>      -0.25000000      -0.25000000       0.15000000 </v>
   <v>       0.25000000       0.25000000       0.25000000 </v>
   <v>       0.35000000       0.25000000       0.25000000 </v>
   <v>       0.45000000       0.25000000       0.25000000 </v>
   <v>      -0.45000000       0.25000000       0.25000000 </v>
   <v>      -0.35000000       0.25000000       0.25000000 </v>
   <v>      -0.25000000       0.25000000       0.25000000 </v>
   <v>       0.35000000       0.35000000       0.25000000 </v>
   <v>       0.45000000       0.35000000       0.25000000 </v>
   <v>      -0.45000000       0.35000000       0.25000000 </v>
   <v>      -0.35000000       0.35000000       0.25000000 </v>
   <v>      -0.25000000       0.35000000       0.25000000 </v>
   <v>       0.45000000       0.45000000       0.25000000 </v>
   <v>      -0.45000000       0.45000000       0.25000000 </v>
   <v>      -0.35000000       0.45000000       0.25000000 </v>
   <v>      -0.25000000       0.45000000       0.25000000 </v>
   <v>      -0.45000000      -0.45000000       0.25000000 </v>
   <v>      -0.35000000      -0.45000000       0.25000000 </v>
   <v>      -0.35000000      -0.35000000       0.25000000 </v>
   <v>       0.35000000       0.35000000       0.35000000 </v>
   <v>       0.45000000       0.35000000       0.35000000 </v>
   <v>      -0.45000000       0.35000000       0.35000000 </v>
   <v>      -0.35000000       0.35000000       0.35000000 </v>
   <v>       0.45000000       0.45000000       0.35000000 </v>
   <v>      -0.45000000       0.45000000       0.35000000 </v>
   <v>      -0.35000000       0.45000000       0.35000000 </v>
   <v>      -0.45000000      -0.45000000       0.35000000 </v>
   <v>       0.45000000       0.45000000       0.45000000 </v>
   <v>      -0.45000000       0.45000000       0.45000000 </v>
  </varray>
  <varray name="weights" >
   <v>       0.00200000 </v>
   <v>       0.00600000 </v>
   <v>       0.00600000 </v>
   <v>       0.00600000 </v>
   <v>       0.00600000 </v>
   <v>       0.00600000 </v>
   <v>       0.00600000 </v>
   <v>       0.00600000 </v>
   <v>       0.00600000 </v>
   <v>       0.00600000 </v>
   <v>       0.00600000 </v>
   <v>       0.01200000 </v>
   <v>       0.01200000 </v>
   <v>       0.01200000 </v>
   <v>       0.01200000 </v>
   <v>       0.01200000 </v>
   <v>       0.01200000 </v>
   <v>       0.01200000 </v>
   <v>       0.01200000 </v>
   <v>       0.00600000 </v>
   <v>       0.01200000 </v>
   <v>       0.01200000 </v>
   <v>       0.01200000 </v>
   <v>       0.01200000 </v>
   <v>       0.01200000 </v>
   <v>       0.01200000 </v>
   <v>       0.01200000 </v>
   <v>       0.00600000 </v>
   <v>       0.01200000 </v>
   <v>       0.01200000 </v>
   <v>       0.01200000 </v>
   <v>       0.01200000 </v>
   <v>       0.01200000 </v>
   <v>       0.01200000 </v>
   <v>       0.00600000 </v>
   <v>       0.01200000 </v>
   <v>       0.01200000 </v>
   <v>       0.01200000 </v>
   <v>       0.01200000 </v>
   <v>       0.01200000 </v>
   <v>       0.00600000 </v>
   <v>       0.01200000 </v>
   <v>       0.01200000 </v>
   <v>       0.01200000 </v>
   <v>       0.00600000 </v>
   <v>       0.01200000 </v>
   <v>       0.01200000 </v>
   <v>       0.00600000 </v>
   <v>       0.01200000 </v>
   <v>       0.00600000 </v>
   <v>       0.00200000 </v>
   <v>       0.00600000 </v>
   <v>       0.00600000 </v>
   <v>       0.00600000 </v>
   <v>       0.00600000 </v>
   <v>       0.00600000 </v>
   <v>       0.00600000 </v>
   <v>       0.00600000 </v>
   <v>       0.00600000 </v>
   <v>       0.01200000 </v>
   <v>       0.01200000 </v>
   <v>       0.01200000 </v>
   <v>       0.01200000 </v>
   <v>       0.01200000 </v>
   <v>       0.01200000 </v>
   <v>       0.00600000 </v>
   <v>       0.01200000 </v>
   <v>       0.01200000 </v>
   <v>       0.01200000 </v>
   <v>       0.01200000 </v>
   <v>       0.01200000 </v>
   <v>       0.00600000 </v>
   <v>       0.01200000 </v>
   <v>       0.01200000 </v>
   <v>       0.01200000 </v>
   <v>       0.01200000 </v>
   <v>       0.00600000 </v>
   <v>       0.01200000 </v>
   <v>       0.01200000 </v>
   <v>       0.00600000 </v>
   <v>       0.01200000 </v>
   <v>       0.00600000 </v>
   <v>       0.00200000 </v>
   <v>       0.00600000 </v>
   <v>       0.00600000 </v>
   <v>       0.00600000 </v>
   <v>       0.00600000 </v>
   <v>       0.00600000 </v>
   <v>       0.00600000 </v>
   <v>       0.01200000 </v>
   <v>       0.01200000 </v>
   <v>       0.01200000 </v>
   <v>       0.01200000 </v>
   <v>       0.00600000 </v>
   <v>       0.01200000 </v>
   <v>       0.01200000 </v>
   <v>       0.01200000 </v>
   <v>       0.00600000 </v>
   <v>       0.01200000 </v>
   <v>       0.00600000 </v>
   <v>       0.00200000 </v>
   <v>       0.00600000 </v>
   <v>       0.00600000 </v>
   <v>       0.00600000 </v>
   <v>       0.00600000 </v>
   <v>       0.01200000 </v>
   <v>       0.01200000 </v>
   <v>       0.00600000 </v>
   <v>       0.00200000 </v>
   <v>       0.00600000 </v>
  </varray>
 </kpoints>
 <parameters>
  <separator name="general" >
   <i type="string" name="SYSTEM">FCC Au</i>
   <i type="logical" name="LCOMPAT"> F  </i>
  </separator>
  <separator name="electronic" >
   <i type="string" name="PREC">normal</i>
   <i name="ENMAX">    230.00000000</i>
   <i name="ENAUG">    356.67000000</i>
   <i name="EDIFF">      0.00010000</i>
   <i type="int" name="IALGO">    38</i>
   <i type="int" name="IWAVPR">    10</i>
   <i type="int" name="NBANDS">    12</i>
   <i name="NELECT">     11.00000000</i>
   <i type="int" name="TURBO">     0</i>
   <i type="int" name="IRESTART">     0</i>
   <i type="int" name="NREBOOT">     0</i>
   <i type="int" name="NMIN">     0</i>
   <i name="EREF">      0.00000000</i>
   <separator name="electronic smearing" >
    <i type="int" name="ISMEAR">     1</i>
    <i name="SIGMA">      0.20000000</i>
    <i name="KSPACING">      0.50000000</i>
    <i type="logical" name="KGAMMA"> T  </i>
   </separator>
   <separator name="electronic projectors" >
    <i type="logical" name="LREAL"> F  </i>
    <v name="ROPT">      0.00000000</v>
    <i type="int" name="LMAXPAW">  -100</i>
    <i type="int" name="LMAXMIX">     2</i>
    <i type="logical" name="NLSPLINE"> F  </i>
   </separator>
   <separator name="electronic startup" >
    <i type="int" name="ISTART">     1</i>
    <i type="int" name="ICHARG">     0</i>
    <i type="int" name="INIWAV">     1</i>
   </separator>
   <separator name="electronic spin" >
    <i type="int" name="ISPIN">     1</i>
    <i type="logical" name="LNONCOLLINEAR"> F  </i>
    <v name="MAGMOM">      1.00000000</v>
    <i name="NUPDOWN">     -1.00000000</i>
    <i type="logical" name="LSORBIT"> F  </i>
    <v name="SAXIS">      0.00000000      0.00000000      1.00000000</v>
    <i type="logical" name="LSPIRAL"> F  </i>
    <v name="QSPIRAL">      0.00000000      0.00000000      0.00000000</v>
    <i type="logical" name="LZEROZ"> F  </i>
   </separator>
   <separator name="electronic exchange-correlation" >
    <i type="logical" name="LASPH"> F  </i>
    <i type="logical" name="LMETAGGA"> F  </i>
   </separator>
   <separator name="electronic convergence" >
    <i type="int" name="NELM">    60</i>
    <i type="int" name="NELMDL">     0</i>
    <i type="int" name="NELMIN">     2</i>
    <i name="ENINI">    230.00000000</i>
    <separator name="electronic convergence detail" >
     <i type="logical" name="LDIAG"> T  </i>
     <i type="logical" name="LSUBROT"> F  </i>
     <i name="WEIMIN">      0.00000000</i>
     <i name="EBREAK">      0.00000208</i>
     <i name="DEPER">      0.30000000</i>
     <i type="int" name="NRMM">     4</i>
     <i name="TIME">      0.40000000</i>
    </separator>
   </separator>
   <separator name="electronic mixer" >
    <i name="AMIX">      0.40000000</i>
    <i name="BMIX">      1.00000000</i>
    <i name="AMIN">      0.10000000</i>
    <i name="AMIX_MAG">      1.60000000</i>
    <i name="BMIX_MAG">      1.00000000</i>
    <separator name="electronic mixer details" >
     <i type="int" name="IMIX">     4</i>
     <i type="logical" name="MIXFIRST"> F  </i>
     <i type="int" name="MAXMIX">   -45</i>
     <i name="WC">    100.00000000</i>
     <i type="int" name="INIMIX">     1</i>
     <i type="int" name="MIXPRE">     1</i>
     <i type="int" name="MREMOVE">     5</i>
    </separator>
   </separator>
   <separator name="electronic dipolcorrection" >
    <i type="logical" name="LDIPOL"> F  </i>
    <i type="logical" name="LMONO"> F  </i>
    <i type="int" name="IDIPOL">     0</i>
    <i name="EPSILON">      1.00000000</i>
    <v name="DIPOL">   -100.00000000   -100.00000000   -100.00000000</v>
    <i name="EFIELD">      0.00000000</i>
   </separator>
  </separator>
  <separator name="grids" >
   <i type="int" name="NGX">    12</i>
   <i type="int" name="NGY">    12</i>
   <i type="int" name="NGZ">    12</i>
   <i type="int" name="NGXF">    24</i>
   <i type="int" name="NGYF">    24</i>
   <i type="int" name="NGZF">    24</i>
   <i type="logical" name="ADDGRID"> F  </i>
  </separator>
  <separator name="ionic" >
   <i type="int" name="NSW">     0</i>
   <i type="int" name="IBRION">    -1</i>
   <i type="int" name="MDALGO">     0</i>
   <i type="int" name="ISIF">     2</i>
   <i name="PSTRESS">      0.00000000</i>
   <i name="EDIFFG">      0.00100000</i>
   <i type="int" name="NFREE">     0</i>
   <i name="POTIM">      0.50000000</i>
   <i name="SMASS">     -3.00000000</i>
   <i name="SCALEE">      1.00000000</i>
  </separator>
  <separator name="ionic md" >
   <i name="TEBEG">      0.00010000</i>
   <i name="TEEND">      0.00010000</i>
   <i type="int" name="NBLOCK">     1</i>
   <i type="int" name="KBLOCK">     1</i>
   <i type="int" name="NPACO">   256</i>
   <i name="APACO">     16.00000000</i>
  </separator>
  <separator name="symmetry" >
   <i type="int" name="ISYM">     2</i>
   <i name="SYMPREC">      0.00001000</i>
  </separator>
  <separator name="dos" >
   <i type="int" name="LORBIT">     0</i>
   <v name="RWIGS">     -1.00000000</v>
   <i type="int" name="NEDOS">   301</i>
   <i name="EMIN">     10.00000000</i>
   <i name="EMAX">    -10.00000000</i>
   <i name="EFERMI">      0.00000000</i>
  </separator>
  <separator name="writing" >
   <i type="int" name="NWRITE">     2</i>
   <i type="logical" name="LWAVE"> T  </i>
   <i type="logical" name="LDOWNSAMPLE"> F  </i>
   <i type="logical" name="LCHARG"> T  </i>
   <i type="logical" name="LPARD"> F  </i>
   <i type="logical" name="LVTOT"> F  </i>
   <i type="logical" name="LVHAR"> F  </i>
   <i type="logical" name="LELF"> F  </i>
   <i type="logical" name="LOPTICS"> F  </i>
   <v name="STM">      0.00000000      0.00000000      0.00000000      0.00000000      0.00000000      0.00000000      0.00000000</v>
  </separator>
  <separator name="performance" >
   <i type="int" name="NPAR">     4</i>
   <i type="int" name="NSIM">     4</i>
   <i type="int" name="NBLK">    -1</i>
   <i type="logical" name="LPLANE"> T  </i>
   <i type="logical" name="LSCALAPACK"> T  </i>
   <i type="logical" name="LSCAAWARE"> F  </i>
   <i type="logical" name="LSCALU"> F  </i>
   <i type="logical" name="LASYNC"> F  </i>
   <i type="logical" name="LORBITALREAL"> F  </i>
  </separator>
  <separator name="miscellaneous" >
   <i type="int" name="IDIOT">     3</i>
   <i type="int" name="ISPECIAL">     0</i>
   <i type="logical" name="LMUSIC"> F  </i>
   <v name="POMASS">    196.96600000</v>
   <v name="DARWINR">      0.00000000</v>
   <v name="DARWINV">      1.00000000</v>
   <i type="logical" name="LCORR"> T  </i>
  </separator>
  <i type="logical" name="GGA_COMPAT"> T  </i>
  <i type="logical" name="LBERRY"> F  </i>
  <i type="int" name="ICORELEVEL">     0</i>
  <i type="logical" name="LDAU"> F  </i>
  <i type="int" name="I_CONSTRAINED_M">     0</i>
  <separator name="electronic exchange-correlation" >
   <i type="string" name="GGA">--</i>
   <i type="int" name="VOSKOWN">     0</i>
   <i type="logical" name="LHFCALC"> F  </i>
   <i type="string" name="PRECFOCK"></i>
   <i type="logical" name="LSYMGRAD"> F  </i>
   <i type="logical" name="LHFONE"> F  </i>
   <i type="logical" name="LRHFCALC"> F  </i>
   <i type="logical" name="LTHOMAS"> F  </i>
   <i type="logical" name="LMODELHF"> F  </i>
   <i name="ENCUT4O">     -1.00000000</i>
   <i type="int" name="EXXOEP">     0</i>
   <i type="int" name="FOURORBIT">     0</i>
   <i name="AEXX">      0.00000000</i>
   <i name="HFALPHA">      0.00000000</i>
   <i name="MCALPHA">      0.00000000</i>
   <i name="ALDAX">      1.00000000</i>
   <i name="AGGAX">      1.00000000</i>
   <i name="ALDAC">      1.00000000</i>
   <i name="AGGAC">      1.00000000</i>
   <i type="int" name="NKREDX">     1</i>
   <i type="int" name="NKREDY">     1</i>
   <i type="int" name="NKREDZ">     1</i>
   <i type="logical" name="SHIFTRED"> F  </i>
   <i type="logical" name="ODDONLY"> F  </i>
   <i type="logical" name="EVENONLY"> F  </i>
   <i type="int" name="LMAXFOCK">     0</i>
   <i type="int" name="NMAXFOCKAE">     0</i>
   <i type="logical" name="LFOCKAEDFT"> F  </i>
   <i name="HFSCREEN">      0.00000000</i>
   <i name="HFSCREENC">      0.00000000</i>
   <i type="int" name="NBANDSGWLOW">     0</i>
  </separator>
  <separator name="vdW DFT" >
   <i type="logical" name="LUSE_VDW"> F  </i>
   <i name="Zab_VDW">     -0.84910000</i>
   <i name="PARAM1">      0.12340000</i>
   <i name="PARAM2">      1.00000000</i>
   <i name="PARAM3">      0.00000000</i>
  </separator>
  <separator name="model GW" >
   <i type="int" name="MODEL_GW">     0</i>
   <i name="MODEL_EPS0">     11.11320000</i>
   <i name="MODEL_ALPHA">      1.00000000</i>
  </separator>
  <separator name="linear response parameters" >
   <i type="logical" name="LEPSILON"> F  </i>
   <i type="logical" name="LRPA"> F  </i>
   <i type="logical" name="LNABLA"> F  </i>
   <i type="logical" name="LVEL"> F  </i>
   <i type="int" name="KINTER">     0</i>
   <i name="CSHIFT">      0.10000000</i>
   <i name="OMEGAMAX">     -1.00000000</i>
   <i name="DEG_THRESHOLD">      0.00200000</i>
   <i name="RTIME">     -0.10000000</i>
   <i name="WPLASMAI">      0.00000000</i>
   <v name="DFIELD">      0.00000000      0.00000000      0.00000000</v>
   <v name="WPLASMA">      0.00000000      0.00000000      0.00000000      0.00000000      0.00000000      0.00000000      0.00000000      0.00000000      0.00000000</v>
  </separator>
  <separator name="orbital magnetization" >
   <i type="logical" name="NUCIND"> F  </i>
   <v name="MAGPOS">      0.00000000      0.00000000      0.00000000</v>
   <i type="logical" name="LNICSALL"> T  </i>
   <i type="logical" name="ORBITALMAG"> F  </i>
   <i type="logical" name="LMAGBLOCH"> F  </i>
   <i type="logical" name="LCHIMAG"> F  </i>
   <i type="logical" name="LGAUGE"> T  </i>
   <i type="int" name="MAGATOM">     0</i>
   <v name="MAGDIPOL">      0.00000000      0.00000000      0.00000000</v>
   <v name="AVECCONST">      0.00000000      0.00000000      0.00000000</v>
  </separator>
  <separator name="response functions" >
   <i type="logical" name="LADDER"> F  </i>
   <i type="logical" name="LRPAFORCE"> F  </i>
   <i type="logical" name="LFXC"> F  </i>
   <i type="logical" name="LHARTREE"> T  </i>
   <i type="int" name="IBSE">     0</i>
   <v type="int" name="KPOINT">    -1     0     0     0</v>
   <i type="logical" name="LTCTE"> F  </i>
   <i type="logical" name="LTETE"> F  </i>
   <i type="logical" name="LTRIPLET"> F  </i>
   <i type="logical" name="LFXCEPS"> F  </i>
   <i type="logical" name="LFXHEG"> F  </i>
   <i type="int" name="NATURALO">     2</i>
   <i type="logical" name="L2ORDER"> F  </i>
   <i type="logical" name="LMP2LT"> F  </i>
   <i type="logical" name="LUSEW"> F  </i>
   <i name="ENCUTGW">     -2.00000000</i>
   <i name="ENCUTGWSOFT">     -2.00000000</i>
   <i name="ENCUTLF">     -1.00000000</i>
   <i type="int" name="LMAXMP2">    -1</i>
   <i name="SCISSOR">      0.00000000</i>
   <i type="int" name="NOMEGA">     0</i>
   <i type="int" name="NOMEGAR">     0</i>
   <i type="int" name="NBANDSGW">    -1</i>
   <i type="int" name="NBANDSO">    -1</i>
   <i type="int" name="NBANDSV">    -1</i>
   <i type="int" name="NELM">     1</i>
   <i type="int" name="NELMHF">     1</i>
   <i type="int" name="DIM">     3</i>
   <i type="int" name="ANTIRES">     0</i>
   <i name="OMEGAMAX">    -30.00000000</i>
   <i name="OMEGAMIN">    -30.00000000</i>
   <i name="OMEGATL">   -200.00000000</i>
   <i type="int" name="OMEGAGRID">   140</i>
   <i name="CSHIFT">     -0.10000000</i>
   <i type="logical" name="SELFENERGY"> F  </i>
   <i type="logical" name="LSPECTRAL"> F  </i>
   <i type="logical" name="LSPECTRALGW"> F  </i>
   <i type="logical" name="LSINGLES"> F  </i>
   <i type="logical" name="LFERMIGW"> F  </i>
   <i type="logical" name="ODDONLYGW"> F  </i>
   <i type="logical" name="EVENONLYGW"> F  </i>
   <i type="int" name="NKREDLFX">     1</i>
   <i type="int" name="NKREDLFY">     1</i>
   <i type="int" name="NKREDLFZ">     1</i>
   <i type="int" name="MAXMEM">  2800</i>
   <i type="int" name="TELESCOPE">     0</i>
   <i type="int" name="TAUPAR">     1</i>
   <i type="int" name="OMEGAPAR">    -1</i>
   <i name="LAMBDA">      1.00000000</i>
  </separator>
  <separator name="External order field" >
   <i name="OFIELD_KAPPA">      0.00000000</i>
   <v name="OFIELD_K">      0.00000000      0.00000000      0.00000000</v>
   <i name="OFIELD_Q6_NEAR">      0.00000000</i>
   <i name="OFIELD_Q6_FAR">      0.00000000</i>
   <i name="OFIELD_A">      0.00000000</i>
  </separator>
 </parameters>
 <atominfo>
  <atoms>       1 </atoms>
  <types>       1 </types>
  <array name="atoms" >
   <dimension dim="1">ion</dimension>
   <field type="string">element</field>
   <field type="int">atomtype</field>
   <set>
    <rc><c>Au</c><c>   1</c></rc>
   </set>
  </array>
  <array name="atomtypes" >
   <dimension dim="1">type</dimension>
   <field type="int">atomspertype</field>
   <field type="string">element</field>
   <field>mass</field>
   <field>valence</field>
   <field type="string">pseudopotential</field>
   <set>
    <rc><c>   1</c><c>Au</c><c>    196.96600000</c><c>     11.00000000</c><c> PAW Au 04Feb1998                       </c></rc>
   </set>
  </array>
 </atominfo>
 <structure name="initialpos" >
  <crystal>
   <varray name="basis" >
    <v>       0.00000000       2.10000000       2.10000000 </v>
    <v>       2.10000000       0.00000000       2.10000000 </v>
    <v>       2.10000000       2.10000000       0.00000000 </v>
   </varray>
   <i name="volume">     18.52200000 </i>
   <varray name="rec_basis" >
    <v>      -0.23809524       0.23809524       0.23809524 </v>
    <v>       0.23809524      -0.23809524       0.23809524 </v>
    <v>       0.23809524       0.23809524      -0.23809524 </v>
   </varray>
  </crystal>
  <varray name="positions" >
   <v>       0.00000000       0.00000000       0.00000000 </v>
  </varray>
 </structure>
 <calculation>
  <scstep>
   <time name="dav">    0.30    0.91</time>
   <time name="total">    0.31    0.94</time>
   <energy>
    <i name="alphaZ">     99.22682972 </i>
    <i name="ewald">   -951.01733377 </i>
    <i name="hartreedc">    -98.91352097 </i>
    <i name="XCdc">     14.38832462 </i>
    <i name="pawpsdc">    718.59553418 </i>
    <i name="pawaedc">   -700.14916997 </i>
    <i name="eentropy">     -0.00119225 </i>
    <i name="bandstr">    -18.53032992 </i>
    <i name="atom">    929.39633208 </i>
    <i name="e_fr_energy">     -7.00452629 </i>
    <i name="e_wo_entrp">     -7.00333404 </i>
    <i name="e_0_energy">     -7.00412887 </i>
   </energy>
  </scstep>
  <scstep>
   <time name="dav">    0.30    0.92</time>
   <time name="total">    0.31    0.93</time>
   <energy>
    <i name="e_fr_energy">     -4.38861045 </i>
    <i name="e_wo_entrp">     -4.38962568 </i>
    <i name="e_0_energy">     -4.38894886 </i>
   </energy>
  </scstep>
  <scstep>
   <time name="dav">    0.30    0.91</time>
   <time name="total">    0.31    0.92</time>
   <energy>
    <i name="e_fr_energy">     -4.30344131 </i>
    <i name="e_wo_entrp">     -4.30438259 </i>
    <i name="e_0_energy">     -4.30375507 </i>
   </energy>
  </scstep>
  <scstep>
   <time name="dav">    0.31    0.92</time>
   <time name="total">    0.32    0.96</time>
   <energy>
    <i name="e_fr_energy">     -4.30374539 </i>
    <i name="e_wo_entrp">     -4.30469703 </i>
    <i name="e_0_energy">     -4.30406260 </i>
   </energy>
  </scstep>
  <scstep>
   <time name="dav">    0.32    0.96</time>
   <time name="total">    0.32    0.98</time>
   <energy>
    <i name="e_fr_energy">     -4.30416257 </i>
    <i name="e_wo_entrp">     -4.30511620 </i>
    <i name="e_0_energy">     -4.30448044 </i>
   </energy>
  </scstep>
  <scstep>
   <time name="dav">    0.31    0.94</time>
   <time name="total">    0.31    0.95</time>
   <energy>
    <i name="alphaZ">     99.22682972 </i>
    <i name="ewald">   -951.01733377 </i>
    <i name="hartreedc">   -122.49989576 </i>
    <i name="XCdc">     15.48590809 </i>
    <i name="pawpsdc">    740.54125616 </i>
    <i name="pawaedc">   -722.19530622 </i>
    <i name="eentropy">      0.00096064 </i>
    <i name="bandstr">      6.75705510 </i>
    <i name="atom">    929.39633208 </i>
    <i name="e_fr_energy">     -4.30419397 </i>
    <i name="e_wo_entrp">     -4.30515460 </i>
    <i name="e_0_energy">     -4.30451418 </i>
   </energy>
  </scstep>
  <structure>
   <crystal>
    <varray name="basis" >
     <v>       0.00000000       2.10000000       2.10000000 </v>
     <v>       2.10000000       0.00000000       2.10000000 </v>
     <v>       2.10000000       2.10000000       0.00000000 </v>
    </varray>
    <i name="volume">     18.52200000 </i>
    <varray name="rec_basis" >
     <v>      -0.23809524       0.23809524       0.23809524 </v>
     <v>       0.23809524      -0.23809524       0.23809524 </v>
     <v>       0.23809524       0.23809524      -0.23809524 </v>
    </varray>
   </crystal>
   <varray name="positions" >
    <v>       0.00000000       0.00000000       0.00000000 </v>
   </varray>
  </structure>
  <varray name="forces" >
   <v>       0.00000000       0.00000000       0.00000000 </v>
  </varray>
  <varray name="stress" >
   <v>    -176.83848931       0.00000000       0.00000000 </v>
   <v>      -0.00000000    -176.83848931       0.00000000 </v>
   <v>      -0.00000000       0.00000000    -176.83848931 </v>
  </varray>
  <energy>
   <i name="e_fr_energy">     -4.30419397 </i>
   <i name="e_wo_entrp">     -4.30451418 </i>
   <i name="e_0_energy">      0.00096064 </i>
  </energy>
  <time name="totalsc">    2.09    6.32</time>
  <eigenvalues>
   <array>
    <dimension dim="1">band</dimension>
    <dimension dim="2">kpoint</dimension>
    <dimension dim="3">spin</dimension>
    <field>eigene</field>
    <field>occ</field>
    <set>
     <set comment="spin 1">
      <set comment="kpoint 1">
       <r>   -4.5010    1.0000 </r>
       <r>    0.1875    1.0000 </r>
       <r>    0.2394    1.0000 </r>
       <r>    0.2394    1.0000 </r>
       <r>    1.5336    1.0000 </r>
       <r>    1.5336    1.0000 </r>
       <r>   19.8649    0.0000 </r>
       <r>   22.4452    0.0000 </r>
       <r>   23.1853    0.0000 </r>
       <r>   23.1853    0.0000 </r>
       <r>   27.8249    0.0000 </r>
       <r>   30.2121    0.0000 </r>
      </set>
      <set comment="kpoint 2">
       <r>   -4.0795    1.0000 </r>
       <r>    0.0589    1.0000 </r>
       <r>    0.3600    1.0000 </r>
       <r>    0.3878    1.0000 </r>
       <r>    1.4065    1.0000 </r>
       <r>    1.5772    1.0000 </r>
       <r>   19.9069    0.0000 </r>
       <r>   20.6216    0.0000 </r>
       <r>   22.6955    0.0000 </r>
       <r>   24.0157    0.0000 </r>
       <r>   26.9497    0.0000 </r>
       <r>   29.5140    0.0000 </r>
      </set>
      <set comment="kpoint 3">
       <r>   -3.1591    1.0000 </r>
       <r>   -0.0309    1.0000 </r>
       <r>    0.4944    1.0000 </r>
       <r>    0.5114    1.0000 </r>
       <r>    1.4192    1.0000 </r>
       <r>    1.7650    1.0000 </r>
       <r>   16.5160    0.0000 </r>
       <r>   20.5272    0.0000 </r>
       <r>   22.6708    0.0000 </r>
       <r>   24.9031    0.0000 </r>
       <r>   25.3128    0.0000 </r>
       <r>   27.3966    0.0000 </r>
      </set>
      <set comment="kpoint 4">
       <r>   -2.3135    1.0000 </r>
       <r>    0.3428    1.0000 </r>
       <r>    0.4137    1.0000 </r>
       <r>    0.5922    1.0000 </r>
       <r>    1.8405    1.0000 </r>
       <r>    2.2625    1.0000 </r>
       <r>   12.5637    0.0000 </r>
       <r>   19.9385    0.0000 </r>
       <r>   21.6799    0.0000 </r>
       <r>   23.6674    0.0000 </r>
       <r>   26.4042    0.0000 </r>
       <r>   27.3179    0.0000 </r>
      </set>
      <set comment="kpoint 5">
       <r>   -2.0873    1.0000 </r>
       <r>    0.2103    1.0000 </r>
       <r>    0.2699    1.0000 </r>
       <r>    1.9481    1.0000 </r>
       <r>    2.3509    1.0000 </r>
       <r>    3.1502    1.0000 </r>
       <r>    8.8990   -0.0000 </r>
       <r>   19.2988    0.0000 </r>
       <r>   20.8472    0.0000 </r>
       <r>   21.8953    0.0000 </r>
       <r>   27.8772    0.0000 </r>
       <r>   28.0276    0.0000 </r>
      </set>
      <set comment="kpoint 6">
       <r>   -2.0775    1.0000 </r>
       <r>    0.1534    1.0000 </r>
       <r>    0.2360    1.0000 </r>
       <r>    2.2457    1.0000 </r>
       <r>    2.5897    1.0000 </r>
       <r>    4.1621    1.0351 </r>
       <r>    7.2102   -0.0000 </r>
       <r>   19.1296    0.0000 </r>
       <r>   20.9115    0.0000 </r>
       <r>   21.0445    0.0000 </r>
       <r>   28.2454    0.0000 </r>
       <r>   28.2956    0.0000 </r>
      </set>
      <set comment="kpoint 7">
       <r>   -2.1168    1.0000 </r>
       <r>    0.2366    1.0000 </r>
       <r>    0.3304    1.0000 </r>
       <r>    1.4516    1.0000 </r>
       <r>    2.4176    1.0000 </r>
       <r>    2.6021    1.0000 </r>
       <r>   10.0433    0.0000 </r>
       <r>   19.5318    0.0000 </r>
       <r>   21.2535    0.0000 </r>
       <r>   22.0183    0.0000 </r>
       <r>   27.8113    0.0000 </r>
       <r>   28.0524    0.0000 </r>
      </set>
      <set comment="kpoint 8">
       <r>   -2.5307    1.0000 </r>
       <r>    0.2023    1.0000 </r>
       <r>    0.4331    1.0000 </r>
       <r>    0.4788    1.0000 </r>
       <r>    1.7699    1.0000 </r>
       <r>    1.9892    1.0000 </r>
       <r>   13.8758    0.0000 </r>
       <r>   20.3283    0.0000 </r>
       <r>   22.0745    0.0000 </r>
       <r>   23.7982    0.0000 </r>
       <r>   26.0638    0.0000 </r>
       <r>   27.8843    0.0000 </r>
      </set>
      <set comment="kpoint 9">
       <r>   -3.4990    1.0000 </r>
       <r>   -0.0459    1.0000 </r>
       <r>    0.4863    1.0000 </r>
       <r>    0.4956    1.0000 </r>
       <r>    1.3814    1.0000 </r>
       <r>    1.6552    1.0000 </r>
       <r>   17.8027    0.0000 </r>
       <r>   20.7180    0.0000 </r>
       <r>   22.6580    0.0000 </r>
       <r>   24.3771    0.0000 </r>
       <r>   25.7155    0.0000 </r>
       <r>   28.4170    0.0000 </r>
      </set>
      <set comment="kpoint 10">
       <r>   -4.2868    1.0000 </r>
       <r>    0.0960    1.0000 </r>
       <r>    0.3220    1.0000 </r>
       <r>    0.3264    1.0000 </r>
       <r>    1.4270    1.0000 </r>
       <r>    1.5833    1.0000 </r>
       <r>   20.0328    0.0000 </r>
       <r>   21.5429    0.0000 </r>
       <r>   22.8314    0.0000 </r>
       <r>   23.2612    0.0000 </r>
       <r>   28.1036    0.0000 </r>
       <r>   29.5791    0.0000 </r>
      </set>
      <set comment="kpoint 11">
       <r>   -3.8699    1.0000 </r>
       <r>   -0.0875    1.0000 </r>
       <r>    0.4961    1.0000 </r>
       <r>    0.4991    1.0000 </r>
       <r>    1.2436    1.0000 </r>
       <r>    1.6783    1.0000 </r>
       <r>   20.1719    0.0000 </r>
       <r>   20.7706    0.0000 </r>
       <r>   22.0381    0.0000 </r>
       <r>   22.7971    0.0000 </r>
       <r>   26.9849    0.0000 </r>
       <r>   29.1112    0.0000 </r>
      </set>
      <set comment="kpoint 12">
       <r>   -3.1068    1.0000 </r>
       <r>   -0.2968    1.0000 </r>
       <r>    0.5856    1.0000 </r>
       <r>    0.7413    1.0000 </r>
       <r>    1.2052    1.0000 </r>
       <r>    1.8704    1.0000 </r>
       <r>   18.0328    0.0000 </r>
       <r>   19.8492    0.0000 </r>
       <r>   21.9128    0.0000 </r>
       <r>   23.0998    0.0000 </r>
       <r>   24.9575    0.0000 </r>
       <r>   28.3541    0.0000 </r>
      </set>
      <set comment="kpoint 13">
       <r>   -2.1551    1.0000 </r>
       <r>   -0.2110    1.0000 </r>
       <r>    0.3321    1.0000 </r>
       <r>    0.7514    1.0000 </r>
       <r>    1.7822    1.0000 </r>
       <r>    2.3813    1.0000 </r>
       <r>   14.0990    0.0000 </r>
       <r>   19.2650    0.0000 </r>
       <r>   20.8982    0.0000 </r>
       <r>   22.5938    0.0000 </r>
       <r>   26.1744    0.0000 </r>
       <r>   28.1045    0.0000 </r>
      </set>
      <set comment="kpoint 14">
       <r>   -1.7753    1.0000 </r>
       <r>    0.0738    1.0000 </r>
       <r>    0.5483    1.0000 </r>
       <r>    0.6975    1.0000 </r>
       <r>    2.4108    1.0000 </r>
       <r>    3.4988    1.0000 </r>
       <r>   10.2613    0.0000 </r>
       <r>   18.9090    0.0000 </r>
       <r>   19.5501    0.0000 </r>
       <r>   21.4304    0.0000 </r>
       <r>   28.0375    0.0000 </r>
       <r>   28.9854    0.0000 </r>
      </set>
      <set comment="kpoint 15">
       <r>   -1.7476    1.0000 </r>
       <r>   -0.0371    1.0000 </r>
       <r>    0.4956    1.0000 </r>
       <r>    1.3651    1.0000 </r>
       <r>    2.5509    1.0000 </r>
       <r>    5.4054   -0.0000 </r>
       <r>    7.2335   -0.0000 </r>
       <r>   18.5201    0.0000 </r>
       <r>   19.1182    0.0000 </r>
       <r>   20.8688    0.0000 </r>
       <r>   28.2884    0.0000 </r>
       <r>   29.4167    0.0000 </r>
      </set>
      <set comment="kpoint 16">
       <r>   -1.7375    1.0000 </r>
       <r>    0.0311    1.0000 </r>
       <r>    0.5178    1.0000 </r>
       <r>    1.0853    1.0000 </r>
       <r>    2.2845    1.0000 </r>
       <r>    4.1610    1.0350 </r>
       <r>    9.1537   -0.0000 </r>
       <r>   18.0549    0.0000 </r>
       <r>   19.8094    0.0000 </r>
       <r>   21.6145    0.0000 </r>
       <r>   27.6447    0.0000 </r>
       <r>   29.0160    0.0000 </r>
      </set>
      <set comment="kpoint 17">
       <r>   -1.9249    1.0000 </r>
       <r>    0.0345    1.0000 </r>
       <r>    0.3031    1.0000 </r>
       <r>    0.6801    1.0000 </r>
       <r>    1.6985    1.0000 </r>
       <r>    2.8641    1.0000 </r>
       <r>   12.8088    0.0000 </r>
       <r>   18.2311    0.0000 </r>
       <r>   20.9279    0.0000 </r>
       <r>   23.3988    0.0000 </r>
       <r>   26.0417    0.0000 </r>
       <r>   28.1660    0.0000 </r>
      </set>
      <set comment="kpoint 18">
       <r>   -2.7748    1.0000 </r>
       <r>   -0.2559    1.0000 </r>
       <r>    0.4983    1.0000 </r>
       <r>    0.7608    1.0000 </r>
       <r>    1.1984    1.0000 </r>
       <r>    2.1010    1.0000 </r>
       <r>   16.6518    0.0000 </r>
       <r>   18.8431    0.0000 </r>
       <r>   22.5299    0.0000 </r>
       <r>   23.4859    0.0000 </r>
       <r>   26.1406    0.0000 </r>
       <r>   27.1212    0.0000 </r>
      </set>
      <set comment="kpoint 19">
       <r>   -3.6762    1.0000 </r>
       <r>   -0.0820    1.0000 </r>
       <r>    0.4998    1.0000 </r>
       <r>    0.5071    1.0000 </r>
       <r>    1.2776    1.0000 </r>
       <r>    1.6870    1.0000 </r>
       <r>   19.0820    0.0000 </r>
       <r>   20.3100    0.0000 </r>
       <r>   22.2806    0.0000 </r>
       <r>   24.0560    0.0000 </r>
       <r>   26.0459    0.0000 </r>
       <r>   28.8011    0.0000 </r>
      </set>
      <set comment="kpoint 20">
       <r>   -2.5919    1.0000 </r>
       <r>   -0.6050    1.0000 </r>
       <r>    0.7256    1.0000 </r>
       <r>    1.0723    1.0000 </r>
       <r>    1.2436    1.0000 </r>
       <r>    1.9710    1.0000 </r>
       <r>   18.4165    0.0000 </r>
       <r>   19.4745    0.0000 </r>
       <r>   20.9002    0.0000 </r>
       <r>   21.6017    0.0000 </r>
       <r>   22.1308    0.0000 </r>
       <r>   30.0010    0.0000 </r>
      </set>
      <set comment="kpoint 21">
       <r>   -1.8356    1.0000 </r>
       <r>   -0.7977    1.0000 </r>
       <r>    0.5083    1.0000 </r>
       <r>    1.3752    1.0000 </r>
       <r>    1.8208    1.0000 </r>
       <r>    2.3989    1.0000 </r>
       <r>   15.7548    0.0000 </r>
       <r>   17.6562    0.0000 </r>
       <r>   19.2756    0.0000 </r>
       <r>   21.8365    0.0000 </r>
       <r>   23.2346    0.0000 </r>
       <r>   29.9899    0.0000 </r>
      </set>
      <set comment="kpoint 22">
       <r>   -1.3899    1.0000 </r>
       <r>   -0.5595    1.0000 </r>
       <r>    0.2974    1.0000 </r>
       <r>    1.2621    1.0000 </r>
       <r>    2.4830    1.0000 </r>
       <r>    3.7369    1.0000 </r>
       <r>   11.8800    0.0000 </r>
       <r>   16.9578    0.0000 </r>
       <r>   17.6286    0.0000 </r>
       <r>   21.5838    0.0000 </r>
       <r>   26.2669    0.0000 </r>
       <r>   29.7759    0.0000 </r>
      </set>
      <set comment="kpoint 23">
       <r>   -1.2823    1.0000 </r>
       <r>   -0.3239    1.0000 </r>
       <r>    0.4883    1.0000 </r>
       <r>    1.0929    1.0000 </r>
       <r>    2.5819    1.0000 </r>
       <r>    6.0248   -0.0000 </r>
       <r>    8.4826   -0.0000 </r>
       <r>   15.7094    0.0000 </r>
       <r>   17.6947    0.0000 </r>
       <r>   21.3162    0.0000 </r>
       <r>   28.8698    0.0000 </r>
       <r>   30.1198    0.0000 </r>
      </set>
      <set comment="kpoint 24">
       <r>   -1.1353    1.0000 </r>
       <r>   -0.2720    1.0000 </r>
       <r>    0.5205    1.0000 </r>
       <r>    1.0026    1.0000 </r>
       <r>    2.2456    1.0000 </r>
       <r>    5.8720   -0.0000 </r>
       <r>    8.9401   -0.0000 </r>
       <r>   14.6902    0.0000 </r>
       <r>   18.8389    0.0000 </r>
       <r>   21.5054    0.0000 </r>
       <r>   28.1553    0.0000 </r>
       <r>   30.4035    0.0000 </r>
      </set>
      <set comment="kpoint 25">
       <r>   -1.0739    1.0000 </r>
       <r>   -0.2179    1.0000 </r>
       <r>    0.0262    1.0000 </r>
       <r>    1.0740    1.0000 </r>
       <r>    1.6601    1.0000 </r>
       <r>    4.1477    1.0336 </r>
       <r>   12.1754    0.0000 </r>
       <r>   14.5922    0.0000 </r>
       <r>   20.2029    0.0000 </r>
       <r>   22.6597    0.0000 </r>
       <r>   26.2492    0.0000 </r>
       <r>   30.1263    0.0000 </r>
      </set>
      <set comment="kpoint 26">
       <r>   -1.7949    1.0000 </r>
       <r>   -0.3195    1.0000 </r>
       <r>    0.2739    1.0000 </r>
       <r>    0.9630    1.0000 </r>
       <r>    1.3196    1.0000 </r>
       <r>    2.9381    1.0000 </r>
       <r>   14.2258    0.0000 </r>
       <r>   16.7359    0.0000 </r>
       <r>   21.3400    0.0000 </r>
       <r>   24.1158    0.0000 </r>
       <r>   24.9707    0.0000 </r>
       <r>   28.6151    0.0000 </r>
      </set>
      <set comment="kpoint 27">
       <r>   -2.6899    1.0000 </r>
       <r>   -0.0941    1.0000 </r>
       <r>    0.4738    1.0000 </r>
       <r>    0.5958    1.0000 </r>
       <r>    1.4783    1.0000 </r>
       <r>    2.0377    1.0000 </r>
       <r>   15.2814    0.0000 </r>
       <r>   20.0539    0.0000 </r>
       <r>   21.8604    0.0000 </r>
       <r>   24.1962    0.0000 </r>
       <r>   25.6401    0.0000 </r>
       <r>   27.3658    0.0000 </r>
      </set>
      <set comment="kpoint 28">
       <r>   -1.6779    1.0000 </r>
       <r>   -1.1277    1.0000 </r>
       <r>    1.3077    1.0000 </r>
       <r>    1.8283    1.0000 </r>
       <r>    2.2394    1.0000 </r>
       <r>    2.3255    1.0000 </r>
       <r>   15.6342    0.0000 </r>
       <r>   16.7887    0.0000 </r>
       <r>   16.8666    0.0000 </r>
       <r>   20.7643    0.0000 </r>
       <r>   22.6121    0.0000 </r>
       <r>   32.3810    0.0000 </r>
      </set>
      <set comment="kpoint 29">
       <r>   -1.5282    1.0000 </r>
       <r>   -1.2219    1.0000 </r>
       <r>    1.3371    1.0000 </r>
       <r>    2.0913    1.0000 </r>
       <r>    2.4965    1.0000 </r>
       <r>    3.8281    1.0001 </r>
       <r>   12.9494    0.0000 </r>
       <r>   15.1086    0.0000 </r>
       <r>   15.7547    0.0000 </r>
       <r>   21.6890    0.0000 </r>
       <r>   23.5207    0.0000 </r>
       <r>   31.8852    0.0000 </r>
      </set>
      <set comment="kpoint 30">
       <r>   -1.3778    1.0000 </r>
       <r>   -0.9386    1.0000 </r>
       <r>    1.0248    1.0000 </r>
       <r>    1.8321    1.0000 </r>
       <r>    2.6642    1.0000 </r>
       <r>    6.2487   -0.0000 </r>
       <r>    9.9945    0.0000 </r>
       <r>   13.3389    0.0000 </r>
       <r>   15.8892    0.0000 </r>
       <r>   21.9351    0.0000 </r>
       <r>   26.1353    0.0000 </r>
       <r>   30.8864    0.0000 </r>
      </set>
      <set comment="kpoint 31">
       <r>   -1.1250    1.0000 </r>
       <r>   -0.4837    1.0000 </r>
       <r>    0.5493    1.0000 </r>
       <r>    1.5481    1.0000 </r>
       <r>    2.3944    1.0000 </r>
       <r>    7.3620   -0.0000 </r>
       <r>    9.4606   -0.0000 </r>
       <r>   11.7351    0.0000 </r>
       <r>   17.0937    0.0000 </r>
       <r>   21.8264    0.0000 </r>
       <r>   29.3641    0.0000 </r>
       <r>   29.7487    0.0000 </r>
      </set>
      <set comment="kpoint 32">
       <r>   -0.8884    1.0000 </r>
       <r>   -0.2242    1.0000 </r>
       <r>    0.1207    1.0000 </r>
       <r>    1.2394    1.0000 </r>
       <r>    2.0430    1.0000 </r>
       <r>    5.6851   -0.0000 </r>
       <r>   10.7106    0.0000 </r>
       <r>   12.7230    0.0000 </r>
       <r>   18.7927    0.0000 </r>
       <r>   21.8157    0.0000 </r>
       <r>   27.9924    0.0000 </r>
       <r>   30.7079    0.0000 </r>
      </set>
      <set comment="kpoint 33">
       <r>   -1.4184    1.0000 </r>
       <r>   -0.0521    1.0000 </r>
       <r>    0.4122    1.0000 </r>
       <r>    0.8113    1.0000 </r>
       <r>    1.9702    1.0000 </r>
       <r>    4.1543    1.0344 </r>
       <r>   10.6379    0.0000 </r>
       <r>   16.2957    0.0000 </r>
       <r>   20.0415    0.0000 </r>
       <r>   22.1748    0.0000 </r>
       <r>   26.8892    0.0000 </r>
       <r>   29.5186    0.0000 </r>
      </set>
      <set comment="kpoint 34">
       <r>   -2.0553    1.0000 </r>
       <r>    0.2401    1.0000 </r>
       <r>    0.4532    1.0000 </r>
       <r>    0.7330    1.0000 </r>
       <r>    2.0877    1.0000 </r>
       <r>    2.7200    1.0000 </r>
       <r>   11.3583    0.0000 </r>
       <r>   19.5028    0.0000 </r>
       <r>   20.6827    0.0000 </r>
       <r>   22.6372    0.0000 </r>
       <r>   27.1749    0.0000 </r>
       <r>   27.9193    0.0000 </r>
      </set>
      <set comment="kpoint 35">
       <r>   -1.7526    1.0000 </r>
       <r>   -1.4758    1.0000 </r>
       <r>    2.4037    1.0000 </r>
       <r>    2.4421    1.0000 </r>
       <r>    2.6936    1.0000 </r>
       <r>    4.4224    0.4767 </r>
       <r>   11.4688    0.0000 </r>
       <r>   14.5711    0.0000 </r>
       <r>   14.9167    0.0000 </r>
       <r>   20.9827    0.0000 </r>
       <r>   23.1697    0.0000 </r>
       <r>   33.2364    0.0000 </r>
      </set>
      <set comment="kpoint 36">
       <r>   -1.6844    1.0000 </r>
       <r>   -1.4312    1.0000 </r>
       <r>    2.1236    1.0000 </r>
       <r>    2.3685    1.0000 </r>
       <r>    2.8157    1.0000 </r>
       <r>    6.3385   -0.0000 </r>
       <r>    9.6653   -0.0000 </r>
       <r>   13.5553    0.0000 </r>
       <r>   14.5120    0.0000 </r>
       <r>   21.8499    0.0000 </r>
       <r>   23.7455    0.0000 </r>
       <r>   32.3955    0.0000 </r>
      </set>
      <set comment="kpoint 37">
       <r>   -1.4218    1.0000 </r>
       <r>   -1.0195    1.0000 </r>
       <r>    1.2805    1.0000 </r>
       <r>    1.9747    1.0000 </r>
       <r>    2.6636    1.0000 </r>
       <r>    7.6596   -0.0000 </r>
       <r>    9.0662   -0.0000 </r>
       <r>   12.1405    0.0000 </r>
       <r>   15.5693    0.0000 </r>
       <r>   22.0738    0.0000 </r>
       <r>   26.1217    0.0000 </r>
       <r>   31.1127    0.0000 </r>
      </set>
      <set comment="kpoint 38">
       <r>   -1.1597    1.0000 </r>
       <r>   -0.4432    1.0000 </r>
       <r>    0.5108    1.0000 </r>
       <r>    1.3557    1.0000 </r>
       <r>    2.4959    1.0000 </r>
       <r>    7.3442   -0.0000 </r>
       <r>    8.1419   -0.0000 </r>
       <r>   13.6464    0.0000 </r>
       <r>   17.2919    0.0000 </r>
       <r>   21.6148    0.0000 </r>
       <r>   29.1257    0.0000 </r>
       <r>   29.9319    0.0000 </r>
      </set>
      <set comment="kpoint 39">
       <r>   -1.4587    1.0000 </r>
       <r>   -0.1789    1.0000 </r>
       <r>    0.7263    1.0000 </r>
       <r>    0.9513    1.0000 </r>
       <r>    2.4460    1.0000 </r>
       <r>    6.1114   -0.0000 </r>
       <r>    7.4378   -0.0000 </r>
       <r>   16.6850    0.0000 </r>
       <r>   18.9377    0.0000 </r>
       <r>   21.0943    0.0000 </r>
       <r>   28.2974    0.0000 </r>
       <r>   29.9633    0.0000 </r>
      </set>
      <set comment="kpoint 40">
       <r>   -1.9623    1.0000 </r>
       <r>    0.1045    1.0000 </r>
       <r>    0.3371    1.0000 </r>
       <r>    1.7384    1.0000 </r>
       <r>    2.5158    1.0000 </r>
       <r>    4.1666    1.0354 </r>
       <r>    7.9425   -0.0000 </r>
       <r>   19.1416    0.0000 </r>
       <r>   20.0673    0.0000 </r>
       <r>   21.1929    0.0000 </r>
       <r>   28.1374    0.0000 </r>
       <r>   28.6513    0.0000 </r>
      </set>
      <set comment="kpoint 41">
       <r>   -1.8167    1.0000 </r>
       <r>   -1.5504    1.0000 </r>
       <r>    2.4981    1.0000 </r>
       <r>    2.6696    1.0000 </r>
       <r>    2.8243    1.0000 </r>
       <r>    5.6691   -0.0000 </r>
       <r>    9.8250   -0.0000 </r>
       <r>   14.1267    0.0000 </r>
       <r>   14.4962    0.0000 </r>
       <r>   21.0655    0.0000 </r>
       <r>   23.2800    0.0000 </r>
       <r>   33.0683    0.0000 </r>
      </set>
      <set comment="kpoint 42">
       <r>   -1.6183    1.0000 </r>
       <r>   -1.3597    1.0000 </r>
       <r>    1.8154    1.0000 </r>
       <r>    2.3200    1.0000 </r>
       <r>    2.6874    1.0000 </r>
       <r>    5.0758   -0.0000 </r>
       <r>   11.2133    0.0000 </r>
       <r>   14.0715    0.0000 </r>
       <r>   14.9240    0.0000 </r>
       <r>   21.7759    0.0000 </r>
       <r>   23.6681    0.0000 </r>
       <r>   32.3032    0.0000 </r>
      </set>
      <set comment="kpoint 43">
       <r>   -1.3346    1.0000 </r>
       <r>   -0.7769    1.0000 </r>
       <r>    0.6427    1.0000 </r>
       <r>    1.5685    1.0000 </r>
       <r>    2.6226    1.0000 </r>
       <r>    4.8890   -0.0021 </r>
       <r>   10.8892    0.0000 </r>
       <r>   15.1414    0.0000 </r>
       <r>   16.5295    0.0000 </r>
       <r>   21.7309    0.0000 </r>
       <r>   26.1844    0.0000 </r>
       <r>   30.4301    0.0000 </r>
      </set>
      <set comment="kpoint 44">
       <r>   -1.5026    1.0000 </r>
       <r>   -0.1322    1.0000 </r>
       <r>    0.5204    1.0000 </r>
       <r>    0.8407    1.0000 </r>
       <r>    2.5679    1.0000 </r>
       <r>    4.6427   -0.0339 </r>
       <r>    9.2865   -0.0000 </r>
       <r>   17.7249    0.0000 </r>
       <r>   18.3052    0.0000 </r>
       <r>   21.1257    0.0000 </r>
       <r>   28.5375    0.0000 </r>
       <r>   30.0403    0.0000 </r>
      </set>
      <set comment="kpoint 45">
       <r>   -1.6683    1.0000 </r>
       <r>   -1.3317    1.0000 </r>
       <r>    1.9766    1.0000 </r>
       <r>    2.1750    1.0000 </r>
       <r>    2.5048    1.0000 </r>
       <r>    3.1334    1.0000 </r>
       <r>   13.5837    0.0000 </r>
       <r>   15.4374    0.0000 </r>
       <r>   15.7068    0.0000 </r>
       <r>   20.8489    0.0000 </r>
       <r>   22.9407    0.0000 </r>
       <r>   33.2875    0.0000 </r>
      </set>
      <set comment="kpoint 46">
       <r>   -1.5330    1.0000 </r>
       <r>   -1.0292    1.0000 </r>
       <r>    0.8103    1.0000 </r>
       <r>    1.7444    1.0000 </r>
       <r>    2.2300    1.0000 </r>
       <r>    2.9096    1.0000 </r>
       <r>   14.4570    0.0000 </r>
       <r>   16.4078    0.0000 </r>
       <r>   17.2229    0.0000 </r>
       <r>   21.6783    0.0000 </r>
       <r>   23.3403    0.0000 </r>
       <r>   31.0318    0.0000 </r>
      </set>
      <set comment="kpoint 47">
       <r>   -1.6705    1.0000 </r>
       <r>   -0.3567    1.0000 </r>
       <r>    0.1931    1.0000 </r>
       <r>    0.9783    1.0000 </r>
       <r>    2.1965    1.0000 </r>
       <r>    2.8890    1.0000 </r>
       <r>   12.9607    0.0000 </r>
       <r>   18.2028    0.0000 </r>
       <r>   19.4362    0.0000 </r>
       <r>   21.6999    0.0000 </r>
       <r>   26.3267    0.0000 </r>
       <r>   28.9769    0.0000 </r>
      </set>
      <set comment="kpoint 48">
       <r>   -1.9785    1.0000 </r>
       <r>   -0.8787    1.0000 </r>
       <r>    0.8133    1.0000 </r>
       <r>    1.4416    1.0000 </r>
       <r>    1.6670    1.0000 </r>
       <r>    2.1471    1.0000 </r>
       <r>   17.1645    0.0000 </r>
       <r>   18.0763    0.0000 </r>
       <r>   19.0886    0.0000 </r>
       <r>   20.8332    0.0000 </r>
       <r>   22.2225    0.0000 </r>
       <r>   31.0907    0.0000 </r>
      </set>
      <set comment="kpoint 49">
       <r>   -2.4398    1.0000 </r>
       <r>   -0.5452    1.0000 </r>
       <r>    0.5216    1.0000 </r>
       <r>    1.0347    1.0000 </r>
       <r>    1.4112    1.0000 </r>
       <r>    2.1032    1.0000 </r>
       <r>   16.9378    0.0000 </r>
       <r>   18.8728    0.0000 </r>
       <r>   21.2102    0.0000 </r>
       <r>   22.1680    0.0000 </r>
       <r>   23.6190    0.0000 </r>
       <r>   29.0039    0.0000 </r>
      </set>
      <set comment="kpoint 50">
       <r>   -3.2804    1.0000 </r>
       <r>   -0.3312    1.0000 </r>
       <r>    0.7069    1.0000 </r>
       <r>    0.7513    1.0000 </r>
       <r>    1.0775    1.0000 </r>
       <r>    1.8128    1.0000 </r>
       <r>   19.4685    0.0000 </r>
       <r>   20.8537    0.0000 </r>
       <r>   20.8888    0.0000 </r>
       <r>   22.0903    0.0000 </r>
       <r>   24.5458    0.0000 </r>
       <r>   29.2960    0.0000 </r>
      </set>
      <set comment="kpoint 51">
       <r>   -3.8819    1.0000 </r>
       <r>    0.0482    1.0000 </r>
       <r>    0.4027    1.0000 </r>
       <r>    0.4027    1.0000 </r>
       <r>    1.4942    1.0000 </r>
       <r>    1.4942    1.0000 </r>
       <r>   18.9485    0.0000 </r>
       <r>   20.6511    0.0000 </r>
       <r>   23.5927    0.0000 </r>
       <r>   23.5927    0.0000 </r>
       <r>   26.6629    0.0000 </r>
       <r>   28.8040    0.0000 </r>
      </set>
      <set comment="kpoint 52">
       <r>   -3.3013    1.0000 </r>
       <r>   -0.1267    1.0000 </r>
       <r>    0.5184    1.0000 </r>
       <r>    0.5830    1.0000 </r>
       <r>    1.2314    1.0000 </r>
       <r>    1.8282    1.0000 </r>
       <r>   17.8411    0.0000 </r>
       <r>   19.6800    0.0000 </r>
       <r>   22.5678    0.0000 </r>
       <r>   24.5376    0.0000 </r>
       <r>   25.5785    0.0000 </r>
       <r>   27.9575    0.0000 </r>
      </set>
      <set comment="kpoint 53">
       <r>   -2.3182    1.0000 </r>
       <r>   -0.2574    1.0000 </r>
       <r>    0.4349    1.0000 </r>
       <r>    0.8296    1.0000 </r>
       <r>    1.1569    1.0000 </r>
       <r>    2.4737    1.0000 </r>
       <r>   15.3817    0.0000 </r>
       <r>   17.8031    0.0000 </r>
       <r>   22.2793    0.0000 </r>
       <r>   24.0421    0.0000 </r>
       <r>   25.5453    0.0000 </r>
       <r>   27.6922    0.0000 </r>
      </set>
      <set comment="kpoint 54">
       <r>   -1.6752    1.0000 </r>
       <r>    0.0705    1.0000 </r>
       <r>    0.4353    1.0000 </r>
       <r>    0.6563    1.0000 </r>
       <r>    1.7349    1.0000 </r>
       <r>    3.4356    1.0000 </r>
       <r>   11.6550    0.0000 </r>
       <r>   17.2248    0.0000 </r>
       <r>   20.8376    0.0000 </r>
       <r>   22.8518    0.0000 </r>
       <r>   26.2260    0.0000 </r>
       <r>   28.7677    0.0000 </r>
      </set>
      <set comment="kpoint 55">
       <r>   -1.6323    1.0000 </r>
       <r>   -0.0467    1.0000 </r>
       <r>    0.5617    1.0000 </r>
       <r>    1.1758    1.0000 </r>
       <r>    2.3209    1.0000 </r>
       <r>    5.0160   -0.0001 </r>
       <r>    8.2139   -0.0000 </r>
       <r>   17.3055    0.0000 </r>
       <r>   20.1815    0.0000 </r>
       <r>   20.7393    0.0000 </r>
       <r>   28.1877    0.0000 </r>
       <r>   29.0413    0.0000 </r>
      </set>
      <set comment="kpoint 56">
       <r>   -1.6653    1.0000 </r>
       <r>   -0.0674    1.0000 </r>
       <r>    0.6033    1.0000 </r>
       <r>    1.0155    1.0000 </r>
       <r>    2.6170    1.0000 </r>
       <r>    5.0154   -0.0001 </r>
       <r>    8.0640   -0.0000 </r>
       <r>   18.1145    0.0000 </r>
       <r>   19.5579    0.0000 </r>
       <r>   20.2332    0.0000 </r>
       <r>   29.1397    0.0000 </r>
       <r>   29.2053    0.0000 </r>
      </set>
      <set comment="kpoint 57">
       <r>   -1.7494    1.0000 </r>
       <r>    0.0342    1.0000 </r>
       <r>    0.2152    1.0000 </r>
       <r>    0.7421    1.0000 </r>
       <r>    2.4882    1.0000 </r>
       <r>    3.0071    1.0000 </r>
       <r>   11.5384    0.0000 </r>
       <r>   19.3783    0.0000 </r>
       <r>   19.4265    0.0000 </r>
       <r>   20.8619    0.0000 </r>
       <r>   28.0492    0.0000 </r>
       <r>   29.2111    0.0000 </r>
      </set>
      <set comment="kpoint 58">
       <r>   -2.3378    1.0000 </r>
       <r>   -0.4307    1.0000 </r>
       <r>    0.4368    1.0000 </r>
       <r>    0.8569    1.0000 </r>
       <r>    1.7229    1.0000 </r>
       <r>    2.1018    1.0000 </r>
       <r>   15.5107    0.0000 </r>
       <r>   19.9306    0.0000 </r>
       <r>   20.6748    0.0000 </r>
       <r>   21.9337    0.0000 </r>
       <r>   24.9357    0.0000 </r>
       <r>   29.3029    0.0000 </r>
      </set>
      <set comment="kpoint 59">
       <r>   -2.9618    1.0000 </r>
       <r>   -0.2199    1.0000 </r>
       <r>    0.5364    1.0000 </r>
       <r>    0.6463    1.0000 </r>
       <r>    1.3978    1.0000 </r>
       <r>    1.8668    1.0000 </r>
       <r>   16.6584    0.0000 </r>
       <r>   20.7635    0.0000 </r>
       <r>   21.3525    0.0000 </r>
       <r>   23.7848    0.0000 </r>
       <r>   25.0641    0.0000 </r>
       <r>   28.6585    0.0000 </r>
      </set>
      <set comment="kpoint 60">
       <r>   -2.1582    1.0000 </r>
       <r>   -0.4401    1.0000 </r>
       <r>    0.3535    1.0000 </r>
       <r>    1.0092    1.0000 </r>
       <r>    1.3857    1.0000 </r>
       <r>    2.4560    1.0000 </r>
       <r>   15.5040    0.0000 </r>
       <r>   17.8288    0.0000 </r>
       <r>   21.2838    0.0000 </r>
       <r>   23.2359    0.0000 </r>
       <r>   25.1272    0.0000 </r>
       <r>   27.9367    0.0000 </r>
      </set>
      <set comment="kpoint 61">
       <r>   -1.2932    1.0000 </r>
       <r>   -0.4159    1.0000 </r>
       <r>    0.0218    1.0000 </r>
       <r>    1.2129    1.0000 </r>
       <r>    1.6498    1.0000 </r>
       <r>    3.5157    1.0000 </r>
       <r>   13.1728    0.0000 </r>
       <r>   15.6650    0.0000 </r>
       <r>   19.7428    0.0000 </r>
       <r>   23.7269    0.0000 </r>
       <r>   25.3229    0.0000 </r>
       <r>   29.1090    0.0000 </r>
      </set>
      <set comment="kpoint 62">
       <r>   -1.1599    1.0000 </r>
       <r>   -0.2574    1.0000 </r>
       <r>    0.3104    1.0000 </r>
       <r>    1.0442    1.0000 </r>
       <r>    2.2389    1.0000 </r>
       <r>    5.1020   -0.0000 </r>
       <r>    9.7628   -0.0000 </r>
       <r>   15.4474    0.0000 </r>
       <r>   18.3206    0.0000 </r>
       <r>   22.4646    0.0000 </r>
       <r>   27.2256    0.0000 </r>
       <r>   30.6657    0.0000 </r>
      </set>
      <set comment="kpoint 63">
       <r>   -1.2186    1.0000 </r>
       <r>   -0.3330    1.0000 </r>
       <r>    0.6051    1.0000 </r>
       <r>    0.9838    1.0000 </r>
       <r>    2.4862    1.0000 </r>
       <r>    6.7302   -0.0000 </r>
       <r>    7.5396   -0.0000 </r>
       <r>   15.9996    0.0000 </r>
       <r>   17.3416    0.0000 </r>
       <r>   22.0298    0.0000 </r>
       <r>   27.9673    0.0000 </r>
       <r>   31.2334    0.0000 </r>
      </set>
      <set comment="kpoint 64">
       <r>   -1.2629    1.0000 </r>
       <r>   -0.2472    1.0000 </r>
       <r>    0.0840    1.0000 </r>
       <r>    1.1524    1.0000 </r>
       <r>    2.3466    1.0000 </r>
       <r>    4.4028    0.5591 </r>
       <r>   10.7354    0.0000 </r>
       <r>   16.2772    0.0000 </r>
       <r>   17.8932    0.0000 </r>
       <r>   22.3762    0.0000 </r>
       <r>   27.1653    0.0000 </r>
       <r>   29.5090    0.0000 </r>
      </set>
      <set comment="kpoint 65">
       <r>   -1.5820    1.0000 </r>
       <r>   -0.6386    1.0000 </r>
       <r>    0.2073    1.0000 </r>
       <r>    1.3177    1.0000 </r>
       <r>    1.7422    1.0000 </r>
       <r>    2.9213    1.0000 </r>
       <r>   14.3753    0.0000 </r>
       <r>   16.7272    0.0000 </r>
       <r>   19.4551    0.0000 </r>
       <r>   23.0475    0.0000 </r>
       <r>   24.6206    0.0000 </r>
       <r>   28.8311    0.0000 </r>
      </set>
      <set comment="kpoint 66">
       <r>   -1.7745    1.0000 </r>
       <r>   -0.6473    1.0000 </r>
       <r>    0.3798    1.0000 </r>
       <r>    1.1219    1.0000 </r>
       <r>    2.3175    1.0000 </r>
       <r>    2.3317    1.0000 </r>
       <r>   14.3482    0.0000 </r>
       <r>   18.5595    0.0000 </r>
       <r>   19.3154    0.0000 </r>
       <r>   21.1287    0.0000 </r>
       <r>   24.7759    0.0000 </r>
       <r>   30.1629    0.0000 </r>
      </set>
      <set comment="kpoint 67">
       <r>   -1.2729    1.0000 </r>
       <r>   -0.8287    1.0000 </r>
       <r>    0.3051    1.0000 </r>
       <r>    1.6629    1.0000 </r>
       <r>    2.1120    1.0000 </r>
       <r>    3.6039    1.0000 </r>
       <r>   13.2536    0.0000 </r>
       <r>   15.6181    0.0000 </r>
       <r>   17.4949    0.0000 </r>
       <r>   22.9071    0.0000 </r>
       <r>   24.5450    0.0000 </r>
       <r>   29.6291    0.0000 </r>
      </set>
      <set comment="kpoint 68">
       <r>   -0.9457    1.0000 </r>
       <r>   -0.6876    1.0000 </r>
       <r>    0.1173    1.0000 </r>
       <r>    1.7361    1.0000 </r>
       <r>    2.3528    1.0000 </r>
       <r>    5.3474   -0.0000 </r>
       <r>   11.3515    0.0000 </r>
       <r>   13.6946    0.0000 </r>
       <r>   15.9988    0.0000 </r>
       <r>   24.0423    0.0000 </r>
       <r>   25.7554    0.0000 </r>
       <r>   29.3968    0.0000 </r>
      </set>
      <set comment="kpoint 69">
       <r>   -0.7991    1.0000 </r>
       <r>   -0.5388    1.0000 </r>
       <r>    0.1498    1.0000 </r>
       <r>    1.4200    1.0000 </r>
       <r>    2.5509    1.0000 </r>
       <r>    7.4664   -0.0000 </r>
       <r>    8.8123   -0.0000 </r>
       <r>   13.3010    0.0000 </r>
       <r>   15.4284    0.0000 </r>
       <r>   23.8423    0.0000 </r>
       <r>   27.5530    0.0000 </r>
       <r>   30.3504    0.0000 </r>
      </set>
      <set comment="kpoint 70">
       <r>   -0.5982    1.0000 </r>
       <r>   -0.5129    1.0000 </r>
       <r>   -0.1761    1.0000 </r>
       <r>    1.4913    1.0000 </r>
       <r>    2.3309    1.0000 </r>
       <r>    6.0401   -0.0000 </r>
       <r>   10.7400    0.0000 </r>
       <r>   12.7979    0.0000 </r>
       <r>   16.3624    0.0000 </r>
       <r>   24.1072    0.0000 </r>
       <r>   26.6278    0.0000 </r>
       <r>   30.3585    0.0000 </r>
      </set>
      <set comment="kpoint 71">
       <r>   -0.9675    1.0000 </r>
       <r>   -0.5253    1.0000 </r>
       <r>   -0.1082    1.0000 </r>
       <r>    1.5128    1.0000 </r>
       <r>    2.0161    1.0000 </r>
       <r>    4.2958    0.9224 </r>
       <r>   12.2175    0.0000 </r>
       <r>   14.6422    0.0000 </r>
       <r>   17.8340    0.0000 </r>
       <r>   23.7632    0.0000 </r>
       <r>   25.5723    0.0000 </r>
       <r>   29.3131    0.0000 </r>
      </set>
      <set comment="kpoint 72">
       <r>   -1.4693    1.0000 </r>
       <r>   -1.0564    1.0000 </r>
       <r>    1.0940    1.0000 </r>
       <r>    1.7401    1.0000 </r>
       <r>    2.6640    1.0000 </r>
       <r>    4.2461    1.0026 </r>
       <r>   11.9887    0.0000 </r>
       <r>   15.1247    0.0000 </r>
       <r>   16.3518    0.0000 </r>
       <r>   21.3768    0.0000 </r>
       <r>   24.6899    0.0000 </r>
       <r>   31.7435    0.0000 </r>
      </set>
      <set comment="kpoint 73">
       <r>   -1.3709    1.0000 </r>
       <r>   -1.1301    1.0000 </r>
       <r>    1.1130    1.0000 </r>
       <r>    2.1016    1.0000 </r>
       <r>    2.6570    1.0000 </r>
       <r>    5.8849   -0.0000 </r>
       <r>   10.8339    0.0000 </r>
       <r>   13.5070    0.0000 </r>
       <r>   14.7176    0.0000 </r>
       <r>   23.0475    0.0000 </r>
       <r>   24.6444    0.0000 </r>
       <r>   30.7621    0.0000 </r>
      </set>
      <set comment="kpoint 74">
       <r>   -1.1346    1.0000 </r>
       <r>   -0.8613    1.0000 </r>
       <r>    0.7163    1.0000 </r>
       <r>    1.7480    1.0000 </r>
       <r>    2.8116    1.0000 </r>
       <r>    8.0874   -0.0000 </r>
       <r>    9.4524   -0.0000 </r>
       <r>   12.1107    0.0000 </r>
       <r>   13.9529    0.0000 </r>
       <r>   24.5367    0.0000 </r>
       <r>   26.1458    0.0000 </r>
       <r>   29.3984    0.0000 </r>
      </set>
      <set comment="kpoint 75">
       <r>   -0.8390    1.0000 </r>
       <r>   -0.4563    1.0000 </r>
       <r>    0.1098    1.0000 </r>
       <r>    1.4719    1.0000 </r>
       <r>    2.6261    1.0000 </r>
       <r>    7.7658   -0.0000 </r>
       <r>    9.8132   -0.0000 </r>
       <r>   11.6300    0.0000 </r>
       <r>   15.0164    0.0000 </r>
       <r>   24.3398    0.0000 </r>
       <r>   27.8119    0.0000 </r>
       <r>   29.7493    0.0000 </r>
      </set>
      <set comment="kpoint 76">
       <r>   -0.9192    1.0000 </r>
       <r>   -0.4649    1.0000 </r>
       <r>    0.2184    1.0000 </r>
       <r>    1.2704    1.0000 </r>
       <r>    2.4263    1.0000 </r>
       <r>    6.2900   -0.0000 </r>
       <r>    9.0721   -0.0000 </r>
       <r>   14.5804    0.0000 </r>
       <r>   16.5652    0.0000 </r>
       <r>   23.1189    0.0000 </r>
       <r>   27.3770    0.0000 </r>
       <r>   30.8762    0.0000 </r>
      </set>
      <set comment="kpoint 77">
       <r>   -1.6003    1.0000 </r>
       <r>   -1.2818    1.0000 </r>
       <r>    1.8320    1.0000 </r>
       <r>    2.2070    1.0000 </r>
       <r>    2.7240    1.0000 </r>
       <r>    6.8787   -0.0000 </r>
       <r>    9.4188   -0.0000 </r>
       <r>   12.7413    0.0000 </r>
       <r>   15.2820    0.0000 </r>
       <r>   21.6829    0.0000 </r>
       <r>   24.7232    0.0000 </r>
       <r>   32.1805    0.0000 </r>
      </set>
      <set comment="kpoint 78">
       <r>   -1.4414    1.0000 </r>
       <r>   -1.1963    1.0000 </r>
       <r>    1.4183    1.0000 </r>
       <r>    2.0921    1.0000 </r>
       <r>    2.8130    1.0000 </r>
       <r>    7.2623   -0.0000 </r>
       <r>    9.4552   -0.0000 </r>
       <r>   12.8935    0.0000 </r>
       <r>   14.2505    0.0000 </r>
       <r>   23.1419    0.0000 </r>
       <r>   24.6843    0.0000 </r>
       <r>   31.0051    0.0000 </r>
      </set>
      <set comment="kpoint 79">
       <r>   -1.0528    1.0000 </r>
       <r>   -0.8068    1.0000 </r>
       <r>    0.4634    1.0000 </r>
       <r>    1.7967    1.0000 </r>
       <r>    2.6383    1.0000 </r>
       <r>    6.6509   -0.0000 </r>
       <r>   10.5047    0.0000 </r>
       <r>   12.7917    0.0000 </r>
       <r>   14.6096    0.0000 </r>
       <r>   24.3555    0.0000 </r>
       <r>   25.9621    0.0000 </r>
       <r>   29.4150    0.0000 </r>
      </set>
      <set comment="kpoint 80">
       <r>   -1.5433    1.0000 </r>
       <r>   -1.2050    1.0000 </r>
       <r>    1.5589    1.0000 </r>
       <r>    2.0222    1.0000 </r>
       <r>    2.7229    1.0000 </r>
       <r>    5.5566   -0.0000 </r>
       <r>   10.7204    0.0000 </r>
       <r>   13.5566    0.0000 </r>
       <r>   15.6483    0.0000 </r>
       <r>   21.5610    0.0000 </r>
       <r>   24.7045    0.0000 </r>
       <r>   32.0862    0.0000 </r>
      </set>
      <set comment="kpoint 81">
       <r>   -1.2733    1.0000 </r>
       <r>   -1.0010    1.0000 </r>
       <r>    0.6850    1.0000 </r>
       <r>    1.9623    1.0000 </r>
       <r>    2.4126    1.0000 </r>
       <r>    4.6005   -0.0144 </r>
       <r>   12.1083    0.0000 </r>
       <r>   14.5322    0.0000 </r>
       <r>   15.7908    0.0000 </r>
       <r>   22.9320    0.0000 </r>
       <r>   24.5872    0.0000 </r>
       <r>   30.2934    0.0000 </r>
      </set>
      <set comment="kpoint 82">
       <r>   -1.4862    1.0000 </r>
       <r>   -0.8599    1.0000 </r>
       <r>    0.6128    1.0000 </r>
       <r>    1.4235    1.0000 </r>
       <r>    2.5269    1.0000 </r>
       <r>    3.1550    1.0000 </r>
       <r>   13.1745    0.0000 </r>
       <r>   17.1473    0.0000 </r>
       <r>   17.3403    0.0000 </r>
       <r>   21.1948    0.0000 </r>
       <r>   24.6954    0.0000 </r>
       <r>   31.0541    0.0000 </r>
      </set>
      <set comment="kpoint 83">
       <r>   -2.8912    1.0000 </r>
       <r>    0.1178    1.0000 </r>
       <r>    0.4622    1.0000 </r>
       <r>    0.4622    1.0000 </r>
       <r>    1.6922    1.0000 </r>
       <r>    1.6922    1.0000 </r>
       <r>   15.1593    0.0000 </r>
       <r>   20.5679    0.0000 </r>
       <r>   23.5697    0.0000 </r>
       <r>   23.5697    0.0000 </r>
       <r>   26.0954    0.0000 </r>
       <r>   27.4544    0.0000 </r>
      </set>
      <set comment="kpoint 84">
       <r>   -2.3269    1.0000 </r>
       <r>    0.0097    1.0000 </r>
       <r>    0.4376    1.0000 </r>
       <r>    0.5865    1.0000 </r>
       <r>    1.4929    1.0000 </r>
       <r>    2.3978    1.0000 </r>
       <r>   13.9963    0.0000 </r>
       <r>   19.1704    0.0000 </r>
       <r>   21.6112    0.0000 </r>
       <r>   24.8574    0.0000 </r>
       <r>   25.1471    0.0000 </r>
       <r>   27.2876    0.0000 </r>
      </set>
      <set comment="kpoint 85">
       <r>   -1.4164    1.0000 </r>
       <r>   -0.2349    1.0000 </r>
       <r>    0.2134    1.0000 </r>
       <r>    0.9256    1.0000 </r>
       <r>    1.4094    1.0000 </r>
       <r>    3.4918    1.0000 </r>
       <r>   13.1182    0.0000 </r>
       <r>   15.6414    0.0000 </r>
       <r>   21.2991    0.0000 </r>
       <r>   23.0948    0.0000 </r>
       <r>   25.5465    0.0000 </r>
       <r>   29.6187    0.0000 </r>
      </set>
      <set comment="kpoint 86">
       <r>   -0.9582    1.0000 </r>
       <r>   -0.1490    1.0000 </r>
       <r>    0.1125    1.0000 </r>
       <r>    1.0681    1.0000 </r>
       <r>    1.7993    1.0000 </r>
       <r>    4.8468   -0.0048 </r>
       <r>   11.3696    0.0000 </r>
       <r>   13.5855    0.0000 </r>
       <r>   20.7403    0.0000 </r>
       <r>   20.9561    0.0000 </r>
       <r>   27.3995    0.0000 </r>
       <r>   30.0127    0.0000 </r>
      </set>
      <set comment="kpoint 87">
       <r>   -1.1564    1.0000 </r>
       <r>   -0.2976    1.0000 </r>
       <r>    0.5315    1.0000 </r>
       <r>    1.1268    1.0000 </r>
       <r>    2.3606    1.0000 </r>
       <r>    6.7615   -0.0000 </r>
       <r>    8.2480   -0.0000 </r>
       <r>   14.0874    0.0000 </r>
       <r>   18.7201    0.0000 </r>
       <r>   20.8538    0.0000 </r>
       <r>   29.4811    0.0000 </r>
       <r>   30.1522    0.0000 </r>
      </set>
      <set comment="kpoint 88">
       <r>   -1.3362    1.0000 </r>
       <r>   -0.5018    1.0000 </r>
       <r>    0.5423    1.0000 </r>
       <r>    1.2626    1.0000 </r>
       <r>    2.6634    1.0000 </r>
       <r>    5.3967   -0.0000 </r>
       <r>    9.6093   -0.0000 </r>
       <r>   15.4277    0.0000 </r>
       <r>   17.5189    0.0000 </r>
       <r>   21.0188    0.0000 </r>
       <r>   27.9198    0.0000 </r>
       <r>   30.5388    0.0000 </r>
      </set>
      <set comment="kpoint 89">
       <r>   -2.1278    1.0000 </r>
       <r>    0.1944    1.0000 </r>
       <r>    0.3025    1.0000 </r>
       <r>    0.5721    1.0000 </r>
       <r>    2.2053    1.0000 </r>
       <r>    2.2662    1.0000 </r>
       <r>   12.6695    0.0000 </r>
       <r>   20.1105    0.0000 </r>
       <r>   20.6453    0.0000 </r>
       <r>   22.2288    0.0000 </r>
       <r>   27.1429    0.0000 </r>
       <r>   28.5005    0.0000 </r>
      </set>
      <set comment="kpoint 90">
       <r>   -1.5466    1.0000 </r>
       <r>    0.0288    1.0000 </r>
       <r>    0.0433    1.0000 </r>
       <r>    0.8839    1.0000 </r>
       <r>    2.0503    1.0000 </r>
       <r>    3.4955    1.0000 </r>
       <r>   11.7168    0.0000 </r>
       <r>   17.2625    0.0000 </r>
       <r>   19.6498    0.0000 </r>
       <r>   22.5036    0.0000 </r>
       <r>   26.7518    0.0000 </r>
       <r>   29.0671    0.0000 </r>
      </set>
      <set comment="kpoint 91">
       <r>   -0.7790    1.0000 </r>
       <r>   -0.3169    1.0000 </r>
       <r>   -0.1684    1.0000 </r>
       <r>    1.3215    1.0000 </r>
       <r>    1.9912    1.0000 </r>
       <r>    4.9778   -0.0003 </r>
       <r>   11.3859    0.0000 </r>
       <r>   13.6330    0.0000 </r>
       <r>   18.2965    0.0000 </r>
       <r>   23.2114    0.0000 </r>
       <r>   26.5525    0.0000 </r>
       <r>   30.7844    0.0000 </r>
      </set>
      <set comment="kpoint 92">
       <r>   -0.8359    1.0000 </r>
       <r>   -0.3815    1.0000 </r>
       <r>    0.1234    1.0000 </r>
       <r>    1.4019    1.0000 </r>
       <r>    2.3404    1.0000 </r>
       <r>    6.6974   -0.0000 </r>
       <r>   10.1607    0.0000 </r>
       <r>   12.0749    0.0000 </r>
       <r>   16.8091    0.0000 </r>
       <r>   22.9726    0.0000 </r>
       <r>   27.9829    0.0000 </r>
       <r>   31.2970    0.0000 </r>
      </set>
      <set comment="kpoint 93">
       <r>   -1.1217    1.0000 </r>
       <r>   -0.6430    1.0000 </r>
       <r>    0.4852    1.0000 </r>
       <r>    1.6177    1.0000 </r>
       <r>    2.5926    1.0000 </r>
       <r>    6.9439   -0.0000 </r>
       <r>    9.3052   -0.0000 </r>
       <r>   13.2859    0.0000 </r>
       <r>   15.6836    0.0000 </r>
       <r>   22.8790    0.0000 </r>
       <r>   27.6161    0.0000 </r>
       <r>   29.5476    0.0000 </r>
      </set>
      <set comment="kpoint 94">
       <r>   -1.4714    1.0000 </r>
       <r>   -0.2530    1.0000 </r>
       <r>    0.3208    1.0000 </r>
       <r>    0.9788    1.0000 </r>
       <r>    2.6268    1.0000 </r>
       <r>    4.0927    1.0221 </r>
       <r>   10.5017    0.0000 </r>
       <r>   17.5388    0.0000 </r>
       <r>   18.3247    0.0000 </r>
       <r>   20.7713    0.0000 </r>
       <r>   28.1155    0.0000 </r>
       <r>   29.9231    0.0000 </r>
      </set>
      <set comment="kpoint 95">
       <r>   -1.1291    1.0000 </r>
       <r>   -0.4896    1.0000 </r>
       <r>    0.2494    1.0000 </r>
       <r>    1.4256    1.0000 </r>
       <r>    2.5119    1.0000 </r>
       <r>    5.5902   -0.0000 </r>
       <r>    9.9043    0.0000 </r>
       <r>   15.0101    0.0000 </r>
       <r>   16.4198    0.0000 </r>
       <r>   22.5889    0.0000 </r>
       <r>   27.4130    0.0000 </r>
       <r>   29.5630    0.0000 </r>
      </set>
      <set comment="kpoint 96">
       <r>   -0.7732    1.0000 </r>
       <r>   -0.4491    1.0000 </r>
       <r>   -0.0488    1.0000 </r>
       <r>    1.5216    1.0000 </r>
       <r>    2.6277    1.0000 </r>
       <r>    7.2804   -0.0000 </r>
       <r>   10.2550    0.0000 </r>
       <r>   12.0340    0.0000 </r>
       <r>   14.7212    0.0000 </r>
       <r>   25.1390    0.0000 </r>
       <r>   26.7342    0.0000 </r>
       <r>   29.6175    0.0000 </r>
      </set>
      <set comment="kpoint 97">
       <r>   -0.8802    1.0000 </r>
       <r>   -0.4423    1.0000 </r>
       <r>    0.0912    1.0000 </r>
       <r>    1.4832    1.0000 </r>
       <r>    2.8130    1.0000 </r>
       <r>    8.4108   -0.0000 </r>
       <r>    9.9947    0.0000 </r>
       <r>   11.2531    0.0000 </r>
       <r>   13.7831    0.0000 </r>
       <r>   25.8360    0.0000 </r>
       <r>   27.3129    0.0000 </r>
       <r>   28.4919    0.0000 </r>
      </set>
      <set comment="kpoint 98">
       <r>   -1.3098    1.0000 </r>
       <r>   -0.6719    1.0000 </r>
       <r>    0.8006    1.0000 </r>
       <r>    1.5539    1.0000 </r>
       <r>    2.6013    1.0000 </r>
       <r>    6.8193   -0.0000 </r>
       <r>    8.9594   -0.0000 </r>
       <r>   13.4026    0.0000 </r>
       <r>   16.9758    0.0000 </r>
       <r>   21.2945    0.0000 </r>
       <r>   27.7749    0.0000 </r>
       <r>   30.9717    0.0000 </r>
      </set>
      <set comment="kpoint 99">
       <r>   -1.1516    1.0000 </r>
       <r>   -0.7092    1.0000 </r>
       <r>    0.6677    1.0000 </r>
       <r>    1.6840    1.0000 </r>
       <r>    2.6359    1.0000 </r>
       <r>    8.0660   -0.0000 </r>
       <r>    9.1374   -0.0000 </r>
       <r>   11.7459    0.0000 </r>
       <r>   15.3798    0.0000 </r>
       <r>   23.0753    0.0000 </r>
       <r>   27.7725    0.0000 </r>
       <r>   29.5091    0.0000 </r>
      </set>
      <set comment="kpoint 100">
       <r>   -1.3214    1.0000 </r>
       <r>   -0.7531    1.0000 </r>
       <r>    0.9744    1.0000 </r>
       <r>    1.7748    1.0000 </r>
       <r>    2.5011    1.0000 </r>
       <r>    7.9209   -0.0000 </r>
       <r>    8.8261   -0.0000 </r>
       <r>   11.7695    0.0000 </r>
       <r>   16.7030    0.0000 </r>
       <r>   21.4702    0.0000 </r>
       <r>   27.7140    0.0000 </r>
       <r>   31.1866    0.0000 </r>
      </set>
      <set comment="kpoint 101">
       <r>   -2.2484    1.0000 </r>
       <r>    0.3269    1.0000 </r>
       <r>    0.3269    1.0000 </r>
       <r>    1.1944    1.0000 </r>
       <r>    2.1626    1.0000 </r>
       <r>    2.1626    1.0000 </r>
       <r>   11.2384    0.0000 </r>
       <r>   19.7497    0.0000 </r>
       <r>   22.4027    0.0000 </r>
       <r>   22.4027    0.0000 </r>
       <r>   27.5750    0.0000 </r>
       <r>   27.6171    0.0000 </r>
      </set>
      <set comment="kpoint 102">
       <r>   -1.9261    1.0000 </r>
       <r>    0.1732    1.0000 </r>
       <r>    0.4244    1.0000 </r>
       <r>    1.1026    1.0000 </r>
       <r>    2.0705    1.0000 </r>
       <r>    3.3184    1.0000 </r>
       <r>   10.1862    0.0000 </r>
       <r>   18.7736    0.0000 </r>
       <r>   20.3975    0.0000 </r>
       <r>   22.4165    0.0000 </r>
       <r>   27.1378    0.0000 </r>
       <r>   28.2425    0.0000 </r>
      </set>
      <set comment="kpoint 103">
       <r>   -1.2856    1.0000 </r>
       <r>   -0.1370    1.0000 </r>
       <r>    0.6013    1.0000 </r>
       <r>    0.8219    1.0000 </r>
       <r>    2.0540    1.0000 </r>
       <r>    4.9217   -0.0010 </r>
       <r>    9.7157   -0.0000 </r>
       <r>   15.4242    0.0000 </r>
       <r>   20.6230    0.0000 </r>
       <r>   20.7288    0.0000 </r>
       <r>   27.7469    0.0000 </r>
       <r>   29.5724    0.0000 </r>
      </set>
      <set comment="kpoint 104">
       <r>   -1.0361    1.0000 </r>
       <r>   -0.2688    1.0000 </r>
       <r>    0.3515    1.0000 </r>
       <r>    1.3622    1.0000 </r>
       <r>    2.1816    1.0000 </r>
       <r>    6.4763   -0.0000 </r>
       <r>   10.0811    0.0000 </r>
       <r>   12.0589    0.0000 </r>
       <r>   18.5732    0.0000 </r>
       <r>   21.1013    0.0000 </r>
       <r>   29.4969    0.0000 </r>
       <r>   30.4479    0.0000 </r>
      </set>
      <set comment="kpoint 105">
       <r>   -1.9182    1.0000 </r>
       <r>    0.0984    1.0000 </r>
       <r>    0.4252    1.0000 </r>
       <r>    1.2653    1.0000 </r>
       <r>    2.5764    1.0000 </r>
       <r>    3.6766    1.0000 </r>
       <r>    8.9819   -0.0000 </r>
       <r>   19.3189    0.0000 </r>
       <r>   20.2958    0.0000 </r>
       <r>   20.7276    0.0000 </r>
       <r>   28.5767    0.0000 </r>
       <r>   28.6955    0.0000 </r>
      </set>
      <set comment="kpoint 106">
       <r>   -1.4954    1.0000 </r>
       <r>   -0.1536    1.0000 </r>
       <r>    0.6887    1.0000 </r>
       <r>    0.9018    1.0000 </r>
       <r>    2.4554    1.0000 </r>
       <r>    5.3161   -0.0000 </r>
       <r>    8.2644   -0.0000 </r>
       <r>   17.3326    0.0000 </r>
       <r>   18.4058    0.0000 </r>
       <r>   21.5820    0.0000 </r>
       <r>   27.8836    0.0000 </r>
       <r>   30.2000    0.0000 </r>
      </set>
      <set comment="kpoint 107">
       <r>   -0.9607    1.0000 </r>
       <r>   -0.4369    1.0000 </r>
       <r>    0.3544    1.0000 </r>
       <r>    1.2268    1.0000 </r>
       <r>    2.4196    1.0000 </r>
       <r>    6.9846   -0.0000 </r>
       <r>    8.3749   -0.0000 </r>
       <r>   14.0591    0.0000 </r>
       <r>   16.9623    0.0000 </r>
       <r>   22.5834    0.0000 </r>
       <r>   27.9869    0.0000 </r>
       <r>   31.5048    0.0000 </r>
      </set>
      <set comment="kpoint 108">
       <r>   -1.3906    1.0000 </r>
       <r>   -0.2210    1.0000 </r>
       <r>    0.7657    1.0000 </r>
       <r>    0.8480    1.0000 </r>
       <r>    2.5348    1.0000 </r>
       <r>    6.5394   -0.0000 </r>
       <r>    7.3176   -0.0000 </r>
       <r>   16.1519    0.0000 </r>
       <r>   19.0398    0.0000 </r>
       <r>   20.4957    0.0000 </r>
       <r>   29.4162    0.0000 </r>
       <r>   29.6875    0.0000 </r>
      </set>
      <set comment="kpoint 109">
       <r>   -2.1391    1.0000 </r>
       <r>    0.2056    1.0000 </r>
       <r>    0.2056    1.0000 </r>
       <r>    2.5329    1.0000 </r>
       <r>    2.5329    1.0000 </r>
       <r>    3.2630    1.0000 </r>
       <r>    7.8711   -0.0000 </r>
       <r>   19.1674    0.0000 </r>
       <r>   21.4099    0.0000 </r>
       <r>   21.4099    0.0000 </r>
       <r>   28.0474    0.0000 </r>
       <r>   28.0474    0.0000 </r>
      </set>
      <set comment="kpoint 110">
       <r>   -1.9047    1.0000 </r>
       <r>    0.0611    1.0000 </r>
       <r>    0.3585    1.0000 </r>
       <r>    1.7470    1.0000 </r>
       <r>    2.5158    1.0000 </r>
       <r>    4.8865   -0.0022 </r>
       <r>    7.2354   -0.0000 </r>
       <r>   18.8204    0.0000 </r>
       <r>   20.0398    0.0000 </r>
       <r>   20.8282    0.0000 </r>
       <r>   28.4417    0.0000 </r>
       <r>   28.5851    0.0000 </r>
      </set>
     </set>
    </set>
   </array>
  </eigenvalues>
  <separator name="orbital magnetization" >
   <v name="MAGDIPOLOUT">      0.00000000      0.00000000      0.00000000</v>
  </separator>
  <dos>
   <i name="efermi">      4.41684745 </i>
   <total>
    <array>
     <dimension dim="1">gridpoints</dimension>
     <dimension dim="2">spin</dimension>
     <field>energy</field>
     <field>total</field>
     <field>integrated</field>
     <set>
      <set comment="spin 1">
       <r>    -6.5010     0.0000     0.0000 </r>
       <r>    -6.3617     0.0000     0.0000 </r>
       <r>    -6.2224    -0.0000    -0.0000 </r>
       <r>    -6.0831    -0.0000    -0.0000 </r>
       <r>    -5.9438    -0.0000    -0.0000 </r>
       <r>    -5.8045    -0.0000    -0.0000 </r>
       <r>    -5.6652    -0.0000    -0.0000 </r>
       <r>    -5.5259    -0.0000    -0.0000 </r>
       <r>    -5.3866    -0.0000    -0.0000 </r>
       <r>    -5.2473    -0.0000    -0.0000 </r>
       <r>    -5.1080    -0.0000    -0.0000 </r>
       <r>    -4.9687    -0.0001    -0.0000 </r>
       <r>    -4.8294    -0.0006    -0.0001 </r>
       <r>    -4.6901    -0.0005    -0.0002 </r>
       <r>    -4.5509     0.0066     0.0007 </r>
       <r>    -4.4116     0.0229     0.0039 </r>
       <r>    -4.2723     0.0470     0.0105 </r>
       <r>    -4.1330     0.0582     0.0186 </r>
       <r>    -3.9937     0.0601     0.0270 </r>
       <r>    -3.8544     0.0740     0.0373 </r>
       <r>    -3.7151     0.1026     0.0516 </r>
       <r>    -3.5758     0.1101     0.0669 </r>
       <r>    -3.4365     0.0780     0.0778 </r>
       <r>    -3.2972     0.1000     0.0917 </r>
       <r>    -3.1579     0.1691     0.1153 </r>
       <r>    -3.0186     0.1665     0.1385 </r>
       <r>    -2.8793     0.1193     0.1551 </r>
       <r>    -2.7400     0.1663     0.1782 </r>
       <r>    -2.6007     0.2075     0.2072 </r>
       <r>    -2.4614     0.2043     0.2356 </r>
       <r>    -2.3221     0.2688     0.2731 </r>
       <r>    -2.1828     0.3980     0.3285 </r>
       <r>    -2.0435     0.5556     0.4059 </r>
       <r>    -1.9042     0.6551     0.4972 </r>
       <r>    -1.7650     0.9070     0.6235 </r>
       <r>    -1.6257     1.2301     0.7948 </r>
       <r>    -1.4864     1.5856     1.0157 </r>
       <r>    -1.3471     1.9469     1.2869 </r>
       <r>    -1.2078     2.0364     1.5706 </r>
       <r>    -1.0685     1.9422     1.8411 </r>
       <r>    -0.9292     1.7522     2.0852 </r>
       <r>    -0.7899     1.6770     2.3188 </r>
       <r>    -0.6506     1.3935     2.5129 </r>
       <r>    -0.5113     1.4857     2.7198 </r>
       <r>    -0.3720     1.9644     2.9935 </r>
       <r>    -0.2327     2.1861     3.2980 </r>
       <r>    -0.0934     2.1781     3.6014 </r>
       <r>     0.0459     2.2984     3.9215 </r>
       <r>     0.1852     2.5455     4.2761 </r>
       <r>     0.3245     2.6859     4.6502 </r>
       <r>     0.4638     3.2553     5.1037 </r>
       <r>     0.6031     3.4919     5.5901 </r>
       <r>     0.7424     2.6424     5.9581 </r>
       <r>     0.8817     1.8284     6.2128 </r>
       <r>     1.0209     1.6958     6.4490 </r>
       <r>     1.1602     1.9398     6.7192 </r>
       <r>     1.2995     2.2669     7.0350 </r>
       <r>     1.4388     2.5599     7.3916 </r>
       <r>     1.5781     2.2139     7.7000 </r>
       <r>     1.7174     2.1079     7.9936 </r>
       <r>     1.8567     2.0989     8.2860 </r>
       <r>     1.9960     1.7612     8.5313 </r>
       <r>     2.1353     1.9047     8.7966 </r>
       <r>     2.2746     2.0327     9.0798 </r>
       <r>     2.4139     2.6143     9.4439 </r>
       <r>     2.5532     3.0998     9.8757 </r>
       <r>     2.6925     2.5834    10.2356 </r>
       <r>     2.8318     1.5403    10.4501 </r>
       <r>     2.9711     0.8137    10.5635 </r>
       <r>     3.1104     0.3280    10.6092 </r>
       <r>     3.2497     0.1325    10.6276 </r>
       <r>     3.3890     0.1825    10.6530 </r>
       <r>     3.5283     0.4107    10.7102 </r>
       <r>     3.6676     0.4248    10.7694 </r>
       <r>     3.8069     0.2527    10.8046 </r>
       <r>     3.9461     0.1114    10.8201 </r>
       <r>     4.0854     0.2345    10.8528 </r>
       <r>     4.2247     0.5363    10.9275 </r>
       <r>     4.3640     0.4238    10.9865 </r>
       <r>     4.5033     0.2209    11.0173 </r>
       <r>     4.6426     0.1857    11.0432 </r>
       <r>     4.7819     0.1824    11.0686 </r>
       <r>     4.9212     0.3224    11.1135 </r>
       <r>     5.0605     0.4514    11.1764 </r>
       <r>     5.1998     0.3061    11.2190 </r>
       <r>     5.3391     0.2595    11.2552 </r>
       <r>     5.4784     0.3155    11.2991 </r>
       <r>     5.6177     0.2747    11.3374 </r>
       <r>     5.7570     0.2459    11.3716 </r>
       <r>     5.8963     0.2503    11.4065 </r>
       <r>     6.0356     0.3209    11.4512 </r>
       <r>     6.1749     0.3255    11.4965 </r>
       <r>     6.3142     0.3074    11.5394 </r>
       <r>     6.4535     0.2282    11.5712 </r>
       <r>     6.5928     0.1954    11.5984 </r>
       <r>     6.7320     0.3377    11.6454 </r>
       <r>     6.8713     0.3595    11.6955 </r>
       <r>     7.0106     0.2492    11.7302 </r>
       <r>     7.1499     0.2138    11.7600 </r>
       <r>     7.2892     0.4889    11.8281 </r>
       <r>     7.4285     0.6161    11.9139 </r>
       <r>     7.5678     0.3957    11.9690 </r>
       <r>     7.7071     0.2201    11.9997 </r>
       <r>     7.8464     0.1846    12.0254 </r>
       <r>     7.9857     0.2679    12.0627 </r>
       <r>     8.1250     0.4097    12.1198 </r>
       <r>     8.2643     0.4165    12.1778 </r>
       <r>     8.4036     0.3585    12.2277 </r>
       <r>     8.5429     0.2352    12.2605 </r>
       <r>     8.6822     0.0650    12.2695 </r>
       <r>     8.8215     0.1437    12.2895 </r>
       <r>     8.9608     0.3643    12.3403 </r>
       <r>     9.1001     0.4753    12.4065 </r>
       <r>     9.2394     0.4213    12.4652 </r>
       <r>     9.3787     0.3859    12.5189 </r>
       <r>     9.5179     0.4000    12.5747 </r>
       <r>     9.6572     0.3172    12.6189 </r>
       <r>     9.7965     0.3563    12.6685 </r>
       <r>     9.9358     0.4118    12.7259 </r>
       <r>    10.0751     0.4105    12.7830 </r>
       <r>    10.2144     0.3853    12.8367 </r>
       <r>    10.3537     0.2692    12.8742 </r>
       <r>    10.4930     0.1584    12.8963 </r>
       <r>    10.6323     0.2896    12.9366 </r>
       <r>    10.7716     0.4915    13.0051 </r>
       <r>    10.9109     0.3806    13.0581 </r>
       <r>    11.0502     0.0993    13.0719 </r>
       <r>    11.1895     0.1202    13.0887 </r>
       <r>    11.3288     0.3988    13.1442 </r>
       <r>    11.4681     0.4348    13.2048 </r>
       <r>    11.6074     0.3219    13.2496 </r>
       <r>    11.7467     0.4269    13.3091 </r>
       <r>    11.8860     0.3771    13.3616 </r>
       <r>    12.0253     0.4135    13.4192 </r>
       <r>    12.1646     0.6477    13.5095 </r>
       <r>    12.3038     0.3987    13.5650 </r>
       <r>    12.4431     0.0367    13.5701 </r>
       <r>    12.5824     0.0373    13.5753 </r>
       <r>    12.7217     0.3034    13.6176 </r>
       <r>    12.8610     0.5513    13.6944 </r>
       <r>    13.0003     0.4394    13.7556 </r>
       <r>    13.1396     0.2951    13.7967 </r>
       <r>    13.2789     0.4288    13.8564 </r>
       <r>    13.4182     0.4515    13.9193 </r>
       <r>    13.5575     0.4662    13.9842 </r>
       <r>    13.6968     0.5365    14.0590 </r>
       <r>    13.8361     0.3416    14.1066 </r>
       <r>    13.9754     0.3054    14.1491 </r>
       <r>    14.1147     0.4892    14.2172 </r>
       <r>    14.2540     0.4432    14.2790 </r>
       <r>    14.3933     0.3640    14.3297 </r>
       <r>    14.5326     0.6096    14.4146 </r>
       <r>    14.6719     0.8027    14.5264 </r>
       <r>    14.8112     0.5032    14.5965 </r>
       <r>    14.9505     0.2942    14.6375 </r>
       <r>    15.0897     0.4052    14.6939 </r>
       <r>    15.2290     0.3936    14.7488 </r>
       <r>    15.3683     0.4645    14.8135 </r>
       <r>    15.5076     0.6989    14.9108 </r>
       <r>    15.6469     0.8404    15.0279 </r>
       <r>    15.7862     0.8160    15.1416 </r>
       <r>    15.9255     0.4812    15.2086 </r>
       <r>    16.0648     0.2437    15.2425 </r>
       <r>    16.2041     0.1935    15.2695 </r>
       <r>    16.3434     0.3853    15.3232 </r>
       <r>    16.4827     0.5231    15.3960 </r>
       <r>    16.6220     0.5451    15.4720 </r>
       <r>    16.7613     0.6298    15.5597 </r>
       <r>    16.9006     0.5647    15.6383 </r>
       <r>    17.0399     0.4505    15.7011 </r>
       <r>    17.1792     0.4539    15.7643 </r>
       <r>    17.3185     0.6159    15.8501 </r>
       <r>    17.4578     0.5004    15.9198 </r>
       <r>    17.5971     0.3735    15.9718 </r>
       <r>    17.7364     0.5248    16.0449 </r>
       <r>    17.8756     0.5798    16.1257 </r>
       <r>    18.0149     0.4218    16.1845 </r>
       <r>    18.1542     0.3925    16.2391 </r>
       <r>    18.2935     0.5414    16.3146 </r>
       <r>    18.4328     0.5368    16.3893 </r>
       <r>    18.5721     0.3116    16.4327 </r>
       <r>    18.7114     0.2541    16.4681 </r>
       <r>    18.8507     0.5302    16.5420 </r>
       <r>    18.9900     0.6319    16.6300 </r>
       <r>    19.1293     0.5676    16.7091 </r>
       <r>    19.2686     0.5858    16.7907 </r>
       <r>    19.4079     0.6318    16.8787 </r>
       <r>    19.5472     0.6750    16.9727 </r>
       <r>    19.6865     0.5037    17.0429 </r>
       <r>    19.8258     0.4026    17.0989 </r>
       <r>    19.9651     0.4784    17.1656 </r>
       <r>    20.1044     0.5963    17.2487 </r>
       <r>    20.2437     0.5510    17.3254 </r>
       <r>    20.3830     0.3571    17.3751 </r>
       <r>    20.5223     0.2234    17.4063 </r>
       <r>    20.6615     0.4798    17.4731 </r>
       <r>    20.8008     1.0069    17.6133 </r>
       <r>    20.9401     1.1402    17.7722 </r>
       <r>    21.0794     0.8169    17.8860 </r>
       <r>    21.2187     0.7321    17.9879 </r>
       <r>    21.3580     0.7611    18.0939 </r>
       <r>    21.4973     0.7196    18.1942 </r>
       <r>    21.6366     0.9576    18.3276 </r>
       <r>    21.7759     1.1341    18.4856 </r>
       <r>    21.9152     1.0081    18.6260 </r>
       <r>    22.0545     0.7837    18.7351 </r>
       <r>    22.1938     0.6407    18.8244 </r>
       <r>    22.3331     0.5016    18.8942 </r>
       <r>    22.4724     0.5601    18.9723 </r>
       <r>    22.6117     0.8426    19.0896 </r>
       <r>    22.7510     0.7190    19.1898 </r>
       <r>    22.8903     0.5294    19.2635 </r>
       <r>    23.0296     0.7476    19.3677 </r>
       <r>    23.1689     0.9354    19.4980 </r>
       <r>    23.3082     0.7602    19.6039 </r>
       <r>    23.4474     0.4459    19.6660 </r>
       <r>    23.5867     0.4286    19.7257 </r>
       <r>    23.7260     0.6021    19.8095 </r>
       <r>    23.8653     0.5310    19.8835 </r>
       <r>    24.0046     0.3821    19.9367 </r>
       <r>    24.1439     0.4787    20.0034 </r>
       <r>    24.2832     0.3761    20.0558 </r>
       <r>    24.4225     0.3117    20.0992 </r>
       <r>    24.5618     0.5423    20.1748 </r>
       <r>    24.7011     0.7281    20.2762 </r>
       <r>    24.8404     0.5003    20.3459 </r>
       <r>    24.9797     0.3761    20.3983 </r>
       <r>    25.1190     0.4009    20.4541 </r>
       <r>    25.2583     0.3075    20.4969 </r>
       <r>    25.3976     0.1816    20.5222 </r>
       <r>    25.5369     0.2302    20.5543 </r>
       <r>    25.6762     0.3665    20.6053 </r>
       <r>    25.8155     0.3049    20.6478 </r>
       <r>    25.9548     0.2875    20.6879 </r>
       <r>    26.0941     0.6547    20.7791 </r>
       <r>    26.2333     0.9199    20.9072 </r>
       <r>    26.3726     0.5530    20.9842 </r>
       <r>    26.5119     0.1963    21.0116 </r>
       <r>    26.6512     0.2359    21.0444 </r>
       <r>    26.7905     0.3089    21.0875 </r>
       <r>    26.9298     0.2464    21.1218 </r>
       <r>    27.0691     0.2815    21.1610 </r>
       <r>    27.2084     0.5276    21.2345 </r>
       <r>    27.3477     0.6828    21.3296 </r>
       <r>    27.4870     0.5688    21.4088 </r>
       <r>    27.6263     0.4274    21.4684 </r>
       <r>    27.7656     0.5660    21.5472 </r>
       <r>    27.9049     0.9258    21.6762 </r>
       <r>    28.0442     1.2270    21.8471 </r>
       <r>    28.1835     1.0658    21.9956 </r>
       <r>    28.3228     0.7112    22.0946 </r>
       <r>    28.4621     0.5191    22.1670 </r>
       <r>    28.6014     0.5440    22.2427 </r>
       <r>    28.7407     0.5210    22.3153 </r>
       <r>    28.8800     0.4948    22.3842 </r>
       <r>    29.0192     0.6706    22.4776 </r>
       <r>    29.1585     0.7147    22.5772 </r>
       <r>    29.2978     0.6014    22.6610 </r>
       <r>    29.4371     0.9182    22.7889 </r>
       <r>    29.5764     1.1753    22.9526 </r>
       <r>    29.7157     0.8479    23.0707 </r>
       <r>    29.8550     0.4754    23.1369 </r>
       <r>    29.9943     0.5235    23.2098 </r>
       <r>    30.1336     0.6401    23.2990 </r>
       <r>    30.2729     0.5664    23.3779 </r>
       <r>    30.4122     0.5236    23.4508 </r>
       <r>    30.5515     0.3635    23.5015 </r>
       <r>    30.6908     0.2894    23.5418 </r>
       <r>    30.8301     0.4298    23.6016 </r>
       <r>    30.9694     0.4847    23.6691 </r>
       <r>    31.1087     0.4885    23.7372 </r>
       <r>    31.2480     0.3823    23.7904 </r>
       <r>    31.3873     0.2125    23.8200 </r>
       <r>    31.5266     0.1109    23.8355 </r>
       <r>    31.6659     0.0737    23.8458 </r>
       <r>    31.8051     0.0854    23.8577 </r>
       <r>    31.9444     0.1150    23.8737 </r>
       <r>    32.0837     0.0930    23.8866 </r>
       <r>    32.2230     0.1292    23.9046 </r>
       <r>    32.3623     0.2257    23.9361 </r>
       <r>    32.5016     0.1809    23.9613 </r>
       <r>    32.6409     0.0318    23.9657 </r>
       <r>    32.7802    -0.0123    23.9640 </r>
       <r>    32.9195    -0.0006    23.9639 </r>
       <r>    33.0588     0.0366    23.9690 </r>
       <r>    33.1981     0.0884    23.9813 </r>
       <r>    33.3374     0.1006    23.9953 </r>
       <r>    33.4767     0.0388    24.0007 </r>
       <r>    33.6160    -0.0024    24.0004 </r>
       <r>    33.7553    -0.0025    24.0000 </r>
       <r>    33.8946    -0.0003    24.0000 </r>
       <r>    34.0339    -0.0000    24.0000 </r>
       <r>    34.1732    -0.0000    24.0000 </r>
       <r>    34.3125    -0.0000    24.0000 </r>
       <r>    34.4518    -0.0000    24.0000 </r>
       <r>    34.5910    -0.0000    24.0000 </r>
       <r>    34.7303     0.0000    24.0000 </r>
       <r>    34.8696     0.0000    24.0000 </r>
       <r>    35.0089     0.0000    24.0000 </r>
       <r>    35.1482     0.0000    24.0000 </r>
       <r>    35.2875     0.0000    24.0000 </r>
      </set>
     </set>
    </array>
   </total>
  </dos>
 </calculation>
 <structure name="finalpos" >
  <crystal>
   <varray name="basis" >
    <v>       0.00000000       2.10000000       2.10000000 </v>
    <v>       2.10000000       0.00000000       2.10000000 </v>
    <v>       2.10000000       2.10000000       0.00000000 </v>
   </varray>
   <i name="volume">     18.52200000 </i>
   <varray name="rec_basis" >
    <v>      -0.23809524       0.23809524       0.23809524 </v>
    <v>       0.23809524      -0.23809524       0.23809524 </v>
    <v>       0.23809524       0.23809524      -0.23809524 </v>
   </varray>
  </crystal>
  <varray name="positions" >
   <v>       0.00000000       0.00000000       0.00000000 </v>
  </varray>
 </structure>
</modeling>
