bcc Fe                                  
   2.84000000000000     
    -0.500000    0.500000    0.500000
     0.500000   -0.500000    0.500000
     0.500000    0.500000   -0.500000
   Fe
     1
Direct
  0.000000  0.000000  0.000000
 
   20   20   20
  97.020      91.380      76.433      56.872      37.605      22.023      11.664      6.4119      4.6467      4.0496    
  3.8596      4.0496      4.6467      6.4119      11.664      22.023      37.605      56.872      76.433      91.380    
  91.380      89.540      77.840      60.136      41.295      25.136      13.695      7.3342      4.8936      4.1416    
  3.8300      3.8905      4.3347      5.4015      8.9404      16.951      30.106      47.499      66.476      82.705    
  76.433      77.840      70.213      56.172      39.897      25.144      14.189      7.7256      5.0049      4.1450    
  3.7452      3.6927      3.9775      4.6381      6.5163      11.645      21.227      35.039      51.259      66.476    
  56.872      60.136      56.172      46.412      33.983      22.105      12.959      7.3717      4.8950      4.0519    
  3.6158      3.4852      3.6326      4.0908      4.9699      7.5434      13.359      22.852      35.039      47.499    
  37.605      41.295      39.897      33.983      25.608      17.198      10.553      6.4383      4.5821      3.8729    
  3.4562      3.2913      3.3431      3.6268      4.1803      5.2101      7.9555      13.359      21.227      30.106    
  22.023      25.136      25.144      22.105      17.198      12.029      7.8841      5.3352      4.1837      3.6370    
  3.2827      3.1242      3.1258      3.2826      3.6378      4.2128      5.2101      7.5434      11.645      16.951    
  11.664      13.695      14.189      12.959      10.553      7.8841      5.7337      4.4363      3.8042      3.3838    
  3.1129      2.9882      2.9760      3.0611      3.2676      3.6378      4.1803      4.9699      6.5163      8.9404    
  6.4119      7.3342      7.7256      7.3717      6.4383      5.3352      4.4363      3.8639      3.4583      3.1517    
  2.9646      2.8832      2.8793      2.9359      3.0611      3.2826      3.6268      4.0908      4.6381      5.4015    
  4.6467      4.8936      5.0049      4.8950      4.5821      4.1837      3.8042      3.4583      3.1716      2.9680    
  2.8517      2.8102      2.8239      2.8793      2.9760      3.1258      3.3431      3.6326      3.9775      4.3347    
  4.0496      4.1416      4.1450      4.0519      3.8729      3.6370      3.3838      3.1517      2.9680      2.8447    
  2.7823      2.7738      2.8102      2.8832      2.9882      3.1242      3.2913      3.4852      3.6927      3.8905    
  3.8596      3.8300      3.7452      3.6158      3.4562      3.2827      3.1129      2.9646      2.8517      2.7823    
  2.7590      2.7823      2.8517      2.9646      3.1129      3.2827      3.4562      3.6158      3.7452      3.8300    
  4.0496      3.8905      3.6927      3.4852      3.2913      3.1242      2.9882      2.8832      2.8102      2.7738    
  2.7823      2.8447      2.9680      3.1517      3.3838      3.6370      3.8729      4.0519      4.1450      4.1416    
  4.6467      4.3347      3.9775      3.6326      3.3431      3.1258      2.9760      2.8793      2.8239      2.8102    
  2.8517      2.9680      3.1716      3.4583      3.8042      4.1837      4.5821      4.8950      5.0049      4.8936    
  6.4119      5.4015      4.6381      4.0908      3.6268      3.2826      3.0611      2.9359      2.8793      2.8832    
  2.9646      3.1517      3.4583      3.8639      4.4363      5.3352      6.4383      7.3717      7.7256      7.3342    
  11.664      8.9404      6.5163      4.9699      4.1803      3.6378      3.2676      3.0611      2.9760      2.9882    
  3.1129      3.3838      3.8042      4.4363      5.7337      7.8841      10.553      12.959      14.189      13.695    
  22.023      16.951      11.645      7.5434      5.2101      4.2128      3.6378      3.2826      3.1258      3.1242    
  3.2827      3.6370      4.1837      5.3352      7.8841      12.029      17.198      22.105      25.144      25.136    
  37.605      30.106      21.227      13.359      7.9555      5.2101      4.1803      3.6268      3.3431      3.2913    
  3.4562      3.8729      4.5821      6.4383      10.553      17.198      25.608      33.983      39.897      41.295    
  56.872      47.499      35.039      22.852      13.359      7.5434      4.9699      4.0908      3.6326      3.4852    
  3.6158      4.0519      4.8950      7.3717      12.959      22.105      33.983      46.412      56.172      60.136    
  76.433      66.476      51.259      35.039      21.227      11.645      6.5163      4.6381      3.9775      3.6927    
  3.7452      4.1450      5.0049      7.7256      14.189      25.144      39.897      56.172      70.213      77.840    
  91.380      82.705      66.476      47.499      30.106      16.951      8.9404      5.4015      4.3347      3.8905    
  3.8300      4.1416      4.8936      7.3342      13.695      25.136      41.295      60.136      77.840      89.540    
  91.380      89.540      77.840      60.136      41.295      25.136      13.695      7.3342      4.8936      4.1416    
  3.8300      3.8905      4.3347      5.4015      8.9404      16.951      30.106      47.499      66.476      82.705    
  89.540      91.372      82.693      66.467      47.494      30.105      16.951      8.9405      5.4023      4.3358    
  3.8908      3.8291      4.1407      4.8937      7.3350      13.695      25.137      41.300      60.144      77.846    
  77.840      82.693      77.835      64.962      48.136      31.644      18.471      9.9323      5.7854      4.4311    
  3.8889      3.7168      3.8889      4.4311      5.7852      9.9319      18.471      31.646      48.142      64.969    
  60.136      66.467      64.962      56.173      43.029      29.223      17.666      9.8475      5.8267      4.4044    
  3.8208      3.5704      3.6232      3.9914      4.7284      6.8489      12.138      21.415      34.108      48.138    
  41.295      47.494      48.136      43.029      33.985      23.791      14.907      8.7326      5.4725      4.2534    
  3.6914      3.4083      3.3790      3.5939      4.0938      5.0111      7.5684      12.993      21.415      31.643    
  25.136      30.105      31.644      29.223      23.791      17.199      11.260      7.0855      4.8810      4.0074    
  3.5155      3.2461      3.1771      3.2838      3.5993      4.1549      5.1322      7.5689      12.138      18.470    
  13.695      16.951      18.471      17.666      14.907      11.260      7.8845      5.5217      4.2904      3.7128    
  3.3171      3.0954      3.0230      3.0704      3.2503      3.6068      4.1556      5.0120      6.8492      9.9314    
  7.3342      8.9405      9.9323      9.8475      8.7326      7.0855      5.5217      4.4358      3.8326      3.4172    
  3.1247      2.9648      2.9116      2.9377      3.0415      3.2508      3.5999      4.0941      4.7279      5.7842    
  4.8936      5.4023      5.7854      5.8267      5.4725      4.8810      4.2904      3.8326      3.4583      3.1608    
  2.9632      2.8620      2.8359      2.8635      2.9379      3.0707      3.2838      3.5932      3.9905      4.4303    
  4.1416      4.3358      4.4311      4.4044      4.2534      4.0074      3.7128      3.4172      3.1608      2.9681    
  2.8475      2.7938      2.7943      2.8359      2.9116      3.0227      3.1766      3.3784      3.6229      3.8893    
  3.8300      3.8908      3.8889      3.8208      3.6914      3.5155      3.3171      3.1247      2.9632      2.8475    
  2.7823      2.7657      2.7938      2.8619      2.9645      3.0951      3.2459      3.4085      3.5712      3.7179    
  3.8905      3.8291      3.7168      3.5704      3.4083      3.2461      3.0954      2.9648      2.8620      2.7938    
  2.7657      2.7823      2.8474      2.9630      3.1246      3.3172      3.5160      3.6922      3.8216      3.8893    
  4.3347      4.1407      3.8889      3.6232      3.3790      3.1771      3.0230      2.9116      2.8359      2.7943    
  2.7938      2.8474      2.9680      3.1608      3.4175      3.7133      4.0080      4.2538      4.4042      4.4303    
  5.4015      4.8937      4.4311      3.9914      3.5939      3.2838      3.0704      2.9377      2.8635      2.8359    
  2.8619      2.9630      3.1608      3.4586      3.8332      4.2909      4.8811      5.4720      5.8256      5.7842    
  8.9404      7.3350      5.7852      4.7284      4.0938      3.5993      3.2503      3.0415      2.9379      2.9116    
  2.9645      3.1246      3.4175      3.8332      4.4363      5.5216      7.0846      8.7313      9.8461      9.9314    
  16.951      13.695      9.9319      6.8489      5.0111      4.1549      3.6068      3.2508      3.0707      3.0227    
  3.0951      3.3172      3.7133      4.2909      5.5216      7.8835      11.258      14.905      17.665      18.470    
  30.106      25.137      18.471      12.138      7.5684      5.1322      4.1556      3.5999      3.2838      3.1766    
  3.2459      3.5160      4.0080      4.8811      7.0846      11.258      17.197      23.789      29.221      31.643    
  47.499      41.300      31.646      21.415      12.993      7.5689      5.0120      4.0941      3.5932      3.3784    
  3.4085      3.6922      4.2538      5.4720      8.7313      14.905      23.789      33.983      43.028      48.138    
  66.476      60.144      48.142      34.108      21.415      12.138      6.8492      4.7279      3.9905      3.6229    
  3.5712      3.8216      4.4042      5.8256      9.8461      17.665      29.221      43.028      56.176      64.969    
  82.705      77.846      64.969      48.138      31.643      18.470      9.9314      5.7842      4.4303      3.8893    
  3.7179      3.8893      4.4303      5.7842      9.9314      18.470      31.643      48.138      64.969      77.846    
  76.433      77.840      70.213      56.172      39.897      25.144      14.189      7.7256      5.0049      4.1450    
  3.7452      3.6927      3.9775      4.6381      6.5163      11.645      21.227      35.039      51.259      66.476    
  77.840      82.693      77.835      64.962      48.136      31.644      18.471      9.9323      5.7854      4.4311    
  3.8889      3.7168      3.8889      4.4311      5.7852      9.9319      18.471      31.646      48.142      64.969    
  70.213      77.835      76.424      66.468      51.254      35.038      21.228      11.646      6.5167      4.6381    
  3.9775      3.6927      3.7451      4.1450      5.0049      7.7255      14.190      25.146      39.901      56.176    
  56.172      64.962      66.468      60.137      48.140      34.109      21.417      12.140      6.8497      4.7279    
  3.9905      3.6229      3.5711      3.8216      4.4042      5.8256      9.8464      17.666      29.222      43.028    
  39.897      48.136      51.254      48.140      39.903      29.226      18.993      11.207      6.5963      4.6439    
  3.9179      3.5149      3.3909      3.5148      3.9180      4.6440      6.5960      11.206      18.990      29.221    
  25.144      31.644      35.038      34.109      29.226      22.109      14.908      9.2669      5.8728      4.3981    
  3.7665      3.3792      3.2233      3.2609      3.5048      3.9947      4.8128      6.9085      11.205      17.665    
  14.189      18.471      21.228      21.417      18.993      14.908      10.554      7.0845      5.0044      4.0734    
  3.5605      3.2293      3.0792      3.0726      3.2041      3.5122      4.0231      4.8128      6.5960      9.8461    
  7.7256      9.9323      11.646      12.140      11.207      9.2669      7.0845      5.3340      4.2899      3.7370    
  3.3359      3.0814      2.9622      2.9446      3.0137      3.1901      3.5121      3.9947      4.6440      5.8256    
  5.0049      5.7854      6.5167      6.8497      6.5963      5.8728      5.0044      4.2899      3.8039      3.4174    
  3.1283      2.9519      2.8726      2.8634      2.9083      3.0137      3.2040      3.5047      3.9179      4.4042    
  4.1450      4.4311      4.6381      4.7279      4.6439      4.3981      4.0734      3.7370      3.4174      3.1521    
  2.9632      2.8537      2.8115      2.8188      2.8634      2.9446      3.0727      3.2609      3.5148      3.8216    
  3.7452      3.8889      3.9775      3.9905      3.9179      3.7665      3.5605      3.3359      3.1283      2.9632    
  2.8518      2.7938      2.7830      2.8115      2.8726      2.9622      3.0792      3.2234      3.3910      3.5712    
  3.6927      3.7168      3.6927      3.6229      3.5149      3.3792      3.2293      3.0814      2.9519      2.8537    
  2.7938      2.7738      2.7938      2.8537      2.9519      3.0814      3.2293      3.3792      3.5148      3.6229    
  3.9775      3.8889      3.7451      3.5711      3.3909      3.2233      3.0792      2.9622      2.8726      2.8115    
  2.7830      2.7938      2.8517      2.9632      3.1283      3.3359      3.5606      3.7665      3.9179      3.9905    
  4.6381      4.4311      4.1450      3.8216      3.5148      3.2609      3.0726      2.9446      2.8634      2.8188    
  2.8115      2.8537      2.9632      3.1521      3.4175      3.7372      4.0737      4.3983      4.6440      4.7279    
  6.5163      5.7852      5.0049      4.4042      3.9180      3.5048      3.2041      3.0137      2.9083      2.8634    
  2.8726      2.9519      3.1283      3.4175      3.8043      4.2905      5.0048      5.8728      6.5960      6.8492    
  11.645      9.9319      7.7255      5.8256      4.6440      3.9947      3.5122      3.1901      3.0137      2.9446    
  2.9622      3.0814      3.3359      3.7372      4.2905      5.3346      7.0846      9.2660      11.205      12.138    
  21.227      18.471      14.190      9.8464      6.5960      4.8128      4.0231      3.5121      3.2040      3.0727    
  3.0792      3.2293      3.5606      4.0737      5.0048      7.0846      10.552      14.905      18.990      21.415    
  35.039      31.646      25.146      17.666      11.206      6.9085      4.8128      3.9947      3.5047      3.2609    
  3.2234      3.3792      3.7665      4.3983      5.8728      9.2660      14.905      22.105      29.222      34.108    
  51.259      48.142      39.901      29.222      18.990      11.205      6.5960      4.6440      3.9179      3.5148    
  3.3910      3.5148      3.9179      4.6440      6.5960      11.205      18.990      29.222      39.901      48.142    
  66.476      64.969      56.176      43.028      29.221      17.665      9.8461      5.8256      4.4042      3.8216    
  3.5712      3.6229      3.9905      4.7279      6.8492      12.138      21.415      34.108      48.142      60.144    
  56.872      60.136      56.172      46.412      33.983      22.105      12.959      7.3717      4.8950      4.0519    
  3.6158      3.4852      3.6326      4.0908      4.9699      7.5434      13.359      22.852      35.039      47.499    
  60.136      66.467      64.962      56.173      43.029      29.223      17.666      9.8475      5.8267      4.4044    
  3.8208      3.5704      3.6232      3.9914      4.7284      6.8489      12.138      21.415      34.108      48.138    
  56.172      64.962      66.468      60.137      48.140      34.109      21.417      12.140      6.8497      4.7279    
  3.9905      3.6229      3.5711      3.8216      4.4042      5.8256      9.8464      17.666      29.222      43.028    
  46.412      56.173      60.137      56.874      47.501      35.041      22.855      13.360      7.5435      4.9689    
  4.0900      3.6329      3.4860      3.6160      4.0512      4.8941      7.3713      12.959      22.105      33.983    
  33.983      43.029      48.140      47.501      41.303      31.649      21.418      12.994      7.5682      5.0107    
  4.0936      3.5938      3.3790      3.4083      3.6914      4.2533      5.4723      8.7318      14.905      23.789    
  22.105      29.223      34.109      35.041      31.649      25.149      17.667      11.205      6.9069      4.8115    
  3.9947      3.5054      3.2611      3.2229      3.3787      3.7668      4.3990      5.8734      9.2660      14.905    
  12.959      17.666      21.417      22.855      21.418      17.667      12.959      8.7299      5.8713      4.4556    
  3.8102      3.3764      3.1423      3.0726      3.1424      3.3765      3.8105      4.4565      5.8728      8.7313    
  7.3717      9.8475      12.140      13.360      12.994      11.205      8.7299      6.4357      4.8794      4.0734    
  3.5764      3.2257      3.0308      2.9597      2.9841      3.1115      3.3784      3.8099      4.3983      5.4720    
  4.8950      5.8267      6.8497      7.5435      7.5682      6.9069      5.8713      4.8794      4.1828      3.7131    
  3.3359      3.0771      2.9342      2.8798      2.8891      2.9591      3.1111      3.3759      3.7665      4.2538    
  4.0519      4.4044      4.7279      4.9689      5.0107      4.8115      4.4556      4.0734      3.7131      3.3843    
  3.1248      2.9518      2.8593      2.8279      2.8398      2.8890      2.9840      3.1424      3.3792      3.6922    
  3.6158      3.8208      3.9905      4.0900      4.0936      3.9947      3.8102      3.5764      3.3359      3.1248    
  2.9647      2.8619      2.8115      2.8034      2.8280      2.8799      2.9599      3.0730      3.2234      3.4085    
  3.4852      3.5704      3.6229      3.6329      3.5938      3.5054      3.3764      3.2257      3.0771      2.9518    
  2.8619      2.8101      2.7943      2.8116      2.8595      2.9344      3.0310      3.1424      3.2609      3.3784    
  3.6326      3.6232      3.5711      3.4860      3.3790      3.2611      3.1423      3.0308      2.9342      2.8593    
  2.8115      2.7943      2.8102      2.8620      2.9519      3.0770      3.2254      3.3759      3.5047      3.5932    
  4.0908      3.9914      3.8216      3.6160      3.4083      3.2229      3.0726      2.9597      2.8798      2.8279    
  2.8034      2.8116      2.8620      2.9647      3.1246      3.3355      3.5760      3.8099      3.9947      4.0941    
  4.9699      4.7284      4.4042      4.0512      3.6914      3.3787      3.1424      2.9841      2.8891      2.8398    
  2.8280      2.8595      2.9519      3.1246      3.3838      3.7128      4.0737      4.4565      4.8128      5.0120    
  7.5434      6.8489      5.8256      4.8941      4.2533      3.7668      3.3765      3.1115      2.9591      2.8890    
  2.8799      2.9344      3.0770      3.3355      3.7128      4.1834      4.8811      5.8734      6.9085      7.5689    
  13.359      12.138      9.8464      7.3713      5.4723      4.3990      3.8105      3.3784      3.1111      2.9840    
  2.9599      3.0310      3.2254      3.5760      4.0737      4.8811      6.4381      8.7318      11.206      12.993    
  22.852      21.415      17.666      12.959      8.7318      5.8734      4.4565      3.8099      3.3759      3.1424    
  3.0730      3.1424      3.3759      3.8099      4.4565      5.8734      8.7318      12.959      17.666      21.415    
  35.039      34.108      29.222      22.105      14.905      9.2660      5.8728      4.3983      3.7665      3.3792    
  3.2234      3.2609      3.5047      3.9947      4.8128      6.9085      11.206      17.666      25.146      31.646    
  47.499      48.138      43.028      33.983      23.789      14.905      8.7313      5.4720      4.2538      3.6922    
  3.4085      3.3784      3.5932      4.0941      5.0120      7.5689      12.993      21.415      31.646      41.300    
  37.605      41.295      39.897      33.983      25.608      17.198      10.553      6.4383      4.5821      3.8729    
  3.4562      3.2913      3.3431      3.6268      4.1803      5.2101      7.9555      13.359      21.227      30.106    
  41.295      47.494      48.136      43.029      33.985      23.791      14.907      8.7326      5.4725      4.2534    
  3.6914      3.4083      3.3790      3.5939      4.0938      5.0111      7.5684      12.993      21.415      31.643    
  39.897      48.136      51.254      48.140      39.903      29.226      18.993      11.207      6.5963      4.6439    
  3.9179      3.5149      3.3909      3.5148      3.9180      4.6440      6.5960      11.206      18.990      29.221    
  33.983      43.029      48.140      47.501      41.303      31.649      21.418      12.994      7.5682      5.0107    
  4.0936      3.5938      3.3790      3.4083      3.6914      4.2533      5.4723      8.7318      14.905      23.789    
  25.608      33.985      39.903      41.303      37.613      30.111      21.229      13.358      7.9542      5.2091    
  4.1799      3.6267      3.3431      3.2913      3.4562      3.8729      4.5821      6.4381      10.552      17.197    
  17.198      23.791      29.226      31.649      30.111      25.140      18.471      12.136      7.5659      5.1307    
  4.1550      3.5998      3.2838      3.1766      3.2459      3.5160      4.0080      4.8811      7.0846      11.258    
  10.553      14.907      18.993      21.418      21.229      18.471      14.187      9.8426      6.5930      4.8112    
  4.0227      3.5121      3.2040      3.0727      3.0792      3.2293      3.5606      4.0737      5.0048      7.0846    
  6.4383      8.7326      11.207      12.994      13.358      12.136      9.8426      7.3676      5.4699      4.3982    
  3.8106      3.3786      3.1112      2.9840      2.9599      3.0311      3.2254      3.5760      4.0737      4.8811    
  4.5821      5.4725      6.5963      7.5682      7.9542      7.5659      6.5930      5.4699      4.5811      4.0081    
  3.5611      3.2258      3.0170      2.9127      2.8823      2.9127      3.0169      3.2254      3.5606      4.0080    
  3.8729      4.2534      4.6439      5.0107      5.2091      5.1307      4.8112      4.3982      4.0081      3.6380    
  3.3177      3.0814      2.9343      2.8601      2.8373      2.8537      2.9126      3.0310      3.2293      3.5160    
  3.4562      3.6914      3.9179      4.0936      4.1799      4.1550      4.0227      3.8106      3.5611      3.3177    
  3.1134      2.9647      2.8726      2.8280      2.8189      2.8373      2.8823      2.9599      3.0792      3.2459    
  3.2913      3.4083      3.5149      3.5938      3.6267      3.5998      3.5121      3.3786      3.2258      3.0814    
  2.9647      2.8831      2.8359      2.8189      2.8280      2.8601      2.9126      2.9840      3.0727      3.1766    
  3.3431      3.3790      3.3909      3.3790      3.3431      3.2838      3.2040      3.1112      3.0170      2.9343    
  2.8726      2.8359      2.8239      2.8359      2.8726      2.9342      3.0169      3.1111      3.2040      3.2838    
  3.6268      3.5939      3.5148      3.4083      3.2913      3.1766      3.0727      2.9840      2.9127      2.8601    
  2.8280      2.8189      2.8359      2.8831      2.9645      3.0810      3.2254      3.3784      3.5121      3.5999    
  4.1803      4.0938      3.9180      3.6914      3.4562      3.2459      3.0792      2.9599      2.8823      2.8373    
  2.8189      2.8280      2.8726      2.9645      3.1129      3.3170      3.5606      3.8105      4.0231      4.1556    
  5.2101      5.0111      4.6440      4.2533      3.8729      3.5160      3.2293      3.0311      2.9127      2.8537    
  2.8373      2.8601      2.9342      3.0810      3.3170      3.6373      4.0080      4.3990      4.8128      5.1322    
  7.9555      7.5684      6.5960      5.4723      4.5821      4.0080      3.5606      3.2254      3.0169      2.9126    
  2.8823      2.9126      3.0169      3.2254      3.5606      4.0080      4.5821      5.4723      6.5960      7.5684    
  13.359      12.993      11.206      8.7318      6.4381      4.8811      4.0737      3.5760      3.2254      3.0310    
  2.9599      2.9840      3.1111      3.3784      3.8105      4.3990      5.4723      7.3713      9.8464      12.138    
  21.227      21.415      18.990      14.905      10.552      7.0846      5.0048      4.0737      3.5606      3.2293    
  3.0792      3.0727      3.2040      3.5121      4.0231      4.8128      6.5960      9.8464      14.190      18.471    
  30.106      31.643      29.221      23.789      17.197      11.258      7.0846      4.8811      4.0080      3.5160    
  3.2459      3.1766      3.2838      3.5999      4.1556      5.1322      7.5684      12.138      18.471      25.137    
  22.023      25.136      25.144      22.105      17.198      12.029      7.8841      5.3352      4.1837      3.6370    
  3.2827      3.1242      3.1258      3.2826      3.6378      4.2128      5.2101      7.5434      11.645      16.951    
  25.136      30.105      31.644      29.223      23.791      17.199      11.260      7.0855      4.8810      4.0074    
  3.5155      3.2461      3.1771      3.2838      3.5993      4.1549      5.1322      7.5689      12.138      18.470    
  25.144      31.644      35.038      34.109      29.226      22.109      14.908      9.2669      5.8728      4.3981    
  3.7665      3.3792      3.2233      3.2609      3.5048      3.9947      4.8128      6.9085      11.205      17.665    
  22.105      29.223      34.109      35.041      31.649      25.149      17.667      11.205      6.9069      4.8115    
  3.9947      3.5054      3.2611      3.2229      3.3787      3.7668      4.3990      5.8734      9.2660      14.905    
  17.198      23.791      29.226      31.649      30.111      25.140      18.471      12.136      7.5659      5.1307    
  4.1550      3.5998      3.2838      3.1766      3.2459      3.5160      4.0080      4.8811      7.0846      11.258    
  12.029      17.199      22.109      25.149      25.140      22.024      16.948      11.640      7.5394      5.2087    
  4.2131      3.6381      3.2823      3.1254      3.1243      3.2832      3.6373      4.1834      5.3346      7.8835    
  7.8841      11.260      14.908      17.667      18.471      16.948      13.690      9.9260      6.8455      5.0106    
  4.1557      3.6072      3.2505      3.0705      3.0230      3.0953      3.3170      3.7128      4.2905      5.5216    
  5.3352      7.0855      9.2669      11.205      12.136      11.640      9.9260      7.7212      5.8244      4.6449    
  3.9959      3.5126      3.1900      3.0137      2.9448      2.9622      3.0810      3.3355      3.7372      4.2909    
  4.1837      4.8810      5.8728      6.9069      7.5659      7.5394      6.8455      5.8244      4.8951      4.2553    
  3.7682      3.3769      3.1115      2.9592      2.8891      2.8798      2.9342      3.0770      3.3359      3.7133    
  3.6370      4.0074      4.3981      4.8115      5.1307      5.2087      5.0106      4.6449      4.2553      3.8749    
  3.5171      3.2296      3.0310      2.9127      2.8538      2.8373      2.8601      2.9344      3.0814      3.3172    
  3.2827      3.5155      3.7665      3.9947      4.1550      4.2131      4.1557      3.9959      3.7682      3.5171    
  3.2836      3.0953      2.9621      2.8798      2.8373      2.8245      2.8373      2.8799      2.9622      3.0951    
  3.1242      3.2461      3.3792      3.5054      3.5998      3.6381      3.6072      3.5126      3.3769      3.2296    
  3.0953      2.9880      2.9114      2.8634      2.8398      2.8373      2.8537      2.8890      2.9446      3.0227    
  3.1258      3.1771      3.2233      3.2611      3.2838      3.2823      3.2505      3.1900      3.1115      3.0310    
  2.9621      2.9114      2.8792      2.8634      2.8634      2.8798      2.9127      2.9591      3.0137      3.0707    
  3.2826      3.2838      3.2609      3.2229      3.1766      3.1254      3.0705      3.0137      2.9592      2.9127    
  2.8798      2.8634      2.8634      2.8793      2.9116      2.9622      3.0311      3.1115      3.1901      3.2508    
  3.6378      3.5993      3.5048      3.3787      3.2459      3.1243      3.0230      2.9448      2.8891      2.8538    
  2.8373      2.8398      2.8634      2.9116      2.9882      3.0953      3.2293      3.3765      3.5122      3.6068    
  4.2128      4.1549      3.9947      3.7668      3.5160      3.2832      3.0953      2.9622      2.8798      2.8373    
  2.8245      2.8373      2.8798      2.9622      3.0953      3.2832      3.5160      3.7668      3.9947      4.1549    
  5.2101      5.1322      4.8128      4.3990      4.0080      3.6373      3.3170      3.0810      2.9342      2.8601    
  2.8373      2.8537      2.9127      3.0311      3.2293      3.5160      3.8729      4.2533      4.6440      5.0111    
  7.5434      7.5689      6.9085      5.8734      4.8811      4.1834      3.7128      3.3355      3.0770      2.9344    
  2.8799      2.8890      2.9591      3.1115      3.3765      3.7668      4.2533      4.8941      5.8256      6.8489    
  11.645      12.138      11.205      9.2660      7.0846      5.3346      4.2905      3.7372      3.3359      3.0814    
  2.9622      2.9446      3.0137      3.1901      3.5122      3.9947      4.6440      5.8256      7.7255      9.9319    
  16.951      18.470      17.665      14.905      11.258      7.8835      5.5216      4.2909      3.7133      3.3172    
  3.0951      3.0227      3.0707      3.2508      3.6068      4.1549      5.0111      6.8489      9.9319      13.695    
  11.664      13.695      14.189      12.959      10.553      7.8841      5.7337      4.4363      3.8042      3.3838    
  3.1129      2.9882      2.9760      3.0611      3.2676      3.6378      4.1803      4.9699      6.5163      8.9404    
  13.695      16.951      18.471      17.666      14.907      11.260      7.8845      5.5217      4.2904      3.7128    
  3.3171      3.0954      3.0230      3.0704      3.2503      3.6068      4.1556      5.0120      6.8492      9.9314    
  14.189      18.471      21.228      21.417      18.993      14.908      10.554      7.0845      5.0044      4.0734    