bcc Fe                                  
   2.84000000000000     
    -0.500000    0.500000    0.500000
     0.500000   -0.500000    0.500000
     0.500000    0.500000   -0.500000
   Fe
     1
Direct
  0.000000  0.000000  0.000000
 
   20   20   20
 0.97019941255E+02 0.91380091094E+02 0.76433098819E+02 0.56871896484E+02 0.37604880922E+02
 0.22022771556E+02 0.11664391888E+02 0.64119104529E+01 0.46466973595E+01 0.40496361780E+01
 0.38596497346E+01 0.40496361780E+01 0.46466973595E+01 0.64119104529E+01 0.11664391888E+02
 0.22022771556E+02 0.37604880922E+02 0.56871896484E+02 0.76433098819E+02 0.91380091094E+02
 0.91380091094E+02 0.89540402804E+02 0.77839592605E+02 0.60135913631E+02 0.41295233650E+02
 0.25135550580E+02 0.13694709202E+02 0.73342467695E+01 0.48936276655E+01 0.41416399337E+01
 0.38300094661E+01 0.38904542394E+01 0.43347079241E+01 0.54015484387E+01 0.89404384123E+01
 0.16950841607E+02 0.30105643956E+02 0.47498956156E+02 0.66475995992E+02 0.82704933137E+02
 0.76433098819E+02 0.77839592605E+02 0.70213043066E+02 0.56172161763E+02 0.39897409666E+02
 0.25144186368E+02 0.14189177276E+02 0.77255630553E+01 0.50049366066E+01 0.41449888734E+01
 0.37451629094E+01 0.36926684197E+01 0.39775086626E+01 0.46380740318E+01 0.65162736320E+01
 0.11644523176E+02 0.21226998156E+02 0.35038631462E+02 0.51259149127E+02 0.66475995992E+02
 0.56871896484E+02 0.60135913631E+02 0.56172161763E+02 0.46412360197E+02 0.33982962231E+02
 0.22105478493E+02 0.12959394156E+02 0.73717264132E+01 0.48950264371E+01 0.40518663934E+01
 0.36157808522E+01 0.34852282457E+01 0.36326131728E+01 0.40908457880E+01 0.49698730912E+01
 0.75433570201E+01 0.13358710092E+02 0.22852253503E+02 0.35038631462E+02 0.47498956156E+02
 0.37604880922E+02 0.41295233650E+02 0.39897409666E+02 0.33982962231E+02 0.25607844920E+02
 0.17197927853E+02 0.10552951067E+02 0.64383299265E+01 0.45821293370E+01 0.38729291494E+01
 0.34561838312E+01 0.32912539847E+01 0.33430793036E+01 0.36267956833E+01 0.41803442517E+01
 0.52101330130E+01 0.79554559457E+01 0.13358710092E+02 0.21226998156E+02 0.30105643956E+02
 0.22022771556E+02 0.25135550580E+02 0.25144186368E+02 0.22105478493E+02 0.17197927853E+02
 0.12029024984E+02 0.78841102543E+01 0.53352113490E+01 0.41836530384E+01 0.36370369191E+01
 0.32826581267E+01 0.31241546004E+01 0.31257681343E+01 0.32825732590E+01 0.36377694347E+01
 0.42128133163E+01 0.52101330130E+01 0.75433570201E+01 0.11644523176E+02 0.16950841607E+02
 0.11664391888E+02 0.13694709202E+02 0.14189177276E+02 0.12959394156E+02 0.10552951067E+02
 0.78841102543E+01 0.57336709587E+01 0.44362825958E+01 0.38042305979E+01 0.33838207265E+01
 0.31129428821E+01 0.29882044509E+01 0.29760379305E+01 0.30610864464E+01 0.32676485942E+01
 0.36377694347E+01 0.41803442517E+01 0.49698730912E+01 0.65162736320E+01 0.89404384123E+01
 0.64119104529E+01 0.73342467695E+01 0.77255630553E+01 0.73717264132E+01 0.64383299265E+01
 0.53352113490E+01 0.44362825958E+01 0.38638820507E+01 0.34582859036E+01 0.31517426210E+01
 0.29646055704E+01 0.28832472931E+01 0.28793189512E+01 0.29359100022E+01 0.30610864464E+01
 0.32825732590E+01 0.36267956833E+01 0.40908457880E+01 0.46380740318E+01 0.54015484387E+01
 0.46466973595E+01 0.48936276655E+01 0.50049366066E+01 0.48950264371E+01 0.45821293370E+01
 0.41836530384E+01 0.38042305979E+01 0.34582859036E+01 0.31715781439E+01 0.29679529188E+01
 0.28517088346E+01 0.28101823061E+01 0.28239330401E+01 0.28793189512E+01 0.29760379305E+01
 0.31257681343E+01 0.33430793036E+01 0.36326131728E+01 0.39775086626E+01 0.43347079241E+01
 0.40496361780E+01 0.41416399337E+01 0.41449888734E+01 0.40518663934E+01 0.38729291494E+01
 0.36370369191E+01 0.33838207265E+01 0.31517426210E+01 0.29679529188E+01 0.28447417467E+01
 0.27822763579E+01 0.27738013728E+01 0.28101823061E+01 0.28832472931E+01 0.29882044509E+01
 0.31241546004E+01 0.32912539847E+01 0.34852282457E+01 0.36926684197E+01 0.38904542394E+01
 0.38596497346E+01 0.38300094661E+01 0.37451629094E+01 0.36157808522E+01 0.34561838312E+01
 0.32826581267E+01 0.31129428821E+01 0.29646055704E+01 0.28517088346E+01 0.27822763579E+01
 0.27590140976E+01 0.27822763579E+01 0.28517088346E+01 0.29646055704E+01 0.31129428821E+01
 0.32826581267E+01 0.34561838312E+01 0.36157808522E+01 0.37451629094E+01 0.38300094661E+01
 0.40496361780E+01 0.38904542394E+01 0.36926684197E+01 0.34852282457E+01 0.32912539847E+01
 0.31241546004E+01 0.29882044509E+01 0.28832472931E+01 0.28101823061E+01 0.27738013728E+01
 0.27822763579E+01 0.28447417467E+01 0.29679529188E+01 0.31517426210E+01 0.33838207265E+01
 0.36370369191E+01 0.38729291494E+01 0.40518663934E+01 0.41449888734E+01 0.41416399337E+01
 0.46466973595E+01 0.43347079241E+01 0.39775086626E+01 0.36326131728E+01 0.33430793036E+01
 0.31257681343E+01 0.29760379305E+01 0.28793189512E+01 0.28239330401E+01 0.28101823061E+01
 0.28517088346E+01 0.29679529188E+01 0.31715781439E+01 0.34582859036E+01 0.38042305979E+01
 0.41836530384E+01 0.45821293370E+01 0.48950264371E+01 0.50049366066E+01 0.48936276655E+01
 0.64119104529E+01 0.54015484387E+01 0.46380740318E+01 0.40908457880E+01 0.36267956833E+01
 0.32825732590E+01 0.30610864464E+01 0.29359100022E+01 0.28793189512E+01 0.28832472931E+01
 0.29646055704E+01 0.31517426210E+01 0.34582859036E+01 0.38638820507E+01 0.44362825958E+01
 0.53352113490E+01 0.64383299265E+01 0.73717264132E+01 0.77255630553E+01 0.73342467695E+01
 0.11664391888E+02 0.89404384123E+01 0.65162736320E+01 0.49698730912E+01 0.41803442517E+01
 0.36377694347E+01 0.32676485942E+01 0.30610864464E+01 0.29760379305E+01 0.29882044509E+01
 0.31129428821E+01 0.33838207265E+01 0.38042305979E+01 0.44362825958E+01 0.57336709587E+01
 0.78841102543E+01 0.10552951067E+02 0.12959394156E+02 0.14189177276E+02 0.13694709202E+02
 0.22022771556E+02 0.16950841607E+02 0.11644523176E+02 0.75433570201E+01 0.52101330130E+01
 0.42128133163E+01 0.36377694347E+01 0.32825732590E+01 0.31257681343E+01 0.31241546004E+01
 0.32826581267E+01 0.36370369191E+01 0.41836530384E+01 0.53352113490E+01 0.78841102543E+01
 0.12029024984E+02 0.17197927853E+02 0.22105478493E+02 0.25144186368E+02 0.25135550580E+02
 0.37604880922E+02 0.30105643956E+02 0.21226998156E+02 0.13358710092E+02 0.79554559457E+01
 0.52101330130E+01 0.41803442517E+01 0.36267956833E+01 0.33430793036E+01 0.32912539847E+01
 0.34561838312E+01 0.38729291494E+01 0.45821293370E+01 0.64383299265E+01 0.10552951067E+02
 0.17197927853E+02 0.25607844920E+02 0.33982962231E+02 0.39897409666E+02 0.41295233650E+02
 0.56871896484E+02 0.47498956156E+02 0.35038631462E+02 0.22852253503E+02 0.13358710092E+02
 0.75433570201E+01 0.49698730912E+01 0.40908457880E+01 0.36326131728E+01 0.34852282457E+01
 0.36157808522E+01 0.40518663934E+01 0.48950264371E+01 0.73717264132E+01 0.12959394156E+02
 0.22105478493E+02 0.33982962231E+02 0.46412360197E+02 0.56172161763E+02 0.60135913631E+02
 0.76433098819E+02 0.66475995992E+02 0.51259149127E+02 0.35038631462E+02 0.21226998156E+02
 0.11644523176E+02 0.65162736320E+01 0.46380740318E+01 0.39775086626E+01 0.36926684197E+01
 0.37451629094E+01 0.41449888734E+01 0.50049366066E+01 0.77255630553E+01 0.14189177276E+02
 0.25144186368E+02 0.39897409666E+02 0.56172161763E+02 0.70213043066E+02 0.77839592605E+02
 0.91380091094E+02 0.82704933137E+02 0.66475995992E+02 0.47498956156E+02 0.30105643956E+02
 0.16950841607E+02 0.89404384123E+01 0.54015484387E+01 0.43347079241E+01 0.38904542394E+01
 0.38300094661E+01 0.41416399337E+01 0.48936276655E+01 0.73342467695E+01 0.13694709202E+02
 0.25135550580E+02 0.41295233650E+02 0.60135913631E+02 0.77839592605E+02 0.89540402804E+02
 0.91380091094E+02 0.89540402804E+02 0.77839592605E+02 0.60135913631E+02 0.41295233650E+02
 0.25135550580E+02 0.13694709202E+02 0.73342467695E+01 0.48936276655E+01 0.41416399337E+01
 0.38300094661E+01 0.38904542394E+01 0.43347079241E+01 0.54015484387E+01 0.89404384123E+01
 0.16950841607E+02 0.30105643956E+02 0.47498956156E+02 0.66475995992E+02 0.82704933137E+02
 0.89540402804E+02 0.91372140614E+02 0.82693227539E+02 0.66466514688E+02 0.47494439847E+02
 0.30104612963E+02 0.16950759655E+02 0.89405360947E+01 0.54023061476E+01 0.43358454225E+01
 0.38907779339E+01 0.38291330450E+01 0.41406767564E+01 0.48936614465E+01 0.73349572961E+01
 0.13695445915E+02 0.25137309808E+02 0.41300081271E+02 0.60143704396E+02 0.77846153394E+02
 0.77839592605E+02 0.82693227539E+02 0.77834506692E+02 0.64962438185E+02 0.48136411261E+02
 0.31643546759E+02 0.18471163495E+02 0.99322929010E+01 0.57853510416E+01 0.44310732513E+01
 0.38889169199E+01 0.37168277388E+01 0.38888986956E+01 0.44310512148E+01 0.57851654096E+01
 0.99318960583E+01 0.18471339266E+02 0.31645889242E+02 0.48141840363E+02 0.64969492412E+02
 0.60135913631E+02 0.66466514688E+02 0.64962438185E+02 0.56173025837E+02 0.43028564732E+02
 0.29222841452E+02 0.17666301751E+02 0.98474915900E+01 0.58266671967E+01 0.44043761976E+01
 0.38207779296E+01 0.35704353696E+01 0.36231677525E+01 0.39914358757E+01 0.47284123199E+01
 0.68489289067E+01 0.12138295516E+02 0.21415373572E+02 0.34108063907E+02 0.48138366772E+02
 0.41295233650E+02 0.47494439847E+02 0.48136411261E+02 0.43028564732E+02 0.33985098604E+02
 0.23791202369E+02 0.14906731921E+02 0.87325977446E+01 0.54725136057E+01 0.42533562252E+01
 0.36913641285E+01 0.34082905719E+01 0.33789851856E+01 0.35938596898E+01 0.40938376692E+01
 0.50111378551E+01 0.75683721251E+01 0.12992588535E+02 0.21414623304E+02 0.31642938175E+02
 0.25135550580E+02 0.30104612963E+02 0.31643546759E+02 0.29222841452E+02 0.23791202369E+02
 0.17199439273E+02 0.11260049545E+02 0.70854521739E+01 0.48809923783E+01 0.40073549018E+01
 0.35154699586E+01 0.32460898723E+01 0.31771015359E+01 0.32838406207E+01 0.35993295839E+01
 0.41549488234E+01 0.51322124151E+01 0.75689025593E+01 0.12138345410E+02 0.18470212668E+02
 0.13694709202E+02 0.16950759655E+02 0.18471163495E+02 0.17666301751E+02 0.14906731921E+02
 0.11260049545E+02 0.78844569675E+01 0.55217094977E+01 0.42904214469E+01 0.37127800746E+01
 0.33171067847E+01 0.30953629459E+01 0.30229530194E+01 0.30704271971E+01 0.32503328213E+01
 0.36068421660E+01 0.41556337607E+01 0.50119968969E+01 0.68491890720E+01 0.99313540424E+01
 0.73342467695E+01 0.89405360947E+01 0.99322929010E+01 0.98474915900E+01 0.87325977446E+01
 0.70854521739E+01 0.55217094977E+01 0.44358463085E+01 0.38326002422E+01 0.34172316582E+01
 0.31247064948E+01 0.29647961752E+01 0.29115930514E+01 0.29376810330E+01 0.30415437586E+01
 0.32507670452E+01 0.35999492652E+01 0.40940533054E+01 0.47278865526E+01 0.57841942970E+01
 0.48936276655E+01 0.54023061476E+01 0.57853510416E+01 0.58266671967E+01 0.54725136057E+01
 0.48809923783E+01 0.42904214469E+01 0.38326002422E+01 0.34582528525E+01 0.31607727627E+01
 0.29631510562E+01 0.28620003950E+01 0.28359265179E+01 0.28634606876E+01 0.29378524010E+01
 0.30706594700E+01 0.32837693918E+01 0.35932335582E+01 0.39904535708E+01 0.44302874525E+01
 0.41416399337E+01 0.43358454225E+01 0.44310732513E+01 0.44043761976E+01 0.42533562252E+01
 0.40073549018E+01 0.37127800746E+01 0.34172316582E+01 0.31607727627E+01 0.29681075720E+01
 0.28474916667E+01 0.27937986135E+01 0.27943139127E+01 0.28359337742E+01 0.29115592965E+01
 0.30227277110E+01 0.31766069506E+01 0.33784009102E+01 0.36228929335E+01 0.38892621129E+01
 0.38300094661E+01 0.38907779339E+01 0.38889169199E+01 0.38207779296E+01 0.36913641285E+01
 0.35154699586E+01 0.33171067847E+01 0.31247064948E+01 0.29631510562E+01 0.28474916667E+01
 0.27823038808E+01 0.27657202000E+01 0.27937505552E+01 0.28618626783E+01 0.29645376261E+01
 0.30950541082E+01 0.32459368485E+01 0.34085377349E+01 0.35711721767E+01 0.37178507377E+01
 0.38904542394E+01 0.38291330450E+01 0.37168277388E+01 0.35704353696E+01 0.34082905719E+01
 0.32460898723E+01 0.30953629459E+01 0.29647961752E+01 0.28620003950E+01 0.27937986135E+01
 0.27657202000E+01 0.27822521113E+01 0.28473593634E+01 0.29629556112E+01 0.31245667499E+01
 0.33172137879E+01 0.35159575694E+01 0.36921570787E+01 0.38215540040E+01 0.38892621129E+01
 0.43347079241E+01 0.41406767564E+01 0.38888986956E+01 0.36231677525E+01 0.33789851856E+01
 0.31771015359E+01 0.30229530194E+01 0.29115930514E+01 0.28359265179E+01 0.27943139127E+01
 0.27937505552E+01 0.28473593634E+01 0.29679626988E+01 0.31607677071E+01 0.34174965267E+01
 0.37133189270E+01 0.40079895801E+01 0.42537592004E+01 0.44042268222E+01 0.44302874525E+01
 0.54015484387E+01 0.48936614465E+01 0.44310512148E+01 0.39914358757E+01 0.35938596898E+01
 0.32838406207E+01 0.30704271971E+01 0.29376810330E+01 0.28634606876E+01 0.28359337742E+01
 0.28618626783E+01 0.29629556112E+01 0.31607677071E+01 0.34585841359E+01 0.38331540193E+01
 0.42908908205E+01 0.48810571297E+01 0.54719981706E+01 0.58256477639E+01 0.57841942970E+01
 0.89404384123E+01 0.73349572961E+01 0.57851654096E+01 0.47284123199E+01 0.40938376692E+01
 0.35993295839E+01 0.32503328213E+01 0.30415437586E+01 0.29378524010E+01 0.29115592965E+01
 0.29645376261E+01 0.31245667499E+01 0.34174965267E+01 0.38331540193E+01 0.44362525809E+01
 0.55215618628E+01 0.70846287825E+01 0.87312864082E+01 0.98461065115E+01 0.99313540424E+01
 0.16950841607E+02 0.13695445915E+02 0.99318960583E+01 0.68489289067E+01 0.50111378551E+01
 0.41549488234E+01 0.36068421660E+01 0.32507670452E+01 0.30706594700E+01 0.30227277110E+01
 0.30950541082E+01 0.33172137879E+01 0.37133189270E+01 0.42908908205E+01 0.55215618628E+01
 0.78834911337E+01 0.11258419921E+02 0.14904800489E+02 0.17664580605E+02 0.18470212668E+02
 0.30105643956E+02 0.25137309808E+02 0.18471339266E+02 0.12138295516E+02 0.75683721251E+01
 0.51322124151E+01 0.41556337607E+01 0.35999492652E+01 0.32837693918E+01 0.31766069506E+01
 0.32459368485E+01 0.35159575694E+01 0.40079895801E+01 0.48810571297E+01 0.70846287825E+01
 0.11258419921E+02 0.17197194450E+02 0.23788692149E+02 0.29220825509E+02 0.31642938175E+02
 0.47498956156E+02 0.41300081271E+02 0.31645889242E+02 0.21415373572E+02 0.12992588535E+02
 0.75689025593E+01 0.50119968969E+01 0.40940533054E+01 0.35932335582E+01 0.33784009102E+01
 0.34085377349E+01 0.36921570787E+01 0.42537592004E+01 0.54719981706E+01 0.87312864082E+01
 0.14904800489E+02 0.23788692149E+02 0.33982603206E+02 0.43027601743E+02 0.48138366772E+02
 0.66475995992E+02 0.60143704396E+02 0.48141840363E+02 0.34108063907E+02 0.21414623304E+02
 0.12138345410E+02 0.68491890720E+01 0.47278865526E+01 0.39904535708E+01 0.36228929335E+01
 0.35711721767E+01 0.38215540040E+01 0.44042268222E+01 0.58256477639E+01 0.98461065115E+01
 0.17664580605E+02 0.29220825509E+02 0.43027601743E+02 0.56175523747E+02 0.64969492412E+02
 0.82704933137E+02 0.77846153394E+02 0.64969492412E+02 0.48138366772E+02 0.31642938175E+02
 0.18470212668E+02 0.99313540424E+01 0.57841942970E+01 0.44302874525E+01 0.38892621129E+01
 0.37178507377E+01 0.38892621129E+01 0.44302874525E+01 0.57841942970E+01 0.99313540424E+01
 0.18470212668E+02 0.31642938175E+02 0.48138366772E+02 0.64969492412E+02 0.77846153394E+02
 0.76433098819E+02 0.77839592605E+02 0.70213043066E+02 0.56172161763E+02 0.39897409666E+02
 0.25144186368E+02 0.14189177276E+02 0.77255630553E+01 0.50049366066E+01 0.41449888734E+01
 0.37451629094E+01 0.36926684197E+01 0.39775086626E+01 0.46380740318E+01 0.65162736320E+01
 0.11644523176E+02 0.21226998156E+02 0.35038631462E+02 0.51259149127E+02 0.66475995992E+02
 0.77839592605E+02 0.82693227539E+02 0.77834506692E+02 0.64962438185E+02 0.48136411261E+02
 0.31643546759E+02 0.18471163495E+02 0.99322929010E+01 0.57853510416E+01 0.44310732513E+01
 0.38889169199E+01 0.37168277388E+01 0.38888986956E+01 0.44310512148E+01 0.57851654096E+01
 0.99318960583E+01 0.18471339266E+02 0.31645889242E+02 0.48141840363E+02 0.64969492412E+02
 0.70213043066E+02 0.77834506692E+02 0.76424435599E+02 0.66467588148E+02 0.51254194891E+02
 0.35037551855E+02 0.21227950014E+02 0.11645540240E+02 0.65166653311E+01 0.46381206052E+01
 0.39775175399E+01 0.36926600717E+01 0.37451323622E+01 0.41449834884E+01 0.50048921418E+01
 0.77254918673E+01 0.14189662025E+02 0.25146202380E+02 0.39901048299E+02 0.56175523747E+02
 0.56172161763E+02 0.64962438185E+02 0.66467588148E+02 0.60137471830E+02 0.48139806993E+02
 0.34109442654E+02 0.21417009412E+02 0.12139913171E+02 0.68496828039E+01 0.47279214467E+01
 0.39904600181E+01 0.36228905238E+01 0.35711377393E+01 0.38215522191E+01 0.44042343385E+01
 0.58256325924E+01 0.98463601933E+01 0.17665540611E+02 0.29222150908E+02 0.43027601743E+02
 0.39897409666E+02 0.48136411261E+02 0.51254194891E+02 0.48139806993E+02 0.39902569355E+02
 0.29225624837E+02 0.18992780611E+02 0.11207051320E+02 0.65962720993E+01 0.46439476974E+01
 0.39179227961E+01 0.35148549426E+01 0.33909472794E+01 0.35148459685E+01 0.39179551859E+01
 0.46439846970E+01 0.65959696815E+01 0.11205693715E+02 0.18989667065E+02 0.29220825509E+02
 0.25144186368E+02 0.31643546759E+02 0.35037551855E+02 0.34109442654E+02 0.29225624837E+02
 0.22109184850E+02 0.14907541540E+02 0.92669000462E+01 0.58727647754E+01 0.43980718355E+01
 0.37665127514E+01 0.33791689659E+01 0.32233221651E+01 0.32609194867E+01 0.35047806899E+01
 0.39946745989E+01 0.48127648665E+01 0.69085321697E+01 0.11205495427E+02 0.17664580605E+02
 0.14189177276E+02 0.18471163495E+02 0.21227950014E+02 0.21417009412E+02 0.18992780611E+02
 0.14907541540E+02 0.10553556276E+02 0.70845311320E+01 0.50043547383E+01 0.40734348358E+01
 0.35605436736E+01 0.32293277552E+01 0.30791570450E+01 0.30726495269E+01 0.32040564920E+01
 0.35121709101E+01 0.40230888650E+01 0.48127824055E+01 0.65959502280E+01 0.98461065115E+01
 0.77255630553E+01 0.99322929010E+01 0.11645540240E+02 0.12139913171E+02 0.11207051320E+02
 0.92669000462E+01 0.70845311320E+01 0.53339794291E+01 0.42899424657E+01 0.37370021768E+01
 0.33358559012E+01 0.30814120961E+01 0.29621582798E+01 0.29445792544E+01 0.30137372736E+01
 0.31900765219E+01 0.35121345954E+01 0.39946526778E+01 0.46439998144E+01 0.58256477639E+01
 0.50049366066E+01 0.57853510416E+01 0.65166653311E+01 0.68496828039E+01 0.65962720993E+01
 0.58727647754E+01 0.50043547383E+01 0.42899424657E+01 0.38039146659E+01 0.34174207123E+01
 0.31282714939E+01 0.29518938488E+01 0.28725864606E+01 0.28633624058E+01 0.29083212336E+01
 0.30137221600E+01 0.32040055858E+01 0.35047236482E+01 0.39179219583E+01 0.44042268222E+01
 0.41449888734E+01 0.44310732513E+01 0.46381206052E+01 0.47279214467E+01 0.46439476974E+01
 0.43980718355E+01 0.40734348358E+01 0.37370021768E+01 0.34174207123E+01 0.31520863530E+01
 0.29631900470E+01 0.28537351035E+01 0.28115077988E+01 0.28188288744E+01 0.28633896986E+01
 0.29446082581E+01 0.30726588987E+01 0.32609153915E+01 0.35148435866E+01 0.38215540040E+01
 0.37451629094E+01 0.38889169199E+01 0.39775175399E+01 0.39904600181E+01 0.39179227961E+01
 0.37665127514E+01 0.35605436736E+01 0.33358559012E+01 0.31282714939E+01 0.29631900470E+01
 0.28517728231E+01 0.27937787291E+01 0.27829773985E+01 0.28115252559E+01 0.28726312833E+01
 0.29622139810E+01 0.30792024204E+01 0.32233542176E+01 0.33909776599E+01 0.35711721767E+01
 0.36926684197E+01 0.37168277388E+01 0.36926600717E+01 0.36228905238E+01 0.35148549426E+01
 0.33791689659E+01 0.32293277552E+01 0.30814120961E+01 0.29518938488E+01 0.28537351035E+01
 0.27937787291E+01 0.27737892923E+01 0.27937693622E+01 0.28537310821E+01 0.29519035412E+01
 0.30814247542E+01 0.32293271112E+01 0.33791548782E+01 0.35148435866E+01 0.36228929335E+01
 0.39775086626E+01 0.38888986956E+01 0.37451323622E+01 0.35711377393E+01 0.33909472794E+01
 0.32233221651E+01 0.30791570450E+01 0.29621582798E+01 0.28725864606E+01 0.28115077988E+01
 0.27829773985E+01 0.27937693622E+01 0.28517420322E+01 0.29631556698E+01 0.31282607140E+01
 0.33358743147E+01 0.35605710044E+01 0.37665273211E+01 0.39179219583E+01 0.39904535708E+01
 0.46380740318E+01 0.44310512148E+01 0.41449834884E+01 0.38215522191E+01 0.35148459685E+01
 0.32609194867E+01 0.30726495269E+01 0.29445792544E+01 0.28633624058E+01 0.28188288744E+01
 0.28115252559E+01 0.28537310821E+01 0.29631556698E+01 0.31520811952E+01 0.34175269471E+01
 0.37372329295E+01 0.40737017492E+01 0.43982559898E+01 0.46439998144E+01 0.47278865526E+01
 0.65162736320E+01 0.57851654096E+01 0.50048921418E+01 0.44042343385E+01 0.39179551859E+01
 0.35047806899E+01 0.32040564920E+01 0.30137372736E+01 0.29083212336E+01 0.28633896986E+01
 0.28726312833E+01 0.29519035412E+01 0.31282607140E+01 0.34175269471E+01 0.38042736399E+01
 0.42904922449E+01 0.50048123603E+01 0.58728482059E+01 0.65959502280E+01 0.68491890720E+01
 0.11644523176E+02 0.99318960583E+01 0.77254918673E+01 0.58256325924E+01 0.46439846970E+01
 0.39946745989E+01 0.35121709101E+01 0.31900765219E+01 0.30137221600E+01 0.29446082581E+01
 0.29622139810E+01 0.30814247542E+01 0.33358743147E+01 0.37372329295E+01 0.42904922449E+01
 0.53345644132E+01 0.70845747139E+01 0.92660299164E+01 0.11205495427E+02 0.12138345410E+02
 0.21226998156E+02 0.18471339266E+02 0.14189662025E+02 0.98463601933E+01 0.65959696815E+01
 0.48127648665E+01 0.40230888650E+01 0.35121345954E+01 0.32040055858E+01 0.30726588987E+01
 0.30792024204E+01 0.32293271112E+01 0.35605710044E+01 0.40737017492E+01 0.50048123603E+01
 0.70845747139E+01 0.10552386457E+02 0.14904981227E+02 0.18989667065E+02 0.21414623304E+02
 0.35038631462E+02 0.31645889242E+02 0.25146202380E+02 0.17665540611E+02 0.11205693715E+02
 0.69085321697E+01 0.48127824055E+01 0.39946526778E+01 0.35047236482E+01 0.32609153915E+01
 0.32233542176E+01 0.33791548782E+01 0.37665273211E+01 0.43982559898E+01 0.58728482059E+01
 0.92660299164E+01 0.14904981227E+02 0.22105337404E+02 0.29222150908E+02 0.34108063907E+02
 0.51259149127E+02 0.48141840363E+02 0.39901048299E+02 0.29222150908E+02 0.18989667065E+02
 0.11205495427E+02 0.65959502280E+01 0.46439998144E+01 0.39179219583E+01 0.35148435866E+01
 0.33909776599E+01 0.35148435866E+01 0.39179219583E+01 0.46439998144E+01 0.65959502280E+01
 0.11205495427E+02 0.18989667065E+02 0.29222150908E+02 0.39901048299E+02 0.48141840363E+02
 0.66475995992E+02 0.64969492412E+02 0.56175523747E+02 0.43027601743E+02 0.29220825509E+02
 0.17664580605E+02 0.98461065115E+01 0.58256477639E+01 0.44042268222E+01 0.38215540040E+01
 0.35711721767E+01 0.36228929335E+01 0.39904535708E+01 0.47278865526E+01 0.68491890720E+01
 0.12138345410E+02 0.21414623304E+02 0.34108063907E+02 0.48141840363E+02 0.60143704396E+02
 0.56871896484E+02 0.60135913631E+02 0.56172161763E+02 0.46412360197E+02 0.33982962231E+02
 0.22105478493E+02 0.12959394156E+02 0.73717264132E+01 0.48950264371E+01 0.40518663934E+01
 0.36157808522E+01 0.34852282457E+01 0.36326131728E+01 0.40908457880E+01 0.49698730912E+01
 0.75433570201E+01 0.13358710092E+02 0.22852253503E+02 0.35038631462E+02 0.47498956156E+02
 0.60135913631E+02 0.66466514688E+02 0.64962438185E+02 0.56173025837E+02 0.43028564732E+02
 0.29222841452E+02 0.17666301751E+02 0.98474915900E+01 0.58266671967E+01 0.44043761976E+01
 0.38207779296E+01 0.35704353696E+01 0.36231677525E+01 0.39914358757E+01 0.47284123199E+01
 0.68489289067E+01 0.12138295516E+02 0.21415373572E+02 0.34108063907E+02 0.48138366772E+02
 0.56172161763E+02 0.64962438185E+02 0.66467588148E+02 0.60137471830E+02 0.48139806993E+02
 0.34109442654E+02 0.21417009412E+02 0.12139913171E+02 0.68496828039E+01 0.47279214467E+01
 0.39904600181E+01 0.36228905238E+01 0.35711377393E+01 0.38215522191E+01 0.44042343385E+01
 0.58256325924E+01 0.98463601933E+01 0.17665540611E+02 0.29222150908E+02 0.43027601743E+02
 0.46412360197E+02 0.56173025837E+02 0.60137471830E+02 0.56873674301E+02 0.47500883014E+02
 0.35040957856E+02 0.22854756374E+02 0.13360436235E+02 0.75435246639E+01 0.49688919993E+01
 0.40900480131E+01 0.36328587781E+01 0.34860391879E+01 0.36160454762E+01 0.40511958882E+01
 0.48940875802E+01 0.73712726460E+01 0.12959371848E+02 0.22105337404E+02 0.33982603206E+02
 0.33982962231E+02 0.43028564732E+02 0.48139806993E+02 0.47500883014E+02 0.41302745387E+02
 0.31649127169E+02 0.21418149909E+02 0.12993688342E+02 0.75682023656E+01 0.50107468651E+01
 0.40936500000E+01 0.35938351829E+01 0.33789920042E+01 0.34082858128E+01 0.36913627356E+01
 0.42533305531E+01 0.54722837855E+01 0.87317871086E+01 0.14904981227E+02 0.23788692149E+02
 0.22105478493E+02 0.29222841452E+02 0.34109442654E+02 0.35040957856E+02 0.31649127169E+02
 0.25149448903E+02 0.17667357642E+02 0.11205369750E+02 0.69069094086E+01 0.48115279597E+01
 0.39946524521E+01 0.35053907846E+01 0.32611389572E+01 0.32228632528E+01 0.33786845887E+01
 0.37667637684E+01 0.43990014577E+01 0.58733818268E+01 0.92660299164E+01 0.14904800489E+02
 0.12959394156E+02 0.17666301751E+02 0.21417009412E+02 0.22854756374E+02 0.21418149909E+02
 0.17667357642E+02 0.12959221656E+02 0.87299344406E+01 0.58713069197E+01 0.44555608005E+01
 0.38102270657E+01 0.33764103414E+01 0.31423080301E+01 0.30726196651E+01 0.31423717354E+01
 0.33764849663E+01 0.38105190778E+01 0.44564811560E+01 0.58728482059E+01 0.87312864082E+01
 0.73717264132E+01 0.98474915900E+01 0.12139913171E+02 0.13360436235E+02 0.12993688342E+02
 0.11205369750E+02 0.87299344406E+01 0.64356861451E+01 0.48794309541E+01 0.40734273615E+01
 0.35764339050E+01 0.32256551781E+01 0.30308205424E+01 0.29596912283E+01 0.29841468502E+01
 0.31115265501E+01 0.33783639780E+01 0.38099260330E+01 0.43982559898E+01 0.54719981706E+01
 0.48950264371E+01 0.58266671967E+01 0.68496828039E+01 0.75435246639E+01 0.75682023656E+01
 0.69069094086E+01 0.58713069197E+01 0.48794309541E+01 0.41827783752E+01 0.37131097170E+01
 0.33359422567E+01 0.30770983552E+01 0.29341852962E+01 0.28797710059E+01 0.28890618275E+01
 0.29591001034E+01 0.31111344915E+01 0.33759046306E+01 0.37665273211E+01 0.42537592004E+01
 0.40518663934E+01 0.44043761976E+01 0.47279214467E+01 0.49688919993E+01 0.50107468651E+01
 0.48115279597E+01 0.44555608005E+01 0.40734273615E+01 0.37131097170E+01 0.33843354944E+01
 0.31248466956E+01 0.29518225422E+01 0.28592724295E+01 0.28279300200E+01 0.28398114792E+01
 0.28889576103E+01 0.29839576780E+01 0.31423892631E+01 0.33791548782E+01 0.36921570787E+01
 0.36157808522E+01 0.38207779296E+01 0.39904600181E+01 0.40900480131E+01 0.40936500000E+01
 0.39946524521E+01 0.38102270657E+01 0.35764339050E+01 0.33359422567E+01 0.31248466956E+01
 0.29647337294E+01 0.28618950345E+01 0.28114938606E+01 0.28034492571E+01 0.28280046629E+01
 0.28798957488E+01 0.29599320555E+01 0.30730419480E+01 0.32233542176E+01 0.34085377349E+01
 0.34852282457E+01 0.35704353696E+01 0.36228905238E+01 0.36328587781E+01 0.35938351829E+01
 0.35053907846E+01 0.33764103414E+01 0.32256551781E+01 0.30770983552E+01 0.29518225422E+01
 0.28618950345E+01 0.28101112684E+01 0.27943046029E+01 0.28115942143E+01 0.28594598966E+01
 0.29344273391E+01 0.30310480732E+01 0.31423892631E+01 0.32609153915E+01 0.33784009102E+01
 0.36326131728E+01 0.36231677525E+01 0.35711377393E+01 0.34860391879E+01 0.33789920042E+01
 0.32611389572E+01 0.31423080301E+01 0.30308205424E+01 0.29341852962E+01 0.28592724295E+01
 0.28114938606E+01 0.27943046029E+01 0.28101946692E+01 0.28620082263E+01 0.29518897041E+01
 0.30770373730E+01 0.32253891359E+01 0.33759046306E+01 0.35047236482E+01 0.35932335582E+01
 0.40908457880E+01 0.39914358757E+01 0.38215522191E+01 0.36160454762E+01 0.34082858128E+01
 0.32228632528E+01 0.30726196651E+01 0.29596912283E+01 0.28797710059E+01 0.28279300200E+01
 0.28034492571E+01 0.28115942143E+01 0.28620082263E+01 0.29646950519E+01 0.31245650045E+01
 0.33354853475E+01 0.35759701487E+01 0.38099260330E+01 0.39946526778E+01 0.40940533054E+01
 0.49698730912E+01 0.47284123199E+01 0.44042343385E+01 0.40511958882E+01 0.36913627356E+01
 0.33786845887E+01 0.31423717354E+01 0.29841468502E+01 0.28890618275E+01 0.28398114792E+01
 0.28280046629E+01 0.28594598966E+01 0.29518897041E+01 0.31245650045E+01 0.33838250443E+01
 0.37128127994E+01 0.40737284781E+01 0.44564811560E+01 0.48127824055E+01 0.50119968969E+01
 0.75433570201E+01 0.68489289067E+01 0.58256325924E+01 0.48940875802E+01 0.42533305531E+01
 0.37667637684E+01 0.33764849663E+01 0.31115265501E+01 0.29591001034E+01 0.28889576103E+01
 0.28798957488E+01 0.29344273391E+01 0.30770373730E+01 0.33354853475E+01 0.37128127994E+01
 0.41833792585E+01 0.48810845624E+01 0.58733818268E+01 0.69085321697E+01 0.75689025593E+01
 0.13358710092E+02 0.12138295516E+02 0.98463601933E+01 0.73712726460E+01 0.54722837855E+01
 0.43990014577E+01 0.38105190778E+01 0.33783639780E+01 0.31111344915E+01 0.29839576780E+01
 0.29599320555E+01 0.30310480732E+01 0.32253891359E+01 0.35759701487E+01 0.40737284781E+01
 0.48810845624E+01 0.64381123340E+01 0.87317871086E+01 0.11205693715E+02 0.12992588535E+02
 0.22852253503E+02 0.21415373572E+02 0.17665540611E+02 0.12959371848E+02 0.87317871086E+01
 0.58733818268E+01 0.44564811560E+01 0.38099260330E+01 0.33759046306E+01 0.31423892631E+01
 0.30730419480E+01 0.31423892631E+01 0.33759046306E+01 0.38099260330E+01 0.44564811560E+01
 0.58733818268E+01 0.87317871086E+01 0.12959371848E+02 0.17665540611E+02 0.21415373572E+02
 0.35038631462E+02 0.34108063907E+02 0.29222150908E+02 0.22105337404E+02 0.14904981227E+02
 0.92660299164E+01 0.58728482059E+01 0.43982559898E+01 0.37665273211E+01 0.33791548782E+01
 0.32233542176E+01 0.32609153915E+01 0.35047236482E+01 0.39946526778E+01 0.48127824055E+01
 0.69085321697E+01 0.11205693715E+02 0.17665540611E+02 0.25146202380E+02 0.31645889242E+02
 0.47498956156E+02 0.48138366772E+02 0.43027601743E+02 0.33982603206E+02 0.23788692149E+02
 0.14904800489E+02 0.87312864082E+01 0.54719981706E+01 0.42537592004E+01 0.36921570787E+01
 0.34085377349E+01 0.33784009102E+01 0.35932335582E+01 0.40940533054E+01 0.50119968969E+01
 0.75689025593E+01 0.12992588535E+02 0.21415373572E+02 0.31645889242E+02 0.41300081271E+02
 0.37604880922E+02 0.41295233650E+02 0.39897409666E+02 0.33982962231E+02 0.25607844920E+02
 0.17197927853E+02 0.10552951067E+02 0.64383299265E+01 0.45821293370E+01 0.38729291494E+01
 0.34561838312E+01 0.32912539847E+01 0.33430793036E+01 0.36267956833E+01 0.41803442517E+01
 0.52101330130E+01 0.79554559457E+01 0.13358710092E+02 0.21226998156E+02 0.30105643956E+02
 0.41295233650E+02 0.47494439847E+02 0.48136411261E+02 0.43028564732E+02 0.33985098604E+02
 0.23791202369E+02 0.14906731921E+02 0.87325977446E+01 0.54725136057E+01 0.42533562252E+01