   1   1   0   0
  0.1145315E+02  0.2459512E-09  0.2459512E-09  0.2459512E-09  0.5000000E-15
  1.000000000000000E-004
  CAR 
 bcc Fe                                  
     47.14181732     -4.81327364  301      5.76437232      1.00000000
     -4.813  0.0000E+00  0.0000E+00  0.0000E+00  0.0000E+00
     -4.640  0.0000E+00  0.0000E+00  0.0000E+00  0.0000E+00
     -4.467  0.0000E+00  0.0000E+00  0.0000E+00  0.0000E+00
     -4.294  0.0000E+00  0.0000E+00  0.0000E+00  0.0000E+00
     -4.121 -0.4706E-31  0.0000E+00 -0.8150E-32  0.0000E+00
     -3.947 -0.3762E-25 -0.6550E-32 -0.6515E-26 -0.1134E-32
     -3.774 -0.6622E-20 -0.6435E-26 -0.1147E-20 -0.1114E-26
     -3.601 -0.2481E-15 -0.1393E-20 -0.4296E-16 -0.2412E-21
     -3.428 -0.2066E-11 -0.6426E-16 -0.3578E-12 -0.1113E-16
     -3.255 -0.3686E-08 -0.6597E-12 -0.6387E-09 -0.1143E-12
     -3.081 -0.1371E-05 -0.1454E-08 -0.2381E-06 -0.2519E-09
     -2.908 -0.9874E-04 -0.6716E-06 -0.1734E-04 -0.1166E-06
     -2.735 -0.9789E-03 -0.6104E-04 -0.1869E-03 -0.1069E-04
     -2.562  0.4612E-02 -0.8413E-03  0.6118E-03 -0.1564E-03
     -2.389  0.2166E-01  0.2660E-02  0.4363E-02  0.3043E-03
     -2.216  0.1080E-01  0.2059E-01  0.6233E-02  0.3871E-02
     -2.042  0.2204E-01  0.1238E-01  0.1005E-01  0.6014E-02
     -1.869  0.1955E-01  0.1874E-01  0.1344E-01  0.9260E-02
     -1.696  0.5463E-01  0.2165E-01  0.2290E-01  0.1301E-01
     -1.523  0.8188E-01  0.3921E-01  0.3708E-01  0.1980E-01
     -1.350  0.7591E-02  0.8955E-01  0.3839E-01  0.3531E-01
     -1.176 -0.8188E-02  0.1959E-01  0.3697E-01  0.3870E-01
     -1.003  0.4562E-01 -0.8463E-02  0.4487E-01  0.3723E-01
     -0.830  0.1092E+00  0.1610E-01  0.6378E-01  0.4002E-01
     -0.657  0.6486E-01  0.1054E+00  0.7501E-01  0.5828E-01
     -0.484  0.8845E-01  0.6798E-01  0.9033E-01  0.7005E-01
     -0.310  0.9208E-01  0.7606E-01  0.1063E+00  0.8323E-01
     -0.137  0.5774E-01  0.6881E-01  0.1163E+00  0.9514E-01
      0.036 -0.1048E-01  0.8709E-01  0.1145E+00  0.1102E+00
      0.209  0.4912E-01  0.3706E-01  0.1230E+00  0.1166E+00
      0.382  0.2258E+00 -0.1243E-01  0.1621E+00  0.1145E+00
      0.555  0.1702E+00  0.4990E-01  0.1916E+00  0.1231E+00
      0.729  0.2399E+00  0.1890E+00  0.2331E+00  0.1559E+00
      0.902  0.2559E+00  0.1310E+00  0.2774E+00  0.1785E+00
      1.075  0.2870E+00  0.8959E-01  0.3271E+00  0.1941E+00
      1.248  0.6667E+00  0.1739E+00  0.4426E+00  0.2242E+00
      1.421  0.8725E+00  0.1022E+00  0.5937E+00  0.2419E+00
      1.595  0.7534E+00  0.8319E-01  0.7242E+00  0.2563E+00
      1.768  0.9599E+00  0.3428E-01  0.8904E+00  0.2622E+00
      1.941  0.6789E+00  0.9454E-01  0.1008E+01  0.2786E+00
      2.114  0.4288E+00  0.3975E+00  0.1082E+01  0.3474E+00
      2.287  0.5853E+00  0.4433E+00  0.1184E+01  0.4242E+00
      2.460  0.1364E+01  0.3003E+00  0.1420E+01  0.4762E+00
      2.634  0.1494E+01  0.2308E+00  0.1679E+01  0.5162E+00
      2.807  0.8382E+00  0.4050E+00  0.1824E+01  0.5863E+00
      2.980  0.1116E+01  0.3903E+00  0.2017E+01  0.6539E+00
      3.153  0.1736E+01  0.5168E+00  0.2318E+01  0.7434E+00
      3.326  0.1342E+01  0.8539E+00  0.2550E+01  0.8913E+00
      3.500  0.6783E+00  0.5011E+00  0.2668E+01  0.9780E+00
      3.673  0.3314E+00  0.2555E+00  0.2725E+01  0.1022E+01
      3.846  0.6896E+00  0.3697E+00  0.2844E+01  0.1086E+01
      4.019  0.6923E+00  0.4617E+00  0.2964E+01  0.1166E+01
      4.192  0.3240E+00  0.9922E+00  0.3020E+01  0.1338E+01
      4.365  0.9416E+00  0.1529E+01  0.3184E+01  0.1603E+01
      4.539  0.1653E+01  0.1093E+01  0.3470E+01  0.1792E+01
      4.712  0.1978E+01  0.1072E+01  0.3812E+01  0.1978E+01
      4.885  0.2378E+01  0.1185E+01  0.4224E+01  0.2183E+01
      5.058  0.1957E+01  0.1252E+01  0.4563E+01  0.2400E+01
      5.231  0.8581E+00  0.1196E+01  0.4712E+01  0.2607E+01
      5.405  0.9209E+00  0.8883E+00  0.4871E+01  0.2761E+01
      5.578  0.9856E+00  0.3277E+00  0.5042E+01  0.2818E+01
      5.751  0.6563E+00  0.9296E-01  0.5156E+01  0.2834E+01
      5.924  0.4350E+00  0.4861E+00  0.5231E+01  0.2918E+01
      6.097  0.2633E+00  0.4711E+00  0.5276E+01  0.3000E+01
      6.270  0.2174E+00  0.2102E+00  0.5314E+01  0.3036E+01
      6.444  0.1550E+00  0.2232E+00  0.5341E+01  0.3075E+01
      6.617  0.9384E-01  0.4133E+00  0.5357E+01  0.3146E+01
      6.790  0.1413E+00  0.9286E+00  0.5382E+01  0.3307E+01
      6.963  0.3327E+00  0.8984E+00  0.5439E+01  0.3463E+01
      7.136  0.1953E+00  0.9823E+00  0.5473E+01  0.3633E+01
      7.310  0.8773E-01  0.1377E+01  0.5488E+01  0.3871E+01
      7.483  0.1214E+00  0.1363E+01  0.5509E+01  0.4107E+01
      7.656  0.9740E-01  0.1906E+01  0.5526E+01  0.4438E+01
      7.829 -0.8227E-02  0.2281E+01  0.5525E+01  0.4833E+01
      8.002  0.2459E-01  0.1387E+01  0.5529E+01  0.5073E+01
      8.175  0.2592E+00  0.7146E+00  0.5574E+01  0.5197E+01
      8.349  0.2474E+00  0.4374E+00  0.5617E+01  0.5272E+01
      8.522  0.7419E-01  0.3810E+00  0.5630E+01  0.5338E+01
      8.695  0.1964E+00  0.1535E+00  0.5664E+01  0.5365E+01
      8.868  0.1717E+00  0.3125E+00  0.5693E+01  0.5419E+01
      9.041  0.1096E+00  0.3144E+00  0.5712E+01  0.5473E+01
      9.215  0.3307E-01  0.1837E+00  0.5718E+01  0.5505E+01
      9.388  0.2489E-01  0.1175E+00  0.5722E+01  0.5526E+01
      9.561  0.1626E+00  0.8758E-01  0.5751E+01  0.5541E+01
      9.734  0.1465E+00  0.2030E+00  0.5776E+01  0.5576E+01
      9.907  0.1077E+00  0.2209E+00  0.5795E+01  0.5614E+01
     10.081  0.1638E+00  0.1164E+00  0.5823E+01  0.5634E+01
     10.254  0.1169E+00  0.1681E+00  0.5843E+01  0.5663E+01
     10.427  0.9577E-02  0.1052E+00  0.5845E+01  0.5682E+01
     10.600  0.3189E-01  0.1562E+00  0.5850E+01  0.5709E+01
     10.773  0.2558E-01  0.7979E-01  0.5855E+01  0.5723E+01
     10.946  0.4363E-01  0.1050E+00  0.5862E+01  0.5741E+01
     11.120  0.1615E+00  0.2741E+00  0.5890E+01  0.5788E+01
     11.293  0.1007E+00  0.2182E+00  0.5908E+01  0.5826E+01
     11.466  0.8579E-01  0.1042E+00  0.5923E+01  0.5844E+01
     11.639  0.3467E-01  0.3029E-02  0.5929E+01  0.5845E+01
     11.812 -0.7681E-02  0.2894E-01  0.5927E+01  0.5850E+01
     11.986  0.4166E-01  0.2957E-01  0.5935E+01  0.5855E+01
     12.159  0.8418E-01  0.2745E-01  0.5949E+01  0.5859E+01
     12.332  0.7007E-01  0.1613E+00  0.5961E+01  0.5887E+01
     12.505  0.1264E+00  0.1054E+00  0.5983E+01  0.5906E+01
     12.678  0.5337E-01  0.7228E-01  0.5992E+01  0.5918E+01
     12.851 -0.7246E-02  0.9520E-01  0.5991E+01  0.5935E+01
     13.025  0.5642E-01  0.8447E-01  0.6001E+01  0.5949E+01
     13.198  0.1427E+00  0.2786E-01  0.6026E+01  0.5954E+01
     13.371  0.2045E+00  0.7939E-01  0.6061E+01  0.5968E+01
     13.544  0.1745E+00  0.5850E-01  0.6091E+01  0.5978E+01
     13.717  0.9181E-01  0.5555E-01  0.6107E+01  0.5988E+01
     13.891  0.2480E+00  0.2845E-01  0.6150E+01  0.5993E+01
     14.064  0.3370E+00 -0.3615E-02  0.6208E+01  0.5992E+01
     14.237  0.2236E+00 -0.1258E-01  0.6247E+01  0.5990E+01
     14.410  0.1301E+00  0.4929E-01  0.6270E+01  0.5998E+01
     14.583  0.2004E+00  0.2938E+00  0.6304E+01  0.6049E+01
     14.756  0.2470E+00  0.2225E+00  0.6347E+01  0.6088E+01
     14.930  0.5523E-01  0.1223E+00  0.6357E+01  0.6109E+01
     15.103  0.4775E-01  0.3100E+00  0.6365E+01  0.6163E+01
     15.276  0.1533E+00  0.4030E+00  0.6392E+01  0.6232E+01
     15.449  0.2173E+00  0.2898E+00  0.6429E+01  0.6283E+01
     15.622  0.1481E+00  0.2290E+00  0.6455E+01  0.6322E+01
     15.796  0.1671E+00  0.1842E+00  0.6484E+01  0.6354E+01
     15.969  0.3841E+00  0.2477E-01  0.6550E+01  0.6358E+01
     16.142  0.4307E+00  0.5118E-01  0.6625E+01  0.6367E+01
     16.315  0.1455E+00  0.1943E+00  0.6650E+01  0.6401E+01
     16.488 -0.6299E-02  0.3191E+00  0.6649E+01  0.6456E+01
     16.661  0.4724E-01  0.2067E+00  0.6657E+01  0.6492E+01
     16.835  0.1531E+00  0.2384E+00  0.6684E+01  0.6533E+01
     17.008  0.2237E+00  0.3560E+00  0.6722E+01  0.6595E+01
     17.181  0.1203E+00  0.2950E+00  0.6743E+01  0.6646E+01
     17.354  0.2645E+00  0.6638E-01  0.6789E+01  0.6657E+01
     17.527  0.4959E+00  0.7326E-01  0.6875E+01  0.6670E+01
     17.701  0.2970E+00  0.1150E+00  0.6926E+01  0.6690E+01
     17.874  0.7482E-01  0.2214E+00  0.6939E+01  0.6728E+01
     18.047 -0.5838E-02  0.2307E+00  0.6938E+01  0.6768E+01
     18.220 -0.1239E-01  0.3367E+00  0.6936E+01  0.6827E+01
     18.393  0.2721E-01  0.2501E+00  0.6941E+01  0.6870E+01
     18.567  0.2327E+00  0.2636E+00  0.6981E+01  0.6916E+01
     18.740  0.3052E+00  0.1306E+00  0.7034E+01  0.6938E+01
     18.913  0.2249E+00 -0.2730E-02  0.7073E+01  0.6938E+01
     19.086  0.7227E-01 -0.2369E-02  0.7086E+01  0.6937E+01
     19.259  0.2155E+00  0.1615E+00  0.7123E+01  0.6965E+01
     19.432  0.2368E+00  0.3382E+00  0.7164E+01  0.7024E+01
     19.606  0.2605E+00  0.2822E+00  0.7209E+01  0.7073E+01
     19.779  0.2890E+00  0.5809E-01  0.7259E+01  0.7083E+01
     19.952  0.3078E+00  0.1288E+00  0.7312E+01  0.7105E+01
     20.125  0.1713E+00  0.2593E+00  0.7342E+01  0.7150E+01
     20.298  0.4556E-01  0.2867E+00  0.7350E+01  0.7200E+01
     20.472 -0.5914E-02  0.3940E+00  0.7349E+01  0.7268E+01
     20.645  0.1667E+00  0.2593E+00  0.7378E+01  0.7313E+01
     20.818  0.3096E+00  0.1058E+00  0.7431E+01  0.7331E+01
     20.991  0.1546E+00  0.7676E-01  0.7458E+01  0.7345E+01
     21.164  0.5690E-01  0.5861E-01  0.7468E+01  0.7355E+01
     21.337  0.2889E-01  0.2039E+00  0.7473E+01  0.7390E+01
     21.511  0.2857E+00  0.2839E+00  0.7523E+01  0.7439E+01
     21.684  0.3046E+00  0.1674E+00  0.7575E+01  0.7468E+01
     21.857  0.3787E-01  0.9367E-02  0.7582E+01  0.7470E+01
     22.030  0.3794E-01  0.1190E+00  0.7588E+01  0.7490E+01
     22.203  0.1682E+00  0.2721E+00  0.7618E+01  0.7537E+01
     22.377  0.2043E+00  0.1963E+00  0.7653E+01  0.7571E+01
     22.550  0.1810E+00  0.4630E-01  0.7684E+01  0.7580E+01
     22.723  0.3006E+00  0.3694E-01  0.7736E+01  0.7586E+01
     22.896  0.3144E+00  0.1239E+00  0.7791E+01  0.7607E+01
     23.069  0.2277E+00  0.2731E+00  0.7830E+01  0.7655E+01
     23.242  0.3984E+00  0.3772E+00  0.7899E+01  0.7720E+01
     23.416  0.3652E+00  0.3135E+00  0.7962E+01  0.7774E+01
     23.589  0.1682E+00  0.2664E+00  0.7992E+01  0.7820E+01
     23.762  0.1092E+00  0.3413E+00  0.8010E+01  0.7880E+01
     23.935  0.1777E+00  0.4189E+00  0.8041E+01  0.7952E+01
     24.108  0.3755E+00  0.2436E+00  0.8106E+01  0.7994E+01
     24.282  0.4288E+00  0.2358E+00  0.8181E+01  0.8035E+01
     24.455  0.3125E+00  0.1667E+00  0.8235E+01  0.8064E+01
     24.628  0.1265E+00  0.2105E+00  0.8257E+01  0.8100E+01
     24.801 -0.1058E-01  0.4116E+00  0.8255E+01  0.8172E+01
     24.974  0.1500E+00  0.3314E+00  0.8281E+01  0.8229E+01
     25.147  0.3031E+00  0.2283E+00  0.8333E+01  0.8269E+01
     25.321  0.2555E+00  0.6952E-01  0.8377E+01  0.8281E+01
     25.494  0.2079E+00  0.3250E-01  0.8413E+01  0.8286E+01
     25.667  0.2307E+00  0.1269E+00  0.8453E+01  0.8308E+01
     25.840  0.4138E+00  0.3490E+00  0.8525E+01  0.8369E+01
     26.013  0.1922E+00  0.3780E+00  0.8558E+01  0.8434E+01
     26.187  0.2925E+00  0.2927E+00  0.8609E+01  0.8485E+01
     26.360  0.4853E+00  0.2565E+00  0.8693E+01  0.8529E+01
     26.533  0.2083E+00  0.2780E+00  0.8729E+01  0.8577E+01
     26.706  0.3137E+00  0.4888E+00  0.8783E+01  0.8662E+01
     26.879  0.3523E+00  0.3108E+00  0.8844E+01  0.8716E+01
     27.053  0.7732E-01  0.1584E+00  0.8858E+01  0.8743E+01
     27.226  0.4024E-03  0.2527E+00  0.8858E+01  0.8787E+01
     27.399  0.7363E-01  0.2537E+00  0.8871E+01  0.8831E+01
     27.572  0.1072E+00  0.1188E+00  0.8889E+01  0.8852E+01
     27.745  0.1376E+00  0.9296E-03  0.8913E+01  0.8852E+01
     27.918  0.3327E+00  0.6705E-01  0.8971E+01  0.8863E+01
     28.092  0.3078E+00  0.1731E+00  0.9024E+01  0.8893E+01
     28.265  0.2159E+00  0.3349E+00  0.9061E+01  0.8951E+01
     28.438  0.7527E-02  0.3386E+00  0.9063E+01  0.9010E+01
     28.611  0.9358E-03  0.1381E+00  0.9063E+01  0.9034E+01
     28.784  0.1179E+00  0.9682E-01  0.9083E+01  0.9051E+01
     28.958  0.1701E+00  0.1022E+00  0.9113E+01  0.9068E+01
     29.131  0.2517E+00  0.1464E+00  0.9156E+01  0.9094E+01
     29.304  0.2577E+00  0.9360E-01  0.9201E+01  0.9110E+01
     29.477  0.1004E+00  0.8681E-01  0.9218E+01  0.9125E+01
     29.650  0.1741E+00  0.2586E+00  0.9248E+01  0.9170E+01
     29.823  0.2068E+00  0.2843E+00  0.9284E+01  0.9219E+01
     29.997  0.9535E-01  0.2334E+00  0.9301E+01  0.9259E+01
     30.170  0.1676E+00  0.4783E-01  0.9330E+01  0.9268E+01
     30.343  0.2355E+00  0.8715E-01  0.9371E+01  0.9283E+01
     30.516  0.5390E+00  0.1198E+00  0.9464E+01  0.9304E+01
     30.689  0.5960E+00  0.2328E+00  0.9567E+01  0.9344E+01
     30.863  0.3142E+00  0.3369E+00  0.9622E+01  0.9402E+01
     31.036  0.1895E+00  0.6568E+00  0.9654E+01  0.9516E+01
     31.209  0.2366E+00  0.7034E+00  0.9695E+01  0.9638E+01
     31.382  0.1155E+00  0.3020E+00  0.9715E+01  0.9690E+01
     31.555  0.1738E+00  0.9337E-01  0.9745E+01  0.9706E+01
     31.728  0.1382E+00 -0.3985E-02  0.9769E+01  0.9706E+01
     31.902  0.5108E-01  0.1943E-01  0.9778E+01  0.9709E+01
     32.075  0.1372E-01  0.1544E+00  0.9781E+01  0.9736E+01
     32.248  0.5397E-01  0.1798E+00  0.9790E+01  0.9767E+01
     32.421  0.6103E-01  0.1307E+00  0.9801E+01  0.9789E+01
     32.594  0.1322E+00  0.3384E-01  0.9823E+01  0.9795E+01
     32.768  0.1599E+00  0.6324E-01  0.9851E+01  0.9806E+01
     32.941  0.3163E+00  0.1207E+00  0.9906E+01  0.9827E+01
     33.114  0.5380E+00  0.4082E+00  0.9999E+01  0.9898E+01
     33.287  0.5011E+00  0.3718E+00  0.1009E+02  0.9962E+01
     33.460  0.2241E+00  0.3186E-01  0.1012E+02  0.9968E+01
     33.633  0.2207E+00  0.1946E+00  0.1016E+02  0.1000E+02
     33.807  0.6686E+00  0.3757E+00  0.1028E+02  0.1007E+02
     33.980  0.4739E+00  0.2073E+00  0.1036E+02  0.1010E+02
     34.153  0.8000E-01  0.5645E+00  0.1037E+02  0.1020E+02
     34.326  0.1016E+00  0.6751E+00  0.1039E+02  0.1032E+02
     34.499  0.2259E+00  0.2379E+00  0.1043E+02  0.1036E+02
     34.673  0.2290E+00  0.1892E+00  0.1047E+02  0.1039E+02
     34.846  0.2798E+00  0.1174E+00  0.1052E+02  0.1041E+02
     35.019  0.3717E+00  0.7913E-01  0.1058E+02  0.1043E+02
     35.192  0.1459E+00  0.4158E+00  0.1061E+02  0.1050E+02
     35.365  0.2066E+00  0.4061E+00  0.1064E+02  0.1057E+02
     35.539  0.1162E+00  0.2120E+00  0.1066E+02  0.1060E+02
     35.712  0.4509E-01  0.1858E+00  0.1067E+02  0.1064E+02
     35.885  0.1463E+00  0.1070E+00  0.1070E+02  0.1065E+02
     36.058  0.2390E+00  0.1065E+00  0.1074E+02  0.1067E+02
     36.231  0.2833E+00  0.1264E+00  0.1079E+02  0.1070E+02
     36.404  0.1796E+00  0.1510E+00  0.1082E+02  0.1072E+02
     36.578  0.2441E+00  0.2546E+00  0.1086E+02  0.1077E+02
     36.751  0.3153E+00  0.2346E+00  0.1092E+02  0.1081E+02
     36.924  0.3181E+00  0.3605E+00  0.1097E+02  0.1087E+02
     37.097  0.4750E+00  0.3132E+00  0.1105E+02  0.1092E+02
     37.270  0.5615E+00  0.1959E+00  0.1115E+02  0.1096E+02
     37.444  0.2483E+00  0.4397E+00  0.1119E+02  0.1103E+02
     37.617  0.1752E+00  0.3610E+00  0.1122E+02  0.1110E+02
     37.790  0.1147E+00  0.1703E+00  0.1124E+02  0.1112E+02
     37.963  0.4003E-01  0.4101E+00  0.1125E+02  0.1120E+02
     38.136  0.1189E+00  0.2181E+00  0.1127E+02  0.1123E+02
     38.309  0.4575E+00  0.9040E-01  0.1135E+02  0.1125E+02
     38.483  0.5390E+00  0.2080E+00  0.1144E+02  0.1129E+02
     38.656  0.2439E+00  0.2611E+00  0.1149E+02  0.1133E+02
     38.829  0.7384E-01  0.2587E+00  0.1150E+02  0.1138E+02
     39.002  0.1749E+00  0.2096E+00  0.1153E+02  0.1141E+02
     39.175  0.2200E+00  0.3110E+00  0.1157E+02  0.1147E+02
     39.349  0.2054E+00  0.4661E+00  0.1160E+02  0.1155E+02
     39.522  0.1223E+00  0.3701E+00  0.1162E+02  0.1161E+02
     39.695  0.8620E-01  0.3332E-01  0.1164E+02  0.1162E+02
     39.868  0.3249E-01  0.5279E-01  0.1165E+02  0.1163E+02
     40.041  0.1007E+00  0.8883E-01  0.1166E+02  0.1164E+02
     40.214  0.7242E-01  0.9448E-02  0.1168E+02  0.1164E+02
     40.388  0.2411E+00  0.1055E+00  0.1172E+02  0.1166E+02
     40.561  0.3177E+00  0.1681E+00  0.1177E+02  0.1169E+02
     40.734  0.6797E-01  0.8365E-01  0.1178E+02  0.1170E+02
     40.907 -0.1373E-01  0.9786E-01  0.1178E+02  0.1172E+02
     41.080  0.6874E-01  0.1813E+00  0.1179E+02  0.1175E+02
     41.254  0.1437E+00  0.2649E+00  0.1182E+02  0.1180E+02
     41.427  0.1063E+00  0.5248E-01  0.1184E+02  0.1181E+02
     41.600  0.2740E-01  0.1659E-01  0.1184E+02  0.1181E+02
     41.773  0.3669E-01  0.1161E+00  0.1185E+02  0.1183E+02
     41.946  0.2210E+00  0.1466E+00  0.1189E+02  0.1186E+02
     42.119  0.1353E+00  0.1116E+00  0.1191E+02  0.1188E+02
     42.293 -0.4505E-02  0.6986E-01  0.1191E+02  0.1189E+02
     42.466  0.1296E-01  0.1058E+00  0.1191E+02  0.1191E+02
     42.639  0.2393E-01  0.1803E-01  0.1191E+02  0.1191E+02
     42.812  0.4723E-01  0.4100E-02  0.1192E+02  0.1191E+02
     42.985  0.8261E-01  0.2928E-01  0.1194E+02  0.1191E+02
     43.159  0.5084E-01  0.4345E-02  0.1195E+02  0.1192E+02
     43.332  0.8704E-01  0.3205E-01  0.1196E+02  0.1192E+02
     43.505  0.2038E-01  0.1473E+00  0.1196E+02  0.1195E+02
     43.678 -0.4013E-02  0.1029E+00  0.1196E+02  0.1196E+02
     43.851 -0.4413E-03  0.3543E-02  0.1196E+02  0.1196E+02
     44.025 -0.1535E-03 -0.4091E-02  0.1196E+02  0.1196E+02
     44.198 -0.2130E-02  0.1443E-03  0.1196E+02  0.1196E+02
     44.371  0.8918E-03  0.1515E-01  0.1196E+02  0.1197E+02
     44.544  0.6946E-01  0.1745E-01  0.1198E+02  0.1197E+02
     44.717  0.1209E+00  0.7824E-01  0.1200E+02  0.1198E+02
     44.890  0.2460E-01  0.9381E-01  0.1200E+02  0.1200E+02
     45.064 -0.5118E-02  0.7059E-02  0.1200E+02  0.1200E+02
     45.237 -0.5552E-03 -0.3374E-02  0.1200E+02  0.1200E+02
     45.410 -0.8312E-05 -0.2112E-03  0.1200E+02  0.1200E+02
     45.583 -0.2424E-07 -0.2253E-05  0.1200E+02  0.1200E+02
     45.756 -0.1480E-10 -0.5074E-08  0.1200E+02  0.1200E+02
     45.930 -0.1939E-14 -0.2526E-11  0.1200E+02  0.1200E+02
     46.103  0.0000E+00 -0.2769E-15  0.1200E+02  0.1200E+02
     46.276  0.0000E+00  0.0000E+00  0.1200E+02  0.1200E+02
     46.449  0.0000E+00  0.0000E+00  0.1200E+02  0.1200E+02
     46.622  0.0000E+00  0.0000E+00  0.1200E+02  0.1200E+02
     46.795  0.0000E+00  0.0000E+00  0.1200E+02  0.1200E+02
     46.969  0.0000E+00  0.0000E+00  0.1200E+02  0.1200E+02
     47.142  0.0000E+00  0.0000E+00  0.1200E+02  0.1200E+02
