    1    1    1    2
  0.1145315E+02  0.2459512E-09  0.2459512E-09  0.2459512E-09  0.5000000E-15
  1.000000000000000E-004
  CAR 
 bcc Fe                                  
      8     44     12
 
  0.5000000E-01  0.5000000E-01  0.5000000E-01  0.8000000E-02
    1       -2.050526     -1.849976   1.000000   1.000000
    2        3.286745      5.345233   1.000000   1.005797
    3        3.286745      5.345233   1.000000   1.005797
    4        3.793635      5.920084   1.000000   0.015643
    5        4.630694      7.392323   1.000000  -0.000000
    6        4.630694      7.392323   1.000000  -0.000000
    7       28.127994     28.257547   0.000000   0.000000
    8       28.127994     28.257547   0.000000   0.000000
    9       31.231883     30.994479   0.000000   0.000000
   10       32.446056     33.379981   0.000000   0.000000
   11       36.106297     36.454921   0.000000   0.000000
   12       36.106297     36.454921   0.000000   0.000000
 
  0.1500000E+00  0.5000000E-01  0.5000000E-01  0.2400000E-01
    1       -0.938823     -0.706470   1.000000   1.000000
    2        2.988413      4.983107   1.000000   1.000000
    3        3.137596      5.126329   1.000000   1.000031
    4        4.457186      6.633072   1.000000  -0.000000
    5        4.525360      7.214903   1.000000  -0.000000
    6        4.708603      7.488381   1.000000  -0.000000
    7       23.895279     24.399773   0.000000   0.000000
    8       26.206626     26.491804   0.000000   0.000000
    9       29.066403     29.911581   0.000000   0.000000
   10       31.507501     31.426444   0.000000   0.000000
   11       35.832866     36.482901   0.000000   0.000000
   12       36.176562     36.513202   0.000000   0.000000
 
  0.2500000E+00  0.5000000E-01  0.5000000E-01  0.2400000E-01
    1        0.415261      0.877941   1.000000   1.000000
    2        2.660518      4.584219   1.000000   1.000000
    3        3.219009      4.913766   1.000000   1.000000
    4        4.584620      7.223761   1.000000  -0.000000
    5        4.785972      7.592467   1.000000  -0.000000
    6        5.386205      7.595846   1.011192  -0.000000
    7       19.279482     20.093313   0.000000   0.000000
    8       24.476914     24.782392   0.000000   0.000000
    9       26.655560     27.419427   0.000000   0.000000
   10       31.079336     31.260385   0.000000   0.000000
   11       34.895657     35.518818   0.000000   0.000000
   12       38.154451     38.415817   0.000000   0.000000
 
  0.3500000E+00  0.5000000E-01  0.5000000E-01  0.2400000E-01
    1        0.965321      2.080792   1.000000   1.000000
    2        2.416705      4.288815   1.000000   1.000000
    3        4.272663      5.332999   1.000000   1.004662
    4        4.725455      7.336115   1.000000  -0.000000
    5        4.851830      7.691761   1.000000  -0.000000
    6        6.517317      8.557299  -0.000001  -0.000000
    7       15.160705     16.299650   0.000000   0.000000
    8       23.288497     23.562847   0.000000   0.000000
    9       25.030794     25.722774   0.000000   0.000000
   10       30.705072     31.037973   0.000000   0.000000
   11       34.567526     35.198597   0.000000   0.000000
   12       40.408924     40.559638   0.000000   0.000000
 
  0.4500000E+00  0.5000000E-01  0.5000000E-01  0.1200000E-01
    1        0.987453      2.362423   1.000000   1.000000
    2        2.326322      4.180142   1.000000   1.000000
    3        4.743093      5.964567   1.000000  -0.025228
    4        4.878003      7.382288   1.000000  -0.000000
    5        5.027265      7.731743   1.000001  -0.000000
    6        7.469426      9.090786  -0.000000  -0.000000
    7       13.043305     14.494731   0.000000   0.000000
    8       22.865688     23.122047   0.000000   0.000000
    9       24.433931     25.089314   0.000000   0.000000
   10       30.561959     30.944551   0.000000   0.000000
   11       34.536612     35.184149   0.000000   0.000000
   12       40.307249     40.374342   0.000000   0.000000
 
 -0.5000000E-01  0.5000000E-01  0.5000000E-01  0.6000000E-02
    1       -2.451679     -2.254861   1.000000   1.000000
    2        3.414454      5.498391   1.000000   1.033987
    3        3.414581      5.498545   1.000000   1.034007
    4        3.465294      5.564886   1.000000   1.024859
    5        4.595494      7.350998   1.000000  -0.000000
    6        4.722132      7.515526   1.000000  -0.000000
    7       29.462173     29.357135   0.000000   0.000000
    8       30.475394     30.338827   0.000000   0.000000
    9       30.475413     30.338849   0.000000   0.000000
   10       34.076683     34.463942   0.000000   0.000000
   11       35.999943     36.887239   0.000000   0.000000
   12       36.000030     36.887386   0.000000   0.000000
 
  0.1500000E+00  0.1500000E+00  0.5000000E-01  0.2400000E-01
    1        0.316209      0.649602   1.000000   1.000000
    2        2.764782      4.679848   1.000000   1.000000
    3        2.794490      4.688423   1.000000   1.000000
    4        4.547127      7.219153   1.000000  -0.000000
    5        4.794740      7.552963   1.000000  -0.000000
    6        5.444032      7.644011   1.022987  -0.000000
    7       21.594540     22.213859   0.000000   0.000000
    8       22.484479     23.072957   0.000000   0.000000
    9       25.889185     26.605229   0.000000   0.000000
   10       32.822304     32.742272   0.000000   0.000000
   11       36.734802     37.127305   0.000000   0.000000
   12       38.260777     38.733079   0.000000   0.000000
 
  0.2500000E+00  0.1500000E+00  0.5000000E-01  0.4800000E-01
    1        1.326546      2.136565   1.000000   1.000000
    2        2.482891      4.317709   1.000000   1.000000
    3        3.029125      4.577376   1.000000   1.000000
    4        4.643089      7.297858   1.000000  -0.000000
    5        4.897020      7.694665   1.000000  -0.000000
    6        6.826420      8.835146  -0.000000  -0.000000
    7       17.503991     18.393577   0.000000   0.000000
    8       20.640972     21.271257   0.000000   0.000000
    9       24.115934     24.741787   0.000000   0.000000
   10       33.043103     33.133860   0.000000   0.000000
   11       37.521443     37.866948   0.000000   0.000000
   12       38.939417     39.383255   0.000000   0.000000
 
  0.3500000E+00  0.1500000E+00  0.5000000E-01  0.4800000E-01
    1        1.424131      2.795376   1.000000   1.000000
    2        2.348496      4.148990   1.000000   1.000000
    3        3.765475      5.040351   1.000000   1.000002
    4        4.757374      7.415580   1.000000  -0.000000
    5        4.990352      7.754595   1.000000  -0.000000
    6        8.617741     10.149527  -0.000000  -0.000000
    7       13.897552     15.130035   0.000000   0.000000
    8       19.809815     20.433662   0.000000   0.000000
    9       23.217206     23.799998   0.000000   0.000000
   10       32.924886     33.118717   0.000000   0.000000
   11       38.216670     38.656720   0.000000   0.000000
   12       39.174551     39.395105   0.000000   0.000000
 
 -0.1500000E+00  0.1500000E+00  0.5000000E-01  0.2400000E-01
    1       -1.663739     -1.456108   1.000000   1.000000
    2        3.226584      5.269964   1.000000   1.001311
    3        3.375362      5.423153   1.000000   1.018283
    4        3.871760      6.010557   1.000000  -0.035452
    5        4.393143      7.073787   1.000000  -0.000000
    6        4.785124      7.587619   1.000000  -0.000000
    7       26.173146     26.482900   0.000000   0.000000
    8       28.844569     28.941453   0.000000   0.000000
    9       29.587156     29.800633   0.000000   0.000000
   10       33.279998     33.666898   0.000000   0.000000
   11       33.518537     34.258215   0.000000   0.000000
   12       34.495224     35.097163   0.000000   0.000000
 
  0.2500000E+00  0.2500000E+00  0.5000000E-01  0.2400000E-01
    1        1.861187      3.202474   1.000000   1.000000
    2        2.413450      4.099061   1.000000   1.000000
    3        3.006197      4.463653   1.000000   1.000000
    4        4.745368      7.411509   1.000000  -0.000000
    5        4.980581      7.735933   1.000000  -0.000000
    6        8.985012     10.595313  -0.000000  -0.000000
    7       15.876724     16.831143   0.000000   0.000000
    8       16.889507     17.723699   0.000000   0.000000
    9       23.018677     23.622160   0.000000   0.000000
   10       34.411445     34.488352   0.000000   0.000000
   11       37.281800     37.498147   0.000000   0.000000
   12       43.227038     43.533018   0.000000   0.000000
 
  0.3500000E+00  0.2500000E+00  0.5000000E-01  0.2400000E-01
    1        1.907519      3.467801   1.000000   1.000000
    2        2.454710      4.110202   1.000000   1.000000
    3        3.074491      4.516679   1.000000   1.000000
    4        4.836626      7.519041   1.000000  -0.000000
    5        4.980012      7.699018   1.000000  -0.000000
    6       11.104054     12.321897  -0.000000   0.000000
    7       13.335651     14.530130   0.000000   0.000000
    8       16.164436     17.029919   0.000000   0.000000
    9       22.675441     23.282727   0.000000   0.000000
   10       34.947549     35.061615   0.000000   0.000000
   11       37.259365     37.344249   0.000000   0.000000
   12       42.863157     43.402691   0.000000   0.000000
 
 -0.2500000E+00  0.2500000E+00  0.5000000E-01  0.2400000E-01
    1       -0.325967     -0.026206   1.000000   1.000000
    2        2.913296      4.890650   1.000000   1.000000
    3        3.278207      5.179402   1.000000   1.000141
    4        4.388948      6.825725   1.000000  -0.000000
    5        4.603709      6.977428   1.000000  -0.000000
    6        4.858868      7.661189   1.000000  -0.000000
    7       21.545046     22.230122   0.000000   0.000000
    8       26.690682     26.838629   0.000000   0.000000
    9       28.115039     28.695998   0.000000   0.000000
   10       31.437280     31.994546   0.000000   0.000000
   11       33.134213     33.711718   0.000000   0.000000
   12       35.243038     35.543166   0.000000   0.000000
 
 -0.1500000E+00  0.2500000E+00  0.5000000E-01  0.2400000E-01
    1       -0.600879     -0.347698   1.000000   1.000000
    2        3.159035      5.143342   1.000000   1.000051
    3        3.159154      5.179064   1.000000   1.000140
    4        4.203509      6.602607   1.000000  -0.000000
    5        4.425284      6.775257   1.000000  -0.000000
    6        4.930573      7.733763   1.000000  -0.000000
    7       23.763969     24.259943   0.000000   0.000000
    8       24.997614     25.531850   0.000000   0.000000
    9       29.693753     29.896192   0.000000   0.000000
   10       30.565720     31.188443   0.000000   0.000000
   11       33.259443     33.658500   0.000000   0.000000
   12       36.512055     36.952161   0.000000   0.000000
 
 -0.3500000E+00  0.3500000E+00  0.5000000E-01  0.2400000E-01
    1        0.722023      1.504248   1.000000   1.000000
    2        2.613324      4.530879   1.000000   1.000000
    3        3.747937      5.162697   1.000000   1.000089
    4        4.627795      7.141788   1.000000  -0.000000
    5        5.100553      7.750024   1.000014  -0.000000
    6        5.420388      7.775692   1.017688  -0.000000
    7       17.060998     18.044361   0.000000   0.000000
    8       24.990217     25.123530   0.000000   0.000000
    9       26.380501     27.063380   0.000000   0.000000
   10       30.437083     30.959258   0.000000   0.000000
   11       33.057330     33.659991   0.000000   0.000000
   12       37.088357     37.367143   0.000000   0.000000
 
 -0.2500000E+00  0.3500000E+00  0.5000000E-01  0.4800000E-01
    1        0.679156      1.181608   1.000000   1.000000
    2        2.804201      4.742828   1.000000   1.000000
    3        3.122162      4.942689   1.000000   1.000000
    4        4.327858      6.816345   1.000000  -0.000000
    5        4.988095      7.483798   1.000000  -0.000000
    6        5.514267      7.948203   1.035359  -0.000000
    7       19.554093     20.354775   0.000000   0.000000
    8       22.716102     23.291382   0.000000   0.000000
    9       27.878025     28.317050   0.000000   0.000000
   10       30.318640     30.723065   0.000000   0.000000
   11       33.778982     34.196653   0.000000   0.000000
   12       37.110741     37.557968   0.000000   0.000000
 
 -0.4500000E+00  0.4500000E+00  0.5000000E-01  0.2400000E-01
    1        0.908123      2.224218   1.000000   1.000000
    2        2.431937      4.315919   1.000000   1.000000
    3        4.391074      5.849666   1.000000   0.172917
    4        4.692267      7.266263   1.000000  -0.000000
    5        5.973735      8.049650  -0.029328  -0.000000
    6        6.343118      8.390564  -0.000167  -0.000000
    7       13.628964     14.986983   0.000000   0.000000
    8       24.065479     24.173425   0.000000   0.000000
    9       25.229024     25.872580   0.000000   0.000000
   10       30.044934     30.608321   0.000000   0.000000
   11       33.177250     33.832540   0.000000   0.000000
   12       38.339584     38.468601   0.000000   0.000000
 
 -0.3500000E+00  0.4500000E+00  0.5000000E-01  0.4800000E-01
    1        1.200427      2.362088   1.000000   1.000000
    2        2.608649      4.487210   1.000000   1.000000
    3        3.483772      5.001732   1.000000   1.000000
    4        4.561448      7.060050   1.000000  -0.000000
    5        5.355396      7.874284   1.006897  -0.000000
    6        6.958511      8.872308  -0.000000  -0.000000
    7       15.375176     16.476090   0.000000   0.000000
    8       21.464283     22.042997   0.000000   0.000000
    9       26.272407     26.667035   0.000000   0.000000
   10       30.496268     30.985012   0.000000   0.000000
   11       34.884162     35.215028   0.000000   0.000000
   12       36.895138     37.360517   0.000000   0.000000
 
 -0.2500000E+00  0.4500000E+00  0.5000000E-01  0.2400000E-01
    1        1.560299      2.516648   1.000000   1.000000
    2        2.466994      4.317786   1.000000   1.000000
    3        3.117544      4.844290   1.000000   1.000000
    4        4.452192      6.921176   1.000000  -0.000000
    5        5.136868      7.741231   1.000042  -0.000000
    6        7.200156      9.139799  -0.000000  -0.000000
    7       17.706692     18.607365   0.000000   0.000000
    8       18.505704     19.273415   0.000000   0.000000
    9       27.459282     27.966674   0.000000   0.000000
   10       30.095811     30.343041   0.000000   0.000000
   11       33.692003     34.093411   0.000000   0.000000
   12       41.367881     41.757299   0.000000   0.000000
 
 -0.4500000E+00 -0.4500000E+00  0.5000000E-01  0.2400000E-01
    1        1.207522      2.642230   1.000000   1.000000
    2        2.543171      4.414323   1.000000   1.000000
    3        3.727325      5.271882   1.000000   1.001367
    4        4.592611      7.134613   1.000000  -0.000000
    5        5.647586      8.071182   0.912673  -0.000000
    6        8.272097      9.687557  -0.000000  -0.000000
    7       13.098176     14.505816   0.000000   0.000000
    8       21.011408     21.581872   0.000000   0.000000
    9       25.705297     26.071438   0.000000   0.000000
   10       30.531288     31.064769   0.000000   0.000000
   11       36.046123     36.171047   0.000000   0.000000
   12       36.239744     36.812383   0.000000   0.000000
 
 -0.3500000E+00 -0.4500000E+00  0.5000000E-01  0.4800000E-01
    1        1.775417      3.252590   1.000000   1.000000
    2        2.504034      4.270670   1.000000   1.000000
    3        3.038089      4.671401   1.000000   1.000000
    4        4.672579      7.164393   1.000000  -0.000000
    5        5.280621      7.790508   1.001652  -0.000000
    6        9.544376     10.986555  -0.000000  -0.000000
    7       14.181062     15.329564   0.000000   0.000000
    8       17.347377     18.149509   0.000000   0.000000
    9       26.774258     27.260785   0.000000   0.000000
   10       30.762119     31.075988   0.000000   0.000000
   11       33.858877     34.072779   0.000000   0.000000
   12       40.395200     41.135036   0.000000   0.000000
 
 -0.3500000E+00 -0.3500000E+00  0.5000000E-01  0.8000000E-02
    1        2.224884      3.922853   1.000000   1.000000
    2        2.525014      4.174396   1.000000   1.000000
    3        2.525073      4.174433   1.000000   1.000000
    4        5.006414      7.501324   1.000001  -0.000000
    5        5.006544      7.501495   1.000001  -0.000000
    6       12.503635     13.665368   0.000000   0.000000
    7       12.503714     13.665462   0.000000   0.000000
    8       15.100917     16.086593   0.000000   0.000000
    9       26.891180     27.457383   0.000000   0.000000
   10       32.166345     32.364826   0.000000   0.000000
   11       32.166349     32.364970   0.000000   0.000000
   12       39.945443     40.908669   0.000000   0.000000
 
  0.1500000E+00  0.1500000E+00  0.1500000E+00  0.8000000E-02
    1        1.547500      2.071640   1.000000   1.000000
    2        2.478165      4.290270   1.000000   1.000000
    3        2.478165      4.290270   1.000000   1.000000
    4        4.762455      7.532098   1.000000  -0.000000
    5        4.762455      7.532098   1.000000  -0.000000
    6        6.843662      8.874068  -0.000000  -0.000000
    7       19.925599     20.599204   0.000000   0.000000
    8       19.925599     20.599204   0.000000   0.000000
    9       21.594978     22.384651   0.000000   0.000000
   10       35.686130     35.455617   0.000000   0.000000
   11       39.595166     39.898077   0.000000   0.000000
   12       39.595166     39.898077   0.000000   0.000000
 
  0.2500000E+00  0.1500000E+00  0.1500000E+00  0.2400000E-01
    1        1.960300      3.189902   1.000000   1.000000
    2        2.317765      4.059175   1.000000   1.000000
    3        2.929677      4.297637   1.000000   1.000000
    4        4.817944      7.575387   1.000000  -0.000000
    5        4.869739      7.705742   1.000000  -0.000000
    6        8.786014     10.444851  -0.000000  -0.000000
    7       16.044140     16.979359   0.000000   0.000000
    8       18.872232     19.563452   0.000000   0.000000
    9       19.899676     20.628198   0.000000   0.000000
   10       36.734046     36.668456   0.000000   0.000000
   11       40.539890     40.854908   0.000000   0.000000
   12       41.848909     41.952084   0.000000   0.000000
 
  0.3500000E+00  0.1500000E+00  0.1500000E+00  0.1200000E-01
    1        1.872777      3.332978   1.000000   1.000000
    2        2.268752      3.984738   1.000000   1.000000
    3        3.371000      4.684699   1.000000   1.000000
    4        4.851095      7.606286   1.000000  -0.000000
    5        4.897910      7.758386   1.000000  -0.000000
    6       10.589239     11.818919  -0.000000   0.000000
    7       13.424271     14.661240   0.000000   0.000000
    8       18.513711     19.207279   0.000000   0.000000
    9       19.426352     20.137053   0.000000   0.000000
   10       36.746055     36.763604   0.000000   0.000000
   11       41.149031     41.637173   0.000000   0.000000
   12       41.952330     42.038487   0.000000   0.000000
 
 -0.1500000E+00  0.1500000E+00  0.1500000E+00  0.6000000E-02
    1       -0.928395     -0.698185   1.000000   1.000000
    2        3.471700      5.510159   1.000000   1.035148
    3        3.471827      5.510311   1.000000   1.035157
    4        3.888515      6.036449   1.000000  -0.033117
    5        3.908691      6.463407   1.000000  -0.000004
    6        4.995741      7.810527   1.000000  -0.000000
    7       25.736466     25.974322   0.000000   0.000000
    8       27.379096     27.912652   0.000000   0.000000
    9       27.379198     27.912690   0.000000   0.000000
   10       29.094333     29.535245   0.000000   0.000000
   11       35.864797     36.255040   0.000000   0.000000
   12       35.864834     36.255050   0.000000   0.000000
 
  0.2500000E+00  0.2500000E+00  0.1500000E+00  0.2400000E-01
    1        2.156301      3.729506   1.000000   1.000000
    2        2.463857      4.032075   1.000000   1.000000
    3        2.830958      4.222673   1.000000   1.000000
    4        4.878568      7.687747   1.000000  -0.000000
    5        4.907677      7.749046   1.000000  -0.000000
    6       11.400639     12.653306   0.000000   0.000000
    7       14.712831     15.690252   0.000000   0.000000
    8       15.882639     16.770350   0.000000   0.000000
    9       18.760917     19.476919   0.000000   0.000000
   10       39.334692     39.280529   0.000000   0.000000
   11       41.108611     41.164801   0.000000   0.000000
   12       44.618430     44.721544   0.000000   0.000000
 
 -0.2500000E+00  0.2500000E+00  0.1500000E+00  0.2400000E-01
    1        0.282191      0.640593   1.000000   1.000000
    2        3.177013      5.267164   1.000000   1.001232
    3        3.322060      5.324816   1.000000   1.004009
    4        3.929167      6.240904   1.000000  -0.001925
    5        4.516887      6.728055   1.000000  -0.000000
    6        5.278686      7.995121   1.001585  -0.000000
    7       22.112878     22.782294   0.000000   0.000000
    8       25.217574     25.817787   0.000000   0.000000
    9       25.442051     25.885843   0.000000   0.000000
   10       29.061259     29.522055   0.000000   0.000000
   11       35.256187     35.728960   0.000000   0.000000
   12       36.584381     36.970508   0.000000   0.000000
 
 -0.3500000E+00  0.3500000E+00  0.1500000E+00  0.2400000E-01
    1        1.198637      2.062064   1.000000   1.000000
    2        2.924046      4.778771   1.000000   1.000000
    3        3.077695      5.032945   1.000000   1.000001
    4        4.311810      6.623957   1.000000  -0.000000
    5        5.345636      7.663364   1.005838  -0.000000
    6        6.171383      8.405450  -0.007127  -0.000000
    7       17.582497     18.514598   0.000000   0.000000
    8       23.432777     24.115128   0.000000   0.000000
    9       24.209425     24.584485   0.000000   0.000000
   10       30.634811     31.036534   0.000000   0.000000
   11       34.188717     34.701295   0.000000   0.000000
   12       36.456517     36.918792   0.000000   0.000000
 
 -0.2500000E+00  0.3500000E+00  0.1500000E+00  0.2400000E-01
    1        1.256281      1.948696   1.000000   1.000000
    2        2.654827      4.718719   1.000000   1.000000
    3        3.452089      5.403549   1.000000   1.014274
    4        4.068972      6.297294   1.000000  -0.000538
    5        5.028330      7.361792   1.000001  -0.000000
    6        6.158401      8.441699  -0.008794  -0.000000
    7       20.108373     20.908096   0.000000   0.000000
    8       20.772614     21.476659   0.000000   0.000000
    9       26.314618     26.761321   0.000000   0.000000
   10       27.781831     28.247939   0.000000   0.000000
   11       34.787003     35.280137   0.000000   0.000000
   12       40.010120     40.388476   0.000000   0.000000
 
 -0.4500000E+00  0.4500000E+00  0.1500000E+00  0.2400000E-01
    1        1.316341      2.751644   1.000000   1.000000
    2        2.925268      4.786280   1.000000   1.000000
    3        3.122894      4.851525   1.000000   1.000000
    4        4.386157      6.788042   1.000000  -0.000000
    5        5.923189      8.332053   0.011481  -0.000000
    6        8.092287      9.539845  -0.000000  -0.000000
    7       13.899703     15.157131   0.000000   0.000000
    8       22.371166     23.016121   0.000000   0.000000
    9       23.536266     23.912981   0.000000   0.000000
   10       32.683703     32.962169   0.000000   0.000000
   11       33.642854     34.172561   0.000000   0.000000
   12       35.415410     35.955352   0.000000   0.000000
 
 -0.3500000E+00  0.4500000E+00  0.1500000E+00  0.4800000E-01
    1        1.682035      2.990226   1.000000   1.000000
    2        2.426291      4.262334   1.000000   1.000000
    3        3.259462      5.193242   1.000000   1.000205
    4        4.408312      6.691555   1.000000  -0.000000
    5        5.504897      7.888241   1.034723  -0.000000
    6        8.170128      9.814285  -0.000000  -0.000000
    7       16.050932     17.043583   0.000000   0.000000
    8       19.216932     19.955161   0.000000   0.000000
    9       25.755283     26.196592   0.000000   0.000000
   10       29.241651     29.636817   0.000000   0.000000
   11       33.775558     34.268843   0.000000   0.000000
   12       38.426692     39.161005   0.000000   0.000000
 
 -0.4500000E+00 -0.4500000E+00  0.1500000E+00  0.2400000E-01
    1        1.633431      3.264086   1.000000   1.000000
    2        2.591974      4.289037   1.000000   1.000000
    3        3.076938      4.997880   1.000000   1.000000
    4        4.500840      6.811889   1.000000  -0.000000
    5        5.761009      8.154486   0.514231  -0.000000
    6       10.125514     11.324964  -0.000000   0.000000
    7       13.351749     14.613287   0.000000   0.000000
    8       18.734735     19.457337   0.000000   0.000000
    9       25.391187     25.828658   0.000000   0.000000
   10       31.013225     31.254820   0.000000   0.000000
   11       32.510638     33.100548   0.000000   0.000000
   12       37.110469     37.926272   0.000000   0.000000
 
 -0.3500000E+00 -0.4500000E+00  0.1500000E+00  0.2400000E-01
    1        2.066917      3.732373   1.000000   1.000000
    2        2.112243      3.892720   1.000000   1.000000
    3        2.997506      4.856424   1.000000   1.000000
    4        4.899219      7.205957   1.000000  -0.000000
    5        5.413412      7.780182   1.016228  -0.000000
    6       11.009042     12.258413  -0.000000   0.000000
    7       14.533148     15.574152   0.000000   0.000000
    8       15.817248     16.691987   0.000000   0.000000
    9       27.783032     28.151475   0.000000   0.000000
   10       28.734735     29.119527   0.000000   0.000000
   11       31.709443     32.260536   0.000000   0.000000
   12       37.068651     37.936618   0.000000   0.000000
 
  0.2500000E+00  0.2500000E+00  0.2500000E+00  0.2000000E-02
    1        2.506265      4.027751   1.000000   1.000000
    2        2.506265      4.027751   1.000000   1.000000
    3        2.506397      4.027855   1.000000   1.000000
    4        4.917943      7.781312   1.000000  -0.000000
    5        4.917943      7.781312   1.000000  -0.000000
    6       14.320240     15.302955   0.000000   0.000000
    7       14.320240     15.302955   0.000000   0.000000
    8       14.320390     15.303156   0.000000   0.000000
    9       16.467956     17.272309   0.000000   0.000000
   10       44.582128     44.370392   0.000000   0.000000
   11       44.582139     44.370392   0.000000   0.000000
   12       44.582151     44.370459   0.000000   0.000000
 
 -0.2500000E+00  0.2500000E+00  0.2500000E+00  0.6000000E-02
    1        1.122754      1.732987   1.000000   1.000000
    2        2.797789      5.056273   1.000000   1.000003
    3        3.850373      5.873398   1.000000   0.106130
    4        3.850514      5.873572   1.000000   0.105692
    5        4.577100      6.810650   1.000000  -0.000000
    6        5.962866      8.366987  -0.024328  -0.000000
    7       22.726148     23.427183   0.000000   0.000000
    8       22.726220     23.427196   0.000000   0.000000
    9       23.259391     23.843896   0.000000   0.000000
   10       25.569215     26.043445   0.000000   0.000000
   11       39.521084     39.887198   0.000000   0.000000
   12       39.521114     39.887273   0.000000   0.000000
 
 -0.3500000E+00  0.3500000E+00  0.2500000E+00  0.2400000E-01
    1        1.614366      2.756898   1.000000   1.000000
    2        2.241963      4.298514   1.000000   1.000000
    3        3.889938      5.919687   1.000000   0.016192
    4        4.228021      6.343906   1.000000  -0.000164
    5        5.241688      7.547030   1.000687  -0.000000
    6        7.483776      9.253468  -0.000000  -0.000000
    7       18.535374     19.356272   0.000000   0.000000
    8       20.766506     21.438422   0.000000   0.000000
    9       23.226848     23.850769   0.000000   0.000000
   10       26.105256     26.613620   0.000000   0.000000
   11       37.207437     37.937433   0.000000   0.000000
   12       38.421746     38.911581   0.000000   0.000000
 
 -0.4500000E+00  0.4500000E+00  0.2500000E+00  0.2400000E-01
    1        1.598028      3.274974   1.000000   1.000000
    2        2.094214      3.885640   1.000000   1.000000
    3        3.809524      5.828983   1.000000   0.241784
    4        4.396799      6.554602   1.000000  -0.000000
    5        5.836507      8.233542   0.215669  -0.000000
    6       10.011375     11.215367  -0.000000  -0.000000
    7       14.562850     15.603148   0.000000   0.000000
    8       19.622939     20.237051   0.000000   0.000000
    9       22.912330     23.562377   0.000000   0.000000
   10       28.093204     28.488851   0.000000   0.000000
   11       33.776147     34.641091   0.000000   0.000000
   12       37.777389     38.266780   0.000000   0.000000
 
 -0.3500000E+00  0.4500000E+00  0.2500000E+00  0.2400000E-01
    1        1.699141      3.262065   1.000000   1.000000
    2        1.793305      3.749662   1.000000   1.000000
    3        3.968124      5.984476   1.000000  -0.032660
    4        4.759987      6.929291   1.000000  -0.000000
    5        5.557626      7.905912   1.028283  -0.000000
    6        9.821823     11.079335  -0.000000  -0.000000
    7       16.912118     17.755801   0.000000   0.000000
    8       17.419335     18.135930   0.000000   0.000000
    9       24.093266     24.701299   0.000000   0.000000
   10       25.729987     26.263284   0.000000   0.000000
   11       33.293230     34.126288   0.000000   0.000000
   12       38.635881     39.145304   0.000000   0.000000
 
 -0.4500000E+00 -0.4500000E+00  0.2500000E+00  0.2400000E-01
    1        1.588811      3.430135   1.000000   1.000000
    2        1.738632      3.531625   1.000000   1.000000