 running on    4 total cores
 distrk:  each k-point on    4 cores,    1 groups
 distr:  one band on    1 cores,    4 groups
 using from now: INCAR     
 vasp.5.4.4.18Apr17-6-g9f103f2a35 (build Jul 01 2019 03:25:34) complex          
  
 POSCAR found :  1 types and       1 ions
 scaLAPACK will be used
 LDA part: xc-table for Pade appr. of Perdew
 POSCAR, INCAR and KPOINTS ok, starting setup
 FFT: planning ...
 WAVECAR not read
 entering main loop
       N       E                     dE             d eps       ncg     rms          rms(c)
DAV:   1     0.101602623337E+02    0.10160E+02   -0.26676E+03  2360   0.463E+02
DAV:   2    -0.883230662013E+01   -0.18993E+02   -0.17500E+02  2228   0.933E+01
DAV:   3    -0.913080059325E+01   -0.29849E+00   -0.29801E+00  2424   0.132E+01
DAV:   4    -0.913159707470E+01   -0.79648E-03   -0.79644E-03  2400   0.640E-01
DAV:   5    -0.913160088482E+01   -0.38101E-05   -0.38095E-05  1912   0.450E-02    0.112E+01
DAV:   6    -0.830875649060E+01    0.82284E+00   -0.10310E+01  2364   0.367E+01    0.497E+00
DAV:   7    -0.824527445692E+01    0.63482E-01   -0.56940E-01  2440   0.833E+00    0.300E+00
DAV:   8    -0.824155425517E+01    0.37202E-02   -0.68194E-03  2428   0.517E-01    0.148E+00
DAV:   9    -0.823583271271E+01    0.57215E-02   -0.10012E-02  2752   0.639E-01    0.374E-01
DAV:  10    -0.823630690366E+01   -0.47419E-03   -0.19175E-04  2020   0.131E-01    0.230E-01
DAV:  11    -0.823658790945E+01   -0.28101E-03   -0.57628E-04  2280   0.171E-01    0.410E-02
DAV:  12    -0.823658487615E+01    0.30333E-05   -0.19243E-05  1120   0.352E-02
   1 F= -.82365849E+01 E0= -.82369291E+01  d E =0.103279E-02  mag=     2.3256
 writing wavefunctions
