 vasp.5.4.4.18Apr17-6-g9f103f2a35 (build Jul 01 2019 03:25:34) complex          
  
 executed on             LinuxIFC date 2020.07.01  21:27:30
 running on    4 total cores
 distrk:  each k-point on    4 cores,    1 groups
 distr:  one band on NCORES_PER_BAND=   1 cores,    4 groups


--------------------------------------------------------------------------------------------------------


 INCAR:
 POTCAR:    PAW_PBE Fe 06Sep2000                  
 POTCAR:    PAW_PBE Fe 06Sep2000                  
   VRHFIN =Fe:  d7 s1                                                           
   LEXCH  = PE                                                                  
   EATOM  =   594.3153 eV,   43.6809 Ry                                         
                                                                                
   TITEL  = PAW_PBE Fe 06Sep2000                                                
   LULTRA =        F    use ultrasoft PP ?                                      
   IUNSCR =        1    unscreen: 0-lin 1-nonlin 2-no                           
   RPACOR =    2.000    partial core radius                                     
   POMASS =   55.847; ZVAL   =    8.000    mass and valenz                      
   RCORE  =    2.300    outmost cutoff radius                                   
   RWIGS  =    2.460; RWIGS  =    1.302    wigner-seitz radius (au A)           
   ENMAX  =  267.882; ENMIN  =  200.911 eV                                      
   RCLOC  =    1.701    cutoff for local pot                                    
   LCOR   =        T    correct aug charges                                     
   LPAW   =        T    paw PP                                                  
   EAUG   =  511.368                                                            
   DEXC   =    0.000                                                            
   RMAX   =    2.356    core radius for proj-oper                               
   RAUG   =    1.300    factor for augmentation sphere                          
   RDEP   =    2.442    radius for radial grids                                 
   RDEPT  =    1.890    core radius for aug-charge                              
                                                                                
   Atomic configuration                                                         
    9 entries                                                                   
     n  l   j            E        occ.                                          
     1  0  0.50     -6993.8440   2.0000                                         
     2  0  0.50      -814.6047   2.0000                                         
     2  1  1.50      -693.3689   6.0000                                         
     3  0  0.50       -89.4732   2.0000                                         
     3  1  1.50       -55.6373   6.0000                                         
     3  2  2.50        -3.8151   7.0000                                         
     4  0  0.50        -4.2551   1.0000                                         
     4  1  1.50        -3.4015   0.0000                                         
     4  3  2.50        -1.3606   0.0000                                         
   Description                                                                  
     l       E           TYP  RCUT    TYP  RCUT                                 
     2     -3.8151135     23  2.300                                             
     2     -5.1756961     23  2.300                                             
     0     -4.2550963     23  2.300                                             
     0      7.2035603     23  2.300                                             
     1     -2.7211652     23  2.300                                             
     1     18.4316424     23  2.300                                             
  local pseudopotential read in
  partial core-charges read in
  partial kinetic energy density read in
  atomic valenz-charges read in
  non local Contribution for L=           2  read in
    real space projection operators read in
  non local Contribution for L=           2  read in
    real space projection operators read in
  non local Contribution for L=           0  read in
    real space projection operators read in
  non local Contribution for L=           0  read in
    real space projection operators read in
  non local Contribution for L=           1  read in
    real space projection operators read in
  non local Contribution for L=           1  read in
    real space projection operators read in
    PAW grid and wavefunctions read in
 
   number of l-projection  operators is LMAX  =           6
   number of lm-projection operators is LMMAX =          18
 
  PAW_PBE Fe 06Sep2000                  :
 energy of atom  1       EATOM= -594.3153
 kinetic energy error for atom=    0.0345 (will be added to EATOM!!)
 
 
 POSCAR: Fe bulk bcc                             
  positions in direct lattice
  No initial velocities read in
 exchange correlation table for  LEXCH =        8
   RHO(1)=    0.500       N(1)  =     2000
   RHO(2)=  100.500       N(2)  =     4000
 


--------------------------------------------------------------------------------------------------------


 ion  position               nearest neighbor table
   1  0.000  0.000  0.000-
 
  LATTYP: Found a body centered cubic cell.
 ALAT       =     2.8400000000
  
  Lattice vectors:
  
 A1 = (  -1.4200000000,   1.4200000000,   1.4200000000)
 A2 = (   1.4200000000,  -1.4200000000,   1.4200000000)
 A3 = (   1.4200000000,   1.4200000000,  -1.4200000000)


Analysis of symmetry for initial positions (statically):
=====================================================================
 Subroutine PRICEL returns:
 Original cell was already a primitive cell.
 

 Routine SETGRP: Setting up the symmetry group for a 
 body centered cubic supercell.


 Subroutine GETGRP returns: Found 48 space group operations
 (whereof 48 operations were pure point group operations)
 out of a pool of 48 trial point group operations.


The static configuration has the point symmetry O_h .


Analysis of symmetry for dynamics (positions and initial velocities):
=====================================================================
 Subroutine PRICEL returns:
 Original cell was already a primitive cell.
 

 Routine SETGRP: Setting up the symmetry group for a 
 body centered cubic supercell.


 Subroutine GETGRP returns: Found 48 space group operations
 (whereof 48 operations were pure point group operations)
 out of a pool of 48 trial point group operations.


The dynamic configuration has the point symmetry O_h .


Analysis of structural, dynamic, and magnetic symmetry:
=====================================================================
 Subroutine PRICEL returns:
 Original cell was already a primitive cell.
 

 Routine SETGRP: Setting up the symmetry group for a 
 body centered cubic supercell.


 Subroutine GETGRP returns: Found 48 space group operations
 (whereof 48 operations were pure point group operations)
 out of a pool of 48 trial point group operations.


The magnetic configuration has the point symmetry O_h .


 Subroutine INISYM returns: Found 48 space group operations
 (whereof 48 operations are pure point group operations),
 and found     1 'primitive' translations

 
 
 KPOINTS: 10x10x10                                

Automatic generation of k-mesh.
Space group operators:
 irot       det(A)        alpha          n_x          n_y          n_z        tau_x        tau_y        tau_z
    1     1.000000     0.000000     1.000000     0.000000     0.000000     0.000000     0.000000     0.000000
    2    -1.000000     0.000000     1.000000     0.000000     0.000000     0.000000     0.000000     0.000000
    3     1.000000   120.000000    -0.577350    -0.577350    -0.577350     0.000000     0.000000     0.000000
    4    -1.000000   120.000000    -0.577350    -0.577350    -0.577350     0.000000     0.000000     0.000000
    5     1.000000   120.000000     0.577350     0.577350     0.577350     0.000000     0.000000     0.000000
    6    -1.000000   120.000000     0.577350     0.577350     0.577350     0.000000     0.000000     0.000000
    7     1.000000    90.000000     0.000000     0.000000    -1.000000     0.000000     0.000000     0.000000
    8    -1.000000    90.000000     0.000000     0.000000    -1.000000     0.000000     0.000000     0.000000
    9     1.000000   180.000000     0.000000     0.707107     0.707107     0.000000     0.000000     0.000000
   10    -1.000000   180.000000     0.000000     0.707107     0.707107     0.000000     0.000000     0.000000
   11     1.000000    90.000000     0.000000     1.000000     0.000000     0.000000     0.000000     0.000000
   12    -1.000000    90.000000     0.000000     1.000000     0.000000     0.000000     0.000000     0.000000
   13     1.000000   180.000000     0.000000     0.000000     1.000000     0.000000     0.000000     0.000000
   14    -1.000000   180.000000     0.000000     0.000000     1.000000     0.000000     0.000000     0.000000
   15     1.000000   120.000000    -0.577350     0.577350     0.577350     0.000000     0.000000     0.000000
   16    -1.000000   120.000000    -0.577350     0.577350     0.577350     0.000000     0.000000     0.000000
   17     1.000000   120.000000    -0.577350     0.577350    -0.577350     0.000000     0.000000     0.000000
   18    -1.000000   120.000000    -0.577350     0.577350    -0.577350     0.000000     0.000000     0.000000
   19     1.000000    90.000000     0.000000     0.000000     1.000000     0.000000     0.000000     0.000000
   20    -1.000000    90.000000     0.000000     0.000000     1.000000     0.000000     0.000000     0.000000
   21     1.000000    90.000000    -1.000000     0.000000     0.000000     0.000000     0.000000     0.000000
   22    -1.000000    90.000000    -1.000000     0.000000     0.000000     0.000000     0.000000     0.000000
   23     1.000000   180.000000     0.707107     0.000000     0.707107     0.000000     0.000000     0.000000
   24    -1.000000   180.000000     0.707107     0.000000     0.707107     0.000000     0.000000     0.000000
   25     1.000000   120.000000     0.577350    -0.577350     0.577350     0.000000     0.000000     0.000000
   26    -1.000000   120.000000     0.577350    -0.577350     0.577350     0.000000     0.000000     0.000000
   27     1.000000   120.000000    -0.577350    -0.577350     0.577350     0.000000     0.000000     0.000000
   28    -1.000000   120.000000    -0.577350    -0.577350     0.577350     0.000000     0.000000     0.000000
   29     1.000000   180.000000     1.000000     0.000000     0.000000     0.000000     0.000000     0.000000
   30    -1.000000   180.000000     1.000000     0.000000     0.000000     0.000000     0.000000     0.000000
   31     1.000000    90.000000     0.000000    -1.000000     0.000000     0.000000     0.000000     0.000000
   32    -1.000000    90.000000     0.000000    -1.000000     0.000000     0.000000     0.000000     0.000000
   33     1.000000   180.000000     0.707107     0.707107     0.000000     0.000000     0.000000     0.000000
   34    -1.000000   180.000000     0.707107     0.707107     0.000000     0.000000     0.000000     0.000000
   35     1.000000    90.000000     1.000000     0.000000     0.000000     0.000000     0.000000     0.000000
   36    -1.000000    90.000000     1.000000     0.000000     0.000000     0.000000     0.000000     0.000000
   37     1.000000   120.000000     0.577350    -0.577350    -0.577350     0.000000     0.000000     0.000000
   38    -1.000000   120.000000     0.577350    -0.577350    -0.577350     0.000000     0.000000     0.000000
   39     1.000000   180.000000     0.000000     1.000000     0.000000     0.000000     0.000000     0.000000
   40    -1.000000   180.000000     0.000000     1.000000     0.000000     0.000000     0.000000     0.000000
   41     1.000000   120.000000     0.577350     0.577350    -0.577350     0.000000     0.000000     0.000000
   42    -1.000000   120.000000     0.577350     0.577350    -0.577350     0.000000     0.000000     0.000000
   43     1.000000   180.000000     0.000000    -0.707107     0.707107     0.000000     0.000000     0.000000
   44    -1.000000   180.000000     0.000000    -0.707107     0.707107     0.000000     0.000000     0.000000
   45     1.000000   180.000000     0.707107    -0.707107     0.000000     0.000000     0.000000     0.000000
   46    -1.000000   180.000000     0.707107    -0.707107     0.000000     0.000000     0.000000     0.000000
   47     1.000000   180.000000     0.707107     0.000000    -0.707107     0.000000     0.000000     0.000000
   48    -1.000000   180.000000     0.707107     0.000000    -0.707107     0.000000     0.000000     0.000000
 
 Subroutine IBZKPT returns following result:
 ===========================================
 
 Found     44 irreducible k-points:
 
 Following reciprocal coordinates:
            Coordinates               Weight
  0.050000  0.050000  0.050000      8.000000
  0.150000  0.050000  0.050000     24.000000
  0.250000  0.050000  0.050000     24.000000
  0.350000  0.050000  0.050000     24.000000
  0.450000  0.050000  0.050000     12.000000
 -0.050000  0.050000  0.050000      6.000000
  0.150000  0.150000  0.050000     24.000000
  0.250000  0.150000  0.050000     48.000000
  0.350000  0.150000  0.050000     48.000000
 -0.150000  0.150000  0.050000     24.000000
  0.250000  0.250000  0.050000     24.000000
  0.350000  0.250000  0.050000     24.000000
 -0.250000  0.250000  0.050000     24.000000
 -0.150000  0.250000  0.050000     24.000000
 -0.350000  0.350000  0.050000     24.000000
 -0.250000  0.350000  0.050000     48.000000
 -0.450000  0.450000  0.050000     24.000000
 -0.350000  0.450000  0.050000     48.000000
 -0.250000  0.450000  0.050000     24.000000
 -0.450000 -0.450000  0.050000     24.000000
 -0.350000 -0.450000  0.050000     48.000000
 -0.350000 -0.350000  0.050000      8.000000
  0.150000  0.150000  0.150000      8.000000
  0.250000  0.150000  0.150000     24.000000
  0.350000  0.150000  0.150000     12.000000
 -0.150000  0.150000  0.150000      6.000000
  0.250000  0.250000  0.150000     24.000000
 -0.250000  0.250000  0.150000     24.000000
 -0.350000  0.350000  0.150000     24.000000
 -0.250000  0.350000  0.150000     24.000000
 -0.450000  0.450000  0.150000     24.000000
 -0.350000  0.450000  0.150000     48.000000
 -0.450000 -0.450000  0.150000     24.000000
 -0.350000 -0.450000  0.150000     24.000000
  0.250000  0.250000  0.250000      2.000000
 -0.250000  0.250000  0.250000      6.000000
 -0.350000  0.350000  0.250000     24.000000
 -0.450000  0.450000  0.250000     24.000000
 -0.350000  0.450000  0.250000     24.000000
 -0.450000 -0.450000  0.250000     24.000000
 -0.350000  0.350000  0.350000      6.000000
 -0.450000  0.450000  0.350000     24.000000
 -0.450000 -0.450000  0.350000      8.000000
 -0.450000  0.450000  0.450000      6.000000
 
 Following cartesian coordinates:
            Coordinates               Weight
  0.100000  0.100000  0.100000      8.000000
  0.100000  0.200000  0.200000     24.000000
  0.100000  0.300000  0.300000     24.000000
  0.100000  0.400000  0.400000     24.000000
  0.100000  0.500000  0.500000     12.000000
  0.100000  0.000000  0.000000      6.000000
  0.200000  0.200000  0.300000     24.000000
  0.200000  0.300000  0.400000     48.000000
  0.200000  0.400000  0.500000     48.000000
  0.200000 -0.100000  0.000000     24.000000
  0.300000  0.300000  0.500000     24.000000
  0.300000  0.400000  0.600000     24.000000
  0.300000 -0.200000  0.000000     24.000000
  0.300000 -0.100000  0.100000     24.000000
  0.400000 -0.300000  0.000000     24.000000
  0.400000 -0.200000  0.100000     48.000000
  0.500000 -0.400000  0.000000     24.000000
  0.500000 -0.300000  0.100000     48.000000
  0.500000 -0.200000  0.200000     24.000000
 -0.400000 -0.400000 -0.900000     24.000000
 -0.400000 -0.300000 -0.800000     48.000000
 -0.300000 -0.300000 -0.700000      8.000000
  0.300000  0.300000  0.300000      8.000000
  0.300000  0.400000  0.400000     24.000000
  0.300000  0.500000  0.500000     12.000000
  0.300000  0.000000  0.000000      6.000000
  0.400000  0.400000  0.500000     24.000000
  0.400000 -0.100000  0.000000     24.000000
  0.500000 -0.200000  0.000000     24.000000
  0.500000 -0.100000  0.100000     24.000000
  0.600000 -0.300000  0.000000     24.000000
  0.600000 -0.200000  0.100000     48.000000
 -0.300000 -0.300000 -0.900000     24.000000
 -0.300000 -0.200000 -0.800000     24.000000
  0.500000  0.500000  0.500000      2.000000
  0.500000  0.000000  0.000000      6.000000
  0.600000 -0.100000  0.000000     24.000000
  0.700000 -0.200000  0.000000     24.000000
  0.700000 -0.100000  0.100000     24.000000
 -0.200000 -0.200000 -0.900000     24.000000
  0.700000  0.000000  0.000000      6.000000
  0.800000 -0.100000  0.000000     24.000000
 -0.100000 -0.100000 -0.900000      8.000000
  0.900000  0.000000  0.000000      6.000000
 


--------------------------------------------------------------------------------------------------------




 Dimension of arrays:
   k-points           NKPTS =     44   k-points in BZ     NKDIM =     44   number of bands    NBANDS=     12
   number of dos      NEDOS =    301   number of ions     NIONS =      1
   non local maximal  LDIM  =      6   non local SUM 2l+1 LMDIM =     18
   total plane-waves  NPLWV =   1000
   max r-space proj   IRMAX =      1   max aug-charges    IRDMAX=   3309
   dimension x,y,z NGX =    10 NGY =   10 NGZ =   10
   dimension x,y,z NGXF=    20 NGYF=   20 NGZF=   20
   support grid    NGXF=    20 NGYF=   20 NGZF=   20
   ions per type =               1
   NGX,Y,Z   is equivalent  to a cutoff of   6.76,  6.76,  6.76 a.u.
   NGXF,Y,Z  is equivalent  to a cutoff of  13.52, 13.52, 13.52 a.u.

 SYSTEM =  bcc Fe                                  
 POSCAR =  Fe bulk bcc                             

 Startparameter for this run:
   NWRITE =      2    write-flag & timer
   PREC   = normal    normal or accurate (medium, high low for compatibility)
   ISTART =      0    job   : 0-new  1-cont  2-samecut
   ICHARG =      2    charge: 1-file 2-atom 10-const
   ISPIN  =      2    spin polarized calculation?
   LNONCOLLINEAR =      F non collinear calculations
   LSORBIT =      F    spin-orbit coupling
   INIWAV =      1    electr: 0-lowe 1-rand  2-diag
   LASPH  =      F    aspherical Exc in radial PAW
   METAGGA=      F    non-selfconsistent MetaGGA calc.

 Electronic Relaxation 1
   ENCUT  =  268.0 eV  19.70 Ry    4.44 a.u.   3.28  3.28  3.28*2*pi/ulx,y,z
   ENINI  =  268.0     initial cutoff
   ENAUG  =  511.4 eV  augmentation charge cutoff
   NELM   =     60;   NELMIN=  2; NELMDL= -5     # of ELM steps 
   EDIFF  = 0.1E-03   stopping-criterion for ELM
   LREAL  =      F    real-space projection
   NLSPLINE    = F    spline interpolate recip. space projectors
   LCOMPAT=      F    compatible to vasp.4.4
   GGA_COMPAT  = T    GGA compatible to vasp.4.4-vasp.4.6
   LMAXPAW     = -100 max onsite density
   LMAXMIX     =    2 max onsite mixed and CHGCAR
   VOSKOWN=      0    Vosko Wilk Nusair interpolation
   ROPT   =    0.00000
 Ionic relaxation
   EDIFFG = 0.1E-02   stopping-criterion for IOM
   NSW    =      0    number of steps for IOM
   NBLOCK =      1;   KBLOCK =      1    inner block; outer block 
   IBRION =     -1    ionic relax: 0-MD 1-quasi-New 2-CG
   NFREE  =      0    steps in history (QN), initial steepest desc. (CG)
   ISIF   =      2    stress and relaxation
   IWAVPR =     10    prediction:  0-non 1-charg 2-wave 3-comb
   ISYM   =      2    0-nonsym 1-usesym 2-fastsym
   LCORR  =      T    Harris-Foulkes like correction to forces

   POTIM  = 0.5000    time-step for ionic-motion
   TEIN   =    0.0    initial temperature
   TEBEG  =    0.0;   TEEND  =   0.0 temperature during run
   SMASS  =  -3.00    Nose mass-parameter (am)
   estimated Nose-frequenzy (Omega)   =  0.10E-29 period in steps =****** mass=  -0.138E-27a.u.
   SCALEE = 1.0000    scale energy and forces
   NPACO  =    256;   APACO  = 16.0  distance and # of slots for P.C.
   PSTRESS=    0.0 pullay stress

  Mass of Ions in am
   POMASS =  55.85
  Ionic Valenz
   ZVAL   =   8.00
  Atomic Wigner-Seitz radii
   RWIGS  =  -1.00
  virtual crystal weights 
   VCA    =   1.00
   NELECT =       8.0000    total number of electrons
   NUPDOWN=      -1.0000    fix difference up-down

 DOS related values:
   EMIN   =  10.00;   EMAX   =-10.00  energy-range for DOS
   EFERMI =   0.00
   ISMEAR =     1;   SIGMA  =   0.20  broadening in eV -4-tet -1-fermi 0-gaus

 Electronic relaxation 2 (details)
   IALGO  =     38    algorithm
   LDIAG  =      T    sub-space diagonalisation (order eigenvalues)
   LSUBROT=      F    optimize rotation matrix (better conditioning)
   TURBO    =      0    0=normal 1=particle mesh
   IRESTART =      0    0=no restart 2=restart with 2 vectors
   NREBOOT  =      0    no. of reboots
   NMIN     =      0    reboot dimension
   EREF     =   0.00    reference energy to select bands
   IMIX   =      4    mixing-type and parameters
     AMIX     =   0.40;   BMIX     =  1.00
     AMIX_MAG =   1.60;   BMIX_MAG =  1.00
     AMIN     =   0.10
     WC   =   100.;   INIMIX=   1;  MIXPRE=   1;  MAXMIX= -45

 Intra band minimization:
   WEIMIN = 0.0000     energy-eigenvalue tresh-hold
   EBREAK =  0.21E-05  absolut break condition
   DEPER  =   0.30     relativ break condition  

   TIME   =   0.40     timestep for ELM

  volume/ion in A,a.u.               =      11.45        77.29
  Fermi-wavevector in a.u.,A,eV,Ry     =   1.452546  2.744913 28.706785  2.109889
  Thomas-Fermi vector in A             =   2.569915
 
 Write flags
   LWAVE        =      T    write WAVECAR
   LDOWNSAMPLE  =      F    k-point downsampling of WAVECAR
   LCHARG       =      T    write CHGCAR
   LVTOT        =      F    write LOCPOT, total local potential
   LVHAR        =      F    write LOCPOT, Hartree potential only
   LELF         =      F    write electronic localiz. function (ELF)
   LORBIT       =      0    0 simple, 1 ext, 2 COOP (PROOUT), +10 PAW based schemes


 Dipole corrections
   LMONO  =      F    monopole corrections only (constant potential shift)
   LDIPOL =      F    correct potential (dipole corrections)
   IDIPOL =      0    1-x, 2-y, 3-z, 4-all directions 
   EPSILON=  1.0000000 bulk dielectric constant

 Exchange correlation treatment:
   GGA     =    --    GGA type
   LEXCH   =     8    internal setting for exchange type
   VOSKOWN=      0    Vosko Wilk Nusair interpolation
   LHFCALC =     F    Hartree Fock is set to
   LHFONE  =     F    Hartree Fock one center treatment
   AEXX    =    0.0000 exact exchange contribution

 Linear response parameters
   LEPSILON=     F    determine dielectric tensor
   LRPA    =     F    only Hartree local field effects (RPA)
   LNABLA  =     F    use nabla operator in PAW spheres
   LVEL    =     F    velocity operator in full k-point grid
   LINTERFAST=   F  fast interpolation
   KINTER  =     0    interpolate to denser k-point grid
   CSHIFT  =0.1000    complex shift for real part using Kramers Kronig
   OMEGAMAX=  -1.0    maximum frequency
   DEG_THRESHOLD= 0.2000000E-02 threshold for treating states as degnerate
   RTIME   =   -0.100 relaxation time in fs
  (WPLASMAI=    0.000 imaginary part of plasma frequency in eV, 0.658/RTIME)
   DFIELD  = 0.0000000 0.0000000 0.0000000 field for delta impulse in time
 
 Orbital magnetization related:
   ORBITALMAG=     F  switch on orbital magnetization
   LCHIMAG   =     F  perturbation theory with respect to B field
   DQ        =  0.001000  dq finite difference perturbation B field
   LLRAUG    =     F  two centre corrections for induced B field



--------------------------------------------------------------------------------------------------------


 Static calculation
 charge density and potential will be updated during run
 spin polarized calculation
 Variant of blocked Davidson
 Davidson routine will perform the subspace rotation
 perform sub-space diagonalisation
    after iterative eigenvector-optimisation
 modified Broyden-mixing scheme, WC =      100.0
 initial mixing is a Kerker type mixing with AMIX =  0.4000 and BMIX =      1.0000
 Hartree-type preconditioning will be used
 using additional bands            8
 reciprocal scheme for non local part
 use partial core corrections
 calculate Harris-corrections to forces 
   (improved forces if not selfconsistent)
 use gradient corrections 
 use of overlap-Matrix (Vanderbilt PP)
 Methfessel and Paxton  Order N= 1 SIGMA  =   0.20


--------------------------------------------------------------------------------------------------------


  energy-cutoff  :      268.00
  volume of cell :       11.45
      direct lattice vectors                 reciprocal lattice vectors
    -1.420000000  1.420000000  1.420000000     0.000000000  0.352112676  0.352112676
     1.420000000 -1.420000000  1.420000000     0.352112676  0.000000000  0.352112676
     1.420000000  1.420000000 -1.420000000     0.352112676  0.352112676  0.000000000

  length of vectors
     2.459512147  2.459512147  2.459512147     0.497962522  0.497962522  0.497962522


 
 k-points in units of 2pi/SCALE and weight: 10x10x10                                
   0.10000000  0.10000000  0.10000000       0.008
   0.10000000  0.20000000  0.20000000       0.024
   0.10000000  0.30000000  0.30000000       0.024
   0.10000000  0.40000000  0.40000000       0.024
   0.10000000  0.50000000  0.50000000       0.012
   0.10000000  0.00000000  0.00000000       0.006
   0.20000000  0.20000000  0.30000000       0.024
   0.20000000  0.30000000  0.40000000       0.048
   0.20000000  0.40000000  0.50000000       0.048
   0.20000000 -0.10000000  0.00000000       0.024
   0.30000000  0.30000000  0.50000000       0.024
   0.30000000  0.40000000  0.60000000       0.024
   0.30000000 -0.20000000  0.00000000       0.024
   0.30000000 -0.10000000  0.10000000       0.024
   0.40000000 -0.30000000  0.00000000       0.024
   0.40000000 -0.20000000  0.10000000       0.048
   0.50000000 -0.40000000  0.00000000       0.024
   0.50000000 -0.30000000  0.10000000       0.048
   0.50000000 -0.20000000  0.20000000       0.024
  -0.40000000 -0.40000000 -0.90000000       0.024
  -0.40000000 -0.30000000 -0.80000000       0.048
  -0.30000000 -0.30000000 -0.70000000       0.008
   0.30000000  0.30000000  0.30000000       0.008
   0.30000000  0.40000000  0.40000000       0.024
   0.30000000  0.50000000  0.50000000       0.012
   0.30000000  0.00000000  0.00000000       0.006
   0.40000000  0.40000000  0.50000000       0.024
   0.40000000 -0.10000000  0.00000000       0.024
   0.50000000 -0.20000000  0.00000000       0.024
   0.50000000 -0.10000000  0.10000000       0.024
   0.60000000 -0.30000000  0.00000000       0.024
   0.60000000 -0.20000000  0.10000000       0.048
  -0.30000000 -0.30000000 -0.90000000       0.024
  -0.30000000 -0.20000000 -0.80000000       0.024
   0.50000000  0.50000000  0.50000000       0.002
   0.50000000  0.00000000  0.00000000       0.006
   0.60000000 -0.10000000  0.00000000       0.024
   0.70000000 -0.20000000  0.00000000       0.024
   0.70000000 -0.10000000  0.10000000       0.024
  -0.20000000 -0.20000000 -0.90000000       0.024
   0.70000000  0.00000000  0.00000000       0.006
   0.80000000 -0.10000000  0.00000000       0.024
  -0.10000000 -0.10000000 -0.90000000       0.008
   0.90000000  0.00000000  0.00000000       0.006
 
 k-points in reciprocal lattice and weights: 10x10x10                                
   0.05000000  0.05000000  0.05000000       0.008
   0.15000000  0.05000000  0.05000000       0.024
   0.25000000  0.05000000  0.05000000       0.024
   0.35000000  0.05000000  0.05000000       0.024
   0.45000000  0.05000000  0.05000000       0.012
  -0.05000000  0.05000000  0.05000000       0.006
   0.15000000  0.15000000  0.05000000       0.024
   0.25000000  0.15000000  0.05000000       0.048
   0.35000000  0.15000000  0.05000000       0.048
  -0.15000000  0.15000000  0.05000000       0.024
   0.25000000  0.25000000  0.05000000       0.024
   0.35000000  0.25000000  0.05000000       0.024
  -0.25000000  0.25000000  0.05000000       0.024
  -0.15000000  0.25000000  0.05000000       0.024
  -0.35000000  0.35000000  0.05000000       0.024
  -0.25000000  0.35000000  0.05000000       0.048
  -0.45000000  0.45000000  0.05000000       0.024
  -0.35000000  0.45000000  0.05000000       0.048
  -0.25000000  0.45000000  0.05000000       0.024
  -0.45000000 -0.45000000  0.05000000       0.024
  -0.35000000 -0.45000000  0.05000000       0.048
  -0.35000000 -0.35000000  0.05000000       0.008
   0.15000000  0.15000000  0.15000000       0.008
   0.25000000  0.15000000  0.15000000       0.024
   0.35000000  0.15000000  0.15000000       0.012
  -0.15000000  0.15000000  0.15000000       0.006
   0.25000000  0.25000000  0.15000000       0.024
  -0.25000000  0.25000000  0.15000000       0.024
  -0.35000000  0.35000000  0.15000000       0.024
  -0.25000000  0.35000000  0.15000000       0.024
  -0.45000000  0.45000000  0.15000000       0.024
  -0.35000000  0.45000000  0.15000000       0.048
  -0.45000000 -0.45000000  0.15000000       0.024
  -0.35000000 -0.45000000  0.15000000       0.024
   0.25000000  0.25000000  0.25000000       0.002
  -0.25000000  0.25000000  0.25000000       0.006
  -0.35000000  0.35000000  0.25000000       0.024
  -0.45000000  0.45000000  0.25000000       0.024
  -0.35000000  0.45000000  0.25000000       0.024
  -0.45000000 -0.45000000  0.25000000       0.024
  -0.35000000  0.35000000  0.35000000       0.006
  -0.45000000  0.45000000  0.35000000       0.024
  -0.45000000 -0.45000000  0.35000000       0.008
  -0.45000000  0.45000000  0.45000000       0.006
 
 position of ions in fractional coordinates (direct lattice) 
   0.00000000  0.00000000  0.00000000
 
 position of ions in cartesian coordinates  (Angst):
   0.00000000  0.00000000  0.00000000
 


--------------------------------------------------------------------------------------------------------


 k-point  1 :   0.0500 0.0500 0.0500  plane waves:     117
 k-point  2 :   0.1500 0.0500 0.0500  plane waves:     115
 k-point  3 :   0.2500 0.0500 0.0500  plane waves:     114
 k-point  4 :   0.3500 0.0500 0.0500  plane waves:     114
 k-point  5 :   0.4500 0.0500 0.0500  plane waves:     114
 k-point  6 :  -0.0500 0.0500 0.0500  plane waves:     119
 k-point  7 :   0.1500 0.1500 0.0500  plane waves:     113
 k-point  8 :   0.2500 0.1500 0.0500  plane waves:     114
 k-point  9 :   0.3500 0.1500 0.0500  plane waves:     114
 k-point 10 :  -0.1500 0.1500 0.0500  plane waves:     117
 k-point 11 :   0.2500 0.2500 0.0500  plane waves:     114
 k-point 12 :   0.3500 0.2500 0.0500  plane waves:     115
 k-point 13 :  -0.2500 0.2500 0.0500  plane waves:     116
 k-point 14 :  -0.1500 0.2500 0.0500  plane waves:     112
 k-point 15 :  -0.3500 0.3500 0.0500  plane waves:     112
 k-point 16 :  -0.2500 0.3500 0.0500  plane waves:     112
 k-point 17 :  -0.4500 0.4500 0.0500  plane waves:     116
 k-point 18 :  -0.3500 0.4500 0.0500  plane waves:     115
 k-point 19 :  -0.2500 0.4500 0.0500  plane waves:     116
 k-point 20 :  -0.4500-0.4500 0.0500  plane waves:     118
 k-point 21 :  -0.3500-0.4500 0.0500  plane waves:     113
 k-point 22 :  -0.3500-0.3500 0.0500  plane waves:     119
 k-point 23 :   0.1500 0.1500 0.1500  plane waves:     119
 k-point 24 :   0.2500 0.1500 0.1500  plane waves:     117
 k-point 25 :   0.3500 0.1500 0.1500  plane waves:     118
 k-point 26 :  -0.1500 0.1500 0.1500  plane waves:     112
 k-point 27 :   0.2500 0.2500 0.1500  plane waves:     117
 k-point 28 :  -0.2500 0.2500 0.1500  plane waves:     114
 k-point 29 :  -0.3500 0.3500 0.1500  plane waves:     113
 k-point 30 :  -0.2500 0.3500 0.1500  plane waves:     116
 k-point 31 :  -0.4500 0.4500 0.1500  plane waves:     113
 k-point 32 :  -0.3500 0.4500 0.1500  plane waves:     114
 k-point 33 :  -0.4500-0.4500 0.1500  plane waves:     113
 k-point 34 :  -0.3500-0.4500 0.1500  plane waves:     115
 k-point 35 :   0.2500 0.2500 0.2500  plane waves:     104
 k-point 36 :  -0.2500 0.2500 0.2500  plane waves:     116
 k-point 37 :  -0.3500 0.3500 0.2500  plane waves:     115
 k-point 38 :  -0.4500 0.4500 0.2500  plane waves:     113
 k-point 39 :  -0.3500 0.4500 0.2500  plane waves:     110
 k-point 40 :  -0.4500-0.4500 0.2500  plane waves:     110
 k-point 41 :  -0.3500 0.3500 0.3500  plane waves:     112
 k-point 42 :  -0.4500 0.4500 0.3500  plane waves:     114
 k-point 43 :  -0.4500-0.4500 0.3500  plane waves:     116
 k-point 44 :  -0.4500 0.4500 0.4500  plane waves:     116

 maximum and minimum number of plane-waves per node :       119      104

 maximum number of plane-waves:       119
 maximum index in each direction: 
   IXMAX=    3   IYMAX=    3   IZMAX=    3
   IXMIN=   -3   IYMIN=   -3   IZMIN=   -3


 serial   3D FFT for wavefunctions
 parallel 3D FFT for charge:
    minimum data exchange during FFTs selected (reduces bandwidth)


 total amount of memory used by VASP MPI-rank0    31846. kBytes
=======================================================================

   base      :      30000. kBytes
   nonl-proj :        762. kBytes
   fftplans  :        142. kBytes
   grid      :        320. kBytes
   one-center:         31. kBytes
   wavefun   :        591. kBytes
 
     INWAV:  cpu time    0.0000: real time    0.0002
 Broyden mixing: mesh for mixing (old mesh)
   NGX =  7   NGY =  7   NGZ =  7
  (NGX  = 20   NGY  = 20   NGZ  = 20)
  gives a total of    343 points

 initial charge density was supplied:
 charge density of overlapping atoms calculated
 number of electron       8.0000000 magnetization       3.0000000
 keeping initial charge density in first step


--------------------------------------------------------------------------------------------------------


 Maximum index for augmentation-charges          749 (set IRDMAX)


--------------------------------------------------------------------------------------------------------


 First call to EWALD:  gamma=   0.786
 Maximum number of real-space cells 3x 3x 3
 Maximum number of reciprocal cells 3x 3x 3

    FEWALD:  cpu time    0.0010: real time    0.0009


--------------------------------------- Iteration      1(   1)  ---------------------------------------


    POTLOK:  cpu time    0.0034: real time    0.0064
    SETDIJ:  cpu time    0.0037: real time    0.0037
     EDDAV:  cpu time    0.1105: real time    0.1225
       DOS:  cpu time    0.0008: real time    0.0014
    --------------------------------------------
      LOOP:  cpu time    0.1184: real time    0.1340

 eigenvalue-minimisations  :  2360
 total energy-change (2. order) : 0.1016026E+02  (-0.2667564E+03)
 number of electron       8.0000000 magnetization       3.0000000
 augmentation part        8.0000000 magnetization       3.0000000

 Free energy of the ion-electron system (eV)
  ---------------------------------------------------
  alpha Z        PSCENC =        60.34476448
  Ewald energy   TEWEN  =      -590.46971399
  -Hartree energ DENC   =      -112.15860924
  -exchange      EXHF   =         0.00000000
  -V(xc)+E(xc)   XCENC  =         5.05162620
  PAW double counting   =       553.75926685     -561.48528711
  entropy T*S    EENTRO =        -0.00045645
  eigenvalues    EBANDS =        60.83782662
  atomic energy  EATOM  =       594.28084496
  Solvation  Ediel_sol  =         0.00000000
  ---------------------------------------------------
  free energy    TOTEN  =        10.16026233 eV

  energy without entropy =       10.16071878  energy(sigma->0) =       10.16041448


--------------------------------------------------------------------------------------------------------




--------------------------------------- Iteration      1(   2)  ---------------------------------------


     EDDAV:  cpu time    0.0987: real time    0.1009
       DOS:  cpu time    0.0009: real time    0.0008
    --------------------------------------------
      LOOP:  cpu time    0.0996: real time    0.1017

 eigenvalue-minimisations  :  2228
 total energy-change (2. order) :-0.1899257E+02  (-0.1750020E+02)
 number of electron       8.0000000 magnetization       3.0000000
 augmentation part        8.0000000 magnetization       3.0000000

 Free energy of the ion-electron system (eV)
  ---------------------------------------------------
  alpha Z        PSCENC =        60.34476448
  Ewald energy   TEWEN  =      -590.46971399
  -Hartree energ DENC   =      -112.15860924
  -exchange      EXHF   =         0.00000000
  -V(xc)+E(xc)   XCENC  =         5.05162620
  PAW double counting   =       553.75926685     -561.48528711
  entropy T*S    EENTRO =         0.00013447
  eigenvalues    EBANDS =        41.84466676
  atomic energy  EATOM  =       594.28084496
  Solvation  Ediel_sol  =         0.00000000
  ---------------------------------------------------
  free energy    TOTEN  =        -8.83230662 eV

  energy without entropy =       -8.83244109  energy(sigma->0) =       -8.83235144


--------------------------------------------------------------------------------------------------------




--------------------------------------- Iteration      1(   3)  ---------------------------------------


     EDDAV:  cpu time    0.1044: real time    0.1067
       DOS:  cpu time    0.0009: real time    0.0008
    --------------------------------------------
      LOOP:  cpu time    0.1052: real time    0.1076

 eigenvalue-minimisations  :  2424
 total energy-change (2. order) :-0.2984940E+00  (-0.2980097E+00)
 number of electron       8.0000000 magnetization       3.0000000
 augmentation part        8.0000000 magnetization       3.0000000

 Free energy of the ion-electron system (eV)
  ---------------------------------------------------
  alpha Z        PSCENC =        60.34476448
  Ewald energy   TEWEN  =      -590.46971399
  -Hartree energ DENC   =      -112.15860924
  -exchange      EXHF   =         0.00000000
  -V(xc)+E(xc)   XCENC  =         5.05162620
  PAW double counting   =       553.75926685     -561.48528711
  entropy T*S    EENTRO =         0.00089564
  eigenvalues    EBANDS =        41.54541161
  atomic energy  EATOM  =       594.28084496
  Solvation  Ediel_sol  =         0.00000000
  ---------------------------------------------------
  free energy    TOTEN  =        -9.13080059 eV

  energy without entropy =       -9.13169623  energy(sigma->0) =       -9.13109914


--------------------------------------------------------------------------------------------------------




--------------------------------------- Iteration      1(   4)  ---------------------------------------


     EDDAV:  cpu time    0.1038: real time    0.1061
       DOS:  cpu time    0.0009: real time    0.0008
    --------------------------------------------
      LOOP:  cpu time    0.1047: real time    0.1069

 eigenvalue-minimisations  :  2400
 total energy-change (2. order) :-0.7964814E-03  (-0.7964446E-03)
 number of electron       8.0000000 magnetization       3.0000000
 augmentation part        8.0000000 magnetization       3.0000000

 Free energy of the ion-electron system (eV)
  ---------------------------------------------------
  alpha Z        PSCENC =        60.34476448
  Ewald energy   TEWEN  =      -590.46971399
  -Hartree energ DENC   =      -112.15860924
  -exchange      EXHF   =         0.00000000
  -V(xc)+E(xc)   XCENC  =         5.05162620
  PAW double counting   =       553.75926685     -561.48528711
  entropy T*S    EENTRO =         0.00090025
  eigenvalues    EBANDS =        41.54461052
  atomic energy  EATOM  =       594.28084496
  Solvation  Ediel_sol  =         0.00000000
  ---------------------------------------------------
  free energy    TOTEN  =        -9.13159707 eV

  energy without entropy =       -9.13249733  energy(sigma->0) =       -9.13189716


--------------------------------------------------------------------------------------------------------




--------------------------------------- Iteration      1(   5)  ---------------------------------------


     EDDAV:  cpu time    0.0907: real time    0.0930
       DOS:  cpu time    0.0009: real time    0.0008
    CHARGE:  cpu time    0.0020: real time    0.0020
    MIXING:  cpu time    0.0002: real time    0.0002
    --------------------------------------------
      LOOP:  cpu time    0.0937: real time    0.0960

 eigenvalue-minimisations  :  1912
 total energy-change (2. order) :-0.3810120E-05  (-0.3809485E-05)
 number of electron       8.0000092 magnetization       1.8576672
 augmentation part        3.6287967 magnetization       1.2250289

 Broyden mixing:
  rms(total) = 0.11173E+01    rms(broyden)= 0.11168E+01
  rms(prec ) = 0.33826E+01
  weight for this iteration     100.00

 Free energy of the ion-electron system (eV)
  ---------------------------------------------------
  alpha Z        PSCENC =        60.34476448
  Ewald energy   TEWEN  =      -590.46971399
  -Hartree energ DENC   =      -112.15860924
  -exchange      EXHF   =         0.00000000
  -V(xc)+E(xc)   XCENC  =         5.05162620
  PAW double counting   =       553.75926685     -561.48528711
  entropy T*S    EENTRO =         0.00090029
  eigenvalues    EBANDS =        41.54460667
  atomic energy  EATOM  =       594.28084496
  Solvation  Ediel_sol  =         0.00000000
  ---------------------------------------------------
  free energy    TOTEN  =        -9.13160088 eV

  energy without entropy =       -9.13250117  energy(sigma->0) =       -9.13190098


--------------------------------------------------------------------------------------------------------




--------------------------------------- Iteration      1(   6)  ---------------------------------------


    POTLOK:  cpu time    0.0025: real time    0.0027
    SETDIJ:  cpu time    0.0030: real time    0.0030
     EDDAV:  cpu time    0.1019: real time    0.1041
       DOS:  cpu time    0.0009: real time    0.0008
    CHARGE:  cpu time    0.0018: real time    0.0018
    MIXING:  cpu time    0.0003: real time    0.0004
    --------------------------------------------
      LOOP:  cpu time    0.1105: real time    0.1129

 eigenvalue-minimisations  :  2364
 total energy-change (2. order) : 0.8228444E+00  (-0.1031021E+01)
 number of electron       8.0000110 magnetization       2.1874909
 augmentation part        4.2788474 magnetization       1.8070455

 Broyden mixing:
  rms(total) = 0.49749E+00    rms(broyden)= 0.49724E+00
  rms(prec ) = 0.72996E+00
  weight for this iteration     100.00

 eigenvalues of (default mixing * dielectric matrix)
  average eigenvalue GAMMA=   0.7073
  0.7073

 Free energy of the ion-electron system (eV)
  ---------------------------------------------------
  alpha Z        PSCENC =        60.34476448
  Ewald energy   TEWEN  =      -590.46971399
  -Hartree energ DENC   =       -95.60782122
  -exchange      EXHF   =         0.00000000
  -V(xc)+E(xc)   XCENC  =         3.93376486
  PAW double counting   =       606.31765851     -612.01600888
  entropy T*S    EENTRO =        -0.00111694
  eigenvalues    EBANDS =        24.90887172
  atomic energy  EATOM  =       594.28084496
  Solvation  Ediel_sol  =         0.00000000
  ---------------------------------------------------
  free energy    TOTEN  =        -8.30875649 eV

  energy without entropy =       -8.30763955  energy(sigma->0) =       -8.30838418


--------------------------------------------------------------------------------------------------------




--------------------------------------- Iteration      1(   7)  ---------------------------------------


    POTLOK:  cpu time    0.0027: real time    0.0027
    SETDIJ:  cpu time    0.0030: real time    0.0030
     EDDAV:  cpu time    0.1045: real time    0.1066
       DOS:  cpu time    0.0008: real time    0.0008
    CHARGE:  cpu time    0.0021: real time    0.0021
    MIXING:  cpu time    0.0003: real time    0.0002
    --------------------------------------------
      LOOP:  cpu time    0.1134: real time    0.1155

 eigenvalue-minimisations  :  2440
 total energy-change (2. order) : 0.6348203E-01  (-0.5694020E-01)
 number of electron       8.0000106 magnetization       2.2516654
 augmentation part        4.1338196 magnetization       1.8411130

 Broyden mixing:
  rms(total) = 0.30026E+00    rms(broyden)= 0.30026E+00
  rms(prec ) = 0.38162E+00
  weight for this iteration     100.00

 eigenvalues of (default mixing * dielectric matrix)
  average eigenvalue GAMMA=   0.7754
  0.9826  0.5683

 Free energy of the ion-electron system (eV)
  ---------------------------------------------------
  alpha Z        PSCENC =        60.34476448
  Ewald energy   TEWEN  =      -590.46971399
  -Hartree energ DENC   =       -97.83329579
  -exchange      EXHF   =         0.00000000
  -V(xc)+E(xc)   XCENC  =         4.32479608
  PAW double counting   =       643.70615576     -651.11379135
  entropy T*S    EENTRO =        -0.00215900
  eigenvalues    EBANDS =        28.51712439
  atomic energy  EATOM  =       594.28084496
  Solvation  Ediel_sol  =         0.00000000
  ---------------------------------------------------
  free energy    TOTEN  =        -8.24527446 eV

  energy without entropy =       -8.24311546  energy(sigma->0) =       -8.24455479


--------------------------------------------------------------------------------------------------------




--------------------------------------- Iteration      1(   8)  ---------------------------------------


    POTLOK:  cpu time    0.0026: real time    0.0028
    SETDIJ:  cpu time    0.0029: real time    0.0029
     EDDAV:  cpu time    0.1052: real time    0.1074
       DOS:  cpu time    0.0009: real time    0.0008
    CHARGE:  cpu time    0.0020: real time    0.0020
    MIXING:  cpu time    0.0002: real time    0.0002
    --------------------------------------------
      LOOP:  cpu time    0.1138: real time    0.1161

 eigenvalue-minimisations  :  2428
 total energy-change (2. order) : 0.3720202E-02  (-0.6819350E-03)
 number of electron       8.0000106 magnetization       2.3739931
 augmentation part        4.1438763 magnetization       1.9547270

 Broyden mixing:
  rms(total) = 0.14794E+00    rms(broyden)= 0.14793E+00
  rms(prec ) = 0.20485E+00
  weight for this iteration     100.00

 eigenvalues of (default mixing * dielectric matrix)
  average eigenvalue GAMMA=   1.2147
  2.2461  0.7951  0.6028

 Free energy of the ion-electron system (eV)
  ---------------------------------------------------
  alpha Z        PSCENC =        60.34476448
  Ewald energy   TEWEN  =      -590.46971399
  -Hartree energ DENC   =       -97.12117081
  -exchange      EXHF   =         0.00000000
  -V(xc)+E(xc)   XCENC  =         4.36258357
  PAW double counting   =       667.12973504     -675.10256214
  entropy T*S    EENTRO =        -0.00101568
  eigenvalues    EBANDS =        28.33498032
  atomic energy  EATOM  =       594.28084496
  Solvation  Ediel_sol  =         0.00000000
  ---------------------------------------------------
  free energy    TOTEN  =        -8.24155426 eV

  energy without entropy =       -8.24053858  energy(sigma->0) =       -8.24121570


--------------------------------------------------------------------------------------------------------




--------------------------------------- Iteration      1(   9)  ---------------------------------------


    POTLOK:  cpu time    0.0026: real time    0.0027
    SETDIJ:  cpu time    0.0028: real time    0.0028
     EDDAV:  cpu time    0.1159: real time    0.1181
       DOS:  cpu time    0.0009: real time    0.0008
    CHARGE:  cpu time    0.0020: real time    0.0020
    MIXING:  cpu time    0.0003: real time    0.0002
    --------------------------------------------
      LOOP:  cpu time    0.1245: real time    0.1268

 eigenvalue-minimisations  :  2752
 total energy-change (2. order) : 0.5721542E-02  (-0.1001181E-02)
 number of electron       8.0000106 magnetization       2.3552509
 augmentation part        4.1576572 magnetization       1.9299129

 Broyden mixing:
  rms(total) = 0.37388E-01    rms(broyden)= 0.37305E-01
  rms(prec ) = 0.40892E-01
  weight for this iteration     100.00

 eigenvalues of (default mixing * dielectric matrix)
  average eigenvalue GAMMA=   1.0820
  2.3025  0.7307  0.7307  0.5639

 Free energy of the ion-electron system (eV)
  ---------------------------------------------------
  alpha Z        PSCENC =        60.34476448
  Ewald energy   TEWEN  =      -590.46971399
  -Hartree energ DENC   =       -95.91127306
  -exchange      EXHF   =         0.00000000
  -V(xc)+E(xc)   XCENC  =         4.46783656
  PAW double counting   =       713.18146035     -722.20921077
  entropy T*S    EENTRO =         0.00212518
  eigenvalues    EBANDS =        28.07733359
  atomic energy  EATOM  =       594.28084496
  Solvation  Ediel_sol  =         0.00000000
  ---------------------------------------------------
  free energy    TOTEN  =        -8.23583271 eV

  energy without entropy =       -8.23795789  energy(sigma->0) =       -8.23654111


--------------------------------------------------------------------------------------------------------




--------------------------------------- Iteration      1(  10)  ---------------------------------------


    POTLOK:  cpu time    0.0025: real time    0.0027
    SETDIJ:  cpu time    0.0029: real time    0.0029
     EDDAV:  cpu time    0.0928: real time    0.0950
       DOS:  cpu time    0.0008: real time    0.0008
    CHARGE:  cpu time    0.0021: real time    0.0021
    MIXING:  cpu time    0.0002: real time    0.0002
    --------------------------------------------
      LOOP:  cpu time    0.1014: real time    0.1036

 eigenvalue-minimisations  :  2020
 total energy-change (2. order) :-0.4741910E-03  (-0.1917478E-04)
 number of electron       8.0000106 magnetization       2.3302367
 augmentation part        4.1556014 magnetization       1.9048600

 Broyden mixing:
  rms(total) = 0.22952E-01    rms(broyden)= 0.22948E-01
  rms(prec ) = 0.24503E-01
  weight for this iteration     100.00

 eigenvalues of (default mixing * dielectric matrix)
  average eigenvalue GAMMA=   1.2492
  2.7497  1.3192  0.6597  0.6597  0.8577

 Free energy of the ion-electron system (eV)
  ---------------------------------------------------
  alpha Z        PSCENC =        60.34476448
  Ewald energy   TEWEN  =      -590.46971399
  -Hartree energ DENC   =       -95.90949325
  -exchange      EXHF   =         0.00000000
  -V(xc)+E(xc)   XCENC  =         4.45073905
  PAW double counting   =       715.43053239     -724.49526844
  entropy T*S    EENTRO =         0.00180729
  eigenvalues    EBANDS =        28.12948060
  atomic energy  EATOM  =       594.28084496
  Solvation  Ediel_sol  =         0.00000000
  ---------------------------------------------------
  free energy    TOTEN  =        -8.23630690 eV

  energy without entropy =       -8.23811419  energy(sigma->0) =       -8.23690933


--------------------------------------------------------------------------------------------------------




--------------------------------------- Iteration      1(  11)  ---------------------------------------


    POTLOK:  cpu time    0.0026: real time    0.0027
    SETDIJ:  cpu time    0.0030: real time    0.0030
     EDDAV:  cpu time    0.1015: real time    0.1046
       DOS:  cpu time    0.0010: real time    0.0008
    CHARGE:  cpu time    0.0023: real time    0.0023
    MIXING:  cpu time    0.0002: real time    0.0002
    --------------------------------------------
      LOOP:  cpu time    0.1105: real time    0.1137

 eigenvalue-minimisations  :  2280
 total energy-change (2. order) :-0.2810058E-03  (-0.5762794E-04)
 number of electron       8.0000106 magnetization       2.3255109
 augmentation part        4.1542824 magnetization       1.8990522

 Broyden mixing:
  rms(total) = 0.41043E-02    rms(broyden)= 0.40976E-02
  rms(prec ) = 0.62024E-02
  weight for this iteration     100.00

 eigenvalues of (default mixing * dielectric matrix)
  average eigenvalue GAMMA=   1.1420
  2.6511  1.3823  0.8712  0.6710  0.6710  0.6053

 Free energy of the ion-electron system (eV)
  ---------------------------------------------------
  alpha Z        PSCENC =        60.34476448
  Ewald energy   TEWEN  =      -590.46971399
  -Hartree energ DENC   =       -95.87952467
  -exchange      EXHF   =         0.00000000
  -V(xc)+E(xc)   XCENC  =         4.41990509
  PAW double counting   =       719.55895547     -728.65254576
  entropy T*S    EENTRO =         0.00113577
  eigenvalues    EBANDS =        28.15959074
  atomic energy  EATOM  =       594.28084496
  Solvation  Ediel_sol  =         0.00000000
  ---------------------------------------------------
  free energy    TOTEN  =        -8.23658791 eV

  energy without entropy =       -8.23772368  energy(sigma->0) =       -8.23696650


--------------------------------------------------------------------------------------------------------




--------------------------------------- Iteration      1(  12)  ---------------------------------------


    POTLOK:  cpu time    0.0027: real time    0.0028
    SETDIJ:  cpu time    0.0030: real time    0.0030
     EDDAV:  cpu time    0.0694: real time    0.0715
       DOS:  cpu time    0.0008: real time    0.0008
    --------------------------------------------
      LOOP:  cpu time    0.0759: real time    0.0781

 eigenvalue-minimisations  :  1120
 total energy-change (2. order) : 0.3033309E-05  (-0.1924327E-05)
 number of electron       8.0000106 magnetization       2.3255109
 augmentation part        4.1542824 magnetization       1.8990522

 Free energy of the ion-electron system (eV)
  ---------------------------------------------------
  alpha Z        PSCENC =        60.34476448
  Ewald energy   TEWEN  =      -590.46971399
  -Hartree energ DENC   =       -95.90522182
  -exchange      EXHF   =         0.00000000
  -V(xc)+E(xc)   XCENC  =         4.41598472
  PAW double counting   =       718.87021505     -727.93461311
  entropy T*S    EENTRO =         0.00103279
  eigenvalues    EBANDS =        28.16012205
  atomic energy  EATOM  =       594.28084496
  Solvation  Ediel_sol  =         0.00000000
  ---------------------------------------------------
  free energy    TOTEN  =        -8.23658488 eV

  energy without entropy =       -8.23761767  energy(sigma->0) =       -8.23692914


--------------------------------------------------------------------------------------------------------




 average (electrostatic) potential at core
  the test charge radii are     1.0103
  (the norm of the test charge is              1.0000)
       1 -43.3470
 
 
 
 E-fermi :   5.7644     XC(G=0): -13.0640     alpha+bet :-13.5338


 spin component 1

 k-point     1 :       0.0500    0.0500    0.0500
  band No.  band energies     occupation 
      1      -2.0505      1.00000
      2       3.2867      1.00000
      3       3.2867      1.00000
      4       3.7936      1.00000
      5       4.6307      1.00000
      6       4.6307      1.00000
      7      28.1280      0.00000
      8      28.1280      0.00000
      9      31.2319      0.00000
     10      32.4461      0.00000
     11      36.1063      0.00000
     12      36.1063      0.00000

 k-point     2 :       0.1500    0.0500    0.0500
  band No.  band energies     occupation 
      1      -0.9388      1.00000
      2       2.9884      1.00000
      3       3.1376      1.00000
      4       4.4572      1.00000
      5       4.5254      1.00000
      6       4.7086      1.00000
      7      23.8953      0.00000
      8      26.2066      0.00000
      9      29.0664      0.00000
     10      31.5075      0.00000
     11      35.8329      0.00000
     12      36.1766      0.00000

 k-point     3 :       0.2500    0.0500    0.0500
  band No.  band energies     occupation 
      1       0.4153      1.00000
      2       2.6605      1.00000
      3       3.2190      1.00000
      4       4.5846      1.00000
      5       4.7860      1.00000
      6       5.3862      1.01119
      7      19.2795      0.00000
      8      24.4769      0.00000
      9      26.6556      0.00000
     10      31.0793      0.00000
     11      34.8957      0.00000
     12      38.1545      0.00000

 k-point     4 :       0.3500    0.0500    0.0500
  band No.  band energies     occupation 
      1       0.9653      1.00000
      2       2.4167      1.00000
      3       4.2727      1.00000
      4       4.7255      1.00000
      5       4.8518      1.00000
      6       6.5173     -0.00000
      7      15.1607      0.00000
      8      23.2885      0.00000
      9      25.0308      0.00000
     10      30.7051      0.00000
     11      34.5675      0.00000
     12      40.4089      0.00000

 k-point     5 :       0.4500    0.0500    0.0500
  band No.  band energies     occupation 
      1       0.9875      1.00000
      2       2.3263      1.00000
      3       4.7431      1.00000
      4       4.8780      1.00000
      5       5.0273      1.00000
      6       7.4694     -0.00000
      7      13.0433      0.00000
      8      22.8657      0.00000
      9      24.4339      0.00000
     10      30.5620      0.00000
     11      34.5366      0.00000
     12      40.3072      0.00000

 k-point     6 :      -0.0500    0.0500    0.0500
  band No.  band energies     occupation 
      1      -2.4517      1.00000
      2       3.4145      1.00000
      3       3.4146      1.00000
      4       3.4653      1.00000
      5       4.5955      1.00000
      6       4.7221      1.00000
      7      29.4622      0.00000
      8      30.4754      0.00000
      9      30.4754      0.00000
     10      34.0767      0.00000
     11      35.9999      0.00000
     12      36.0000      0.00000

 k-point     7 :       0.1500    0.1500    0.0500
  band No.  band energies     occupation 
      1       0.3162      1.00000
      2       2.7648      1.00000
      3       2.7945      1.00000
      4       4.5471      1.00000
      5       4.7947      1.00000
      6       5.4440      1.02299
      7      21.5945      0.00000
      8      22.4845      0.00000
      9      25.8892      0.00000
     10      32.8223      0.00000
     11      36.7348      0.00000
     12      38.2608      0.00000

 k-point     8 :       0.2500    0.1500    0.0500
  band No.  band energies     occupation 
      1       1.3265      1.00000
      2       2.4829      1.00000
      3       3.0291      1.00000
      4       4.6431      1.00000
      5       4.8970      1.00000
      6       6.8264     -0.00000
      7      17.5040      0.00000
      8      20.6410      0.00000
      9      24.1159      0.00000
     10      33.0431      0.00000
     11      37.5214      0.00000
     12      38.9394      0.00000

 k-point     9 :       0.3500    0.1500    0.0500
  band No.  band energies     occupation 
      1       1.4241      1.00000
      2       2.3485      1.00000
      3       3.7655      1.00000
      4       4.7574      1.00000
      5       4.9904      1.00000
      6       8.6177     -0.00000
      7      13.8976      0.00000
      8      19.8098      0.00000
      9      23.2172      0.00000
     10      32.9249      0.00000
     11      38.2167      0.00000
     12      39.1746      0.00000

 k-point    10 :      -0.1500    0.1500    0.0500
  band No.  band energies     occupation 
      1      -1.6637      1.00000
      2       3.2266      1.00000
      3       3.3754      1.00000
      4       3.8718      1.00000
      5       4.3931      1.00000
      6       4.7851      1.00000
      7      26.1731      0.00000
      8      28.8446      0.00000
      9      29.5872      0.00000
     10      33.2800      0.00000
     11      33.5185      0.00000
     12      34.4952      0.00000

 k-point    11 :       0.2500    0.2500    0.0500
  band No.  band energies     occupation 
      1       1.8612      1.00000
      2       2.4134      1.00000
      3       3.0062      1.00000
      4       4.7454      1.00000
      5       4.9806      1.00000
      6       8.9850     -0.00000
      7      15.8767      0.00000
      8      16.8895      0.00000
      9      23.0187      0.00000
     10      34.4114      0.00000
     11      37.2818      0.00000
     12      43.2270      0.00000

 k-point    12 :       0.3500    0.2500    0.0500
  band No.  band energies     occupation 
      1       1.9075      1.00000
      2       2.4547      1.00000
      3       3.0745      1.00000
      4       4.8366      1.00000
      5       4.9800      1.00000
      6      11.1041     -0.00000
      7      13.3357      0.00000
      8      16.1644      0.00000
      9      22.6754      0.00000
     10      34.9475      0.00000
     11      37.2594      0.00000
     12      42.8632      0.00000

 k-point    13 :      -0.2500    0.2500    0.0500
  band No.  band energies     occupation 
      1      -0.3260      1.00000
      2       2.9133      1.00000
      3       3.2782      1.00000
      4       4.3889      1.00000
      5       4.6037      1.00000
      6       4.8589      1.00000
      7      21.5450      0.00000
      8      26.6907      0.00000
      9      28.1150      0.00000
     10      31.4373      0.00000
     11      33.1342      0.00000
     12      35.2430      0.00000

 k-point    14 :      -0.1500    0.2500    0.0500
  band No.  band energies     occupation 
      1      -0.6009      1.00000
      2       3.1590      1.00000
      3       3.1592      1.00000
      4       4.2035      1.00000
      5       4.4253      1.00000
      6       4.9306      1.00000
      7      23.7640      0.00000
      8      24.9976      0.00000
      9      29.6938      0.00000
     10      30.5657      0.00000
     11      33.2594      0.00000
     12      36.5121      0.00000

 k-point    15 :      -0.3500    0.3500    0.0500
  band No.  band energies     occupation 
      1       0.7220      1.00000
      2       2.6133      1.00000
      3       3.7479      1.00000
      4       4.6278      1.00000
      5       5.1006      1.00001
      6       5.4204      1.01769
      7      17.0610      0.00000
      8      24.9902      0.00000
      9      26.3805      0.00000
     10      30.4371      0.00000
     11      33.0573      0.00000
     12      37.0884      0.00000

 k-point    16 :      -0.2500    0.3500    0.0500
  band No.  band energies     occupation 
      1       0.6792      1.00000
      2       2.8042      1.00000
      3       3.1222      1.00000
      4       4.3279      1.00000
      5       4.9881      1.00000
      6       5.5143      1.03536
      7      19.5541      0.00000
      8      22.7161      0.00000
      9      27.8780      0.00000
     10      30.3186      0.00000
     11      33.7790      0.00000
     12      37.1107      0.00000

 k-point    17 :      -0.4500    0.4500    0.0500
  band No.  band energies     occupation 
      1       0.9081      1.00000
      2       2.4319      1.00000
      3       4.3911      1.00000
      4       4.6923      1.00000
      5       5.9737     -0.02933
      6       6.3431     -0.00017
      7      13.6290      0.00000
      8      24.0655      0.00000
      9      25.2290      0.00000
     10      30.0449      0.00000
     11      33.1772      0.00000
     12      38.3396      0.00000

 k-point    18 :      -0.3500    0.4500    0.0500
  band No.  band energies     occupation 
      1       1.2004      1.00000
      2       2.6086      1.00000
      3       3.4838      1.00000
      4       4.5614      1.00000
      5       5.3554      1.00690
      6       6.9585     -0.00000
      7      15.3752      0.00000
      8      21.4643      0.00000
      9      26.2724      0.00000
     10      30.4963      0.00000
     11      34.8842      0.00000
     12      36.8951      0.00000

 k-point    19 :      -0.2500    0.4500    0.0500
  band No.  band energies     occupation 
      1       1.5603      1.00000
      2       2.4670      1.00000
      3       3.1175      1.00000
      4       4.4522      1.00000
      5       5.1369      1.00004
      6       7.2002     -0.00000
      7      17.7067      0.00000
      8      18.5057      0.00000
      9      27.4593      0.00000
     10      30.0958      0.00000
     11      33.6920      0.00000
     12      41.3679      0.00000

 k-point    20 :      -0.4500   -0.4500    0.0500
  band No.  band energies     occupation 
      1       1.2075      1.00000
      2       2.5432      1.00000
      3       3.7273      1.00000
      4       4.5926      1.00000
      5       5.6476      0.91267
      6       8.2721     -0.00000
      7      13.0982      0.00000
      8      21.0114      0.00000
      9      25.7053      0.00000
     10      30.5313      0.00000
     11      36.0461      0.00000
     12      36.2397      0.00000

 k-point    21 :      -0.3500   -0.4500    0.0500
  band No.  band energies     occupation 
      1       1.7754      1.00000
      2       2.5040      1.00000
      3       3.0381      1.00000
      4       4.6726      1.00000
      5       5.2806      1.00165
      6       9.5444     -0.00000
      7      14.1811      0.00000
      8      17.3474      0.00000
      9      26.7743      0.00000
     10      30.7621      0.00000
     11      33.8589      0.00000
     12      40.3952      0.00000

 k-point    22 :      -0.3500   -0.3500    0.0500
  band No.  band energies     occupation 
      1       2.2249      1.00000
      2       2.5250      1.00000
      3       2.5251      1.00000
      4       5.0064      1.00000
      5       5.0065      1.00000
      6      12.5036      0.00000
      7      12.5037      0.00000
      8      15.1009      0.00000
      9      26.8912      0.00000
     10      32.1663      0.00000
     11      32.1663      0.00000
     12      39.9454      0.00000

 k-point    23 :       0.1500    0.1500    0.1500
  band No.  band energies     occupation 
      1       1.5475      1.00000
      2       2.4782      1.00000
      3       2.4782      1.00000
      4       4.7625      1.00000
      5       4.7625      1.00000
      6       6.8437     -0.00000
      7      19.9256      0.00000
      8      19.9256      0.00000
      9      21.5950      0.00000
     10      35.6861      0.00000
     11      39.5952      0.00000
     12      39.5952      0.00000

 k-point    24 :       0.2500    0.1500    0.1500
  band No.  band energies     occupation 
      1       1.9603      1.00000
      2       2.3178      1.00000
      3       2.9297      1.00000
      4       4.8179      1.00000
      5       4.8697      1.00000
      6       8.7860     -0.00000
      7      16.0441      0.00000
      8      18.8722      0.00000
      9      19.8997      0.00000
     10      36.7340      0.00000
     11      40.5399      0.00000
     12      41.8489      0.00000

 k-point    25 :       0.3500    0.1500    0.1500
  band No.  band energies     occupation 
      1       1.8728      1.00000
      2       2.2688      1.00000
      3       3.3710      1.00000
      4       4.8511      1.00000
      5       4.8979      1.00000
      6      10.5892     -0.00000
      7      13.4243      0.00000
      8      18.5137      0.00000
      9      19.4264      0.00000
     10      36.7461      0.00000
     11      41.1490      0.00000
     12      41.9523      0.00000

 k-point    26 :      -0.1500    0.1500    0.1500
  band No.  band energies     occupation 
      1      -0.9284      1.00000
      2       3.4717      1.00000
      3       3.4718      1.00000
      4       3.8885      1.00000
      5       3.9087      1.00000
      6       4.9957      1.00000
      7      25.7365      0.00000
      8      27.3791      0.00000
      9      27.3792      0.00000
     10      29.0943      0.00000
     11      35.8648      0.00000
     12      35.8648      0.00000

 k-point    27 :       0.2500    0.2500    0.1500
  band No.  band energies     occupation 
      1       2.1563      1.00000
      2       2.4639      1.00000
      3       2.8310      1.00000
      4       4.8786      1.00000
      5       4.9077      1.00000
      6      11.4006      0.00000
      7      14.7128      0.00000
      8      15.8826      0.00000
      9      18.7609      0.00000
     10      39.3347      0.00000
     11      41.1086      0.00000
     12      44.6184      0.00000

 k-point    28 :      -0.2500    0.2500    0.1500
  band No.  band energies     occupation 
      1       0.2822      1.00000
      2       3.1770      1.00000
      3       3.3221      1.00000
      4       3.9292      1.00000
      5       4.5169      1.00000
      6       5.2787      1.00158
      7      22.1129      0.00000
      8      25.2176      0.00000
      9      25.4421      0.00000
     10      29.0613      0.00000
     11      35.2562      0.00000
     12      36.5844      0.00000

 k-point    29 :      -0.3500    0.3500    0.1500
  band No.  band energies     occupation 
      1       1.1986      1.00000
      2       2.9240      1.00000
      3       3.0777      1.00000
      4       4.3118      1.00000
      5       5.3456      1.00584
      6       6.1714     -0.00713
      7      17.5825      0.00000
      8      23.4328      0.00000
      9      24.2094      0.00000
     10      30.6348      0.00000
     11      34.1887      0.00000
     12      36.4565      0.00000

 k-point    30 :      -0.2500    0.3500    0.1500
  band No.  band energies     occupation 
      1       1.2563      1.00000
      2       2.6548      1.00000
      3       3.4521      1.00000
      4       4.0690      1.00000
      5       5.0283      1.00000
      6       6.1584     -0.00879
      7      20.1084      0.00000
      8      20.7726      0.00000
      9      26.3146      0.00000
     10      27.7818      0.00000
     11      34.7870      0.00000
     12      40.0101      0.00000

 k-point    31 :      -0.4500    0.4500    0.1500
  band No.  band energies     occupation 
      1       1.3163      1.00000
      2       2.9253      1.00000
      3       3.1229      1.00000
      4       4.3862      1.00000
      5       5.9232      0.01148
      6       8.0923     -0.00000
      7      13.8997      0.00000
      8      22.3712      0.00000
      9      23.5363      0.00000
     10      32.6837      0.00000
     11      33.6429      0.00000
     12      35.4154      0.00000

 k-point    32 :      -0.3500    0.4500    0.1500
  band No.  band energies     occupation 
      1       1.6820      1.00000
      2       2.4263      1.00000
      3       3.2595      1.00000
      4       4.4083      1.00000
      5       5.5049      1.03472
      6       8.1701     -0.00000
      7      16.0509      0.00000
      8      19.2169      0.00000
      9      25.7553      0.00000
     10      29.2417      0.00000
     11      33.7756      0.00000
     12      38.4267      0.00000

 k-point    33 :      -0.4500   -0.4500    0.1500
  band No.  band energies     occupation 
      1       1.6334      1.00000
      2       2.5920      1.00000
      3       3.0769      1.00000
      4       4.5008      1.00000
      5       5.7610      0.51423
      6      10.1255     -0.00000
      7      13.3517      0.00000
      8      18.7347      0.00000
      9      25.3912      0.00000
     10      31.0132      0.00000
     11      32.5106      0.00000
     12      37.1105      0.00000

 k-point    34 :      -0.3500   -0.4500    0.1500
  band No.  band energies     occupation 
      1       2.0669      1.00000
      2       2.1122      1.00000
      3       2.9975      1.00000
      4       4.8992      1.00000
      5       5.4134      1.01623
      6      11.0090     -0.00000
      7      14.5331      0.00000
      8      15.8172      0.00000
      9      27.7830      0.00000
     10      28.7347      0.00000
     11      31.7094      0.00000
     12      37.0687      0.00000

 k-point    35 :       0.2500    0.2500    0.2500
  band No.  band energies     occupation 
      1       2.5063      1.00000
      2       2.5063      1.00000
      3       2.5064      1.00000
      4       4.9179      1.00000
      5       4.9179      1.00000
      6      14.3202      0.00000
      7      14.3202      0.00000
      8      14.3204      0.00000
      9      16.4680      0.00000
     10      44.5821      0.00000
     11      44.5821      0.00000
     12      44.5822      0.00000

 k-point    36 :      -0.2500    0.2500    0.2500
  band No.  band energies     occupation 
      1       1.1228      1.00000
      2       2.7978      1.00000
      3       3.8504      1.00000
      4       3.8505      1.00000
      5       4.5771      1.00000
      6       5.9629     -0.02433
      7      22.7261      0.00000
      8      22.7262      0.00000
      9      23.2594      0.00000
     10      25.5692      0.00000
     11      39.5211      0.00000
     12      39.5211      0.00000

 k-point    37 :      -0.3500    0.3500    0.2500
  band No.  band energies     occupation 
      1       1.6144      1.00000
      2       2.2420      1.00000
      3       3.8899      1.00000
      4       4.2280      1.00000
      5       5.2417      1.00069
      6       7.4838     -0.00000
      7      18.5354      0.00000
      8      20.7665      0.00000
      9      23.2268      0.00000
     10      26.1053      0.00000
     11      37.2074      0.00000
     12      38.4217      0.00000

 k-point    38 :      -0.4500    0.4500    0.2500
  band No.  band energies     occupation 
      1       1.5980      1.00000
      2       2.0942      1.00000
      3       3.8095      1.00000
      4       4.3968      1.00000
      5       5.8365      0.21567
      6      10.0114     -0.00000
      7      14.5628      0.00000
      8      19.6229      0.00000
      9      22.9123      0.00000
     10      28.0932      0.00000
     11      33.7761      0.00000
     12      37.7774      0.00000

 k-point    39 :      -0.3500    0.4500    0.2500
  band No.  band energies     occupation 
      1       1.6991      1.00000
      2       1.7933      1.00000
      3       3.9681      1.00000
      4       4.7600      1.00000
      5       5.5576      1.02828
      6       9.8218     -0.00000
      7      16.9121      0.00000
      8      17.4193      0.00000
      9      24.0933      0.00000
     10      25.7300      0.00000
     11      33.2932      0.00000
     12      38.6359      0.00000

 k-point    40 :      -0.4500   -0.4500    0.2500
  band No.  band energies     occupation 
      1       1.5888      1.00000
      2       1.7386      1.00000
      3       3.9139      1.00000
      4       5.0303      1.00000
      5       5.7152      0.70133
      6      12.3657      0.00000
      7      13.9634      0.00000
      8      16.6912      0.00000
      9      24.3414      0.00000
     10      26.6532      0.00000
     11      31.1171      0.00000
     12      38.4505      0.00000

 k-point    41 :      -0.3500    0.3500    0.3500
  band No.  band energies     occupation 
      1       1.5274      1.00000
      2       1.7053      1.00000
      3       4.6960      1.00000
      4       4.6962      1.00000
      5       5.2854      1.00183
      6       9.3616     -0.00000
      7      18.6323      0.00000
      8      18.6324      0.00000
      9      21.9490      0.00000
     10      23.9348      0.00000
     11      33.0662      0.00000
     12      41.8955      0.00000

 k-point    42 :      -0.4500    0.4500    0.3500
  band No.  band energies     occupation 
      1       1.3444      1.00000
      2       1.3966      1.00000
      3       4.8598      1.00000
      4       5.0549      1.00000
      5       5.7527      0.54910
      6      12.0386      0.00000
      7      15.6214      0.00000
      8      17.3626      0.00000
      9      22.2124      0.00000
     10      24.3395      0.00000
     11      29.7305      0.00000
     12      41.9346      0.00000

 k-point    43 :      -0.4500   -0.4500    0.3500
  band No.  band energies     occupation 
      1       1.2196      1.00000
      2       1.2196      1.00000
      3       4.9614      1.00000
      4       5.6492      0.90885
      5       5.6495      0.90819
      6      14.6578      0.00000
      7      14.6578      0.00000
      8      15.4771      0.00000
      9      23.1370      0.00000
     10      23.1370      0.00000
     11      28.0860      0.00000
     12      42.4987      0.00000

 k-point    44 :      -0.4500    0.4500    0.4500
  band No.  band energies     occupation 
      1       1.0466      1.00000
      2       1.0484      1.00000
      3       5.6231      0.96203
      4       5.6233      0.96167
      5       5.7304      0.64163
      6      14.2589      0.00000
      7      15.9875      0.00000
      8      15.9875      0.00000
      9      21.4156      0.00000
     10      22.3009      0.00000
     11      27.0102      0.00000
     12      44.4702      0.00000

 spin component 2

 k-point     1 :       0.0500    0.0500    0.0500
  band No.  band energies     occupation 
      1      -1.8500      1.00000
      2       5.3452      1.00580
      3       5.3452      1.00580
      4       5.9201      0.01564
      5       7.3923     -0.00000
      6       7.3923     -0.00000
      7      28.2575      0.00000
      8      28.2575      0.00000
      9      30.9945      0.00000
     10      33.3800      0.00000
     11      36.4549      0.00000
     12      36.4549      0.00000

 k-point     2 :       0.1500    0.0500    0.0500
  band No.  band energies     occupation 
      1      -0.7065      1.00000
      2       4.9831      1.00000
      3       5.1263      1.00003
      4       6.6331     -0.00000
      5       7.2149     -0.00000
      6       7.4884     -0.00000
      7      24.3998      0.00000
      8      26.4918      0.00000
      9      29.9116      0.00000
     10      31.4264      0.00000
     11      36.4829      0.00000
     12      36.5132      0.00000

 k-point     3 :       0.2500    0.0500    0.0500
  band No.  band energies     occupation 
      1       0.8779      1.00000
      2       4.5842      1.00000
      3       4.9138      1.00000
      4       7.2238     -0.00000
      5       7.5925     -0.00000
      6       7.5958     -0.00000
      7      20.0933      0.00000
      8      24.7824      0.00000
      9      27.4194      0.00000
     10      31.2604      0.00000
     11      35.5188      0.00000
     12      38.4158      0.00000

 k-point     4 :       0.3500    0.0500    0.0500
  band No.  band energies     occupation 
      1       2.0808      1.00000
      2       4.2888      1.00000
      3       5.3330      1.00466
      4       7.3361     -0.00000
      5       7.6918     -0.00000
      6       8.5573     -0.00000
      7      16.2996      0.00000
      8      23.5628      0.00000
      9      25.7228      0.00000
     10      31.0380      0.00000
     11      35.1986      0.00000
     12      40.5596      0.00000

 k-point     5 :       0.4500    0.0500    0.0500
  band No.  band energies     occupation 
      1       2.3624      1.00000
      2       4.1801      1.00000
      3       5.9646     -0.02523
      4       7.3823     -0.00000
      5       7.7317     -0.00000
      6       9.0908     -0.00000
      7      14.4947      0.00000
      8      23.1220      0.00000
      9      25.0893      0.00000
     10      30.9446      0.00000
     11      35.1841      0.00000
     12      40.3743      0.00000

 k-point     6 :      -0.0500    0.0500    0.0500
  band No.  band energies     occupation 
      1      -2.2549      1.00000
      2       5.4984      1.03399
      3       5.4985      1.03401
      4       5.5649      1.02486
      5       7.3510     -0.00000
      6       7.5155     -0.00000
      7      29.3571      0.00000
      8      30.3388      0.00000
      9      30.3388      0.00000
     10      34.4639      0.00000
     11      36.8872      0.00000
     12      36.8874      0.00000

[...]
      4       7.7813     -0.00000
      5       7.7813     -0.00000
      6      15.3030      0.00000
      7      15.3030      0.00000
      8      15.3032      0.00000
      9      17.2723      0.00000
     10      44.3704      0.00000
     11      44.3704      0.00000
     12      44.3705      0.00000

 k-point    36 :      -0.2500    0.2500    0.2500
  band No.  band energies     occupation 
      1       1.7330      1.00000
      2       5.0563      1.00000
      3       5.8734      0.10613
      4       5.8736      0.10569
      5       6.8106     -0.00000
      6       8.3670     -0.00000
      7      23.4272      0.00000
      8      23.4272      0.00000
      9      23.8439      0.00000
     10      26.0434      0.00000
     11      39.8872      0.00000
     12      39.8873      0.00000

 k-point    37 :      -0.3500    0.3500    0.2500
  band No.  band energies     occupation 
      1       2.7569      1.00000
      2       4.2985      1.00000
      3       5.9197      0.01619
      4       6.3439     -0.00016
      5       7.5470     -0.00000
      6       9.2535     -0.00000
      7      19.3563      0.00000
      8      21.4384      0.00000
      9      23.8508      0.00000
     10      26.6136      0.00000
     11      37.9374      0.00000
     12      38.9116      0.00000

 k-point    38 :      -0.4500    0.4500    0.2500
  band No.  band energies     occupation 
      1       3.2750      1.00000
      2       3.8856      1.00000
      3       5.8290      0.24178
      4       6.5546     -0.00000
      5       8.2335     -0.00000
      6      11.2154     -0.00000
      7      15.6031      0.00000
      8      20.2371      0.00000
      9      23.5624      0.00000
     10      28.4889      0.00000
     11      34.6411      0.00000
     12      38.2668      0.00000

 k-point    39 :      -0.3500    0.4500    0.2500
  band No.  band energies     occupation 
      1       3.2621      1.00000
      2       3.7497      1.00000
      3       5.9845     -0.03266
      4       6.9293     -0.00000
      5       7.9059     -0.00000
      6      11.0793     -0.00000
      7      17.7558      0.00000
      8      18.1359      0.00000
      9      24.7013      0.00000
     10      26.2633      0.00000
     11      34.1263      0.00000
     12      39.1453      0.00000

 k-point    40 :      -0.4500   -0.4500    0.2500
  band No.  band energies     occupation 
      1       3.4301      1.00000
      2       3.5316      1.00000
      3       5.8907      0.06630
      4       7.2531     -0.00000
      5       8.0803     -0.00000
      6      13.3280      0.00000
      7      14.9499      0.00000
      8      17.4128      0.00000
      9      24.9332      0.00000
     10      27.0921      0.00000
     11      32.0840      0.00000
     12      38.9615      0.00000

 k-point    41 :      -0.3500    0.3500    0.3500
  band No.  band energies     occupation 
      1       3.0647      1.00000
      2       3.7129      1.00000
      3       6.8121     -0.00000
      4       6.8124     -0.00000
      5       7.6116     -0.00000
      6      10.5992     -0.00000
      7      19.2405      0.00000
      8      19.2406      0.00000
      9      22.8106      0.00000
     10      24.5881      0.00000
     11      33.9092      0.00000
     12      42.3326      0.00000

 k-point    42 :      -0.4500    0.4500    0.3500
  band No.  band energies     occupation 
      1       3.1353      1.00000
      2       3.2809      1.00000
      3       7.0329     -0.00000
      4       7.2310     -0.00000
      5       8.1388     -0.00000
      6      12.9125      0.00000
      7      16.3237      0.00000
      8      17.8790      0.00000
      9      23.0574      0.00000
     10      24.9736      0.00000
     11      30.7206      0.00000
     12      42.3517      0.00000

 k-point    43 :      -0.4500   -0.4500    0.3500
  band No.  band energies     occupation 
      1       3.0732      1.00000
      2       3.0732      1.00000
      3       7.1324     -0.00000
      4       7.9942     -0.00000
      5       7.9946     -0.00000
      6      15.3058      0.00000
      7      15.3060      0.00000
      8      16.0523      0.00000
      9      23.8758      0.00000
     10      23.8758      0.00000
     11      29.1745      0.00000
     12      42.9030      0.00000

 k-point    44 :      -0.4500    0.4500    0.4500
  band No.  band energies     occupation 
      1       2.8866      1.00000
      2       2.9214      1.00000
      3       7.9605     -0.00000
      4       7.9608     -0.00000
      5       8.1178     -0.00000
      6      14.7848      0.00000
      7      16.3637      0.00000
      8      16.3639      0.00000
      9      22.4219      0.00000
     10      23.1649      0.00000
     11      28.1272      0.00000
     12      44.7802      0.00000


--------------------------------------------------------------------------------------------------------


 soft charge-density along one line, spin component           1
         0         1         2         3         4         5         6         7         8         9
 total charge-density along one line
 
 soft charge-density along one line, spin component           2
         0         1         2         3         4         5         6         7         8         9
 total charge-density along one line
 
 pseudopotential strength for first ion, spin component:           1
 -5.679   0.000   0.000   0.000   0.000   0.000   0.000   0.000   0.000   0.000  -6.208   0.000   0.000   0.000   0.000   0.000
  0.000   0.000  -5.679   0.000  -0.000   0.000   0.000   0.000   0.000   0.000   0.000   0.000  -6.208   0.000  -0.000   0.000
  0.000   0.000  -0.000   0.000  -5.826   0.000  -0.000   0.000   0.000   0.000   0.000   0.000  -0.000   0.000  -6.350   0.000
  0.000   0.000   0.000   0.000  -0.000   0.000  -5.679   0.000  -0.000   0.000   0.000   0.000   0.000   0.000  -0.000   0.000
  0.000   0.000   0.000   0.000   0.000   0.000  -0.000   0.000  -5.826   0.000   0.000   0.000   0.000   0.000   0.000   0.000
 -6.208   0.000   0.000   0.000   0.000   0.000   0.000   0.000   0.000   0.000  -6.694   0.000   0.000   0.000   0.000   0.000
  0.000   0.000  -6.208   0.000  -0.000   0.000   0.000   0.000   0.000   0.000   0.000   0.000  -6.694   0.000  -0.000   0.000
  0.000   0.000  -0.000   0.000  -6.350   0.000  -0.000   0.000   0.000   0.000   0.000   0.000  -0.000   0.000  -6.832   0.000
  0.000   0.000   0.000   0.000  -0.000   0.000  -6.208   0.000  -0.000   0.000   0.000   0.000   0.000   0.000  -0.000   0.000
  0.000   0.000   0.000   0.000   0.000   0.000  -0.000   0.000  -6.350   0.000   0.000   0.000   0.000   0.000   0.000   0.000
 -0.000   0.000  -0.000   0.000   0.000   0.000  -0.000   0.000   0.000   0.000  -0.000   0.000  -0.000   0.000   0.000   0.000
 -0.000   0.000  -0.000   0.000   0.000   0.000  -0.000   0.000   0.000   0.000  -0.000   0.000  -0.000   0.000   0.000   0.000
 -0.000   0.000  -0.000   0.000   0.000   0.000  -0.000   0.000   0.000   0.000  -0.000   0.000  -0.000   0.000   0.000   0.000
 -0.000   0.000  -0.000   0.000  -0.000   0.000  -0.000   0.000  -0.000   0.000  -0.000   0.000  -0.000   0.000  -0.000   0.000
 -0.000   0.000  -0.000   0.000   0.000   0.000  -0.000   0.000  -0.000   0.000  -0.000   0.000  -0.000   0.000   0.000   0.000
 -0.000   0.000  -0.000   0.000   0.000   0.000  -0.000   0.000   0.000   0.000  -0.000   0.000  -0.000   0.000   0.000   0.000
 -0.000   0.000  -0.000   0.000  -0.000   0.000  -0.000   0.000  -0.000   0.000  -0.000   0.000  -0.000   0.000  -0.000   0.000
 -0.000   0.000  -0.000   0.000   0.000   0.000  -0.000   0.000  -0.000   0.000  -0.000   0.000  -0.000   0.000   0.000   0.000
 pseudopotential strength for first ion, spin component:           2
 -4.100   0.000  -0.000   0.000   0.000   0.000  -0.000   0.000   0.000   0.000  -4.678   0.000  -0.000   0.000   0.000   0.000
 -0.000   0.000  -4.100   0.000  -0.000   0.000  -0.000   0.000   0.000   0.000  -0.000   0.000  -4.678   0.000  -0.000   0.000
  0.000   0.000  -0.000   0.000  -3.908   0.000  -0.000   0.000   0.000   0.000   0.000   0.000  -0.000   0.000  -4.490   0.000
 -0.000   0.000  -0.000   0.000  -0.000   0.000  -4.100   0.000  -0.000   0.000  -0.000   0.000  -0.000   0.000  -0.000   0.000
  0.000   0.000   0.000   0.000   0.000   0.000  -0.000   0.000  -3.908   0.000   0.000   0.000   0.000   0.000   0.000   0.000
 -4.678   0.000  -0.000   0.000   0.000   0.000  -0.000   0.000   0.000   0.000  -5.213   0.000  -0.000   0.000   0.000   0.000
 -0.000   0.000  -4.678   0.000  -0.000   0.000  -0.000   0.000   0.000   0.000  -0.000   0.000  -5.213   0.000  -0.000   0.000
  0.000   0.000  -0.000   0.000  -4.490   0.000  -0.000   0.000   0.000   0.000   0.000   0.000  -0.000   0.000  -5.029   0.000
 -0.000   0.000  -0.000   0.000  -0.000   0.000  -4.678   0.000  -0.000   0.000  -0.000   0.000  -0.000   0.000  -0.000   0.000
  0.000   0.000   0.000   0.000   0.000   0.000  -0.000   0.000  -4.490   0.000   0.000   0.000   0.000   0.000   0.000   0.000
  0.000   0.000   0.000   0.000   0.000   0.000   0.000   0.000   0.000   0.000   0.000   0.000   0.000   0.000   0.000   0.000
  0.000   0.000   0.000   0.000   0.000   0.000   0.000   0.000   0.000   0.000   0.000   0.000   0.000   0.000   0.000   0.000
 -0.000   0.000  -0.000   0.000   0.000   0.000  -0.000   0.000   0.000   0.000  -0.000   0.000  -0.000   0.000   0.000   0.000
 -0.000   0.000  -0.000   0.000  -0.000   0.000  -0.000   0.000  -0.000   0.000  -0.000   0.000  -0.000   0.000  -0.000   0.000
 -0.000   0.000  -0.000   0.000   0.000   0.000  -0.000   0.000  -0.000   0.000  -0.000   0.000  -0.000   0.000   0.000   0.000
 -0.000   0.000  -0.000   0.000   0.000   0.000  -0.000   0.000   0.000   0.000  -0.000   0.000  -0.000   0.000   0.000   0.000
 -0.000   0.000  -0.000   0.000  -0.000   0.000  -0.000   0.000  -0.000   0.000  -0.000   0.000  -0.000   0.000  -0.000   0.000
 -0.000   0.000  -0.000   0.000   0.000   0.000  -0.000   0.000  -0.000   0.000  -0.000   0.000  -0.000   0.000   0.000   0.000
 total augmentation occupancy for first ion, spin component:           1
  2.397  -0.000   0.000   0.000  -0.000  -1.367   0.000   0.000   0.000  -0.000  -0.000   0.000   0.000   0.000   0.000   0.000
  0.000   2.397   0.000  -0.000  -0.000   0.000  -1.367  -0.000   0.000   0.000   0.000  -0.000   0.000   0.000   0.000   0.000
 -0.000   0.000   3.432  -0.000   0.000   0.000  -0.000  -2.199  -0.000   0.000  -0.000   0.000   0.000   0.000   0.000   0.000
  0.000   0.000   0.000   2.397  -0.000   0.000  -0.000   0.000  -1.367   0.000  -0.000  -0.000   0.000   0.000   0.000   0.000
 -0.000   0.000   0.000   0.000   3.432  -0.000  -0.000   0.000   0.000  -2.199  -0.000   0.000   0.000   0.000   0.000   0.000
 -1.367   0.000   0.000   0.000   0.000   1.734  -0.000  -0.000  -0.000  -0.000   0.000  -0.000   0.000   0.000   0.000   0.000
  0.000  -1.367  -0.000   0.000  -0.000   0.000   1.734   0.000   0.000   0.000   0.000   0.000   0.000   0.000   0.000   0.000
  0.000  -0.000  -2.199  -0.000   0.000   0.000   0.000   2.227   0.000   0.000   0.000  -0.000   0.000   0.000   0.000   0.000
  0.000   0.000   0.000  -1.367   0.000   0.000   0.000  -0.000   1.734  -0.000   0.000  -0.000   0.000   0.000   0.000   0.000
 -0.000   0.000   0.000   0.000  -2.199   0.000   0.000   0.000   0.000   2.227   0.000   0.000   0.000   0.000   0.000   0.000
  0.000   0.000  -0.000  -0.000   0.000   0.000   0.000   0.000   0.000   0.000   2.418  -0.284   0.000   0.000   0.000   0.000
  0.000  -0.000   0.000  -0.000  -0.000  -0.000   0.000  -0.000  -0.000  -0.000  -0.284   0.039   0.000   0.000   0.000   0.000
  0.000   0.000   0.000   0.000   0.000   0.000   0.000   0.000   0.000   0.000   0.000   0.000   0.288   0.000  -0.000  -0.025
  0.000   0.000   0.000   0.000   0.000   0.000   0.000   0.000   0.000   0.000   0.000   0.000   0.000   0.288   0.000   0.000
  0.000   0.000   0.000   0.000   0.000   0.000   0.000   0.000   0.000   0.000   0.000   0.000   0.000   0.000   0.288  -0.000
  0.000   0.000   0.000   0.000   0.000   0.000   0.000   0.000   0.000   0.000   0.000   0.000  -0.025   0.000  -0.000   0.002
  0.000   0.000   0.000   0.000   0.000   0.000   0.000   0.000   0.000   0.000   0.000   0.000   0.000  -0.025   0.000   0.000
  0.000   0.000   0.000   0.000   0.000   0.000   0.000   0.000   0.000   0.000   0.000   0.000   0.000  -0.000  -0.025  -0.000
 total augmentation occupancy for first ion, spin component:           2
  2.041  -0.000  -0.000   0.000  -0.000  -0.846  -0.000   0.000  -0.000  -0.000   0.000   0.000   0.000   0.000   0.000   0.000
  0.000   2.041  -0.000  -0.000   0.000   0.000  -0.846  -0.000   0.000   0.000   0.000   0.000   0.000   0.000   0.000   0.000
 -0.000   0.000   2.889   0.000   0.000  -0.000  -0.000  -1.226   0.000   0.000   0.000  -0.000   0.000   0.000   0.000   0.000
  0.000   0.000   0.000   2.041  -0.000  -0.000   0.000   0.000  -0.846  -0.000   0.000   0.000   0.000   0.000   0.000   0.000
  0.000  -0.000   0.000   0.000   2.889  -0.000   0.000   0.000   0.000  -1.226  -0.000   0.000   0.000   0.000   0.000   0.000
 -0.846  -0.000  -0.000  -0.000   0.000   0.101   0.000   0.000   0.000  -0.000  -0.000   0.000   0.000   0.000   0.000   0.000
  0.000  -0.846  -0.000  -0.000   0.000   0.000   0.101   0.000   0.000   0.000   0.000  -0.000   0.000   0.000   0.000   0.000
  0.000   0.000  -1.226   0.000   0.000   0.000   0.000   0.276  -0.000   0.000  -0.000   0.000   0.000   0.000   0.000   0.000
 -0.000   0.000  -0.000  -0.846   0.000   0.000   0.000  -0.000   0.101  -0.000   0.000   0.000   0.000   0.000   0.000   0.000
 -0.000   0.000   0.000   0.000  -1.226  -0.000   0.000  -0.000  -0.000   0.276   0.000   0.000   0.000   0.000   0.000   0.000
  0.000   0.000   0.000   0.000  -0.000   0.000   0.000  -0.000  -0.000  -0.000  -0.345   0.104   0.000   0.000   0.000   0.000
  0.000   0.000  -0.000  -0.000   0.000  -0.000  -0.000   0.000  -0.000   0.000   0.104  -0.019   0.000   0.000   0.000   0.000
  0.000   0.000   0.000   0.000   0.000   0.000   0.000   0.000   0.000   0.000   0.000   0.000  -0.035   0.000   0.000   0.006
  0.000   0.000   0.000   0.000   0.000   0.000   0.000   0.000   0.000   0.000   0.000   0.000   0.000  -0.035   0.000   0.000
  0.000   0.000   0.000   0.000   0.000   0.000   0.000   0.000   0.000   0.000   0.000   0.000   0.000   0.000  -0.035  -0.000
  0.000   0.000   0.000   0.000   0.000   0.000   0.000   0.000   0.000   0.000   0.000   0.000   0.006   0.000   0.000  -0.001
  0.000   0.000   0.000   0.000   0.000   0.000   0.000   0.000   0.000   0.000   0.000   0.000   0.000   0.006  -0.000   0.000
  0.000   0.000   0.000   0.000   0.000   0.000   0.000   0.000   0.000   0.000   0.000   0.000  -0.000   0.000   0.006  -0.000


------------------------ aborting loop because EDIFF is reached ----------------------------------------


    CHARGE:  cpu time    0.0023: real time    0.0023
    FORLOC:  cpu time    0.0001: real time    0.0001
    FORNL :  cpu time    0.0048: real time    0.0048
    STRESS:  cpu time    0.0169: real time    0.0169
    FORCOR:  cpu time    0.0019: real time    0.0019
    FORHAR:  cpu time    0.0002: real time    0.0003
    MIXING:  cpu time    0.0002: real time    0.0002
    OFIELD:  cpu time    0.0000: real time    0.0000

  FORCE on cell =-STRESS in cart. coord.  units (eV):
  Direction    XX          YY          ZZ          XY          YZ          ZX
  --------------------------------------------------------------------------------------
  Alpha Z    60.34476    60.34476    60.34476
  Ewald    -196.82323  -196.82323  -196.82323    -0.00000     0.00000    -0.00000
  Hartree    31.97676    31.97676    31.97676    -0.00000    -0.00000    -0.00000
  E(xc)     -39.80771   -39.80771   -39.80771     0.00013     0.00013     0.00013
  Local      58.79241    58.79241    58.79241    -0.00028    -0.00028    -0.00028
  n-local   -27.41346   -26.40907   -25.46066     1.14711    -0.69407    -1.37992
  augment    38.75285    38.75285    38.75285     0.00052     0.00052     0.00052
  Kinetic    73.45505    72.78714    72.51981    -2.41614     1.98045     1.43148
  Fock        0.00000     0.00000     0.00000     0.00000     0.00000     0.00000
  -------------------------------------------------------------------------------------
  Total      -0.27123    -0.27123    -0.27123     0.00000     0.00000    -0.00000
  in kB     -37.94219   -37.94219   -37.94219     0.00000     0.00000    -0.00000
  external pressure =      -37.94 kB  Pullay stress =        0.00 kB


 VOLUME and BASIS-vectors are now :
 -----------------------------------------------------------------------------
  energy-cutoff  :      268.00
  volume of cell :       11.45
      direct lattice vectors                 reciprocal lattice vectors
    -1.420000000  1.420000000  1.420000000     0.000000000  0.352112676  0.352112676
     1.420000000 -1.420000000  1.420000000     0.352112676  0.000000000  0.352112676
     1.420000000  1.420000000 -1.420000000     0.352112676  0.352112676  0.000000000

  length of vectors
     2.459512147  2.459512147  2.459512147     0.497962522  0.497962522  0.497962522


 FORCES acting on ions
    electron-ion (+dipol)            ewald-force                    non-local-force                 convergence-correction
 -----------------------------------------------------------------------------------------------
   0.377E-14 0.753E-14 0.142E-13   0.231E-15 0.119E-14 0.161E-14   0.000E+00 0.000E+00 -.827E-24   0.205E-13 0.136E-13 0.759E-14
 -----------------------------------------------------------------------------------------------
   0.377E-14 0.753E-14 0.142E-13   0.231E-15 0.119E-14 0.161E-14   0.000E+00 0.000E+00 -.827E-24   0.205E-13 0.136E-13 0.759E-14
 
 
 POSITION                                       TOTAL-FORCE (eV/Angst)
 -----------------------------------------------------------------------------------
      0.00000      0.00000      0.00000         0.000000     -0.000000      0.000000
 -----------------------------------------------------------------------------------
    total drift:                                0.000000      0.000000      0.000000


--------------------------------------------------------------------------------------------------------



  FREE ENERGIE OF THE ION-ELECTRON SYSTEM (eV)
  ---------------------------------------------------
  free  energy   TOTEN  =        -8.23658488 eV

  energy  without entropy=       -8.23761767  energy(sigma->0) =       -8.23692914
 


--------------------------------------------------------------------------------------------------------


    POTLOK:  cpu time    0.0055: real time    0.0060


--------------------------------------------------------------------------------------------------------


 writing wavefunctions
     LOOP+:  cpu time    1.3533: real time    1.4000
    4ORBIT:  cpu time    0.0000: real time    0.0000

 total amount of memory used by VASP MPI-rank0    31846. kBytes
=======================================================================

   base      :      30000. kBytes
   nonl-proj :        762. kBytes
   fftplans  :        142. kBytes
   grid      :        320. kBytes
   one-center:         31. kBytes
   wavefun   :        591. kBytes
 
  
  
 General timing and accounting informations for this job:
 ========================================================
  
                  Total CPU time used (sec):        1.613
                            User time (sec):        1.327
                          System time (sec):        0.285
                         Elapsed time (sec):        2.030
  
                   Maximum memory used (kb):       57904.
                   Average memory used (kb):           0.
  
                          Minor page faults:        20429
                          Major page faults:           77
                 Voluntary context switches:         2146
