PROCAR new format
# of k-points:   44         # of bands:   12         # of ions:    1

 k-point     1 :    0.05000000 0.05000000 0.05000000     weight = 0.00800000

band     1 # energy   -2.02603558 # occ.  1.00000000
 
ion      s      p      d    tot
    1  0.576  0.034  0.003  0.613
 
band     2 # energy    3.30846923 # occ.  1.00000000
 
ion      s      p      d    tot
    1  0.000  0.001  0.962  0.964
 
band     3 # energy    3.30846923 # occ.  1.00000000
 
ion      s      p      d    tot
    1  0.000  0.001  0.962  0.964
 
band     4 # energy    3.81715235 # occ.  1.00000000
 
ion      s      p      d    tot
    1  0.001  0.005  0.963  0.969
 
band     5 # energy    4.69041841 # occ.  1.00000000
 
ion      s      p      d    tot
    1  0.000  0.000  0.968  0.968
 
band     6 # energy    4.69041841 # occ.  1.00000000
 
ion      s      p      d    tot
    1  0.000  0.000  0.968  0.968
 
band     7 # energy   28.15361280 # occ.  0.00000000
 
ion      s      p      d    tot
    1  0.000  0.067  0.216  0.283
 
band     8 # energy   28.15361280 # occ.  0.00000000
 
ion      s      p      d    tot
    1  0.000  0.067  0.216  0.283
 
band     9 # energy   31.24797283 # occ.  0.00000000
 
ion      s      p      d    tot
    1  0.000  0.000  0.000  0.000
 
band    10 # energy   32.41880138 # occ.  0.00000000
 
ion      s      p      d    tot
    1  0.053  0.483  0.257  0.793
 
band    11 # energy   36.11998599 # occ.  0.00000000
 
ion      s      p      d    tot
    1  0.000  0.342  0.047  0.389
 
band    12 # energy   36.11998622 # occ.  0.00000000
 
ion      s      p      d    tot
    1  0.000  0.342  0.047  0.389
 

 k-point     2 :    0.15000000 0.05000000 0.05000000     weight = 0.02400000

band     1 # energy   -0.91508135 # occ.  1.00000000
 
ion      s      p      d    tot
    1  0.501  0.090  0.031  0.623
 
band     2 # energy    3.00936260 # occ.  1.00000000
 
ion      s      p      d    tot
    1  0.000  0.002  0.952  0.954
 
band     3 # energy    3.16227983 # occ.  1.00000000
 
ion      s      p      d    tot
    1  0.003  0.014  0.924  0.941
 
band     4 # energy    4.48479986 # occ.  1.00000000
 
ion      s      p      d    tot
    1  0.005  0.015  0.946  0.966
 
band     5 # energy    4.58016621 # occ.  1.00000000
 
ion      s      p      d    tot
    1  0.000  0.000  0.967  0.968
 
band     6 # energy    4.76764069 # occ.  1.00000000
 
ion      s      p      d    tot
    1  0.000  0.000  0.972  0.972
 
band     7 # energy   23.92136462 # occ.  0.00000000
 
ion      s      p      d    tot
    1  0.028  0.186  0.294  0.508
 
band     8 # energy   26.23616362 # occ.  0.00000000
 
ion      s      p      d    tot
    1  0.000  0.148  0.236  0.384
 
band     9 # energy   29.04579798 # occ.  0.00000000
 
ion      s      p      d    tot
    1  0.095  0.472  0.178  0.745
 
band    10 # energy   31.52366543 # occ.  0.00000000
 
ion      s      p      d    tot
    1  0.000  0.003  0.131  0.134
 
band    11 # energy   35.81528315 # occ.  0.00000000
 
ion      s      p      d    tot
    1  0.027  0.324  0.258  0.609
 
band    12 # energy   36.18889867 # occ.  0.00000000
 
ion      s      p      d    tot
    1  0.000  0.252  0.101  0.354
 

 k-point     3 :    0.25000000 0.05000000 0.05000000     weight = 0.02400000

band     1 # energy    0.43807917 # occ.  1.00000000
 
ion      s      p      d    tot
    1  0.342  0.110  0.236  0.687
 
band     2 # energy    2.68009144 # occ.  1.00000000
 
ion      s      p      d    tot
    1  0.000  0.003  0.943  0.946
 
band     3 # energy    3.24769367 # occ.  1.00000000
 
ion      s      p      d    tot
    1  0.044  0.094  0.726  0.863
 
band     4 # energy    4.63492934 # occ.  1.00000000
 
ion      s      p      d    tot
    1  0.002  0.001  0.971  0.973
 
band     5 # energy    4.84473407 # occ.  1.00000000
 
ion      s      p      d    tot
    1  0.000  0.000  0.977  0.977
 
band     6 # energy    5.41748364 # occ.  1.01797860
 
ion      s      p      d    tot
    1  0.016  0.036  0.901  0.954
 
band     7 # energy   19.30558474 # occ.  0.00000000
 
ion      s      p      d    tot
    1  0.117  0.232  0.298  0.646
 
band     8 # energy   24.51014415 # occ.  0.00000000
 
ion      s      p      d    tot
    1  0.000  0.204  0.194  0.398
 
band     9 # energy   26.63565134 # occ.  0.00000000
 
ion      s      p      d    tot
    1  0.097  0.492  0.124  0.713
 
band    10 # energy   31.09476411 # occ.  0.00000000
 
ion      s      p      d    tot
    1  0.000  0.011  0.329  0.340
 
band    11 # energy   34.89130334 # occ.  0.00000000
 
ion      s      p      d    tot
    1  0.081  0.223  0.275  0.579
 
band    12 # energy   38.16125149 # occ.  0.00000000
 
ion      s      p      d    tot
    1  0.000  0.228  0.085  0.313
 

 k-point     4 :    0.35000000 0.05000000 0.05000000     weight = 0.02400000

band     1 # energy    0.98991866 # occ.  1.00000000
 
ion      s      p      d    tot
    1  0.152  0.033  0.626  0.811
 
band     2 # energy    2.43512138 # occ.  1.00000000
 
ion      s      p      d    tot
    1  0.000  0.004  0.937  0.941
 
band     3 # energy    4.30309952 # occ.  1.00000000
 
ion      s      p      d    tot
    1  0.064  0.226  0.492  0.783
 
band     4 # energy    4.77128495 # occ.  1.00000000
 
ion      s      p      d    tot
    1  0.001  0.016  0.954  0.971
 
band     5 # energy    4.91042126 # occ.  1.00000002
 
ion      s      p      d    tot
    1  0.000  0.000  0.982  0.982
 
band     6 # energy    6.55129272 # occ. -0.00000017
 
ion      s      p      d    tot
    1  0.038  0.136  0.705  0.879
 
band     7 # energy   15.18950288 # occ.  0.00000000
 
ion      s      p      d    tot
    1  0.254  0.152  0.332  0.738
 
band     8 # energy   23.32392348 # occ.  0.00000000
 
ion      s      p      d    tot
    1  0.000  0.234  0.152  0.386
 
band     9 # energy   25.00771435 # occ.  0.00000000
 
ion      s      p      d    tot
    1  0.091  0.537  0.063  0.691
 
band    10 # energy   30.71978705 # occ.  0.00000000
 
ion      s      p      d    tot
    1  0.000  0.012  0.443  0.454
 
band    11 # energy   34.57257708 # occ.  0.00000000
 
ion      s      p      d    tot
    1  0.138  0.133  0.315  0.585
 
band    12 # energy   40.41280005 # occ.  0.00000000
 
ion      s      p      d    tot
    1  0.030  0.039  0.084  0.153
 

 k-point     5 :    0.45000000 0.05000000 0.05000000     weight = 0.01200000

band     1 # energy    1.01299990 # occ.  1.00000000
 
ion      s      p      d    tot
    1  0.106  0.008  0.728  0.842
 
band     2 # energy    2.34434493 # occ.  1.00000000
 
ion      s      p      d    tot
    1  0.000  0.004  0.935  0.939
 
band     3 # energy    4.79205114 # occ.  1.00000000
 
ion      s      p      d    tot
    1  0.010  0.000  0.968  0.978
 
band     4 # energy    4.93655980 # occ.  1.00000005
 
ion      s      p      d    tot
    1  0.000  0.000  0.984  0.984
 
band     5 # energy    5.05546634 # occ.  1.00000373
 
ion      s      p      d    tot
    1  0.000  0.234  0.585  0.819
 
band     6 # energy    7.50083437 # occ. -0.00000000
 
ion      s      p      d    tot
    1  0.000  0.339  0.414  0.752
 
band     7 # energy   13.07499071 # occ.  0.00000000
 
ion      s      p      d    tot
    1  0.389  0.009  0.411  0.810
 
band     8 # energy   22.90175310 # occ.  0.00000000
 
ion      s      p      d    tot
    1  0.000  0.244  0.135  0.379
 
band     9 # energy   24.40901994 # occ.  0.00000000
 
ion      s      p      d    tot
    1  0.088  0.559  0.034  0.680
 
band    10 # energy   30.57651564 # occ.  0.00000000
 
ion      s      p      d    tot
    1  0.000  0.011  0.479  0.491
 
band    11 # energy   34.54542872 # occ.  0.00000000
 
ion      s      p      d    tot
    1  0.164  0.094  0.340  0.597
 
band    12 # energy   40.30876067 # occ.  0.00000000
 
ion      s      p      d    tot
    1  0.000  0.071  0.003  0.075
 

 k-point     6 :   -0.05000000 0.05000000 0.05000000     weight = 0.00600000

band     1 # energy   -2.42698200 # occ.  1.00000000
 
ion      s      p      d    tot
    1  0.599  0.012  0.000  0.611
 
band     2 # energy    3.43619287 # occ.  1.00000000
 
ion      s      p      d    tot
    1  0.000  0.001  0.967  0.968
 
band     3 # energy    3.43624262 # occ.  1.00000000
 
ion      s      p      d    tot
    1  0.000  0.001  0.967  0.968
 
band     4 # energy    3.48742222 # occ.  1.00000000
 
ion      s      p      d    tot
    1  0.000  0.000  0.970  0.970
 
band     5 # energy    4.65572461 # occ.  1.00000000
 
ion      s      p      d    tot
    1  0.000  0.000  0.966  0.966
 
band     6 # energy    4.78273356 # occ.  1.00000000
 
ion      s      p      d    tot
    1  0.000  0.000  0.971  0.971
 
band     7 # energy   29.48846373 # occ.  0.00000000
 
ion      s      p      d    tot
    1  0.000  0.000  0.105  0.105
 
band     8 # energy   30.48967718 # occ.  0.00000000
 
ion      s      p      d    tot
    1  0.000  0.010  0.082  0.092
 
band     9 # energy   30.48975907 # occ.  0.00000000
 
ion      s      p      d    tot
    1  0.000  0.010  0.082  0.092
 
band    10 # energy   34.11312376 # occ.  0.00000000
 
ion      s      p      d    tot
    1  0.011  0.270  0.173  0.455
 
band    11 # energy   35.96858379 # occ.  0.00000000
 
ion      s      p      d    tot
    1  0.000  0.458  0.279  0.737
 
band    12 # energy   35.96865291 # occ.  0.00000000
 
ion      s      p      d    tot
    1  0.000  0.458  0.279  0.737
 

 k-point     7 :    0.15000000 0.15000000 0.05000000     weight = 0.02400000

band     1 # energy    0.33882039 # occ.  1.00000000
 
ion      s      p      d    tot
    1  0.394  0.138  0.120  0.652
 
band     2 # energy    2.79095351 # occ.  1.00000000
 
ion      s      p      d    tot
    1  0.000  0.018  0.909  0.927
 
band     3 # energy    2.81613094 # occ.  1.00000000
 
ion      s      p      d    tot
    1  0.006  0.018  0.910  0.934
 
band     4 # energy    4.60115219 # occ.  1.00000000
 
ion      s      p      d    tot
    1  0.000  0.000  0.970  0.970
 
band     5 # energy    4.85289726 # occ.  1.00000000
 
ion      s      p      d    tot
    1  0.002  0.000  0.975  0.977
 
band     6 # energy    5.47741143 # occ.  1.03126818
 
ion      s      p      d    tot
    1  0.024  0.044  0.879  0.947
 
band     7 # energy   21.62780178 # occ.  0.00000000
 
ion      s      p      d    tot
    1  0.000  0.231  0.322  0.554
 
band     8 # energy   22.50514154 # occ.  0.00000000
 
ion      s      p      d    tot
    1  0.101  0.249  0.225  0.576
 
band     9 # energy   25.88394501 # occ.  0.00000000
 
ion      s      p      d    tot
    1  0.131  0.401  0.133  0.665
 
band    10 # energy   32.83804213 # occ.  0.00000000
 
ion      s      p      d    tot
    1  0.000  0.017  0.116  0.132
 
band    11 # energy   36.75097750 # occ.  0.00000000
 
ion      s      p      d    tot
    1  0.018  0.127  0.303  0.449
 
band    12 # energy   38.25738852 # occ.  0.00000000
 
ion      s      p      d    tot
    1  0.000  0.242  0.227  0.469
 

 k-point     8 :    0.25000000 0.15000000 0.05000000     weight = 0.04800000

band     1 # energy    1.34923681 # occ.  1.00000000
 
ion      s      p      d    tot
    1  0.194  0.093  0.483  0.770
 
band     2 # energy    2.50484641 # occ.  1.00000000
 
ion      s      p      d    tot
    1  0.000  0.020  0.905  0.925
 
band     3 # energy    3.05450369 # occ.  1.00000000
 
ion      s      p      d    tot
    1  0.047  0.119  0.682  0.847
 
band     4 # energy    4.69360521 # occ.  1.00000000
 
ion      s      p      d    tot
    1  0.001  0.002  0.972  0.975
 
band     5 # energy    4.95348418 # occ.  1.00000009
 
ion      s      p      d    tot
    1  0.005  0.002  0.973  0.980
 
band     6 # energy    6.86185144 # occ. -0.00000000
 
ion      s      p      d    tot
    1  0.062  0.112  0.716  0.889
 
band     7 # energy   17.53131960 # occ.  0.00000000
 
ion      s      p      d    tot
    1  0.136  0.242  0.293  0.671
 
band     8 # energy   20.66312817 # occ.  0.00000000
 
ion      s      p      d    tot
    1  0.101  0.270  0.222  0.592
 
band     9 # energy   24.11571738 # occ.  0.00000000
 
ion      s      p      d    tot
    1  0.118  0.383  0.120  0.621
 
band    10 # energy   33.05635821 # occ.  0.00000000
 
ion      s      p      d    tot
    1  0.006  0.025  0.234  0.264
 
band    11 # energy   37.52497050 # occ.  0.00000000
 
ion      s      p      d    tot
    1  0.003  0.114  0.300  0.416
 
band    12 # energy   38.93495316 # occ.  0.00000000
 
ion      s      p      d    tot
    1  0.064  0.167  0.194  0.425
 

 k-point     9 :    0.35000000 0.15000000 0.05000000     weight = 0.04800000

band     1 # energy    1.44884171 # occ.  1.00000000
 
ion      s      p      d    tot
    1  0.087  0.034  0.727  0.847
 
band     2 # energy    2.36783351 # occ.  1.00000000
 
ion      s      p      d    tot
    1  0.000  0.019  0.908  0.927
 
band     3 # energy    3.79632048 # occ.  1.00000000
 
ion      s      p      d    tot
    1  0.012  0.179  0.642  0.834
 
band     4 # energy    4.80705377 # occ.  1.00000000
 
ion      s      p      d    tot
    1  0.005  0.002  0.971  0.978
 
band     5 # energy    5.04328648 # occ.  1.00000247
 
ion      s      p      d    tot
    1  0.003  0.014  0.960  0.976
 
band     6 # energy    8.65226555 # occ. -0.00000000
 
ion      s      p      d    tot
    1  0.041  0.281  0.455  0.777
 
band     7 # energy   13.92715899 # occ.  0.00000000
 
ion      s      p      d    tot
    1  0.297  0.114  0.347  0.758
 
band     8 # energy   19.83104662 # occ.  0.00000000
 
ion      s      p      d    tot
    1  0.106  0.289  0.200  0.595
 
band     9 # energy   23.21876040 # occ.  0.00000000
 
ion      s      p      d    tot
    1  0.110  0.390  0.105  0.605
 
band    10 # energy   32.93853097 # occ.  0.00000000
 
ion      s      p      d    tot
    1  0.012  0.019  0.310  0.341
 
band    11 # energy   38.21204366 # occ.  0.00000000
 
ion      s      p      d    tot
    1  0.039  0.147  0.296  0.481
 
band    12 # energy   39.17829628 # occ.  0.00000000
 
ion      s      p      d    tot
    1  0.033  0.067  0.140  0.240
 

 k-point    10 :   -0.15000000 0.15000000 0.05000000     weight = 0.02400000

band     1 # energy   -1.63933037 # occ.  1.00000000
 
ion      s      p      d    tot
    1  0.551  0.056  0.008  0.615
 
band     2 # energy    3.24769881 # occ.  1.00000000
 
ion      s      p      d    tot
    1  0.000  0.001  0.961  0.962
 
band     3 # energy    3.39876747 # occ.  1.00000000
 
ion      s      p      d    tot
    1  0.001  0.009  0.946  0.956
 
band     4 # energy    3.89579241 # occ.  1.00000000
 
ion      s      p      d    tot
    1  0.000  0.004  0.966  0.970
 
band     5 # energy    4.45091298 # occ.  1.00000000
 
ion      s      p      d    tot
    1  0.000  0.000  0.959  0.959
 
band     6 # energy    4.84516544 # occ.  1.00000000
 
ion      s      p      d    tot
    1  0.002  0.000  0.971  0.973
 
band     7 # energy   26.19958422 # occ.  0.00000000
 
ion      s      p      d    tot
    1  0.012  0.112  0.272  0.396
 
band     8 # energy   28.87117414 # occ.  0.00000000
 
ion      s      p      d    tot
    1  0.014  0.105  0.132  0.251
 
band     9 # energy   29.59382749 # occ.  0.00000000
 
ion      s      p      d    tot
    1  0.000  0.097  0.280  0.377
 
band    10 # energy   33.29528450 # occ.  0.00000000
 
ion      s      p      d    tot
    1  0.006  0.306  0.138  0.451
 
band    11 # energy   33.49396032 # occ.  0.00000000
 
ion      s      p      d    tot
    1  0.000  0.415  0.232  0.647
 
band    12 # energy   34.48456903 # occ.  0.00000000
 
ion      s      p      d    tot
    1  0.064  0.348  0.073  0.485
 

 k-point    11 :    0.25000000 0.25000000 0.05000000     weight = 0.02400000

band     1 # energy    1.88107605 # occ.  1.00000000
 
ion      s      p      d    tot
    1  0.072  0.040  0.756  0.868
 
band     2 # energy    2.44198337 # occ.  1.00000000
 
ion      s      p      d    tot
    1  0.000  0.065  0.822  0.886
 
band     3 # energy    3.03147049 # occ.  1.00000000
 
ion      s      p      d    tot
    1  0.027  0.135  0.687  0.848
 
band     4 # energy    4.79538840 # occ.  1.00000000
 
ion      s      p      d    tot
    1  0.000  0.003  0.974  0.977
 
band     5 # energy    5.03367295 # occ.  1.00000177
 
ion      s      p      d    tot
    1  0.006  0.006  0.968  0.980
 
band     6 # energy    9.02105893 # occ. -0.00000000
 
ion      s      p      d    tot
    1  0.088  0.219  0.495  0.802
 
band     7 # energy   15.91109004 # occ.  0.00000000
 
ion      s      p      d    tot
    1  0.000  0.335  0.337  0.671
 
band     8 # energy   16.90304047 # occ.  0.00000000
 
ion      s      p      d    tot
    1  0.378  0.147  0.168  0.693
 
band     9 # energy   23.02584351 # occ.  0.00000000
 
ion      s      p      d    tot
    1  0.112  0.354  0.143  0.609
 
band    10 # energy   34.42178881 # occ.  0.00000000
 
ion      s      p      d    tot
    1  0.000  0.047  0.193  0.239
 
band    11 # energy   37.29015317 # occ.  0.00000000
 
ion      s      p      d    tot
    1  0.021  0.054  0.240  0.314
 
band    12 # energy   43.23078218 # occ.  0.00000000
 
ion      s      p      d    tot
    1  0.001  0.166  0.178  0.344
 

 k-point    12 :    0.35000000 0.25000000 0.05000000     weight = 0.02400000

band     1 # energy    1.92743591 # occ.  1.00000000
 
ion      s      p      d    tot
    1  0.045  0.025  0.819  0.889
 
band     2 # energy    2.48079648 # occ.  1.00000000
 
ion      s      p      d    tot
    1  0.000  0.072  0.814  0.887
 
band     3 # energy    3.10522004 # occ.  1.00000000
 
ion      s      p      d    tot
    1  0.000  0.141  0.711  0.852
 
band     4 # energy    4.88680938 # occ.  1.00000001
 
ion      s      p      d    tot
    1  0.002  0.004  0.974  0.979
 
band     5 # energy    5.03086064 # occ.  1.00000160
 
ion      s      p      d    tot
    1  0.000  0.009  0.971  0.980
 
band     6 # energy   11.13875495 # occ. -0.00000000
 
ion      s      p      d    tot
    1  0.000  0.365  0.359  0.724
 
band     7 # energy   13.36716093 # occ.  0.00000000
 
ion      s      p      d    tot
    1  0.199  0.196  0.346  0.741
 
band     8 # energy   16.18186098 # occ.  0.00000000
 
ion      s      p      d    tot
    1  0.332  0.163  0.198  0.693
 
band     9 # energy   22.68413260 # occ.  0.00000000
 
ion      s      p      d    tot
    1  0.111  0.351  0.150  0.612
 
band    10 # energy   34.95760303 # occ.  0.00000000
 
ion      s      p      d    tot
    1  0.005  0.045  0.212  0.262
 
band    11 # energy   37.26624735 # occ.  0.00000000
 
ion      s      p      d    tot
    1  0.000  0.053  0.159  0.212
 
band    12 # energy   42.85210892 # occ.  0.00000000
 
ion      s      p      d    tot
    1  0.000  0.131  0.369  0.500
 

 k-point    13 :   -0.25000000 0.25000000 0.05000000     weight = 0.02400000

band     1 # energy   -0.30230202 # occ.  1.00000000
 
ion      s      p      d    tot
    1  0.440  0.109  0.093  0.642
 
band     2 # energy    2.93323095 # occ.  1.00000000
 
ion      s      p      d    tot
    1  0.000  0.001  0.952  0.954
 
band     3 # energy    3.30885424 # occ.  1.00000000
 
ion      s      p      d    tot
    1  0.020  0.049  0.834  0.903
 
band     4 # energy    4.43862532 # occ.  1.00000000
 
ion      s      p      d    tot
    1  0.000  0.003  0.961  0.964
 
band     5 # energy    4.63164011 # occ.  1.00000000
 
ion      s      p      d    tot
    1  0.000  0.008  0.965  0.973
 
band     6 # energy    4.91784846 # occ.  1.00000002
 
ion      s      p      d    tot
    1  0.007  0.002  0.965  0.974
 
band     7 # energy   21.56989916 # occ.  0.00000000
 
ion      s      p      d    tot
    1  0.074  0.220  0.301  0.595
 
band     8 # energy   26.72540083 # occ.  0.00000000
 
ion      s      p      d    tot
    1  0.019  0.167  0.094  0.281
 
band     9 # energy   28.10736406 # occ.  0.00000000
 
ion      s      p      d    tot
    1  0.000  0.312  0.315  0.628
 
band    10 # energy   31.42520392 # occ.  0.00000000
 
ion      s      p      d    tot
    1  0.000  0.264  0.302  0.566
 
band    11 # energy   33.13757526 # occ.  0.00000000
 
ion      s      p      d    tot
    1  0.059  0.279  0.212  0.550
 
band    12 # energy   35.25415991 # occ.  0.00000000
 
ion      s      p      d    tot
    1  0.088  0.156  0.078  0.322
 

 k-point    14 :   -0.15000000 0.25000000 0.05000000     weight = 0.02400000

band     1 # energy   -0.57672300 # occ.  1.00000000
 
ion      s      p      d    tot
    1  0.472  0.108  0.047  0.627
 
band     2 # energy    3.18007731 # occ.  1.00000000
 
ion      s      p      d    tot
    1  0.003  0.010  0.937  0.950
 
band     3 # energy    3.18665360 # occ.  1.00000000
 
ion      s      p      d    tot
    1  0.000  0.012  0.928  0.940
 
band     4 # energy    4.25532907 # occ.  1.00000000
 
ion      s      p      d    tot
    1  0.000  0.001  0.955  0.956
 
band     5 # energy    4.45225175 # occ.  1.00000000
 
ion      s      p      d    tot
    1  0.003  0.013  0.952  0.967
 
band     6 # energy    4.98939862 # occ.  1.00000036
 
ion      s      p      d    tot
    1  0.012  0.003  0.959  0.974
 
band     7 # energy   23.79377289 # occ.  0.00000000
 
ion      s      p      d    tot
    1  0.000  0.163  0.325  0.488
 
band     8 # energy   25.01145226 # occ.  0.00000000
 
ion      s      p      d    tot
    1  0.085  0.258  0.216  0.559
 
band     9 # energy   29.70528992 # occ.  0.00000000
 
ion      s      p      d    tot
    1  0.000  0.092  0.252  0.344
 
band    10 # energy   30.56196900 # occ.  0.00000000
 
ion      s      p      d    tot
    1  0.002  0.472  0.122  0.596
 
band    11 # energy   33.26890978 # occ.  0.00000000
 
ion      s      p      d    tot
    1  0.084  0.128  0.222  0.433
 
band    12 # energy   36.49983524 # occ.  0.00000000
 
ion      s      p      d    tot
    1  0.000  0.344  0.054  0.398
 

 k-point    15 :   -0.35000000 0.35000000 0.05000000     weight = 0.02400000

band     1 # energy    0.74623956 # occ.  1.00000000
 
ion      s      p      d    tot
    1  0.234  0.066  0.455  0.755
 
band     2 # energy    2.63212644 # occ.  1.00000000
 
ion      s      p      d    tot
    1  0.000  0.001  0.945  0.946
 
band     3 # energy    3.78758733 # occ.  1.00000000
 
ion      s      p      d    tot
    1  0.069  0.164  0.573  0.806
 
band     4 # energy    4.67166160 # occ.  1.00000000
 
ion      s      p      d    tot
    1  0.000  0.022  0.942  0.965
 
band     5 # energy    5.15262846 # occ.  1.00007565
 
ion      s      p      d    tot
    1  0.037  0.058  0.834  0.930
 
band     6 # energy    5.45300730 # occ.  1.02604390
 
ion      s      p      d    tot
    1  0.000  0.006  0.975  0.981
 
band     7 # energy   17.08793886 # occ.  0.00000000
 
ion      s      p      d    tot
    1  0.184  0.204  0.311  0.699
 
band     8 # energy   25.02734940 # occ.  0.00000000
 
ion      s      p      d    tot
    1  0.017  0.207  0.055  0.279
 
band     9 # energy   26.35988600 # occ.  0.00000000
 
ion      s      p      d    tot
    1  0.000  0.503  0.190  0.693
 
band    10 # energy   30.43588717 # occ.  0.00000000
 
ion      s      p      d    tot
    1  0.000  0.132  0.451  0.582
 
band    11 # energy   33.07050347 # occ.  0.00000000
 
ion      s      p      d    tot
    1  0.145  0.137  0.279  0.561
 
band    12 # energy   37.09783131 # occ.  0.00000000
 
ion      s      p      d    tot
    1  0.068  0.099  0.154  0.320
 

 k-point    16 :   -0.25000000 0.35000000 0.05000000     weight = 0.04800000

band     1 # energy    0.70345174 # occ.  1.00000000
 
ion      s      p      d    tot
    1  0.313  0.124  0.256  0.692
 
band     2 # energy    2.83078566 # occ.  1.00000000
 
ion      s      p      d    tot
    1  0.001  0.015  0.913  0.929
 
band     3 # energy    3.15106411 # occ.  1.00000000
 
ion      s      p      d    tot
    1  0.023  0.061  0.810  0.894
 
band     4 # energy    4.37200954 # occ.  1.00000000
 
ion      s      p      d    tot
    1  0.000  0.007  0.955  0.962
 
band     5 # energy    5.03597898 # occ.  1.00000192
 
ion      s      p      d    tot
    1  0.008  0.002  0.969  0.979
 
band     6 # energy    5.55316927 # occ.  1.02836420
 
ion      s      p      d    tot
    1  0.044  0.052  0.838  0.934
 
band     7 # energy   19.57941747 # occ.  0.00000000
 
ion      s      p      d    tot
    1  0.097  0.245  0.300  0.642
 
band     8 # energy   22.73428907 # occ.  0.00000000
 
ion      s      p      d    tot
    1  0.083  0.266  0.222  0.570
 
band     9 # energy   27.88004822 # occ.  0.00000000
 
ion      s      p      d    tot
    1  0.001  0.390  0.105  0.497
 
band    10 # energy   30.32628884 # occ.  0.00000000
 
ion      s      p      d    tot
    1  0.025  0.149  0.293  0.466
 
band    11 # energy   33.78801451 # occ.  0.00000000
 
ion      s      p      d    tot
    1  0.056  0.115  0.296  0.467
 
band    12 # energy   37.10849172 # occ.  0.00000000
 
ion      s      p      d    tot
    1  0.070  0.189  0.168  0.427
 

 k-point    17 :   -0.45000000 0.45000000 0.05000000     weight = 0.02400000

band     1 # energy    0.93433097 # occ.  1.00000000
 
ion      s      p      d    tot
    1  0.120  0.009  0.704  0.833
 
band     2 # energy    2.45016333 # occ.  1.00000000
 
ion      s      p      d    tot
    1  0.000  0.001  0.941  0.943
 
band     3 # energy    4.44222185 # occ.  1.00000000
 
ion      s      p      d    tot
    1  0.011  0.094  0.791  0.896
 
band     4 # energy    4.74034613 # occ.  1.00000000
 
ion      s      p      d    tot
    1  0.007  0.009  0.957  0.972
 
band     5 # energy    6.01008949 # occ. -0.03536370
 
ion      s      p      d    tot
    1  0.000  0.001  0.989  0.990
 
band     6 # energy    6.37395923 # occ. -0.00006308
 
ion      s      p      d    tot
    1  0.034  0.406  0.259  0.698
 
band     7 # energy   13.65958627 # occ.  0.00000000
 
ion      s      p      d    tot
    1  0.343  0.061  0.384  0.788
 
band     8 # energy   24.10346347 # occ.  0.00000000
 
ion      s      p      d    tot
    1  0.016  0.225  0.031  0.272
 
band     9 # energy   25.20238844 # occ.  0.00000000
 
ion      s      p      d    tot
    1  0.000  0.584  0.100  0.684
 
band    10 # energy   30.04760637 # occ.  0.00000000
 
ion      s      p      d    tot
    1  0.000  0.088  0.533  0.621
 
band    11 # energy   33.19707283 # occ.  0.00000000
 
ion      s      p      d    tot
    1  0.204  0.046  0.345  0.594
 
band    12 # energy   38.34494458 # occ.  0.00000000
 
ion      s      p      d    tot
    1  0.015  0.065  0.120  0.199
 

 k-point    18 :   -0.35000000 0.45000000 0.05000000     weight = 0.04800000

band     1 # energy    1.22716194 # occ.  1.00000000
 
ion      s      p      d    tot
    1  0.132  0.043  0.639  0.814
 
band     2 # energy    2.62969391 # occ.  1.00000000
 
ion      s      p      d    tot
    1  0.001  0.011  0.922  0.935
 
band     3 # energy    3.52540629 # occ.  1.00000000
 
ion      s      p      d    tot
    1  0.026  0.134  0.680  0.841
 
band     4 # energy    4.60579100 # occ.  1.00000000
 
ion      s      p      d    tot
    1  0.003  0.010  0.955  0.967
 
band     5 # energy    5.39701827 # occ.  1.01384415
 
ion      s      p      d    tot
    1  0.015  0.029  0.920  0.964
 
band     6 # energy    6.99431924 # occ. -0.00000000
 
ion      s      p      d    tot
    1  0.071  0.191  0.575  0.837
 
band     7 # energy   15.40259466 # occ.  0.00000000
 
ion      s      p      d    tot
    1  0.230  0.181  0.320  0.730
 
band     8 # energy   21.48081093 # occ.  0.00000000
 
ion      s      p      d    tot
    1  0.081  0.304  0.193  0.579
 
band     9 # energy   26.27430816 # occ.  0.00000000
 
ion      s      p      d    tot
    1  0.001  0.429  0.046  0.476
 
band    10 # energy   30.50692444 # occ.  0.00000000
 
ion      s      p      d    tot
    1  0.054  0.057  0.425  0.536
 
band    11 # energy   34.88901530 # occ.  0.00000000
 
ion      s      p      d    tot
    1  0.004  0.148  0.258  0.410
 
band    12 # energy   36.90072540 # occ.  0.00000000
 
ion      s      p      d    tot
    1  0.109  0.085  0.258  0.451
 

 k-point    19 :   -0.25000000 0.45000000 0.05000000     weight = 0.02400000

band     1 # energy    1.58515602 # occ.  1.00000000
 
ion      s      p      d    tot
    1  0.157  0.089  0.543  0.789
 
band     2 # energy    2.50295696 # occ.  1.00000000
 
ion      s      p      d    tot
    1  0.000  0.040  0.851  0.891
 
band     3 # energy    3.14321738 # occ.  1.00000000
 
ion      s      p      d    tot
    1  0.014  0.080  0.798  0.891
 
band     4 # energy    4.49430862 # occ.  1.00000000
 
ion      s      p      d    tot
    1  0.000  0.007  0.959  0.966
 
band     5 # energy    5.18293269 # occ.  1.00017426
 
ion      s      p      d    tot
    1  0.019  0.007  0.949  0.974
 
band     6 # energy    7.23684905 # occ. -0.00000000
 
ion      s      p      d    tot
    1  0.093  0.153  0.611  0.856
 
band     7 # energy   17.73728409 # occ.  0.00000000
 
ion      s      p      d    tot
    1  0.000  0.318  0.342  0.660
 
band     8 # energy   18.51827387 # occ.  0.00000000
 
ion      s      p      d    tot
    1  0.289  0.214  0.170  0.673
 
band     9 # energy   27.45988009 # occ.  0.00000000
 
ion      s      p      d    tot
    1  0.019  0.445  0.078  0.542
 
band    10 # energy   30.10955444 # occ.  0.00000000
 
ion      s      p      d    tot
    1  0.000  0.090  0.275  0.365
 
band    11 # energy   33.70457510 # occ.  0.00000000
 
ion      s      p      d    tot
    1  0.084  0.028  0.346  0.458
 
band    12 # energy   41.35826052 # occ.  0.00000000
 
ion      s      p      d    tot
    1  0.000  0.243  0.141  0.384
 

 k-point    20 :   -0.45000000-0.45000000 0.05000000     weight = 0.02400000

band     1 # energy    1.23555917 # occ.  1.00000000
 
ion      s      p      d    tot
    1  0.089  0.017  0.740  0.846
 
band     2 # energy    2.56261365 # occ.  1.00000000
 
ion      s      p      d    tot
    1  0.000  0.009  0.927  0.937
 