<?xml version="1.0" encoding="ISO-8859-1"?>
<modeling>
 <generator>
  <i name="program" type="string">vasp </i>
  <i name="version" type="string">5.4.4.18Apr17-6-g9f103f2a35  </i>
  <i name="subversion" type="string">(build Jul 01 2019 03:25:34) complex            parallel </i>
  <i name="platform" type="string">LinuxIFC </i>
  <i name="date" type="string">2020 07 01 </i>
  <i name="time" type="string">21:27:30 </i>
 </generator>
 <incar>
  <i type="string" name="SYSTEM"> bcc Fe</i>
  <i type="string" name="PREC">normal</i>
  <i type="int" name="ISPIN">     2</i>
  <i name="EDIFF">      0.00010000</i>
  <i name="ENCUT">    268.00000000</i>
  <v name="MAGMOM">      3.00000000</v>
  <v type="int" name="KPOINT_BSE">    -1     0     0     0</v>
 </incar>
 <structure name="primitive_cell" >
  <crystal>
   <varray name="basis" >
    <v>      -1.42000000       1.42000000       1.42000000 </v>
    <v>       1.42000000      -1.42000000       1.42000000 </v>
    <v>       1.42000000       1.42000000      -1.42000000 </v>
   </varray>
   <i name="volume">     11.45315200 </i>
   <varray name="rec_basis" >
    <v>       0.00000000       0.35211268       0.35211268 </v>
    <v>       0.35211268       0.00000000       0.35211268 </v>
    <v>       0.35211268       0.35211268       0.00000000 </v>
   </varray>
  </crystal>
  <varray name="positions" >
   <v>       0.00000000       0.00000000       0.00000000 </v>
  </varray>
 </structure>
 <varray name="primitive_index" >
  <v type="int" >        1 </v>
 </varray>
 <kpoints>
  <generation param="Monkhorst-Pack">
   <v type="int" name="divisions">      10       10       10 </v>
   <v name="usershift">      0.00000000       0.00000000       0.00000000 </v>
   <v name="genvec1">      0.10000000       0.00000000       0.00000000 </v>
   <v name="genvec2">      0.00000000       0.10000000       0.00000000 </v>
   <v name="genvec3">      0.00000000       0.00000000       0.10000000 </v>
   <v name="shift">      0.50000000       0.50000000       0.50000000 </v>
  </generation>
  <varray name="kpointlist" >
   <v>       0.05000000       0.05000000       0.05000000 </v>
   <v>       0.15000000       0.05000000       0.05000000 </v>
   <v>       0.25000000       0.05000000       0.05000000 </v>
   <v>       0.35000000       0.05000000       0.05000000 </v>
   <v>       0.45000000       0.05000000       0.05000000 </v>
   <v>      -0.05000000       0.05000000       0.05000000 </v>
   <v>       0.15000000       0.15000000       0.05000000 </v>
   <v>       0.25000000       0.15000000       0.05000000 </v>
   <v>       0.35000000       0.15000000       0.05000000 </v>
   <v>      -0.15000000       0.15000000       0.05000000 </v>
   <v>       0.25000000       0.25000000       0.05000000 </v>
   <v>       0.35000000       0.25000000       0.05000000 </v>
   <v>      -0.25000000       0.25000000       0.05000000 </v>
   <v>      -0.15000000       0.25000000       0.05000000 </v>
   <v>      -0.35000000       0.35000000       0.05000000 </v>
   <v>      -0.25000000       0.35000000       0.05000000 </v>
   <v>      -0.45000000       0.45000000       0.05000000 </v>
   <v>      -0.35000000       0.45000000       0.05000000 </v>
   <v>      -0.25000000       0.45000000       0.05000000 </v>
   <v>      -0.45000000      -0.45000000       0.05000000 </v>
   <v>      -0.35000000      -0.45000000       0.05000000 </v>
   <v>      -0.35000000      -0.35000000       0.05000000 </v>
   <v>       0.15000000       0.15000000       0.15000000 </v>
   <v>       0.25000000       0.15000000       0.15000000 </v>
   <v>       0.35000000       0.15000000       0.15000000 </v>
   <v>      -0.15000000       0.15000000       0.15000000 </v>
   <v>       0.25000000       0.25000000       0.15000000 </v>
   <v>      -0.25000000       0.25000000       0.15000000 </v>
   <v>      -0.35000000       0.35000000       0.15000000 </v>
   <v>      -0.25000000       0.35000000       0.15000000 </v>
   <v>      -0.45000000       0.45000000       0.15000000 </v>
   <v>      -0.35000000       0.45000000       0.15000000 </v>
   <v>      -0.45000000      -0.45000000       0.15000000 </v>
   <v>      -0.35000000      -0.45000000       0.15000000 </v>
   <v>       0.25000000       0.25000000       0.25000000 </v>
   <v>      -0.25000000       0.25000000       0.25000000 </v>
   <v>      -0.35000000       0.35000000       0.25000000 </v>
   <v>      -0.45000000       0.45000000       0.25000000 </v>
   <v>      -0.35000000       0.45000000       0.25000000 </v>
   <v>      -0.45000000      -0.45000000       0.25000000 </v>
   <v>      -0.35000000       0.35000000       0.35000000 </v>
   <v>      -0.45000000       0.45000000       0.35000000 </v>
   <v>      -0.45000000      -0.45000000       0.35000000 </v>
   <v>      -0.45000000       0.45000000       0.45000000 </v>
  </varray>
  <varray name="weights" >
   <v>       0.00800000 </v>
   <v>       0.02400000 </v>
   <v>       0.02400000 </v>
   <v>       0.02400000 </v>
   <v>       0.01200000 </v>
   <v>       0.00600000 </v>
   <v>       0.02400000 </v>
   <v>       0.04800000 </v>
   <v>       0.04800000 </v>
   <v>       0.02400000 </v>
   <v>       0.02400000 </v>
   <v>       0.02400000 </v>
   <v>       0.02400000 </v>
   <v>       0.02400000 </v>
   <v>       0.02400000 </v>
   <v>       0.04800000 </v>
   <v>       0.02400000 </v>
   <v>       0.04800000 </v>
   <v>       0.02400000 </v>
   <v>       0.02400000 </v>
   <v>       0.04800000 </v>
   <v>       0.00800000 </v>
   <v>       0.00800000 </v>
   <v>       0.02400000 </v>
   <v>       0.01200000 </v>
   <v>       0.00600000 </v>
   <v>       0.02400000 </v>
   <v>       0.02400000 </v>
   <v>       0.02400000 </v>
   <v>       0.02400000 </v>
   <v>       0.02400000 </v>
   <v>       0.04800000 </v>
   <v>       0.02400000 </v>
   <v>       0.02400000 </v>
   <v>       0.00200000 </v>
   <v>       0.00600000 </v>
   <v>       0.02400000 </v>
   <v>       0.02400000 </v>
   <v>       0.02400000 </v>
   <v>       0.02400000 </v>
   <v>       0.00600000 </v>
   <v>       0.02400000 </v>
   <v>       0.00800000 </v>
   <v>       0.00600000 </v>
  </varray>
 </kpoints>
 <parameters>
  <separator name="general" >
   <i type="string" name="SYSTEM">bcc Fe</i>
   <i type="logical" name="LCOMPAT"> F  </i>
  </separator>
  <separator name="electronic" >
   <i type="string" name="PREC">normal</i>
   <i name="ENMAX">    268.00000000</i>
   <i name="ENAUG">    511.36800000</i>
   <i name="EDIFF">      0.00010000</i>
   <i type="int" name="IALGO">    38</i>
   <i type="int" name="IWAVPR">    10</i>
   <i type="int" name="NBANDS">    12</i>
   <i name="NELECT">      8.00000000</i>
   <i type="int" name="TURBO">     0</i>
   <i type="int" name="IRESTART">     0</i>
   <i type="int" name="NREBOOT">     0</i>
   <i type="int" name="NMIN">     0</i>
   <i name="EREF">      0.00000000</i>
   <separator name="electronic smearing" >
    <i type="int" name="ISMEAR">     1</i>
    <i name="SIGMA">      0.20000000</i>
    <i name="KSPACING">      0.50000000</i>
    <i type="logical" name="KGAMMA"> T  </i>
   </separator>
   <separator name="electronic projectors" >
    <i type="logical" name="LREAL"> F  </i>
    <v name="ROPT">      0.00000000</v>
    <i type="int" name="LMAXPAW">  -100</i>
    <i type="int" name="LMAXMIX">     2</i>
    <i type="logical" name="NLSPLINE"> F  </i>
   </separator>
   <separator name="electronic startup" >
    <i type="int" name="ISTART">     0</i>
    <i type="int" name="ICHARG">     2</i>
    <i type="int" name="INIWAV">     1</i>
   </separator>
   <separator name="electronic spin" >
    <i type="int" name="ISPIN">     2</i>
    <i type="logical" name="LNONCOLLINEAR"> F  </i>
    <v name="MAGMOM">      3.00000000</v>
    <i name="NUPDOWN">     -1.00000000</i>
    <i type="logical" name="LSORBIT"> F  </i>
    <v name="SAXIS">      0.00000000      0.00000000      1.00000000</v>
    <i type="logical" name="LSPIRAL"> F  </i>
    <v name="QSPIRAL">      0.00000000      0.00000000      0.00000000</v>
    <i type="logical" name="LZEROZ"> F  </i>
   </separator>
   <separator name="electronic exchange-correlation" >
    <i type="logical" name="LASPH"> F  </i>
    <i type="logical" name="LMETAGGA"> F  </i>
   </separator>
   <separator name="electronic convergence" >
    <i type="int" name="NELM">    60</i>
    <i type="int" name="NELMDL">    -5</i>
    <i type="int" name="NELMIN">     2</i>
    <i name="ENINI">    268.00000000</i>
    <separator name="electronic convergence detail" >
     <i type="logical" name="LDIAG"> T  </i>
     <i type="logical" name="LSUBROT"> F  </i>
     <i name="WEIMIN">      0.00000000</i>
     <i name="EBREAK">      0.00000208</i>
     <i name="DEPER">      0.30000000</i>
     <i type="int" name="NRMM">     4</i>
     <i name="TIME">      0.40000000</i>
    </separator>
   </separator>
   <separator name="electronic mixer" >
    <i name="AMIX">      0.40000000</i>
    <i name="BMIX">      1.00000000</i>
    <i name="AMIN">      0.10000000</i>
    <i name="AMIX_MAG">      1.60000000</i>
    <i name="BMIX_MAG">      1.00000000</i>
    <separator name="electronic mixer details" >
     <i type="int" name="IMIX">     4</i>
     <i type="logical" name="MIXFIRST"> F  </i>
     <i type="int" name="MAXMIX">   -45</i>
     <i name="WC">    100.00000000</i>
     <i type="int" name="INIMIX">     1</i>
     <i type="int" name="MIXPRE">     1</i>
     <i type="int" name="MREMOVE">     5</i>
    </separator>
   </separator>
   <separator name="electronic dipolcorrection" >
    <i type="logical" name="LDIPOL"> F  </i>
    <i type="logical" name="LMONO"> F  </i>
    <i type="int" name="IDIPOL">     0</i>
    <i name="EPSILON">      1.00000000</i>
    <v name="DIPOL">   -100.00000000   -100.00000000   -100.00000000</v>
    <i name="EFIELD">      0.00000000</i>
   </separator>
  </separator>
  <separator name="grids" >
   <i type="int" name="NGX">    10</i>
   <i type="int" name="NGY">    10</i>
   <i type="int" name="NGZ">    10</i>
   <i type="int" name="NGXF">    20</i>
   <i type="int" name="NGYF">    20</i>
   <i type="int" name="NGZF">    20</i>
   <i type="logical" name="ADDGRID"> F  </i>
  </separator>
  <separator name="ionic" >
   <i type="int" name="NSW">     0</i>
   <i type="int" name="IBRION">    -1</i>
   <i type="int" name="MDALGO">     0</i>
   <i type="int" name="ISIF">     2</i>
   <i name="PSTRESS">      0.00000000</i>
   <i name="EDIFFG">      0.00100000</i>
   <i type="int" name="NFREE">     0</i>
   <i name="POTIM">      0.50000000</i>
   <i name="SMASS">     -3.00000000</i>
   <i name="SCALEE">      1.00000000</i>
  </separator>
  <separator name="ionic md" >
   <i name="TEBEG">      0.00010000</i>
   <i name="TEEND">      0.00010000</i>
   <i type="int" name="NBLOCK">     1</i>
   <i type="int" name="KBLOCK">     1</i>
   <i type="int" name="NPACO">   256</i>
   <i name="APACO">     16.00000000</i>
  </separator>
  <separator name="symmetry" >
   <i type="int" name="ISYM">     2</i>
   <i name="SYMPREC">      0.00001000</i>
  </separator>
  <separator name="dos" >
   <i type="int" name="LORBIT">     0</i>
   <v name="RWIGS">     -1.00000000</v>
   <i type="int" name="NEDOS">   301</i>
   <i name="EMIN">     10.00000000</i>
   <i name="EMAX">    -10.00000000</i>
   <i name="EFERMI">      0.00000000</i>
  </separator>
  <separator name="writing" >
   <i type="int" name="NWRITE">     2</i>
   <i type="logical" name="LWAVE"> T  </i>
   <i type="logical" name="LDOWNSAMPLE"> F  </i>
   <i type="logical" name="LCHARG"> T  </i>
   <i type="logical" name="LPARD"> F  </i>
   <i type="logical" name="LVTOT"> F  </i>
   <i type="logical" name="LVHAR"> F  </i>
   <i type="logical" name="LELF"> F  </i>
   <i type="logical" name="LOPTICS"> F  </i>
   <v name="STM">      0.00000000      0.00000000      0.00000000      0.00000000      0.00000000      0.00000000      0.00000000</v>
  </separator>
  <separator name="performance" >
   <i type="int" name="NPAR">     4</i>
   <i type="int" name="NSIM">     4</i>
   <i type="int" name="NBLK">    -1</i>
   <i type="logical" name="LPLANE"> T  </i>
   <i type="logical" name="LSCALAPACK"> T  </i>
   <i type="logical" name="LSCAAWARE"> F  </i>
   <i type="logical" name="LSCALU"> F  </i>
   <i type="logical" name="LASYNC"> F  </i>
   <i type="logical" name="LORBITALREAL"> F  </i>
  </separator>
  <separator name="miscellaneous" >
   <i type="int" name="IDIOT">     3</i>
   <i type="int" name="ISPECIAL">     0</i>
   <i type="logical" name="LMUSIC"> F  </i>
   <v name="POMASS">     55.84700000</v>
   <v name="DARWINR">      0.00000000</v>
   <v name="DARWINV">      1.00000000</v>
   <i type="logical" name="LCORR"> T  </i>
  </separator>
  <i type="logical" name="GGA_COMPAT"> T  </i>
  <i type="logical" name="LBERRY"> F  </i>
  <i type="int" name="ICORELEVEL">     0</i>
  <i type="logical" name="LDAU"> F  </i>
  <i type="int" name="I_CONSTRAINED_M">     0</i>
  <separator name="electronic exchange-correlation" >
   <i type="string" name="GGA">--</i>
   <i type="int" name="VOSKOWN">     0</i>
   <i type="logical" name="LHFCALC"> F  </i>
   <i type="string" name="PRECFOCK"></i>
   <i type="logical" name="LSYMGRAD"> F  </i>
   <i type="logical" name="LHFONE"> F  </i>
   <i type="logical" name="LRHFCALC"> F  </i>
   <i type="logical" name="LTHOMAS"> F  </i>
   <i type="logical" name="LMODELHF"> F  </i>
   <i name="ENCUT4O">     -1.00000000</i>
   <i type="int" name="EXXOEP">     0</i>
   <i type="int" name="FOURORBIT">     0</i>
   <i name="AEXX">      0.00000000</i>
   <i name="HFALPHA">      0.00000000</i>
   <i name="MCALPHA">      0.00000000</i>
   <i name="ALDAX">      1.00000000</i>
   <i name="AGGAX">      1.00000000</i>
   <i name="ALDAC">      1.00000000</i>
   <i name="AGGAC">      1.00000000</i>
   <i type="int" name="NKREDX">     1</i>
   <i type="int" name="NKREDY">     1</i>
   <i type="int" name="NKREDZ">     1</i>
   <i type="logical" name="SHIFTRED"> F  </i>
   <i type="logical" name="ODDONLY"> F  </i>
   <i type="logical" name="EVENONLY"> F  </i>
   <i type="int" name="LMAXFOCK">     0</i>
   <i type="int" name="NMAXFOCKAE">     0</i>
   <i type="logical" name="LFOCKAEDFT"> F  </i>
   <i name="HFSCREEN">      0.00000000</i>
   <i name="HFSCREENC">      0.00000000</i>
   <i type="int" name="NBANDSGWLOW">     0</i>
  </separator>
  <separator name="vdW DFT" >
   <i type="logical" name="LUSE_VDW"> F  </i>
   <i name="Zab_VDW">     -0.84910000</i>
   <i name="PARAM1">      0.12340000</i>
   <i name="PARAM2">      1.00000000</i>
   <i name="PARAM3">      0.00000000</i>
  </separator>
  <separator name="model GW" >
   <i type="int" name="MODEL_GW">     0</i>
   <i name="MODEL_EPS0">      6.87189120</i>
   <i name="MODEL_ALPHA">      1.00000000</i>
  </separator>
  <separator name="linear response parameters" >
   <i type="logical" name="LEPSILON"> F  </i>
   <i type="logical" name="LRPA"> F  </i>
   <i type="logical" name="LNABLA"> F  </i>
   <i type="logical" name="LVEL"> F  </i>
   <i type="int" name="KINTER">     0</i>
   <i name="CSHIFT">      0.10000000</i>
   <i name="OMEGAMAX">     -1.00000000</i>
   <i name="DEG_THRESHOLD">      0.00200000</i>
   <i name="RTIME">     -0.10000000</i>
   <i name="WPLASMAI">      0.00000000</i>
   <v name="DFIELD">      0.00000000      0.00000000      0.00000000</v>
   <v name="WPLASMA">      0.00000000      0.00000000      0.00000000      0.00000000      0.00000000      0.00000000      0.00000000      0.00000000      0.00000000</v>
  </separator>
  <separator name="orbital magnetization" >
   <i type="logical" name="NUCIND"> F  </i>
   <v name="MAGPOS">      0.00000000      0.00000000      0.00000000</v>
   <i type="logical" name="LNICSALL"> T  </i>
   <i type="logical" name="ORBITALMAG"> F  </i>
   <i type="logical" name="LMAGBLOCH"> F  </i>
   <i type="logical" name="LCHIMAG"> F  </i>
   <i type="logical" name="LGAUGE"> T  </i>
   <i type="int" name="MAGATOM">     0</i>
   <v name="MAGDIPOL">      0.00000000      0.00000000      0.00000000</v>
   <v name="AVECCONST">      0.00000000      0.00000000      0.00000000</v>
  </separator>
  <separator name="response functions" >
   <i type="logical" name="LADDER"> F  </i>
   <i type="logical" name="LRPAFORCE"> F  </i>
   <i type="logical" name="LFXC"> F  </i>
   <i type="logical" name="LHARTREE"> T  </i>
   <i type="int" name="IBSE">     0</i>
   <v type="int" name="KPOINT">    -1     0     0     0</v>
   <i type="logical" name="LTCTE"> F  </i>
   <i type="logical" name="LTETE"> F  </i>
   <i type="logical" name="LTRIPLET"> F  </i>
   <i type="logical" name="LFXCEPS"> F  </i>
   <i type="logical" name="LFXHEG"> F  </i>
   <i type="int" name="NATURALO">     2</i>
   <i type="logical" name="L2ORDER"> F  </i>
   <i type="logical" name="LMP2LT"> F  </i>
   <i type="logical" name="LUSEW"> F  </i>
   <i name="ENCUTGW">     -2.00000000</i>
   <i name="ENCUTGWSOFT">     -2.00000000</i>
   <i name="ENCUTLF">     -1.00000000</i>
   <i type="int" name="LMAXMP2">    -1</i>
   <i name="SCISSOR">      0.00000000</i>
   <i type="int" name="NOMEGA">     0</i>
   <i type="int" name="NOMEGAR">     0</i>
   <i type="int" name="NBANDSGW">    -1</i>
   <i type="int" name="NBANDSO">    -1</i>
   <i type="int" name="NBANDSV">    -1</i>
   <i type="int" name="NELM">     1</i>
   <i type="int" name="NELMHF">     1</i>
   <i type="int" name="DIM">     3</i>
   <i type="int" name="ANTIRES">     0</i>
   <i name="OMEGAMAX">    -30.00000000</i>
   <i name="OMEGAMIN">    -30.00000000</i>
   <i name="OMEGATL">   -200.00000000</i>
   <i type="int" name="OMEGAGRID">   140</i>
   <i name="CSHIFT">     -0.10000000</i>
   <i type="logical" name="SELFENERGY"> F  </i>
   <i type="logical" name="LSPECTRAL"> F  </i>
   <i type="logical" name="LSPECTRALGW"> F  </i>
   <i type="logical" name="LSINGLES"> F  </i>
   <i type="logical" name="LFERMIGW"> F  </i>
   <i type="logical" name="ODDONLYGW"> F  </i>
   <i type="logical" name="EVENONLYGW"> F  </i>
   <i type="int" name="NKREDLFX">     1</i>
   <i type="int" name="NKREDLFY">     1</i>
   <i type="int" name="NKREDLFZ">     1</i>
   <i type="int" name="MAXMEM">  2800</i>
   <i type="int" name="TELESCOPE">     0</i>
   <i type="int" name="TAUPAR">     1</i>
   <i type="int" name="OMEGAPAR">    -1</i>
   <i name="LAMBDA">      1.00000000</i>
  </separator>
  <separator name="External order field" >
   <i name="OFIELD_KAPPA">      0.00000000</i>
   <v name="OFIELD_K">      0.00000000      0.00000000      0.00000000</v>
   <i name="OFIELD_Q6_NEAR">      0.00000000</i>
   <i name="OFIELD_Q6_FAR">      0.00000000</i>
   <i name="OFIELD_A">      0.00000000</i>
  </separator>
 </parameters>
 <atominfo>
  <atoms>       1 </atoms>
  <types>       1 </types>
  <array name="atoms" >
   <dimension dim="1">ion</dimension>
   <field type="string">element</field>
   <field type="int">atomtype</field>
   <set>
    <rc><c>Fe</c><c>   1</c></rc>
   </set>
  </array>
  <array name="atomtypes" >
   <dimension dim="1">type</dimension>
   <field type="int">atomspertype</field>
   <field type="string">element</field>
   <field>mass</field>
   <field>valence</field>
   <field type="string">pseudopotential</field>
   <set>
    <rc><c>   1</c><c>Fe</c><c>     55.84700000</c><c>      8.00000000</c><c>  PAW_PBE Fe 06Sep2000                  </c></rc>
   </set>
  </array>
 </atominfo>
 <structure name="initialpos" >
  <crystal>
   <varray name="basis" >
    <v>      -1.42000000       1.42000000       1.42000000 </v>
    <v>       1.42000000      -1.42000000       1.42000000 </v>
    <v>       1.42000000       1.42000000      -1.42000000 </v>
   </varray>
   <i name="volume">     11.45315200 </i>
   <varray name="rec_basis" >
    <v>       0.00000000       0.35211268       0.35211268 </v>
    <v>       0.35211268       0.00000000       0.35211268 </v>
    <v>       0.35211268       0.35211268       0.00000000 </v>
   </varray>
  </crystal>
  <varray name="positions" >
   <v>       0.00000000       0.00000000       0.00000000 </v>
  </varray>
 </structure>
 <calculation>
  <scstep>
   <time name="dav">    0.11    0.12</time>
   <time name="total">    0.12    0.13</time>
   <energy>
    <i name="alphaZ">     60.34476448 </i>
    <i name="ewald">   -590.46971399 </i>
    <i name="hartreedc">   -112.15860924 </i>
    <i name="XCdc">      5.05162620 </i>
    <i name="pawpsdc">    553.75926685 </i>
    <i name="pawaedc">   -561.48528711 </i>
    <i name="eentropy">     -0.00045645 </i>
    <i name="bandstr">     60.83782662 </i>
    <i name="atom">    594.28084496 </i>
    <i name="e_fr_energy">     10.16026233 </i>
    <i name="e_wo_entrp">     10.16071878 </i>
    <i name="e_0_energy">     10.16041448 </i>
   </energy>
  </scstep>
  <scstep>
   <time name="dav">    0.10    0.10</time>
   <time name="total">    0.10    0.10</time>
   <energy>
    <i name="e_fr_energy">     -8.83230662 </i>
    <i name="e_wo_entrp">     -8.83244109 </i>
    <i name="e_0_energy">     -8.83235144 </i>
   </energy>
  </scstep>
  <scstep>
   <time name="dav">    0.10    0.11</time>
   <time name="total">    0.11    0.11</time>
   <energy>
    <i name="e_fr_energy">     -9.13080059 </i>
    <i name="e_wo_entrp">     -9.13169623 </i>
    <i name="e_0_energy">     -9.13109914 </i>
   </energy>
  </scstep>
  <scstep>
   <time name="dav">    0.10    0.11</time>
   <time name="total">    0.10    0.11</time>
   <energy>
    <i name="e_fr_energy">     -9.13159707 </i>
    <i name="e_wo_entrp">     -9.13249733 </i>
    <i name="e_0_energy">     -9.13189716 </i>
   </energy>
  </scstep>
  <scstep>
   <time name="dav">    0.09    0.09</time>
   <time name="total">    0.09    0.10</time>
   <energy>
    <i name="e_fr_energy">     -9.13160088 </i>
    <i name="e_wo_entrp">     -9.13250117 </i>
    <i name="e_0_energy">     -9.13190098 </i>
   </energy>
  </scstep>
  <scstep>
   <time name="dav">    0.10    0.10</time>
   <time name="total">    0.11    0.11</time>
   <energy>
    <i name="e_fr_energy">     -8.30875649 </i>
    <i name="e_wo_entrp">     -8.30763955 </i>
    <i name="e_0_energy">     -8.30838418 </i>
   </energy>
  </scstep>
  <scstep>
   <time name="dav">    0.10    0.11</time>
   <time name="total">    0.11    0.12</time>
   <energy>
    <i name="e_fr_energy">     -8.24527446 </i>
    <i name="e_wo_entrp">     -8.24311546 </i>
    <i name="e_0_energy">     -8.24455479 </i>
   </energy>
  </scstep>
  <scstep>
   <time name="dav">    0.11    0.11</time>
   <time name="total">    0.11    0.12</time>
   <energy>
    <i name="e_fr_energy">     -8.24155426 </i>
    <i name="e_wo_entrp">     -8.24053858 </i>
    <i name="e_0_energy">     -8.24121570 </i>
   </energy>
  </scstep>
  <scstep>
   <time name="dav">    0.12    0.12</time>
   <time name="total">    0.12    0.13</time>
   <energy>
    <i name="e_fr_energy">     -8.23583271 </i>
    <i name="e_wo_entrp">     -8.23795789 </i>
    <i name="e_0_energy">     -8.23654111 </i>
   </energy>
  </scstep>
  <scstep>
   <time name="dav">    0.09    0.09</time>
   <time name="total">    0.10    0.10</time>
   <energy>
    <i name="e_fr_energy">     -8.23630690 </i>
    <i name="e_wo_entrp">     -8.23811419 </i>
    <i name="e_0_energy">     -8.23690933 </i>
   </energy>
  </scstep>
  <scstep>
   <time name="dav">    0.10    0.10</time>
   <time name="total">    0.11    0.11</time>
   <energy>
    <i name="e_fr_energy">     -8.23658791 </i>
    <i name="e_wo_entrp">     -8.23772368 </i>
    <i name="e_0_energy">     -8.23696650 </i>
   </energy>
  </scstep>
  <scstep>
   <time name="dav">    0.07    0.07</time>
   <time name="total">    0.08    0.08</time>
   <energy>
    <i name="alphaZ">     60.34476448 </i>
    <i name="ewald">   -590.46971399 </i>
    <i name="hartreedc">    -95.90522182 </i>
    <i name="XCdc">      4.41598472 </i>
    <i name="pawpsdc">    718.87021505 </i>
    <i name="pawaedc">   -727.93461311 </i>
    <i name="eentropy">      0.00103279 </i>
    <i name="bandstr">     28.16012205 </i>
    <i name="atom">    594.28084496 </i>
    <i name="e_fr_energy">     -8.23658488 </i>
    <i name="e_wo_entrp">     -8.23761767 </i>
    <i name="e_0_energy">     -8.23692914 </i>
   </energy>
  </scstep>
  <structure>
   <crystal>
    <varray name="basis" >
     <v>      -1.42000000       1.42000000       1.42000000 </v>
     <v>       1.42000000      -1.42000000       1.42000000 </v>
     <v>       1.42000000       1.42000000      -1.42000000 </v>
    </varray>
    <i name="volume">     11.45315200 </i>
    <varray name="rec_basis" >
     <v>       0.00000000       0.35211268       0.35211268 </v>
     <v>       0.35211268       0.00000000       0.35211268 </v>
     <v>       0.35211268       0.35211268       0.00000000 </v>
    </varray>
   </crystal>
   <varray name="positions" >
    <v>       0.00000000       0.00000000       0.00000000 </v>
   </varray>
  </structure>
  <varray name="forces" >
   <v>       0.00000000      -0.00000000       0.00000000 </v>
  </varray>
  <varray name="stress" >
   <v>     -37.94219255       0.00000000      -0.00000000 </v>
   <v>       0.00000000     -37.94219255      -0.00000000 </v>
   <v>       0.00000000       0.00000000     -37.94219255 </v>
  </varray>
  <energy>
   <i name="e_fr_energy">     -8.23658488 </i>
   <i name="e_wo_entrp">     -8.23692914 </i>
   <i name="e_0_energy">      0.00103279 </i>
  </energy>
  <time name="totalsc">    1.35    1.40</time>
  <eigenvalues>
   <array>
    <dimension dim="1">band</dimension>
    <dimension dim="2">kpoint</dimension>
    <dimension dim="3">spin</dimension>
    <field>eigene</field>
    <field>occ</field>
    <set>
     <set comment="spin 1">
      <set comment="kpoint 1">
       <r>   -2.0505    1.0000 </r>
       <r>    3.2867    1.0000 </r>
       <r>    3.2867    1.0000 </r>
       <r>    3.7936    1.0000 </r>
       <r>    4.6307    1.0000 </r>
       <r>    4.6307    1.0000 </r>
       <r>   28.1280    0.0000 </r>
       <r>   28.1280    0.0000 </r>
       <r>   31.2319    0.0000 </r>
       <r>   32.4461    0.0000 </r>
       <r>   36.1063    0.0000 </r>
       <r>   36.1063    0.0000 </r>
      </set>
      <set comment="kpoint 2">
       <r>   -0.9388    1.0000 </r>
       <r>    2.9884    1.0000 </r>
       <r>    3.1376    1.0000 </r>
       <r>    4.4572    1.0000 </r>
       <r>    4.5254    1.0000 </r>
       <r>    4.7086    1.0000 </r>
       <r>   23.8953    0.0000 </r>
       <r>   26.2066    0.0000 </r>
       <r>   29.0664    0.0000 </r>
       <r>   31.5075    0.0000 </r>
       <r>   35.8329    0.0000 </r>
       <r>   36.1766    0.0000 </r>
      </set>
      <set comment="kpoint 3">
       <r>    0.4153    1.0000 </r>
       <r>    2.6605    1.0000 </r>
       <r>    3.2190    1.0000 </r>
       <r>    4.5846    1.0000 </r>
       <r>    4.7860    1.0000 </r>
       <r>    5.3862    1.0112 </r>
       <r>   19.2795    0.0000 </r>
       <r>   24.4769    0.0000 </r>
       <r>   26.6556    0.0000 </r>
       <r>   31.0793    0.0000 </r>
       <r>   34.8957    0.0000 </r>
       <r>   38.1545    0.0000 </r>
      </set>
      <set comment="kpoint 4">
       <r>    0.9653    1.0000 </r>
       <r>    2.4167    1.0000 </r>
       <r>    4.2727    1.0000 </r>
       <r>    4.7255    1.0000 </r>
       <r>    4.8518    1.0000 </r>
       <r>    6.5173   -0.0000 </r>
       <r>   15.1607    0.0000 </r>
       <r>   23.2885    0.0000 </r>
       <r>   25.0308    0.0000 </r>
       <r>   30.7051    0.0000 </r>
       <r>   34.5675    0.0000 </r>
       <r>   40.4089    0.0000 </r>
      </set>
      <set comment="kpoint 5">
       <r>    0.9875    1.0000 </r>
       <r>    2.3263    1.0000 </r>
       <r>    4.7431    1.0000 </r>
       <r>    4.8780    1.0000 </r>
       <r>    5.0273    1.0000 </r>
       <r>    7.4694   -0.0000 </r>
       <r>   13.0433    0.0000 </r>
       <r>   22.8657    0.0000 </r>
       <r>   24.4339    0.0000 </r>
       <r>   30.5620    0.0000 </r>
       <r>   34.5366    0.0000 </r>
       <r>   40.3072    0.0000 </r>
      </set>
      <set comment="kpoint 6">
       <r>   -2.4517    1.0000 </r>
       <r>    3.4145    1.0000 </r>
       <r>    3.4146    1.0000 </r>
       <r>    3.4653    1.0000 </r>
       <r>    4.5955    1.0000 </r>
       <r>    4.7221    1.0000 </r>
       <r>   29.4622    0.0000 </r>
       <r>   30.4754    0.0000 </r>
       <r>   30.4754    0.0000 </r>
       <r>   34.0767    0.0000 </r>
       <r>   35.9999    0.0000 </r>
       <r>   36.0000    0.0000 </r>
      </set>
      <set comment="kpoint 7">
       <r>    0.3162    1.0000 </r>
       <r>    2.7648    1.0000 </r>
       <r>    2.7945    1.0000 </r>
       <r>    4.5471    1.0000 </r>
       <r>    4.7947    1.0000 </r>
       <r>    5.4440    1.0230 </r>
       <r>   21.5945    0.0000 </r>
       <r>   22.4845    0.0000 </r>
       <r>   25.8892    0.0000 </r>
       <r>   32.8223    0.0000 </r>
       <r>   36.7348    0.0000 </r>
       <r>   38.2608    0.0000 </r>
      </set>
      <set comment="kpoint 8">
       <r>    1.3265    1.0000 </r>
       <r>    2.4829    1.0000 </r>
       <r>    3.0291    1.0000 </r>
       <r>    4.6431    1.0000 </r>
       <r>    4.8970    1.0000 </r>
       <r>    6.8264   -0.0000 </r>
       <r>   17.5040    0.0000 </r>
       <r>   20.6410    0.0000 </r>
       <r>   24.1159    0.0000 </r>
       <r>   33.0431    0.0000 </r>
       <r>   37.5214    0.0000 </r>
       <r>   38.9394    0.0000 </r>
      </set>
      <set comment="kpoint 9">
       <r>    1.4241    1.0000 </r>
       <r>    2.3485    1.0000 </r>
       <r>    3.7655    1.0000 </r>
       <r>    4.7574    1.0000 </r>
       <r>    4.9904    1.0000 </r>
       <r>    8.6177   -0.0000 </r>
       <r>   13.8976    0.0000 </r>
       <r>   19.8098    0.0000 </r>
       <r>   23.2172    0.0000 </r>
       <r>   32.9249    0.0000 </r>
       <r>   38.2167    0.0000 </r>
       <r>   39.1746    0.0000 </r>
      </set>
      <set comment="kpoint 10">
       <r>   -1.6637    1.0000 </r>
       <r>    3.2266    1.0000 </r>
       <r>    3.3754    1.0000 </r>
       <r>    3.8718    1.0000 </r>
       <r>    4.3931    1.0000 </r>
       <r>    4.7851    1.0000 </r>
       <r>   26.1731    0.0000 </r>
       <r>   28.8446    0.0000 </r>
       <r>   29.5872    0.0000 </r>
       <r>   33.2800    0.0000 </r>
       <r>   33.5185    0.0000 </r>
       <r>   34.4952    0.0000 </r>
      </set>
      <set comment="kpoint 11">
       <r>    1.8612    1.0000 </r>
       <r>    2.4134    1.0000 </r>
       <r>    3.0062    1.0000 </r>
       <r>    4.7454    1.0000 </r>
       <r>    4.9806    1.0000 </r>
       <r>    8.9850   -0.0000 </r>
       <r>   15.8767    0.0000 </r>
       <r>   16.8895    0.0000 </r>
       <r>   23.0187    0.0000 </r>
       <r>   34.4114    0.0000 </r>
       <r>   37.2818    0.0000 </r>
       <r>   43.2270    0.0000 </r>
      </set>
      <set comment="kpoint 12">
       <r>    1.9075    1.0000 </r>
       <r>    2.4547    1.0000 </r>
       <r>    3.0745    1.0000 </r>
       <r>    4.8366    1.0000 </r>
       <r>    4.9800    1.0000 </r>
       <r>   11.1041   -0.0000 </r>
       <r>   13.3357    0.0000 </r>
       <r>   16.1644    0.0000 </r>
       <r>   22.6754    0.0000 </r>
       <r>   34.9475    0.0000 </r>
       <r>   37.2594    0.0000 </r>
       <r>   42.8632    0.0000 </r>
      </set>
      <set comment="kpoint 13">
       <r>   -0.3260    1.0000 </r>
       <r>    2.9133    1.0000 </r>
       <r>    3.2782    1.0000 </r>
       <r>    4.3889    1.0000 </r>
       <r>    4.6037    1.0000 </r>
       <r>    4.8589    1.0000 </r>
       <r>   21.5450    0.0000 </r>
       <r>   26.6907    0.0000 </r>
       <r>   28.1150    0.0000 </r>
       <r>   31.4373    0.0000 </r>
       <r>   33.1342    0.0000 </r>
       <r>   35.2430    0.0000 </r>
      </set>
      <set comment="kpoint 14">
       <r>   -0.6009    1.0000 </r>
       <r>    3.1590    1.0000 </r>
       <r>    3.1592    1.0000 </r>
       <r>    4.2035    1.0000 </r>
       <r>    4.4253    1.0000 </r>
       <r>    4.9306    1.0000 </r>
       <r>   23.7640    0.0000 </r>
       <r>   24.9976    0.0000 </r>
       <r>   29.6938    0.0000 </r>
       <r>   30.5657    0.0000 </r>
       <r>   33.2594    0.0000 </r>
       <r>   36.5121    0.0000 </r>
      </set>
      <set comment="kpoint 15">
       <r>    0.7220    1.0000 </r>
       <r>    2.6133    1.0000 </r>
       <r>    3.7479    1.0000 </r>
       <r>    4.6278    1.0000 </r>
       <r>    5.1006    1.0000 </r>
       <r>    5.4204    1.0177 </r>
       <r>   17.0610    0.0000 </r>
       <r>   24.9902    0.0000 </r>
       <r>   26.3805    0.0000 </r>
       <r>   30.4371    0.0000 </r>
       <r>   33.0573    0.0000 </r>
       <r>   37.0884    0.0000 </r>
      </set>
      <set comment="kpoint 16">
       <r>    0.6792    1.0000 </r>
       <r>    2.8042    1.0000 </r>
       <r>    3.1222    1.0000 </r>
       <r>    4.3279    1.0000 </r>
       <r>    4.9881    1.0000 </r>
       <r>    5.5143    1.0354 </r>
       <r>   19.5541    0.0000 </r>
       <r>   22.7161    0.0000 </r>
       <r>   27.8780    0.0000 </r>
       <r>   30.3186    0.0000 </r>
       <r>   33.7790    0.0000 </r>
       <r>   37.1107    0.0000 </r>
      </set>
      <set comment="kpoint 17">
       <r>    0.9081    1.0000 </r>
       <r>    2.4319    1.0000 </r>
       <r>    4.3911    1.0000 </r>
       <r>    4.6923    1.0000 </r>
       <r>    5.9737   -0.0293 </r>
       <r>    6.3431   -0.0002 </r>
       <r>   13.6290    0.0000 </r>
       <r>   24.0655    0.0000 </r>
       <r>   25.2290    0.0000 </r>
       <r>   30.0449    0.0000 </r>
       <r>   33.1772    0.0000 </r>
       <r>   38.3396    0.0000 </r>
      </set>
      <set comment="kpoint 18">
       <r>    1.2004    1.0000 </r>
       <r>    2.6086    1.0000 </r>
       <r>    3.4838    1.0000 </r>
       <r>    4.5614    1.0000 </r>
       <r>    5.3554    1.0069 </r>
       <r>    6.9585   -0.0000 </r>
       <r>   15.3752    0.0000 </r>
       <r>   21.4643    0.0000 </r>
       <r>   26.2724    0.0000 </r>
       <r>   30.4963    0.0000 </r>
       <r>   34.8842    0.0000 </r>
       <r>   36.8951    0.0000 </r>
      </set>
      <set comment="kpoint 19">
       <r>    1.5603    1.0000 </r>
       <r>    2.4670    1.0000 </r>
       <r>    3.1175    1.0000 </r>
       <r>    4.4522    1.0000 </r>
       <r>    5.1369    1.0000 </r>
       <r>    7.2002   -0.0000 </r>
       <r>   17.7067    0.0000 </r>
       <r>   18.5057    0.0000 </r>
       <r>   27.4593    0.0000 </r>
       <r>   30.0958    0.0000 </r>
       <r>   33.6920    0.0000 </r>
       <r>   41.3679    0.0000 </r>
      </set>
      <set comment="kpoint 20">
       <r>    1.2075    1.0000 </r>
       <r>    2.5432    1.0000 </r>
       <r>    3.7273    1.0000 </r>
       <r>    4.5926    1.0000 </r>
       <r>    5.6476    0.9127 </r>
       <r>    8.2721   -0.0000 </r>
       <r>   13.0982    0.0000 </r>
       <r>   21.0114    0.0000 </r>
       <r>   25.7053    0.0000 </r>
       <r>   30.5313    0.0000 </r>
       <r>   36.0461    0.0000 </r>
       <r>   36.2397    0.0000 </r>
      </set>
      <set comment="kpoint 21">
       <r>    1.7754    1.0000 </r>
       <r>    2.5040    1.0000 </r>
       <r>    3.0381    1.0000 </r>
       <r>    4.6726    1.0000 </r>
       <r>    5.2806    1.0017 </r>
       <r>    9.5444   -0.0000 </r>
       <r>   14.1811    0.0000 </r>
       <r>   17.3474    0.0000 </r>
       <r>   26.7743    0.0000 </r>
       <r>   30.7621    0.0000 </r>
       <r>   33.8589    0.0000 </r>
       <r>   40.3952    0.0000 </r>
      </set>
      <set comment="kpoint 22">
       <r>    2.2249    1.0000 </r>
       <r>    2.5250    1.0000 </r>
       <r>    2.5251    1.0000 </r>
       <r>    5.0064    1.0000 </r>
       <r>    5.0065    1.0000 </r>
       <r>   12.5036    0.0000 </r>
       <r>   12.5037    0.0000 </r>
       <r>   15.1009    0.0000 </r>
       <r>   26.8912    0.0000 </r>
       <r>   32.1663    0.0000 </r>
       <r>   32.1663    0.0000 </r>
       <r>   39.9454    0.0000 </r>
      </set>
      <set comment="kpoint 23">
       <r>    1.5475    1.0000 </r>
       <r>    2.4782    1.0000 </r>
       <r>    2.4782    1.0000 </r>
       <r>    4.7625    1.0000 </r>
       <r>    4.7625    1.0000 </r>
       <r>    6.8437   -0.0000 </r>
       <r>   19.9256    0.0000 </r>
       <r>   19.9256    0.0000 </r>
       <r>   21.5950    0.0000 </r>
       <r>   35.6861    0.0000 </r>
       <r>   39.5952    0.0000 </r>
       <r>   39.5952    0.0000 </r>
      </set>
      <set comment="kpoint 24">
       <r>    1.9603    1.0000 </r>
       <r>    2.3178    1.0000 </r>
       <r>    2.9297    1.0000 </r>
       <r>    4.8179    1.0000 </r>
       <r>    4.8697    1.0000 </r>
       <r>    8.7860   -0.0000 </r>
       <r>   16.0441    0.0000 </r>
       <r>   18.8722    0.0000 </r>
       <r>   19.8997    0.0000 </r>
       <r>   36.7340    0.0000 </r>
       <r>   40.5399    0.0000 </r>
       <r>   41.8489    0.0000 </r>
      </set>
      <set comment="kpoint 25">
       <r>    1.8728    1.0000 </r>
       <r>    2.2688    1.0000 </r>
       <r>    3.3710    1.0000 </r>
       <r>    4.8511    1.0000 </r>
       <r>    4.8979    1.0000 </r>
       <r>   10.5892   -0.0000 </r>
       <r>   13.4243    0.0000 </r>
       <r>   18.5137    0.0000 </r>
       <r>   19.4264    0.0000 </r>
       <r>   36.7461    0.0000 </r>
       <r>   41.1490    0.0000 </r>
       <r>   41.9523    0.0000 </r>
      </set>
      <set comment="kpoint 26">
       <r>   -0.9284    1.0000 </r>
       <r>    3.4717    1.0000 </r>
       <r>    3.4718    1.0000 </r>
       <r>    3.8885    1.0000 </r>
       <r>    3.9087    1.0000 </r>
       <r>    4.9957    1.0000 </r>
       <r>   25.7365    0.0000 </r>
       <r>   27.3791    0.0000 </r>
       <r>   27.3792    0.0000 </r>
       <r>   29.0943    0.0000 </r>
       <r>   35.8648    0.0000 </r>
       <r>   35.8648    0.0000 </r>
      </set>
      <set comment="kpoint 27">
       <r>    2.1563    1.0000 </r>
       <r>    2.4639    1.0000 </r>
       <r>    2.8310    1.0000 </r>
       <r>    4.8786    1.0000 </r>
       <r>    4.9077    1.0000 </r>
       <r>   11.4006    0.0000 </r>
       <r>   14.7128    0.0000 </r>
       <r>   15.8826    0.0000 </r>
       <r>   18.7609    0.0000 </r>
       <r>   39.3347    0.0000 </r>
       <r>   41.1086    0.0000 </r>
       <r>   44.6184    0.0000 </r>
      </set>
      <set comment="kpoint 28">
       <r>    0.2822    1.0000 </r>
       <r>    3.1770    1.0000 </r>
       <r>    3.3221    1.0000 </r>
       <r>    3.9292    1.0000 </r>
       <r>    4.5169    1.0000 </r>
       <r>    5.2787    1.0016 </r>
       <r>   22.1129    0.0000 </r>
       <r>   25.2176    0.0000 </r>
       <r>   25.4421    0.0000 </r>
       <r>   29.0613    0.0000 </r>
       <r>   35.2562    0.0000 </r>
       <r>   36.5844    0.0000 </r>
      </set>
      <set comment="kpoint 29">
       <r>    1.1986    1.0000 </r>
       <r>    2.9240    1.0000 </r>
       <r>    3.0777    1.0000 </r>
       <r>    4.3118    1.0000 </r>
       <r>    5.3456    1.0058 </r>
       <r>    6.1714   -0.0071 </r>
       <r>   17.5825    0.0000 </r>
       <r>   23.4328    0.0000 </r>
       <r>   24.2094    0.0000 </r>
       <r>   30.6348    0.0000 </r>
       <r>   34.1887    0.0000 </r>
       <r>   36.4565    0.0000 </r>
      </set>
      <set comment="kpoint 30">
       <r>    1.2563    1.0000 </r>
       <r>    2.6548    1.0000 </r>
       <r>    3.4521    1.0000 </r>
       <r>    4.0690    1.0000 </r>
       <r>    5.0283    1.0000 </r>
       <r>    6.1584   -0.0088 </r>
       <r>   20.1084    0.0000 </r>
       <r>   20.7726    0.0000 </r>
       <r>   26.3146    0.0000 </r>
       <r>   27.7818    0.0000 </r>
       <r>   34.7870    0.0000 </r>
       <r>   40.0101    0.0000 </r>
      </set>
      <set comment="kpoint 31">
       <r>    1.3163    1.0000 </r>
       <r>    2.9253    1.0000 </r>
       <r>    3.1229    1.0000 </r>
       <r>    4.3862    1.0000 </r>
       <r>    5.9232    0.0115 </r>
       <r>    8.0923   -0.0000 </r>
       <r>   13.8997    0.0000 </r>
       <r>   22.3712    0.0000 </r>
       <r>   23.5363    0.0000 </r>
       <r>   32.6837    0.0000 </r>
       <r>   33.6429    0.0000 </r>
       <r>   35.4154    0.0000 </r>
      </set>
      <set comment="kpoint 32">
       <r>    1.6820    1.0000 </r>
       <r>    2.4263    1.0000 </r>
       <r>    3.2595    1.0000 </r>
       <r>    4.4083    1.0000 </r>
       <r>    5.5049    1.0347 </r>
       <r>    8.1701   -0.0000 </r>
       <r>   16.0509    0.0000 </r>
       <r>   19.2169    0.0000 </r>
       <r>   25.7553    0.0000 </r>
       <r>   29.2417    0.0000 </r>
       <r>   33.7756    0.0000 </r>
       <r>   38.4267    0.0000 </r>
      </set>
      <set comment="kpoint 33">
       <r>    1.6334    1.0000 </r>
       <r>    2.5920    1.0000 </r>
       <r>    3.0769    1.0000 </r>
       <r>    4.5008    1.0000 </r>
       <r>    5.7610    0.5142 </r>
       <r>   10.1255   -0.0000 </r>
       <r>   13.3517    0.0000 </r>
       <r>   18.7347    0.0000 </r>
       <r>   25.3912    0.0000 </r>
       <r>   31.0132    0.0000 </r>
       <r>   32.5106    0.0000 </r>
       <r>   37.1105    0.0000 </r>
      </set>
      <set comment="kpoint 34">
       <r>    2.0669    1.0000 </r>
       <r>    2.1122    1.0000 </r>
       <r>    2.9975    1.0000 </r>
       <r>    4.8992    1.0000 </r>
       <r>    5.4134    1.0162 </r>
       <r>   11.0090   -0.0000 </r>
       <r>   14.5331    0.0000 </r>
       <r>   15.8172    0.0000 </r>
       <r>   27.7830    0.0000 </r>
       <r>   28.7347    0.0000 </r>
       <r>   31.7094    0.0000 </r>
       <r>   37.0687    0.0000 </r>
      </set>
      <set comment="kpoint 35">
       <r>    2.5063    1.0000 </r>
       <r>    2.5063    1.0000 </r>
       <r>    2.5064    1.0000 </r>
       <r>    4.9179    1.0000 </r>
       <r>    4.9179    1.0000 </r>
       <r>   14.3202    0.0000 </r>
       <r>   14.3202    0.0000 </r>
       <r>   14.3204    0.0000 </r>
       <r>   16.4680    0.0000 </r>
       <r>   44.5821    0.0000 </r>
       <r>   44.5821    0.0000 </r>
       <r>   44.5822    0.0000 </r>
      </set>
      <set comment="kpoint 36">
       <r>    1.1228    1.0000 </r>
       <r>    2.7978    1.0000 </r>
       <r>    3.8504    1.0000 </r>
       <r>    3.8505    1.0000 </r>
       <r>    4.5771    1.0000 </r>
       <r>    5.9629   -0.0243 </r>
       <r>   22.7261    0.0000 </r>
       <r>   22.7262    0.0000 </r>
       <r>   23.2594    0.0000 </r>
       <r>   25.5692    0.0000 </r>
       <r>   39.5211    0.0000 </r>
       <r>   39.5211    0.0000 </r>
      </set>
      <set comment="kpoint 37">
       <r>    1.6144    1.0000 </r>
       <r>    2.2420    1.0000 </r>
       <r>    3.8899    1.0000 </r>
       <r>    4.2280    1.0000 </r>
       <r>    5.2417    1.0007 </r>
       <r>    7.4838   -0.0000 </r>
       <r>   18.5354    0.0000 </r>
       <r>   20.7665    0.0000 </r>
       <r>   23.2268    0.0000 </r>
       <r>   26.1053    0.0000 </r>
       <r>   37.2074    0.0000 </r>
       <r>   38.4217    0.0000 </r>
      </set>
      <set comment="kpoint 38">
       <r>    1.5980    1.0000 </r>
       <r>    2.0942    1.0000 </r>
       <r>    3.8095    1.0000 </r>
       <r>    4.3968    1.0000 </r>
       <r>    5.8365    0.2157 </r>
       <r>   10.0114   -0.0000 </r>
       <r>   14.5628    0.0000 </r>
       <r>   19.6229    0.0000 </r>
       <r>   22.9123    0.0000 </r>
       <r>   28.0932    0.0000 </r>
       <r>   33.7761    0.0000 </r>
       <r>   37.7774    0.0000 </r>
      </set>
      <set comment="kpoint 39">
       <r>    1.6991    1.0000 </r>
       <r>    1.7933    1.0000 </r>
       <r>    3.9681    1.0000 </r>
       <r>    4.7600    1.0000 </r>
       <r>    5.5576    1.0283 </r>
       <r>    9.8218   -0.0000 </r>
       <r>   16.9121    0.0000 </r>
       <r>   17.4193    0.0000 </r>
       <r>   24.0933    0.0000 </r>
       <r>   25.7300    0.0000 </r>
       <r>   33.2932    0.0000 </r>
       <r>   38.6359    0.0000 </r>
      </set>
      <set comment="kpoint 40">
       <r>    1.5888    1.0000 </r>
       <r>    1.7386    1.0000 </r>
       <r>    3.9139    1.0000 </r>
       <r>    5.0303    1.0000 </r>
       <r>    5.7152    0.7013 </r>
       <r>   12.3657    0.0000 </r>
       <r>   13.9634    0.0000 </r>
       <r>   16.6912    0.0000 </r>
       <r>   24.3414    0.0000 </r>
       <r>   26.6532    0.0000 </r>
       <r>   31.1171    0.0000 </r>
       <r>   38.4505    0.0000 </r>
      </set>
      <set comment="kpoint 41">
       <r>    1.5274    1.0000 </r>
       <r>    1.7053    1.0000 </r>
       <r>    4.6960    1.0000 </r>
       <r>    4.6962    1.0000 </r>
       <r>    5.2854    1.0018 </r>
       <r>    9.3616   -0.0000 </r>
       <r>   18.6323    0.0000 </r>
       <r>   18.6324    0.0000 </r>
       <r>   21.9490    0.0000 </r>
       <r>   23.9348    0.0000 </r>
       <r>   33.0662    0.0000 </r>
       <r>   41.8955    0.0000 </r>
      </set>
      <set comment="kpoint 42">
       <r>    1.3444    1.0000 </r>
       <r>    1.3966    1.0000 </r>
       <r>    4.8598    1.0000 </r>
       <r>    5.0549    1.0000 </r>
       <r>    5.7527    0.5491 </r>
       <r>   12.0386    0.0000 </r>
       <r>   15.6214    0.0000 </r>
       <r>   17.3626    0.0000 </r>
       <r>   22.2124    0.0000 </r>
       <r>   24.3395    0.0000 </r>
       <r>   29.7305    0.0000 </r>
       <r>   41.9346    0.0000 </r>
      </set>
      <set comment="kpoint 43">
       <r>    1.2196    1.0000 </r>
       <r>    1.2196    1.0000 </r>
       <r>    4.9614    1.0000 </r>
       <r>    5.6492    0.9089 </r>
       <r>    5.6495    0.9082 </r>
       <r>   14.6578    0.0000 </r>
       <r>   14.6578    0.0000 </r>
       <r>   15.4771    0.0000 </r>
       <r>   23.1370    0.0000 </r>
       <r>   23.1370    0.0000 </r>
       <r>   28.0860    0.0000 </r>
       <r>   42.4987    0.0000 </r>
      </set>
      <set comment="kpoint 44">
       <r>    1.0466    1.0000 </r>
       <r>    1.0484    1.0000 </r>
       <r>    5.6231    0.9620 </r>
       <r>    5.6233    0.9617 </r>
       <r>    5.7304    0.6416 </r>
       <r>   14.2589    0.0000 </r>
       <r>   15.9875    0.0000 </r>
       <r>   15.9875    0.0000 </r>
       <r>   21.4156    0.0000 </r>
       <r>   22.3009    0.0000 </r>
       <r>   27.0102    0.0000 </r>
       <r>   44.4702    0.0000 </r>
      </set>
     </set>
     <set comment="spin 2">
      <set comment="kpoint 1">
       <r>   -1.8500    1.0000 </r>
       <r>    5.3452    1.0058 </r>
       <r>    5.3452    1.0058 </r>
       <r>    5.9201    0.0156 </r>
       <r>    7.3923   -0.0000 </r>
       <r>    7.3923   -0.0000 </r>
       <r>   28.2575    0.0000 </r>
       <r>   28.2575    0.0000 </r>
       <r>   30.9945    0.0000 </r>
       <r>   33.3800    0.0000 </r>
       <r>   36.4549    0.0000 </r>
       <r>   36.4549    0.0000 </r>
      </set>
      <set comment="kpoint 2">
       <r>   -0.7065    1.0000 </r>
       <r>    4.9831    1.0000 </r>
       <r>    5.1263    1.0000 </r>
       <r>    6.6331   -0.0000 </r>
       <r>    7.2149   -0.0000 </r>
       <r>    7.4884   -0.0000 </r>
       <r>   24.3998    0.0000 </r>
       <r>   26.4918    0.0000 </r>
       <r>   29.9116    0.0000 </r>
       <r>   31.4264    0.0000 </r>
       <r>   36.4829    0.0000 </r>
       <r>   36.5132    0.0000 </r>
      </set>
      <set comment="kpoint 3">
       <r>    0.8779    1.0000 </r>
       <r>    4.5842    1.0000 </r>
       <r>    4.9138    1.0000 </r>
       <r>    7.2238   -0.0000 </r>
       <r>    7.5925   -0.0000 </r>
       <r>    7.5958   -0.0000 </r>
       <r>   20.0933    0.0000 </r>
       <r>   24.7824    0.0000 </r>
       <r>   27.4194    0.0000 </r>
       <r>   31.2604    0.0000 </r>
       <r>   35.5188    0.0000 </r>
       <r>   38.4158    0.0000 </r>
      </set>
      <set comment="kpoint 4">
       <r>    2.0808    1.0000 </r>
       <r>    4.2888    1.0000 </r>
       <r>    5.3330    1.0047 </r>
       <r>    7.3361   -0.0000 </r>
       <r>    7.6918   -0.0000 </r>
       <r>    8.5573   -0.0000 </r>
       <r>   16.2996    0.0000 </r>
       <r>   23.5628    0.0000 </r>
       <r>   25.7228    0.0000 </r>
       <r>   31.0380    0.0000 </r>
       <r>   35.1986    0.0000 </r>
       <r>   40.5596    0.0000 </r>
      </set>
      <set comment="kpoint 5">
       <r>    2.3624    1.0000 </r>
       <r>    4.1801    1.0000 </r>
       <r>    5.9646   -0.0252 </r>
       <r>    7.3823   -0.0000 </r>
       <r>    7.7317   -0.0000 </r>
       <r>    9.0908   -0.0000 </r>
       <r>   14.4947    0.0000 </r>
       <r>   23.1220    0.0000 </r>
       <r>   25.0893    0.0000 </r>
       <r>   30.9446    0.0000 </r>
       <r>   35.1841    0.0000 </r>
       <r>   40.3743    0.0000 </r>
      </set>
      <set comment="kpoint 6">
       <r>   -2.2549    1.0000 </r>
       <r>    5.4984    1.0340 </r>
       <r>    5.4985    1.0340 </r>
       <r>    5.5649    1.0249 </r>
       <r>    7.3510   -0.0000 </r>
       <r>    7.5155   -0.0000 </r>
       <r>   29.3571    0.0000 </r>
       <r>   30.3388    0.0000 </r>
       <r>   30.3388    0.0000 </r>
       <r>   34.4639    0.0000 </r>
       <r>   36.8872    0.0000 </r>
       <r>   36.8874    0.0000 </r>
      </set>
      <set comment="kpoint 7">
       <r>    0.6496    1.0000 </r>
       <r>    4.6798    1.0000 </r>
       <r>    4.6884    1.0000 </r>
       <r>    7.2192   -0.0000 </r>
       <r>    7.5530   -0.0000 </r>
       <r>    7.6440   -0.0000 </r>
       <r>   22.2139    0.0000 </r>
       <r>   23.0730    0.0000 </r>
       <r>   26.6052    0.0000 </r>
       <r>   32.7423    0.0000 </r>
       <r>   37.1273    0.0000 </r>
       <r>   38.7331    0.0000 </r>
      </set>
      <set comment="kpoint 8">
       <r>    2.1366    1.0000 </r>
       <r>    4.3177    1.0000 </r>
       <r>    4.5774    1.0000 </r>
       <r>    7.2979   -0.0000 </r>
       <r>    7.6947   -0.0000 </r>
       <r>    8.8351   -0.0000 </r>
       <r>   18.3936    0.0000 </r>
       <r>   21.2713    0.0000 </r>
       <r>   24.7418    0.0000 </r>
       <r>   33.1339    0.0000 </r>
       <r>   37.8669    0.0000 </r>
       <r>   39.3833    0.0000 </r>
      </set>
      <set comment="kpoint 9">
       <r>    2.7954    1.0000 </r>
       <r>    4.1490    1.0000 </r>
       <r>    5.0404    1.0000 </r>
       <r>    7.4156   -0.0000 </r>
       <r>    7.7546   -0.0000 </r>
       <r>   10.1495   -0.0000 </r>
       <r>   15.1300    0.0000 </r>
       <r>   20.4337    0.0000 </r>
       <r>   23.8000    0.0000 </r>
       <r>   33.1187    0.0000 </r>
       <r>   38.6567    0.0000 </r>
       <r>   39.3951    0.0000 </r>
      </set>
      <set comment="kpoint 10">
       <r>   -1.4561    1.0000 </r>
       <r>    5.2700    1.0013 </r>
       <r>    5.4232    1.0183 </r>
       <r>    6.0106   -0.0355 </r>
       <r>    7.0738   -0.0000 </r>
       <r>    7.5876   -0.0000 </r>
       <r>   26.4829    0.0000 </r>
       <r>   28.9415    0.0000 </r>
       <r>   29.8006    0.0000 </r>
       <r>   33.6669    0.0000 </r>
       <r>   34.2582    0.0000 </r>
       <r>   35.0972    0.0000 </r>
      </set>
      <set comment="kpoint 11">
       <r>    3.2025    1.0000 </r>
       <r>    4.0991    1.0000 </r>
       <r>    4.4637    1.0000 </r>
       <r>    7.4115   -0.0000 </r>
       <r>    7.7359   -0.0000 </r>
       <r>   10.5953   -0.0000 </r>
       <r>   16.8311    0.0000 </r>
       <r>   17.7237    0.0000 </r>
       <r>   23.6222    0.0000 </r>
       <r>   34.4884    0.0000 </r>
       <r>   37.4981    0.0000 </r>
       <r>   43.5330    0.0000 </r>
      </set>
      <set comment="kpoint 12">
       <r>    3.4678    1.0000 </r>
       <r>    4.1102    1.0000 </r>
       <r>    4.5167    1.0000 </r>
       <r>    7.5190   -0.0000 </r>
       <r>    7.6990   -0.0000 </r>
       <r>   12.3219    0.0000 </r>
       <r>   14.5301    0.0000 </r>
       <r>   17.0299    0.0000 </r>
       <r>   23.2827    0.0000 </r>
       <r>   35.0616    0.0000 </r>
       <r>   37.3442    0.0000 </r>
       <r>   43.4027    0.0000 </r>
      </set>
      <set comment="kpoint 13">
       <r>   -0.0262    1.0000 </r>
       <r>    4.8907    1.0000 </r>
       <r>    5.1794    1.0001 </r>
       <r>    6.8257   -0.0000 </r>
       <r>    6.9774   -0.0000 </r>
       <r>    7.6612   -0.0000 </r>
       <r>   22.2301    0.0000 </r>
       <r>   26.8386    0.0000 </r>
       <r>   28.6960    0.0000 </r>
       <r>   31.9945    0.0000 </r>
       <r>   33.7117    0.0000 </r>
       <r>   35.5432    0.0000 </r>
      </set>
      <set comment="kpoint 14">
       <r>   -0.3477    1.0000 </r>
       <r>    5.1433    1.0001 </r>
       <r>    5.1791    1.0001 </r>
       <r>    6.6026   -0.0000 </r>
       <r>    6.7753   -0.0000 </r>
       <r>    7.7338   -0.0000 </r>
       <r>   24.2599    0.0000 </r>
       <r>   25.5318    0.0000 </r>
       <r>   29.8962    0.0000 </r>
       <r>   31.1884    0.0000 </r>
       <r>   33.6585    0.0000 </r>
       <r>   36.9522    0.0000 </r>
      </set>
      <set comment="kpoint 15">
       <r>    1.5042    1.0000 </r>
       <r>    4.5309    1.0000 </r>
       <r>    5.1627    1.0001 </r>
       <r>    7.1418   -0.0000 </r>
       <r>    7.7500   -0.0000 </r>
       <r>    7.7757   -0.0000 </r>
       <r>   18.0444    0.0000 </r>
       <r>   25.1235    0.0000 </r>
       <r>   27.0634    0.0000 </r>
       <r>   30.9593    0.0000 </r>
       <r>   33.6600    0.0000 </r>
       <r>   37.3671    0.0000 </r>
      </set>
      <set comment="kpoint 16">
       <r>    1.1816    1.0000 </r>
       <r>    4.7428    1.0000 </r>
       <r>    4.9427    1.0000 </r>
       <r>    6.8163   -0.0000 </r>
       <r>    7.4838   -0.0000 </r>
       <r>    7.9482   -0.0000 </r>
       <r>   20.3548    0.0000 </r>
       <r>   23.2914    0.0000 </r>
       <r>   28.3171    0.0000 </r>
       <r>   30.7231    0.0000 </r>
       <r>   34.1967    0.0000 </r>
       <r>   37.5580    0.0000 </r>
      </set>
      <set comment="kpoint 17">
       <r>    2.2242    1.0000 </r>
       <r>    4.3159    1.0000 </r>
       <r>    5.8497    0.1729 </r>
       <r>    7.2663   -0.0000 </r>
       <r>    8.0496   -0.0000 </r>
       <r>    8.3906   -0.0000 </r>
       <r>   14.9870    0.0000 </r>
       <r>   24.1734    0.0000 </r>
       <r>   25.8726    0.0000 </r>
       <r>   30.6083    0.0000 </r>
       <r>   33.8325    0.0000 </r>
       <r>   38.4686    0.0000 </r>
      </set>
      <set comment="kpoint 18">
       <r>    2.3621    1.0000 </r>
       <r>    4.4872    1.0000 </r>
       <r>    5.0017    1.0000 </r>
       <r>    7.0600   -0.0000 </r>
       <r>    7.8743   -0.0000 </r>
       <r>    8.8723   -0.0000 </r>
       <r>   16.4761    0.0000 </r>
       <r>   22.0430    0.0000 </r>
       <r>   26.6670    0.0000 </r>
       <r>   30.9850    0.0000 </r>
       <r>   35.2150    0.0000 </r>
       <r>   37.3605    0.0000 </r>
      </set>
      <set comment="kpoint 19">
       <r>    2.5166    1.0000 </r>
       <r>    4.3178    1.0000 </r>
       <r>    4.8443    1.0000 </r>
       <r>    6.9212   -0.0000 </r>
       <r>    7.7412   -0.0000 </r>
       <r>    9.1398   -0.0000 </r>
       <r>   18.6074    0.0000 </r>
       <r>   19.2734    0.0000 </r>
       <r>   27.9667    0.0000 </r>
       <r>   30.3430    0.0000 </r>
       <r>   34.0934    0.0000 </r>
       <r>   41.7573    0.0000 </r>
      </set>
      <set comment="kpoint 20">
       <r>    2.6422    1.0000 </r>
       <r>    4.4143    1.0000 </r>
       <r>    5.2719    1.0014 </r>
       <r>    7.1346   -0.0000 </r>
       <r>    8.0712   -0.0000 </r>
       <r>    9.6876   -0.0000 </r>
       <r>   14.5058    0.0000 </r>
       <r>   21.5819    0.0000 </r>
       <r>   26.0714    0.0000 </r>
       <r>   31.0648    0.0000 </r>
       <r>   36.1710    0.0000 </r>
       <r>   36.8124    0.0000 </r>
      </set>
      <set comment="kpoint 21">
       <r>    3.2526    1.0000 </r>
       <r>    4.2707    1.0000 </r>
       <r>    4.6714    1.0000 </r>
       <r>    7.1644   -0.0000 </r>
       <r>    7.7905   -0.0000 </r>
       <r>   10.9866   -0.0000 </r>
       <r>   15.3296    0.0000 </r>
       <r>   18.1495    0.0000 </r>
       <r>   27.2608    0.0000 </r>
       <r>   31.0760    0.0000 </r>
       <r>   34.0728    0.0000 </r>
       <r>   41.1350    0.0000 </r>
      </set>
      <set comment="kpoint 22">
       <r>    3.9229    1.0000 </r>
       <r>    4.1744    1.0000 </r>
       <r>    4.1744    1.0000 </r>
       <r>    7.5013   -0.0000 </r>
       <r>    7.5015   -0.0000 </r>
       <r>   13.6654    0.0000 </r>
       <r>   13.6655    0.0000 </r>
       <r>   16.0866    0.0000 </r>
       <r>   27.4574    0.0000 </r>
       <r>   32.3648    0.0000 </r>
       <r>   32.3650    0.0000 </r>
       <r>   40.9087    0.0000 </r>
      </set>
      <set comment="kpoint 23">
       <r>    2.0716    1.0000 </r>
       <r>    4.2903    1.0000 </r>
       <r>    4.2903    1.0000 </r>
       <r>    7.5321   -0.0000 </r>
       <r>    7.5321   -0.0000 </r>
       <r>    8.8741   -0.0000 </r>
       <r>   20.5992    0.0000 </r>
       <r>   20.5992    0.0000 </r>
       <r>   22.3847    0.0000 </r>
       <r>   35.4556    0.0000 </r>
       <r>   39.8981    0.0000 </r>
       <r>   39.8981    0.0000 </r>
      </set>
      <set comment="kpoint 24">
       <r>    3.1899    1.0000 </r>
       <r>    4.0592    1.0000 </r>
       <r>    4.2976    1.0000 </r>
       <r>    7.5754   -0.0000 </r>
       <r>    7.7057   -0.0000 </r>
       <r>   10.4449   -0.0000 </r>
       <r>   16.9794    0.0000 </r>
       <r>   19.5635    0.0000 </r>
       <r>   20.6282    0.0000 </r>
       <r>   36.6685    0.0000 </r>
       <r>   40.8549    0.0000 </r>
       <r>   41.9521    0.0000 </r>
      </set>
      <set comment="kpoint 25">
       <r>    3.3330    1.0000 </r>
       <r>    3.9847    1.0000 </r>
       <r>    4.6847    1.0000 </r>
       <r>    7.6063   -0.0000 </r>
       <r>    7.7584   -0.0000 </r>
       <r>   11.8189    0.0000 </r>
       <r>   14.6612    0.0000 </r>
       <r>   19.2073    0.0000 </r>
       <r>   20.1371    0.0000 </r>
       <r>   36.7636    0.0000 </r>
       <r>   41.6372    0.0000 </r>
       <r>   42.0385    0.0000 </r>
      </set>
      <set comment="kpoint 26">
       <r>   -0.6982    1.0000 </r>
       <r>    5.5102    1.0351 </r>
       <r>    5.5103    1.0352 </r>
       <r>    6.0364   -0.0331 </r>
       <r>    6.4634   -0.0000 </r>
       <r>    7.8105   -0.0000 </r>
       <r>   25.9743    0.0000 </r>
       <r>   27.9127    0.0000 </r>
       <r>   27.9127    0.0000 </r>
       <r>   29.5352    0.0000 </r>
       <r>   36.2550    0.0000 </r>
       <r>   36.2551    0.0000 </r>
      </set>
      <set comment="kpoint 27">
       <r>    3.7295    1.0000 </r>
       <r>    4.0321    1.0000 </r>
       <r>    4.2227    1.0000 </r>
       <r>    7.6877   -0.0000 </r>
       <r>    7.7490   -0.0000 </r>
       <r>   12.6533    0.0000 </r>
       <r>   15.6903    0.0000 </r>
       <r>   16.7703    0.0000 </r>
       <r>   19.4769    0.0000 </r>
       <r>   39.2805    0.0000 </r>
       <r>   41.1648    0.0000 </r>
       <r>   44.7215    0.0000 </r>
      </set>
      <set comment="kpoint 28">
       <r>    0.6406    1.0000 </r>
       <r>    5.2672    1.0012 </r>
       <r>    5.3248    1.0040 </r>
       <r>    6.2409   -0.0019 </r>
       <r>    6.7281   -0.0000 </r>
       <r>    7.9951   -0.0000 </r>
       <r>   22.7823    0.0000 </r>
       <r>   25.8178    0.0000 </r>
       <r>   25.8858    0.0000 </r>
       <r>   29.5221    0.0000 </r>
       <r>   35.7290    0.0000 </r>
       <r>   36.9705    0.0000 </r>
      </set>
      <set comment="kpoint 29">
       <r>    2.0621    1.0000 </r>
       <r>    4.7788    1.0000 </r>
       <r>    5.0329    1.0000 </r>
       <r>    6.6240   -0.0000 </r>
       <r>    7.6634   -0.0000 </r>
       <r>    8.4054   -0.0000 </r>
       <r>   18.5146    0.0000 </r>
       <r>   24.1151    0.0000 </r>
       <r>   24.5845    0.0000 </r>
       <r>   31.0365    0.0000 </r>
       <r>   34.7013    0.0000 </r>
       <r>   36.9188    0.0000 </r>
      </set>
      <set comment="kpoint 30">
       <r>    1.9487    1.0000 </r>
       <r>    4.7187    1.0000 </r>
       <r>    5.4035    1.0143 </r>
       <r>    6.2973   -0.0005 </r>
       <r>    7.3618   -0.0000 </r>
       <r>    8.4417   -0.0000 </r>
       <r>   20.9081    0.0000 </r>
       <r>   21.4767    0.0000 </r>
       <r>   26.7613    0.0000 </r>
       <r>   28.2479    0.0000 </r>
       <r>   35.2801    0.0000 </r>
       <r>   40.3885    0.0000 </r>
      </set>
      <set comment="kpoint 31">
       <r>    2.7516    1.0000 </r>
       <r>    4.7863    1.0000 </r>
       <r>    4.8515    1.0000 </r>
       <r>    6.7880   -0.0000 </r>
       <r>    8.3321   -0.0000 </r>
       <r>    9.5398   -0.0000 </r>
       <r>   15.1571    0.0000 </r>
       <r>   23.0161    0.0000 </r>
       <r>   23.9130    0.0000 </r>
       <r>   32.9622    0.0000 </r>
       <r>   34.1726    0.0000 </r>
       <r>   35.9554    0.0000 </r>
      </set>
      <set comment="kpoint 32">
       <r>    2.9902    1.0000 </r>
       <r>    4.2623    1.0000 </r>
       <r>    5.1932    1.0002 </r>
       <r>    6.6916   -0.0000 </r>
       <r>    7.8882   -0.0000 </r>
       <r>    9.8143   -0.0000 </r>
       <r>   17.0436    0.0000 </r>
       <r>   19.9552    0.0000 </r>
       <r>   26.1966    0.0000 </r>
       <r>   29.6368    0.0000 </r>
       <r>   34.2688    0.0000 </r>
       <r>   39.1610    0.0000 </r>
      </set>
      <set comment="kpoint 33">
       <r>    3.2641    1.0000 </r>
       <r>    4.2890    1.0000 </r>
       <r>    4.9979    1.0000 </r>
       <r>    6.8119   -0.0000 </r>
       <r>    8.1545   -0.0000 </r>
       <r>   11.3250    0.0000 </r>
       <r>   14.6133    0.0000 </r>
       <r>   19.4573    0.0000 </r>
       <r>   25.8287    0.0000 </r>
       <r>   31.2548    0.0000 </r>
       <r>   33.1005    0.0000 </r>
       <r>   37.9263    0.0000 </r>
      </set>
      <set comment="kpoint 34">
       <r>    3.7324    1.0000 </r>
       <r>    3.8927    1.0000 </r>
       <r>    4.8564    1.0000 </r>
       <r>    7.2060   -0.0000 </r>
       <r>    7.7802   -0.0000 </r>
       <r>   12.2584    0.0000 </r>
       <r>   15.5742    0.0000 </r>
       <r>   16.6920    0.0000 </r>
       <r>   28.1515    0.0000 </r>
       <r>   29.1195    0.0000 </r>
       <r>   32.2605    0.0000 </r>
       <r>   37.9366    0.0000 </r>
      </set>
      <set comment="kpoint 35">
       <r>    4.0278    1.0000 </r>
       <r>    4.0278    1.0000 </r>
       <r>    4.0279    1.0000 </r>
       <r>    7.7813   -0.0000 </r>
       <r>    7.7813   -0.0000 </r>
       <r>   15.3030    0.0000 </r>
       <r>   15.3030    0.0000 </r>
       <r>   15.3032    0.0000 </r>
       <r>   17.2723    0.0000 </r>
       <r>   44.3704    0.0000 </r>
       <r>   44.3704    0.0000 </r>
       <r>   44.3705    0.0000 </r>
      </set>
      <set comment="kpoint 36">
       <r>    1.7330    1.0000 </r>
       <r>    5.0563    1.0000 </r>
       <r>    5.8734    0.1061 </r>
       <r>    5.8736    0.1057 </r>
       <r>    6.8106   -0.0000 </r>
       <r>    8.3670   -0.0000 </r>
       <r>   23.4272    0.0000 </r>
       <r>   23.4272    0.0000 </r>
       <r>   23.8439    0.0000 </r>
       <r>   26.0434    0.0000 </r>
       <r>   39.8872    0.0000 </r>
       <r>   39.8873    0.0000 </r>
      </set>
      <set comment="kpoint 37">
       <r>    2.7569    1.0000 </r>
       <r>    4.2985    1.0000 </r>
       <r>    5.9197    0.0162 </r>
       <r>    6.3439   -0.0002 </r>
       <r>    7.5470   -0.0000 </r>
       <r>    9.2535   -0.0000 </r>
       <r>   19.3563    0.0000 </r>
       <r>   21.4384    0.0000 </r>
       <r>   23.8508    0.0000 </r>
       <r>   26.6136    0.0000 </r>
       <r>   37.9374    0.0000 </r>
       <r>   38.9116    0.0000 </r>
      </set>
      <set comment="kpoint 38">
       <r>    3.2750    1.0000 </r>
       <r>    3.8856    1.0000 </r>
       <r>    5.8290    0.2418 </r>
       <r>    6.5546   -0.0000 </r>
       <r>    8.2335   -0.0000 </r>
       <r>   11.2154   -0.0000 </r>
       <r>   15.6031    0.0000 </r>
       <r>   20.2371    0.0000 </r>
       <r>   23.5624    0.0000 </r>
       <r>   28.4889    0.0000 </r>
       <r>   34.6411    0.0000 </r>
       <r>   38.2668    0.0000 </r>
      </set>
      <set comment="kpoint 39">
       <r>    3.2621    1.0000 </r>
       <r>    3.7497    1.0000 </r>
       <r>    5.9845   -0.0327 </r>
       <r>    6.9293   -0.0000 </r>
       <r>    7.9059   -0.0000 </r>
       <r>   11.0793   -0.0000 </r>
       <r>   17.7558    0.0000 </r>
       <r>   18.1359    0.0000 </r>
       <r>   24.7013    0.0000 </r>
       <r>   26.2633    0.0000 </r>
       <r>   34.1263    0.0000 </r>
       <r>   39.1453    0.0000 </r>
      </set>
      <set comment="kpoint 40">
       <r>    3.4301    1.0000 </r>
       <r>    3.5316    1.0000 </r>
       <r>    5.8907    0.0663 </r>
       <r>    7.2531   -0.0000 </r>
       <r>    8.0803   -0.0000 </r>
       <r>   13.3280    0.0000 </r>
       <r>   14.9499    0.0000 </r>
       <r>   17.4128    0.0000 </r>
       <r>   24.9332    0.0000 </r>
       <r>   27.0921    0.0000 </r>
       <r>   32.0840    0.0000 </r>
       <r>   38.9615    0.0000 </r>
      </set>
      <set comment="kpoint 41">
       <r>    3.0647    1.0000 </r>
       <r>    3.7129    1.0000 </r>
       <r>    6.8121   -0.0000 </r>
       <r>    6.8124   -0.0000 </r>
       <r>    7.6116   -0.0000 </r>
       <r>   10.5992   -0.0000 </r>
       <r>   19.2405    0.0000 </r>
       <r>   19.2406    0.0000 </r>
       <r>   22.8106    0.0000 </r>
       <r>   24.5881    0.0000 </r>
       <r>   33.9092    0.0000 </r>
       <r>   42.3326    0.0000 </r>
      </set>
      <set comment="kpoint 42">
       <r>    3.1353    1.0000 </r>
       <r>    3.2809    1.0000 </r>
       <r>    7.0329   -0.0000 </r>
       <r>    7.2310   -0.0000 </r>
       <r>    8.1388   -0.0000 </r>
       <r>   12.9125    0.0000 </r>
       <r>   16.3237    0.0000 </r>
       <r>   17.8790    0.0000 </r>
       <r>   23.0574    0.0000 </r>
       <r>   24.9736    0.0000 </r>
       <r>   30.7206    0.0000 </r>
       <r>   42.3517    0.0000 </r>
      </set>
      <set comment="kpoint 43">
       <r>    3.0732    1.0000 </r>
       <r>    3.0732    1.0000 </r>
       <r>    7.1324   -0.0000 </r>
       <r>    7.9942   -0.0000 </r>
       <r>    7.9946   -0.0000 </r>
       <r>   15.3058    0.0000 </r>
       <r>   15.3060    0.0000 </r>
       <r>   16.0523    0.0000 </r>
       <r>   23.8758    0.0000 </r>
       <r>   23.8758    0.0000 </r>
       <r>   29.1745    0.0000 </r>
       <r>   42.9030    0.0000 </r>
      </set>
      <set comment="kpoint 44">
       <r>    2.8866    1.0000 </r>
       <r>    2.9214    1.0000 </r>
       <r>    7.9605   -0.0000 </r>
       <r>    7.9608   -0.0000 </r>
       <r>    8.1178   -0.0000 </r>
       <r>   14.7848    0.0000 </r>
       <r>   16.3637    0.0000 </r>
       <r>   16.3639    0.0000 </r>
       <r>   22.4219    0.0000 </r>
       <r>   23.1649    0.0000 </r>
       <r>   28.1272    0.0000 </r>
       <r>   44.7802    0.0000 </r>
      </set>
     </set>
    </set>
   </array>
  </eigenvalues>
  <separator name="orbital magnetization" >
   <v name="MAGDIPOLOUT">      0.00000000      0.00000000      0.00000000</v>
  </separator>
  <dos>
   <i name="efermi">      5.76437232 </i>
   <total>
    <array>
     <dimension dim="1">gridpoints</dimension>
     <dimension dim="2">spin</dimension>
     <field>energy</field>
     <field>total</field>
     <field>integrated</field>
     <set>
      <set comment="spin 1">
       <r>    -4.8133     0.0000     0.0000 </r>
       <r>    -4.6401     0.0000     0.0000 </r>
       <r>    -4.4669     0.0000     0.0000 </r>
       <r>    -4.2937     0.0000     0.0000 </r>
       <r>    -4.1205    -0.0000    -0.0000 </r>
       <r>    -3.9474    -0.0000    -0.0000 </r>
       <r>    -3.7742    -0.0000    -0.0000 </r>
       <r>    -3.6010    -0.0000    -0.0000 </r>
       <r>    -3.4278    -0.0000    -0.0000 </r>
       <r>    -3.2546    -0.0000    -0.0000 </r>
       <r>    -3.0814    -0.0000    -0.0000 </r>
       <r>    -2.9083    -0.0001    -0.0000 </r>
       <r>    -2.7351    -0.0010    -0.0002 </r>
       <r>    -2.5619     0.0046     0.0006 </r>
       <r>    -2.3887     0.0217     0.0044 </r>
       <r>    -2.2155     0.0108     0.0062 </r>
       <r>    -2.0423     0.0220     0.0101 </r>
       <r>    -1.8692     0.0195     0.0134 </r>
       <r>    -1.6960     0.0546     0.0229 </r>
       <r>    -1.5228     0.0819     0.0371 </r>
       <r>    -1.3496     0.0076     0.0384 </r>
       <r>    -1.1764    -0.0082     0.0370 </r>
       <r>    -1.0032     0.0456     0.0449 </r>
       <r>    -0.8301     0.1092     0.0638 </r>
       <r>    -0.6569     0.0649     0.0750 </r>
       <r>    -0.4837     0.0884     0.0903 </r>
       <r>    -0.3105     0.0921     0.1063 </r>
       <r>    -0.1373     0.0577     0.1163 </r>
       <r>     0.0359    -0.0105     0.1145 </r>
       <r>     0.2091     0.0491     0.1230 </r>
       <r>     0.3822     0.2258     0.1621 </r>
       <r>     0.5554     0.1702     0.1916 </r>
       <r>     0.7286     0.2399     0.2331 </r>
       <r>     0.9018     0.2559     0.2774 </r>
       <r>     1.0750     0.2870     0.3271 </r>
       <r>     1.2482     0.6667     0.4426 </r>
       <r>     1.4213     0.8725     0.5937 </r>
       <r>     1.5945     0.7534     0.7242 </r>
       <r>     1.7677     0.9599     0.8904 </r>
       <r>     1.9409     0.6789     1.0080 </r>
       <r>     2.1141     0.4288     1.0823 </r>
       <r>     2.2873     0.5853     1.1836 </r>
       <r>     2.4604     1.3644     1.4199 </r>
       <r>     2.6336     1.4945     1.6787 </r>
       <r>     2.8068     0.8382     1.8239 </r>
       <r>     2.9800     1.1165     2.0172 </r>
       <r>     3.1532     1.7355     2.3178 </r>
       <r>     3.3264     1.3415     2.5501 </r>
       <r>     3.4995     0.6783     2.6676 </r>
       <r>     3.6727     0.3314     2.7250 </r>
       <r>     3.8459     0.6896     2.8444 </r>
       <r>     4.0191     0.6923     2.9643 </r>
       <r>     4.1923     0.3240     3.0204 </r>
       <r>     4.3655     0.9416     3.1835 </r>
       <r>     4.5386     1.6526     3.4697 </r>
       <r>     4.7118     1.9780     3.8123 </r>
       <r>     4.8850     2.3779     4.2241 </r>
       <r>     5.0582     1.9575     4.5631 </r>
       <r>     5.2314     0.8581     4.7117 </r>
       <r>     5.4046     0.9209     4.8712 </r>
       <r>     5.5777     0.9856     5.0419 </r>
       <r>     5.7509     0.6563     5.1555 </r>
       <r>     5.9241     0.4350     5.2309 </r>
       <r>     6.0973     0.2633     5.2765 </r>
       <r>     6.2705     0.2174     5.3141 </r>
       <r>     6.4437     0.1550     5.3410 </r>
       <r>     6.6168     0.0938     5.3572 </r>
       <r>     6.7900     0.1413     5.3817 </r>
       <r>     6.9632     0.3327     5.4393 </r>
       <r>     7.1364     0.1953     5.4731 </r>
       <r>     7.3096     0.0877     5.4883 </r>
       <r>     7.4828     0.1214     5.5094 </r>
       <r>     7.6559     0.0974     5.5262 </r>
       <r>     7.8291    -0.0082     5.5248 </r>
       <r>     8.0023     0.0246     5.5291 </r>
       <r>     8.1755     0.2592     5.5739 </r>
       <r>     8.3487     0.2474     5.6168 </r>
       <r>     8.5219     0.0742     5.6296 </r>
       <r>     8.6951     0.1964     5.6637 </r>
       <r>     8.8682     0.1717     5.6934 </r>
       <r>     9.0414     0.1096     5.7124 </r>
       <r>     9.2146     0.0331     5.7181 </r>
       <r>     9.3878     0.0249     5.7224 </r>
       <r>     9.5610     0.1626     5.7506 </r>
       <r>     9.7342     0.1465     5.7760 </r>
       <r>     9.9073     0.1077     5.7946 </r>
       <r>    10.0805     0.1638     5.8230 </r>
       <r>    10.2537     0.1169     5.8432 </r>
       <r>    10.4269     0.0096     5.8449 </r>
       <r>    10.6001     0.0319     5.8504 </r>
       <r>    10.7733     0.0256     5.8548 </r>
       <r>    10.9464     0.0436     5.8624 </r>
       <r>    11.1196     0.1615     5.8904 </r>
       <r>    11.2928     0.1007     5.9078 </r>
       <r>    11.4660     0.0858     5.9227 </r>
       <r>    11.6392     0.0347     5.9287 </r>
       <r>    11.8124    -0.0077     5.9273 </r>
       <r>    11.9855     0.0417     5.9346 </r>
       <r>    12.1587     0.0842     5.9491 </r>
       <r>    12.3319     0.0701     5.9613 </r>
       <r>    12.5051     0.1264     5.9832 </r>
       <r>    12.6783     0.0534     5.9924 </r>
       <r>    12.8515    -0.0072     5.9911 </r>
       <r>    13.0246     0.0564     6.0009 </r>
       <r>    13.1978     0.1427     6.0256 </r>
       <r>    13.3710     0.2045     6.0610 </r>
       <r>    13.5442     0.1745     6.0913 </r>
       <r>    13.7174     0.0918     6.1072 </r>
       <r>    13.8906     0.2480     6.1501 </r>
       <r>    14.0637     0.3370     6.2085 </r>
       <r>    14.2369     0.2236     6.2472 </r>
       <r>    14.4101     0.1301     6.2697 </r>
       <r>    14.5833     0.2004     6.3044 </r>
       <r>    14.7565     0.2470     6.3472 </r>
       <r>    14.9297     0.0552     6.3568 </r>
       <r>    15.1028     0.0477     6.3651 </r>
       <r>    15.2760     0.1533     6.3916 </r>
       <r>    15.4492     0.2173     6.4292 </r>
       <r>    15.6224     0.1481     6.4549 </r>
       <r>    15.7956     0.1671     6.4838 </r>
       <r>    15.9688     0.3841     6.5503 </r>
       <r>    16.1419     0.4307     6.6249 </r>
       <r>    16.3151     0.1455     6.6501 </r>
       <r>    16.4883    -0.0063     6.6491 </r>
       <r>    16.6615     0.0472     6.6572 </r>
       <r>    16.8347     0.1531     6.6837 </r>
       <r>    17.0079     0.2237     6.7225 </r>
       <r>    17.1810     0.1203     6.7433 </r>
       <r>    17.3542     0.2645     6.7891 </r>
       <r>    17.5274     0.4959     6.8750 </r>
       <r>    17.7006     0.2970     6.9264 </r>
       <r>    17.8738     0.0748     6.9394 </r>
       <r>    18.0470    -0.0058     6.9384 </r>
       <r>    18.2202    -0.0124     6.9362 </r>
       <r>    18.3933     0.0272     6.9410 </r>
       <r>    18.5665     0.2327     6.9813 </r>
       <r>    18.7397     0.3052     7.0341 </r>
       <r>    18.9129     0.2249     7.0731 </r>
       <r>    19.0861     0.0723     7.0856 </r>
       <r>    19.2593     0.2155     7.1229 </r>
       <r>    19.4324     0.2368     7.1639 </r>
       <r>    19.6056     0.2605     7.2091 </r>
       <r>    19.7788     0.2890     7.2591 </r>
       <r>    19.9520     0.3078     7.3124 </r>
       <r>    20.1252     0.1713     7.3421 </r>
       <r>    20.2984     0.0456     7.3500 </r>
       <r>    20.4715    -0.0059     7.3489 </r>
       <r>    20.6447     0.1667     7.3778 </r>
       <r>    20.8179     0.3096     7.4314 </r>
       <r>    20.9911     0.1546     7.4582 </r>
       <r>    21.1643     0.0569     7.4680 </r>
       <r>    21.3375     0.0289     7.4730 </r>
       <r>    21.5106     0.2857     7.5225 </r>
       <r>    21.6838     0.3046     7.5753 </r>
       <r>    21.8570     0.0379     7.5818 </r>
       <r>    22.0302     0.0379     7.5884 </r>
       <r>    22.2034     0.1682     7.6175 </r>
       <r>    22.3766     0.2043     7.6529 </r>
       <r>    22.5497     0.1810     7.6842 </r>
       <r>    22.7229     0.3006     7.7363 </r>
       <r>    22.8961     0.3144     7.7907 </r>
       <r>    23.0693     0.2277     7.8302 </r>
       <r>    23.2425     0.3984     7.8992 </r>
       <r>    23.4157     0.3652     7.9624 </r>
       <r>    23.5888     0.1682     7.9915 </r>
       <r>    23.7620     0.1092     8.0105 </r>
       <r>    23.9352     0.1777     8.0412 </r>
       <r>    24.1084     0.3755     8.1063 </r>
       <r>    24.2816     0.4288     8.1805 </r>
       <r>    24.4548     0.3125     8.2346 </r>
       <r>    24.6279     0.1265     8.2566 </r>
       <r>    24.8011    -0.0106     8.2547 </r>
       <r>    24.9743     0.1500     8.2807 </r>
       <r>    25.1475     0.3031     8.3332 </r>
       <r>    25.3207     0.2555     8.3774 </r>
       <r>    25.4939     0.2079     8.4134 </r>
       <r>    25.6670     0.2307     8.4534 </r>
       <r>    25.8402     0.4138     8.5250 </r>
       <r>    26.0134     0.1922     8.5583 </r>
       <r>    26.1866     0.2925     8.6090 </r>
       <r>    26.3598     0.4853     8.6930 </r>
       <r>    26.5330     0.2083     8.7291 </r>
       <r>    26.7061     0.3137     8.7834 </r>
       <r>    26.8793     0.3523     8.8444 </r>
       <r>    27.0525     0.0773     8.8578 </r>
       <r>    27.2257     0.0004     8.8579 </r>
       <r>    27.3989     0.0736     8.8706 </r>
       <r>    27.5721     0.1072     8.8892 </r>
       <r>    27.7453     0.1376     8.9130 </r>
       <r>    27.9184     0.3327     8.9706 </r>
       <r>    28.0916     0.3078     9.0240 </r>
       <r>    28.2648     0.2159     9.0613 </r>
       <r>    28.4380     0.0075     9.0627 </r>
       <r>    28.6112     0.0009     9.0628 </r>
       <r>    28.7844     0.1179     9.0832 </r>
       <r>    28.9575     0.1701     9.1127 </r>
       <r>    29.1307     0.2517     9.1563 </r>
       <r>    29.3039     0.2577     9.2009 </r>
       <r>    29.4771     0.1004     9.2183 </r>
       <r>    29.6503     0.1741     9.2485 </r>
       <r>    29.8235     0.2068     9.2843 </r>
       <r>    29.9966     0.0953     9.3008 </r>
       <r>    30.1698     0.1676     9.3298 </r>
       <r>    30.3430     0.2355     9.3706 </r>
       <r>    30.5162     0.5390     9.4639 </r>
       <r>    30.6894     0.5960     9.5671 </r>
       <r>    30.8626     0.3142     9.6216 </r>
       <r>    31.0357     0.1895     9.6544 </r>
       <r>    31.2089     0.2366     9.6953 </r>
       <r>    31.3821     0.1155     9.7153 </r>
       <r>    31.5553     0.1738     9.7454 </r>
       <r>    31.7285     0.1382     9.7694 </r>
       <r>    31.9017     0.0511     9.7782 </r>
       <r>    32.0748     0.0137     9.7806 </r>
       <r>    32.2480     0.0540     9.7899 </r>
       <r>    32.4212     0.0610     9.8005 </r>
       <r>    32.5944     0.1322     9.8234 </r>
       <r>    32.7676     0.1599     9.8511 </r>
       <r>    32.9408     0.3163     9.9059 </r>
       <r>    33.1139     0.5380     9.9990 </r>
       <r>    33.2871     0.5011    10.0858 </r>
       <r>    33.4603     0.2241    10.1246 </r>
       <r>    33.6335     0.2207    10.1628 </r>
       <r>    33.8067     0.6686    10.2786 </r>
       <r>    33.9799     0.4739    10.3607 </r>
       <r>    34.1530     0.0800    10.3745 </r>
       <r>    34.3262     0.1016    10.3921 </r>
       <r>    34.4994     0.2259    10.4313 </r>
       <r>    34.6726     0.2290    10.4709 </r>
       <r>    34.8458     0.2798    10.5194 </r>
       <r>    35.0190     0.3717    10.5837 </r>
       <r>    35.1921     0.1459    10.6090 </r>
       <r>    35.3653     0.2066    10.6448 </r>
       <r>    35.5385     0.1162    10.6649 </r>
       <r>    35.7117     0.0451    10.6727 </r>
       <r>    35.8849     0.1463    10.6980 </r>
       <r>    36.0581     0.2390    10.7394 </r>
       <r>    36.2312     0.2833    10.7885 </r>
       <r>    36.4044     0.1796    10.8196 </r>
       <r>    36.5776     0.2441    10.8619 </r>
       <r>    36.7508     0.3153    10.9165 </r>
       <r>    36.9240     0.3181    10.9716 </r>
       <r>    37.0972     0.4750    11.0538 </r>
       <r>    37.2704     0.5615    11.1511 </r>
       <r>    37.4435     0.2483    11.1941 </r>
       <r>    37.6167     0.1752    11.2244 </r>
       <r>    37.7899     0.1147    11.2443 </r>
       <r>    37.9631     0.0400    11.2512 </r>
       <r>    38.1363     0.1189    11.2718 </r>
       <r>    38.3095     0.4575    11.3511 </r>
       <r>    38.4826     0.5390    11.4444 </r>
       <r>    38.6558     0.2439    11.4866 </r>
       <r>    38.8290     0.0738    11.4994 </r>
       <r>    39.0022     0.1749    11.5297 </r>
       <r>    39.1754     0.2200    11.5678 </r>
       <r>    39.3486     0.2054    11.6034 </r>
       <r>    39.5217     0.1223    11.6246 </r>
       <r>    39.6949     0.0862    11.6395 </r>
       <r>    39.8681     0.0325    11.6451 </r>
       <r>    40.0413     0.1007    11.6626 </r>
       <r>    40.2145     0.0724    11.6751 </r>
       <r>    40.3877     0.2411    11.7169 </r>
       <r>    40.5608     0.3177    11.7719 </r>
       <r>    40.7340     0.0680    11.7837 </r>
       <r>    40.9072    -0.0137    11.7813 </r>
       <r>    41.0804     0.0687    11.7932 </r>
       <r>    41.2536     0.1437    11.8181 </r>
       <r>    41.4268     0.1063    11.8365 </r>
       <r>    41.5999     0.0274    11.8412 </r>
       <r>    41.7731     0.0367    11.8476 </r>
       <r>    41.9463     0.2210    11.8858 </r>
       <r>    42.1195     0.1353    11.9093 </r>
       <r>    42.2927    -0.0045    11.9085 </r>
       <r>    42.4659     0.0130    11.9107 </r>
       <r>    42.6390     0.0239    11.9149 </r>
       <r>    42.8122     0.0472    11.9231 </r>
       <r>    42.9854     0.0826    11.9374 </r>
       <r>    43.1586     0.0508    11.9462 </r>
       <r>    43.3318     0.0870    11.9612 </r>
       <r>    43.5050     0.0204    11.9648 </r>
       <r>    43.6781    -0.0040    11.9641 </r>
       <r>    43.8513    -0.0004    11.9640 </r>
       <r>    44.0245    -0.0002    11.9640 </r>
       <r>    44.1977    -0.0021    11.9636 </r>
       <r>    44.3709     0.0009    11.9638 </r>
       <r>    44.5441     0.0695    11.9758 </r>
       <r>    44.7172     0.1209    11.9967 </r>
       <r>    44.8904     0.0246    12.0010 </r>
       <r>    45.0636    -0.0051    12.0001 </r>
       <r>    45.2368    -0.0006    12.0000 </r>
       <r>    45.4100    -0.0000    12.0000 </r>
       <r>    45.5832    -0.0000    12.0000 </r>
       <r>    45.7563    -0.0000    12.0000 </r>
       <r>    45.9295    -0.0000    12.0000 </r>
       <r>    46.1027     0.0000    12.0000 </r>
       <r>    46.2759     0.0000    12.0000 </r>
       <r>    46.4491     0.0000    12.0000 </r>
       <r>    46.6223     0.0000    12.0000 </r>
       <r>    46.7955     0.0000    12.0000 </r>
       <r>    46.9686     0.0000    12.0000 </r>
       <r>    47.1418     0.0000    12.0000 </r>
      </set>
      <set comment="spin 2">
       <r>    -4.8133     0.0000     0.0000 </r>
       <r>    -4.6401     0.0000     0.0000 </r>
       <r>    -4.4669     0.0000     0.0000 </r>
       <r>    -4.2937     0.0000     0.0000 </r>
       <r>    -4.1205     0.0000     0.0000 </r>
       <r>    -3.9474    -0.0000    -0.0000 </r>
       <r>    -3.7742    -0.0000    -0.0000 </r>
       <r>    -3.6010    -0.0000    -0.0000 </r>
       <r>    -3.4278    -0.0000    -0.0000 </r>
       <r>    -3.2546    -0.0000    -0.0000 </r>
       <r>    -3.0814    -0.0000    -0.0000 </r>
       <r>    -2.9083    -0.0000    -0.0000 </r>
       <r>    -2.7351    -0.0001    -0.0000 </r>
       <r>    -2.5619    -0.0008    -0.0002 </r>
       <r>    -2.3887     0.0027     0.0003 </r>
       <r>    -2.2155     0.0206     0.0039 </r>
       <r>    -2.0423     0.0124     0.0060 </r>
       <r>    -1.8692     0.0187     0.0093 </r>
       <r>    -1.6960     0.0216     0.0130 </r>
       <r>    -1.5228     0.0392     0.0198 </r>
       <r>    -1.3496     0.0895     0.0353 </r>
       <r>    -1.1764     0.0196     0.0387 </r>
       <r>    -1.0032    -0.0085     0.0372 </r>
       <r>    -0.8301     0.0161     0.0400 </r>
       <r>    -0.6569     0.1054     0.0583 </r>
       <r>    -0.4837     0.0680     0.0701 </r>
       <r>    -0.3105     0.0761     0.0832 </r>
       <r>    -0.1373     0.0688     0.0951 </r>
       <r>     0.0359     0.0871     0.1102 </r>
       <r>     0.2091     0.0371     0.1166 </r>
       <r>     0.3822    -0.0124     0.1145 </r>
       <r>     0.5554     0.0499     0.1231 </r>
       <r>     0.7286     0.1890     0.1559 </r>
       <r>     0.9018     0.1310     0.1785 </r>
       <r>     1.0750     0.0896     0.1941 </r>
       <r>     1.2482     0.1739     0.2242 </r>
       <r>     1.4213     0.1022     0.2419 </r>
       <r>     1.5945     0.0832     0.2563 </r>
       <r>     1.7677     0.0343     0.2622 </r>
       <r>     1.9409     0.0945     0.2786 </r>
       <r>     2.1141     0.3975     0.3474 </r>
       <r>     2.2873     0.4433     0.4242 </r>
       <r>     2.4604     0.3003     0.4762 </r>
       <r>     2.6336     0.2308     0.5162 </r>
       <r>     2.8068     0.4050     0.5863 </r>
       <r>     2.9800     0.3903     0.6539 </r>
       <r>     3.1532     0.5168     0.7434 </r>
       <r>     3.3264     0.8539     0.8913 </r>
       <r>     3.4995     0.5011     0.9780 </r>
       <r>     3.6727     0.2555     1.0223 </r>
       <r>     3.8459     0.3697     1.0863 </r>
       <r>     4.0191     0.4617     1.1663 </r>
       <r>     4.1923     0.9922     1.3381 </r>
       <r>     4.3655     1.5287     1.6029 </r>
       <r>     4.5386     1.0932     1.7922 </r>
       <r>     4.7118     1.0722     1.9779 </r>
       <r>     4.8850     1.1855     2.1832 </r>
       <r>     5.0582     1.2518     2.4000 </r>
       <r>     5.2314     1.1964     2.6072 </r>
       <r>     5.4046     0.8883     2.7610 </r>
       <r>     5.5777     0.3277     2.8178 </r>
       <r>     5.7509     0.0930     2.8339 </r>
       <r>     5.9241     0.4861     2.9181 </r>
       <r>     6.0973     0.4711     2.9997 </r>
       <r>     6.2705     0.2102     3.0361 </r>
       <r>     6.4437     0.2232     3.0747 </r>
       <r>     6.6168     0.4133     3.1463 </r>
       <r>     6.7900     0.9286     3.3071 </r>
       <r>     6.9632     0.8984     3.4627 </r>
       <r>     7.1364     0.9823     3.6328 </r>
       <r>     7.3096     1.3770     3.8713 </r>
       <r>     7.4828     1.3634     4.1074 </r>
       <r>     7.6559     1.9061     4.4375 </r>
       <r>     7.8291     2.2809     4.8325 </r>
       <r>     8.0023     1.3875     5.0728 </r>
       <r>     8.1755     0.7146     5.1966 </r>
       <r>     8.3487     0.4374     5.2723 </r>
       <r>     8.5219     0.3810     5.3383 </r>
       <r>     8.6951     0.1535     5.3649 </r>
       <r>     8.8682     0.3125     5.4190 </r>
       <r>     9.0414     0.3144     5.4735 </r>
       <r>     9.2146     0.1837     5.5053 </r>
       <r>     9.3878     0.1175     5.5256 </r>
       <r>     9.5610     0.0876     5.5408 </r>
       <r>     9.7342     0.2030     5.5759 </r>
       <r>     9.9073     0.2209     5.6142 </r>
       <r>    10.0805     0.1164     5.6344 </r>
       <r>    10.2537     0.1681     5.6635 </r>
       <r>    10.4269     0.1052     5.6817 </r>
       <r>    10.6001     0.1562     5.7088 </r>
       <r>    10.7733     0.0798     5.7226 </r>
       <r>    10.9464     0.1050     5.7408 </r>
       <r>    11.1196     0.2741     5.7882 </r>
       <r>    11.2928     0.2182     5.8260 </r>
       <r>    11.4660     0.1042     5.8441 </r>
       <r>    11.6392     0.0030     5.8446 </r>
       <r>    11.8124     0.0289     5.8496 </r>
       <r>    11.9855     0.0296     5.8547 </r>
       <r>    12.1587     0.0274     5.8595 </r>
       <r>    12.3319     0.1613     5.8874 </r>
       <r>    12.5051     0.1054     5.9057 </r>
       <r>    12.6783     0.0723     5.9182 </r>
       <r>    12.8515     0.0952     5.9347 </r>
       <r>    13.0246     0.0845     5.9493 </r>
       <r>    13.1978     0.0279     5.9541 </r>
       <r>    13.3710     0.0794     5.9679 </r>
       <r>    13.5442     0.0585     5.9780 </r>
       <r>    13.7174     0.0556     5.9876 </r>
       <r>    13.8906     0.0284     5.9925 </r>
       <r>    14.0637    -0.0036     5.9919 </r>
       <r>    14.2369    -0.0126     5.9897 </r>
       <r>    14.4101     0.0493     5.9983 </r>
       <r>    14.5833     0.2938     6.0492 </r>
       <r>    14.7565     0.2225     6.0877 </r>
       <r>    14.9297     0.1223     6.1089 </r>
       <r>    15.1028     0.3100     6.1626 </r>
       <r>    15.2760     0.4030     6.2324 </r>
       <r>    15.4492     0.2898     6.2825 </r>
       <r>    15.6224     0.2290     6.3222 </r>
       <r>    15.7956     0.1842     6.3541 </r>
       <r>    15.9688     0.0248     6.3584 </r>
       <r>    16.1419     0.0512     6.3673 </r>
       <r>    16.3151     0.1943     6.4009 </r>
       <r>    16.4883     0.3191     6.4562 </r>
       <r>    16.6615     0.2067     6.4920 </r>
       <r>    16.8347     0.2384     6.5333 </r>
       <r>    17.0079     0.3560     6.5949 </r>
       <r>    17.1810     0.2950     6.6460 </r>
       <r>    17.3542     0.0664     6.6575 </r>
       <r>    17.5274     0.0733     6.6702 </r>
       <r>    17.7006     0.1150     6.6901 </r>
       <r>    17.8738     0.2214     6.7285 </r>
       <r>    18.0470     0.2307     6.7684 </r>
       <r>    18.2202     0.3367     6.8267 </r>
       <r>    18.3933     0.2501     6.8700 </r>
       <r>    18.5665     0.2636     6.9157 </r>
       <r>    18.7397     0.1306     6.9383 </r>
       <r>    18.9129    -0.0027     6.9378 </r>
       <r>    19.0861    -0.0024     6.9374 </r>
       <r>    19.2593     0.1615     6.9654 </r>
       <r>    19.4324     0.3382     7.0240 </r>
       <r>    19.6056     0.2822     7.0728 </r>
       <r>    19.7788     0.0581     7.0829 </r>
       <r>    19.9520     0.1288     7.1052 </r>
       <r>    20.1252     0.2593     7.1501 </r>
       <r>    20.2984     0.2867     7.1998 </r>
       <r>    20.4715     0.3940     7.2680 </r>
       <r>    20.6447     0.2593     7.3129 </r>
       <r>    20.8179     0.1058     7.3312 </r>
       <r>    20.9911     0.0768     7.3445 </r>
       <r>    21.1643     0.0586     7.3547 </r>
       <r>    21.3375     0.2039     7.3900 </r>
       <r>    21.5106     0.2839     7.4391 </r>
       <r>    21.6838     0.1674     7.4681 </r>
       <r>    21.8570     0.0094     7.4698 </r>
       <r>    22.0302     0.1190     7.4904 </r>
       <r>    22.2034     0.2721     7.5375 </r>
       <r>    22.3766     0.1963     7.5715 </r>
       <r>    22.5497     0.0463     7.5795 </r>
       <r>    22.7229     0.0369     7.5859 </r>
       <r>    22.8961     0.1239     7.6074 </r>
       <r>    23.0693     0.2731     7.6547 </r>
       <r>    23.2425     0.3772     7.7200 </r>
       <r>    23.4157     0.3135     7.7743 </r>
       <r>    23.5888     0.2664     7.8204 </r>
       <r>    23.7620     0.3413     7.8795 </r>
       <r>    23.9352     0.4189     7.9521 </r>
       <r>    24.1084     0.2436     7.9943 </r>
       <r>    24.2816     0.2358     8.0351 </r>
       <r>    24.4548     0.1667     8.0640 </r>
       <r>    24.6279     0.2105     8.1004 </r>
       <r>    24.8011     0.4116     8.1717 </r>
       <r>    24.9743     0.3314     8.2291 </r>
       <r>    25.1475     0.2283     8.2686 </r>
       <r>    25.3207     0.0695     8.2807 </r>
       <r>    25.4939     0.0325     8.2863 </r>
       <r>    25.6670     0.1269     8.3083 </r>
       <r>    25.8402     0.3490     8.3687 </r>
       <r>    26.0134     0.3780     8.4342 </r>
       <r>    26.1866     0.2927     8.4849 </r>
       <r>    26.3598     0.2565     8.5293 </r>
       <r>    26.5330     0.2780     8.5774 </r>
       <r>    26.7061     0.4888     8.6621 </r>
       <r>    26.8793     0.3108     8.7159 </r>
       <r>    27.0525     0.1584     8.7433 </r>
       <r>    27.2257     0.2527     8.7871 </r>
       <r>    27.3989     0.2537     8.8310 </r>
       <r>    27.5721     0.1188     8.8516 </r>
       <r>    27.7453     0.0009     8.8518 </r>
       <r>    27.9184     0.0670     8.8634 </r>
       <r>    28.0916     0.1731     8.8934 </r>
       <r>    28.2648     0.3349     8.9514 </r>
       <r>    28.4380     0.3386     9.0100 </r>
       <r>    28.6112     0.1381     9.0339 </r>
       <r>    28.7844     0.0968     9.0507 </r>
       <r>    28.9575     0.1022     9.0684 </r>
       <r>    29.1307     0.1464     9.0937 </r>
       <r>    29.3039     0.0936     9.1099 </r>
       <r>    29.4771     0.0868     9.1250 </r>
       <r>    29.6503     0.2586     9.1698 </r>
       <r>    29.8235     0.2843     9.2190 </r>
       <r>    29.9966     0.2334     9.2594 </r>
       <r>    30.1698     0.0478     9.2677 </r>
       <r>    30.3430     0.0872     9.2828 </r>
       <r>    30.5162     0.1198     9.3035 </r>
       <r>    30.6894     0.2328     9.3439 </r>
       <r>    30.8626     0.3369     9.4022 </r>
       <r>    31.0357     0.6568     9.5160 </r>
       <r>    31.2089     0.7034     9.6378 </r>
       <r>    31.3821     0.3020     9.6901 </r>
       <r>    31.5553     0.0934     9.7063 </r>
       <r>    31.7285    -0.0040     9.7056 </r>
       <r>    31.9017     0.0194     9.7089 </r>
       <r>    32.0748     0.1544     9.7357 </r>
       <r>    32.2480     0.1798     9.7668 </r>
       <r>    32.4212     0.1307     9.7895 </r>
       <r>    32.5944     0.0338     9.7953 </r>
       <r>    32.7676     0.0632     9.8063 </r>
       <r>    32.9408     0.1207     9.8272 </r>
       <r>    33.1139     0.4082     9.8978 </r>
       <r>    33.2871     0.3718     9.9622 </r>
       <r>    33.4603     0.0319     9.9678 </r>
       <r>    33.6335     0.1946    10.0015 </r>
       <r>    33.8067     0.3757    10.0665 </r>
       <r>    33.9799     0.2073    10.1024 </r>
       <r>    34.1530     0.5645    10.2002 </r>
       <r>    34.3262     0.6751    10.3171 </r>
       <r>    34.4994     0.2379    10.3583 </r>
       <r>    34.6726     0.1892    10.3911 </r>
       <r>    34.8458     0.1174    10.4114 </r>
       <r>    35.0190     0.0791    10.4251 </r>
       <r>    35.1921     0.4158    10.4971 </r>
       <r>    35.3653     0.4061    10.5674 </r>
       <r>    35.5385     0.2120    10.6041 </r>
       <r>    35.7117     0.1858    10.6363 </r>
       <r>    35.8849     0.1070    10.6548 </r>
       <r>    36.0581     0.1065    10.6733 </r>
       <r>    36.2312     0.1264    10.6952 </r>
       <r>    36.4044     0.1510    10.7213 </r>
       <r>    36.5776     0.2546    10.7654 </r>
       <r>    36.7508     0.2346    10.8061 </r>
       <r>    36.9240     0.3605    10.8685 </r>
       <r>    37.0972     0.3132    10.9227 </r>
       <r>    37.2704     0.1959    10.9567 </r>
       <r>    37.4435     0.4397    11.0328 </r>
       <r>    37.6167     0.3610    11.0953 </r>
       <r>    37.7899     0.1703    11.1248 </r>
       <r>    37.9631     0.4101    11.1958 </r>
       <r>    38.1363     0.2181    11.2336 </r>
       <r>    38.3095     0.0904    11.2493 </r>
       <r>    38.4826     0.2080    11.2853 </r>
       <r>    38.6558     0.2611    11.3305 </r>
       <r>    38.8290     0.2587    11.3753 </r>
       <r>    39.0022     0.2096    11.4116 </r>
       <r>    39.1754     0.3110    11.4655 </r>
       <r>    39.3486     0.4661    11.5462 </r>
       <r>    39.5217     0.3701    11.6103 </r>
       <r>    39.6949     0.0333    11.6160 </r>
       <r>    39.8681     0.0528    11.6252 </r>
       <r>    40.0413     0.0888    11.6406 </r>
       <r>    40.2145     0.0094    11.6422 </r>
       <r>    40.3877     0.1055    11.6605 </r>
       <r>    40.5608     0.1681    11.6896 </r>
       <r>    40.7340     0.0837    11.7041 </r>
       <r>    40.9072     0.0979    11.7210 </r>
       <r>    41.0804     0.1813    11.7524 </r>
       <r>    41.2536     0.2649    11.7983 </r>
       <r>    41.4268     0.0525    11.8074 </r>
       <r>    41.5999     0.0166    11.8103 </r>
       <r>    41.7731     0.1161    11.8304 </r>
       <r>    41.9463     0.1466    11.8558 </r>
       <r>    42.1195     0.1116    11.8751 </r>
       <r>    42.2927     0.0699    11.8872 </r>
       <r>    42.4659     0.1058    11.9055 </r>
       <r>    42.6390     0.0180    11.9086 </r>
       <r>    42.8122     0.0041    11.9093 </r>
       <r>    42.9854     0.0293    11.9144 </r>
       <r>    43.1586     0.0043    11.9151 </r>
       <r>    43.3318     0.0321    11.9207 </r>
       <r>    43.5050     0.1473    11.9462 </r>
       <r>    43.6781     0.1029    11.9640 </r>
       <r>    43.8513     0.0035    11.9646 </r>
       <r>    44.0245    -0.0041    11.9639 </r>
       <r>    44.1977     0.0001    11.9640 </r>
       <r>    44.3709     0.0152    11.9666 </r>
       <r>    44.5441     0.0175    11.9696 </r>
       <r>    44.7172     0.0782    11.9832 </r>
       <r>    44.8904     0.0938    11.9994 </r>
       <r>    45.0636     0.0071    12.0006 </r>
       <r>    45.2368    -0.0034    12.0000 </r>
       <r>    45.4100    -0.0002    12.0000 </r>
       <r>    45.5832    -0.0000    12.0000 </r>
       <r>    45.7563    -0.0000    12.0000 </r>
       <r>    45.9295    -0.0000    12.0000 </r>
       <r>    46.1027    -0.0000    12.0000 </r>
       <r>    46.2759     0.0000    12.0000 </r>
       <r>    46.4491     0.0000    12.0000 </r>
       <r>    46.6223     0.0000    12.0000 </r>
       <r>    46.7955     0.0000    12.0000 </r>
       <r>    46.9686     0.0000    12.0000 </r>
       <r>    47.1418     0.0000    12.0000 </r>
      </set>
     </set>
    </array>
   </total>
  </dos>
 </calculation>
 <structure name="finalpos" >
  <crystal>
   <varray name="basis" >
    <v>      -1.42000000       1.42000000       1.42000000 </v>
    <v>       1.42000000      -1.42000000       1.42000000 </v>
    <v>       1.42000000       1.42000000      -1.42000000 </v>
   </varray>
   <i name="volume">     11.45315200 </i>
   <varray name="rec_basis" >
    <v>       0.00000000       0.35211268       0.35211268 </v>
    <v>       0.35211268       0.00000000       0.35211268 </v>
    <v>       0.35211268       0.35211268       0.00000000 </v>
   </varray>
  </crystal>
  <varray name="positions" >
   <v>       0.00000000       0.00000000       0.00000000 </v>
  </varray>
 </structure>
</modeling>
