fcc Au                                  
   4.30000000000000     
     0.000000    0.500000    0.500000
     0.500000    0.000000    0.500000
     0.500000    0.500000    0.000000
   Au
     1
Direct
  0.000000  0.000000  0.000000
 
   24   24   24
  96.740      92.693      82.361      69.463      56.553      44.061      31.908      21.061      13.032      8.3062    
  5.8306      4.5383      4.1357      4.5383      5.8306      8.3062      13.032      21.061      31.908      44.061    
  56.553      69.463      82.361      92.693      92.693      85.550      74.126      61.577      49.225      37.068    
  25.587      16.219      10.074      6.7689      4.9898      4.1872      4.1866      4.9888      6.7689      10.075    
  16.220      25.592      37.077      49.231      61.567      74.096      85.515      92.677      82.361      74.126    
  63.396      51.992      40.411      29.036      19.068      11.877      7.7107      5.4799      4.3195      3.9605    
  4.3191      5.4799      7.7105      11.876      19.069      29.044      40.422      51.994      63.378      74.092    
  82.334      85.515      69.463      61.577      51.992      41.567      30.885      21.026      13.371      8.5657    
  5.9384      4.4850      3.8418      3.8421      4.4857      5.9387      8.5645      13.369      21.025      30.888    
  41.573      51.995      61.574      69.456      74.092      74.096      56.553      49.225      40.411      30.885    
  21.722      14.221      9.1804      6.2941      4.6356      3.7910      3.5333      3.7910      4.6361      6.2951    
  9.1803      14.218      21.717      30.881      40.411      49.231      56.563      61.574      63.378      61.567    
  44.061      37.068      29.036      21.026      14.221      9.4057      6.4883      4.7357      3.7700      3.3495    
  3.3490      3.7693      4.7363      6.4913      9.4094      14.222      21.021      29.027      37.059      44.057    
  49.231      51.995      51.994      49.231      31.908      25.587      19.068      13.371      9.1804      6.4883    
  4.7699      3.7598      3.2508      3.0966      3.2504      3.7589      4.7698      6.4917      9.1879      13.379    
  19.069      25.579      31.891      37.059      40.411      41.573      40.422      37.077      21.061      16.219    
  11.877      8.5657      6.2941      4.7357      3.7598      3.2188      2.9822      2.9825      3.2187      3.7574    
  4.7320      6.2935      8.5726      11.890      16.230      21.061      25.579      29.027      30.881      30.888    
  29.044      25.592      13.032      10.074      7.7107      5.9384      4.6356      3.7700      3.2508      2.9822    
  2.9002      2.9830      3.2508      3.7666      4.6282      5.9311      7.7107      10.085      13.047      16.230    
  19.069      21.021      21.717      21.025      19.069      16.220      8.3062      6.7689      5.4799      4.4850    
  3.7910      3.3495      3.0966      2.9825      2.9830      3.0985      3.3526      3.7915      4.4784      5.4676    
  6.7587      8.3058      10.085      11.890      13.379      14.222      14.218      13.369      11.876      10.075    
  5.8306      4.9898      4.3195      3.8418      3.5333      3.3490      3.2504      3.2187      3.2508      3.3526    
  3.5410      3.8490      4.3192      4.9794      5.8155      6.7587      7.7107      8.5726      9.1879      9.4094    
  9.1803      8.5645      7.7105      6.7689      4.5383      4.1872      3.9605      3.8421      3.7910      3.7693    
  3.7589      3.7574      3.7666      3.7915      3.8490      3.9722      4.1968      4.5387      4.9794      5.4676    
  5.9311      6.2935      6.4917      6.4913      6.2951      5.9387      5.4799      4.9888      4.1357      4.1866    
  4.3191      4.4857      4.6361      4.7363      4.7698      4.7320      4.6282      4.4784      4.3192      4.1968    
  4.1508      4.1968      4.3192      4.4784      4.6282      4.7320      4.7698      4.7363      4.6361      4.4857    
  4.3191      4.1866      4.5383      4.9888      5.4799      5.9387      6.2951      6.4913      6.4917      6.2935    
  5.9311      5.4676      4.9794      4.5387      4.1968      3.9722      3.8490      3.7915      3.7666      3.7574    
  3.7589      3.7693      3.7910      3.8421      3.9605      4.1872      5.8306      6.7689      7.7105      8.5645    
  9.1803      9.4094      9.1879      8.5726      7.7107      6.7587      5.8155      4.9794      4.3192      3.8490    
  3.5410      3.3526      3.2508      3.2187      3.2504      3.3490      3.5333      3.8418      4.3195      4.9898    
  8.3062      10.075      11.876      13.369      14.218      14.222      13.379      11.890      10.085      8.3058    
  6.7587      5.4676      4.4784      3.7915      3.3526      3.0985      2.9830      2.9825      3.0966      3.3495    
  3.7910      4.4850      5.4799      6.7689      13.032      16.220      19.069      21.025      21.717      21.021    
  19.069      16.230      13.047      10.085      7.7107      5.9311      4.6282      3.7666      3.2508      2.9830    
  2.9002      2.9822      3.2508      3.7700      4.6356      5.9384      7.7107      10.074      21.061      25.592    
  29.044      30.888      30.881      29.027      25.579      21.061      16.230      11.890      8.5726      6.2935    
  4.7320      3.7574      3.2187      2.9825      2.9822      3.2188      3.7598      4.7357      6.2941      8.5657    
  11.877      16.219      31.908      37.077      40.422      41.573      40.411      37.059      31.891      25.579    
  19.069      13.379      9.1879      6.4917      4.7698      3.7589      3.2504      3.0966      3.2508      3.7598    
  4.7699      6.4883      9.1804      13.371      19.068      25.587      44.061      49.231      51.994      51.995    
  49.231      44.057      37.059      29.027      21.021      14.222      9.4094      6.4913      4.7363      3.7693    
  3.3490      3.3495      3.7700      4.7357      6.4883      9.4057      14.221      21.026      29.036      37.068    
  56.553      61.567      63.378      61.574      56.563      49.231      40.411      30.881      21.717      14.218    
  9.1803      6.2951      4.6361      3.7910      3.5333      3.7910      4.6356      6.2941      9.1804      14.221    
  21.722      30.885      40.411      49.225      69.463      74.096      74.092      69.456      61.574      51.995    
  41.573      30.888      21.025      13.369      8.5645      5.9387      4.4857      3.8421      3.8418      4.4850    
  5.9384      8.5657      13.371      21.026      30.885      41.567      51.992      61.577      82.361      85.515    
  82.334      74.092      63.378      51.994      40.422      29.044      19.069      11.876      7.7105      5.4799    
  4.3191      3.9605      4.3195      5.4799      7.7107      11.877      19.068      29.036      40.411      51.992    
  63.396      74.126      92.693      92.677      85.515      74.096      61.567      49.231      37.077      25.592    
  16.220      10.075      6.7689      4.9888      4.1866      4.1872      4.9898      6.7689      10.074      16.219    
  25.587      37.068      49.225      61.577      74.126      85.550      92.693      85.550      74.126      61.577    
  49.225      37.068      25.587      16.219      10.074      6.7689      4.9898      4.1872      4.1866      4.9888    
  6.7689      10.075      16.220      25.592      37.077      49.231      61.567      74.096      85.515      92.677    
  85.550      76.646      65.224      53.349      41.502      29.908      19.684      12.240      7.9028      5.5967    
  4.3950      4.0225      4.3948      5.5965      7.9022      12.239      19.688      29.921      41.518      53.351    
  65.195      76.594      85.508      88.979      74.126      65.224      54.796      43.829      32.728      22.393    
  14.228      9.0259      6.2031      4.6500      3.9586      3.9589      4.6505      6.2028      9.0236      14.226    
  22.396      32.740      43.842      54.794      65.201      74.095      79.464      79.478      61.577      53.349    
  43.829      33.703      23.869      15.627      9.9600      6.7220      4.8975      3.9609      3.6738      3.9607    
  4.8979      6.7223      9.9581      15.623      23.866      33.706      43.838      53.358      61.582      67.438    
  69.602      67.437      49.225      41.502      32.728      23.869      16.132      10.498      7.0766      5.0878    
  3.9855      3.5039      3.5034      3.9852      5.0889      7.0784      10.497      16.126      23.861      32.724    
  41.507      49.238      55.116      58.345      58.339      55.102      37.068      29.908      22.393      15.627    
  10.498      7.2048      5.1908      4.0046      3.4073      3.2262      3.4071      4.0045      5.1919      7.2081    
  10.502      15.627      22.387      29.900      37.062      42.915      46.745      48.078      46.743      42.916    
  25.587      19.684      14.228      9.9600      7.0766      5.1908      4.0112      3.3620      3.0788      3.0789    
  3.3615      4.0097      5.1904      7.0808      9.9687      14.236      19.685      25.579      30.973      35.037    
  37.209      37.214      35.049      30.987      16.219      12.240      9.0259      6.7220      5.0878      4.0046    
  3.3620      3.0327      2.9325      3.0329      3.3609      4.0011      5.0835      6.7215      9.0328      12.253    
  16.229      20.400      24.037      26.496      27.366      26.505      24.045      20.399      10.074      7.9028    
  6.2031      4.8975      3.9855      3.4073      3.0788      2.9325      2.9331      3.0801      3.4074      3.9814    
  4.8886      6.1946      7.9024      10.084      12.651      15.228      17.320      18.491      18.490      17.316    
  15.217      12.636      6.7689      5.5967      4.6500      3.9609      3.5039      3.2262      3.0789      3.0329    
  3.0801      3.2296      3.5082      3.9612      4.6424      5.5838      6.7588      8.0969      9.5360      10.876    
  11.838      12.186      11.830      10.864      9.5270      8.0975      4.9898      4.3950      3.9586      3.6738    
  3.5034      3.4071      3.3615      3.3609      3.4074      3.5082      3.6830      3.9667      4.3949      4.9796    
  5.6907      6.4554      7.1746      7.7519      8.0780      8.0747      7.7461      7.1744      6.4648      5.7050    
  4.1872      4.0225      3.9589      3.9607      3.9852      4.0045      4.0097      4.0011      3.9814      3.9612    
  3.9667      4.0351      4.1970      4.4571      4.7886      5.1402      5.4502      5.6622      5.7374      5.6640    
  5.4565      5.1505      4.7972      4.4569      4.1866      4.3948      4.6505      4.8979      5.0889      5.1919    
  5.1904      5.0835      4.8886      4.6424      4.3949      4.1970      4.0833      4.0602      4.1049      4.1787    
  4.2454      4.2839      4.2862      4.2513      4.1845      4.1050      4.0512      4.0690      4.9888      5.5965    
  6.2028      6.7223      7.0784      7.2081      7.0808      6.7215      6.1946      5.5838      4.9796      4.4571    
  4.0602      3.7938      3.6317      3.5386      3.4894      3.4744      3.4909      3.5383      3.6263      3.7839    
  4.0518      4.4569      6.7689      7.9022      9.0236      9.9581      10.497      10.502      9.9687      9.0328    
  7.9024      6.7588      5.6907      4.7886      4.1049      3.6317      3.3275      3.1482      3.0650      3.0648    
  3.1460      3.3220      3.6259      4.1051      4.7981      5.7050      10.075      12.239      14.226      15.623    
  16.126      15.627      14.236      12.253      10.084      8.0969      6.4554      5.1402      4.1787      3.5386    
  3.1482      2.9414      2.8767      2.9403      3.1464      3.5384      4.1837      5.1504      6.4646      8.0975    
  16.220      19.688      22.396      23.866      23.861      22.387      19.685      16.229      12.651      9.5360    
  7.1746      5.4502      4.2454      3.4894      3.0650      2.8767      2.8763      3.0648      3.4917      4.2511    
  5.4561      7.1744      9.5263      12.636      25.592      29.921      32.740      33.706      32.724      29.900    
  25.579      20.400      15.228      10.876      7.7519      5.6622      4.2839      3.4744      3.0648      2.9403    
  3.0648      3.4756      4.2862      5.6627      7.7468      10.866      15.217      20.399      37.077      41.518    
  43.842      43.838      41.507      37.062      30.973      24.037      17.320      11.838      8.0780      5.7374    
  4.2862      3.4909      3.1460      3.1464      3.4917      4.2862      5.7349      8.0725      11.832      17.319    
  24.044      30.987      49.231      53.351      54.794      53.358      49.238      42.915      35.037      26.496    
  18.491      12.186      8.0747      5.6640      4.2513      3.5383      3.3220      3.5384      4.2511      5.6627    
  8.0725      12.185      18.495      26.505      35.045      42.916      61.567      65.195      65.201      61.582    
  55.116      46.745      37.209      27.366      18.490      11.830      7.7461      5.4565      4.1845      3.6263    
  3.6259      4.1837      5.4561      7.7468      11.832      18.495      27.371      37.210      46.738      55.102    
  74.096      76.594      74.095      67.438      58.345      48.078      37.214      26.505      17.316      10.864    
  7.1744      5.1505      4.1050      3.7839      4.1051      5.1504      7.1744      10.866      17.319      26.505    
  37.210      48.071      58.340      67.437      85.515      85.508      79.464      69.602      58.339      46.743    
  35.049      24.045      15.217      9.5270      6.4648      4.7972      4.0512      4.0518      4.7981      6.4646    
  9.5263      15.217      24.044      35.045      46.738      58.340      69.612      79.478      92.677      88.979    
  79.478      67.437      55.102      42.916      30.987      20.399      12.636      8.0975      5.7050      4.4569    
  4.0690      4.4569      5.7050      8.0975      12.636      20.399      30.987      42.916      55.102      67.437    
  79.478      88.979      82.361      74.126      63.396      51.992      40.411      29.036      19.068      11.877    
  7.7107      5.4799      4.3195      3.9605      4.3191      5.4799      7.7105      11.876      19.069      29.044    
  40.422      51.994      63.378      74.092      82.334      85.515      74.126      65.224      54.796      43.829    
  32.728      22.393      14.228      9.0259      6.2031      4.6500      3.9586      3.9589      4.6505      6.2028    
  9.0236      14.226      22.396      32.740      43.842      54.794      65.201      74.095      79.464      79.478    
  63.396      54.796      45.000      34.667      24.615      16.127      10.241      6.8742      4.9909      4.0210    
  3.7231      4.0206      4.9909      6.8737      10.238      16.122      24.615      34.676      45.013      54.804    
  63.396      69.609      71.925      69.612      51.992      43.829      34.667      25.393      17.185      11.113    
  7.4034      5.2826      4.1043      3.5878      3.5872      4.1037      5.2834      7.4040      11.110      17.177    
  25.385      34.669      43.845      52.017      58.364      61.914      61.905      58.340      40.411      32.728    
  24.615      17.185      11.432      7.7036      5.4795      4.1719      3.5128      3.3128      3.5128      4.1724    
  5.4810      7.7050      11.430      17.177      24.605      32.724      40.422      46.760      50.964      52.437    
  50.946      46.738      29.036      22.393      16.127      11.113      7.7036      5.5499      4.2088      3.4728    
  3.1525      3.1527      3.4729      4.2085      5.5509      7.7075      11.117      16.126      22.385      29.027    
  35.042      39.564      41.983      41.981      39.562      35.045      19.068      14.228      10.241      7.4034    
  5.4795      4.2088      3.4602      3.0787      2.9625      3.0784      3.4587      4.2067      5.4795      7.4083    
  10.250      14.235      19.068      24.036      28.302      31.159      32.164      31.167      28.313      24.044    
  11.877      9.0259      6.8742      5.2826      4.1719      3.4728      3.0787      2.9038      2.9040      3.0787    
  3.4711      4.1677      5.2778      6.8732      9.0322      11.888      15.226      18.522      21.156      22.615    
  22.618      21.160      18.521      15.217      7.7107      6.2031      4.9909      4.1043      3.5128      3.1525    
  2.9625      2.9040      2.9639      3.1545      3.5129      4.0991      4.9811      6.1947      7.7104      9.5351    
  11.546      13.414      14.743      15.223      14.739      13.405      11.534      9.5263      5.4799      4.6500    
  4.0210      3.5878      3.3128      3.1527      3.0784      3.0787      3.1545      3.3172      3.5925      4.0209    
  4.6424      5.4680      6.4556      7.5150      8.5594      9.4293      9.9279      9.9240      9.4206      8.5523    
  7.5156      6.4646      4.3195      3.9586      3.7231      3.5872      3.5128      3.4729      3.4587      3.4711    
  3.5129      3.5925      3.7328      3.9667      4.3194      4.7890      5.3383      5.9006      6.3916      6.7276    
  6.8463      6.7248      6.3916      5.9078      5.3504      4.7981      3.9605      3.9589      4.0206      4.1037    
  4.1724      4.2085      4.2067      4.1677      4.0991      4.0209      3.9667      3.9726      4.0605      4.2264    
  4.4403      4.6575      4.8322      4.9289      4.9301      4.8364      4.6650      4.4470      4.2262      4.0518    
  4.3191      4.6505      4.9909      5.2834      5.4810      5.5509      5.4795      5.2778      4.9811      4.6424    
  4.3194      4.0605      3.8914      3.8086      3.7859      3.7908      3.8004      3.8055      3.8038      3.7948    
  3.7859      3.8015      3.8794      4.0512      5.4799      6.2028      6.8737      7.4040      7.7050      7.7075    
  7.4083      6.8732      6.1947      5.4680      4.7890      4.2264      3.8086      3.5255      3.3454      3.2379    
  3.1871      3.1877      3.2380      3.3418      3.5182      3.8020      4.2262      4.7972      7.7105      9.0236    
  10.238      11.110      11.430      11.117      10.250      9.0322      7.7104      6.4556      5.3383      4.4403    
  3.7859      3.3454      3.0700      2.9196      2.8717      2.9185      3.0667      3.3414      3.7859      4.4476    
  5.3504      6.4648      11.876      14.226      16.122      17.177      17.177      16.126      14.235      11.888    
  9.5351      7.5150      5.9006      4.6575      3.7908      3.2379      2.9196      2.7755      2.7750      2.9186    
  3.2379      3.7942      4.6649      5.9077      7.5156      9.5270      19.069      22.396      24.615      25.385    
  24.605      22.385      19.068      15.226      11.546      8.5594      6.3916      4.8322      3.8004      3.1871    
  2.8717      2.7750      2.8716      3.1884      3.8038      4.8360      6.3916      8.5522      11.534      15.217    
  29.044      32.740      34.676      34.669      32.724      29.027      24.036      18.522      13.414      9.4293    
  6.7276      4.9289      3.8055      3.1877      2.9185      2.9186      3.1884      3.8067      4.9290      6.7241    
  9.4219      13.406      18.521      24.045      40.422      43.842      45.013      43.845      40.422      35.042    
  28.302      21.156      14.743      9.9279      6.8463      4.9301      3.8038      3.2380      3.0667      3.2379    
  3.8038      4.9290      6.8430      9.9239      14.743      21.163      28.313      35.049      51.994      54.794    
  54.804      52.017      46.760      39.564      31.159      22.615      15.223      9.9240      6.7248      4.8364    
  3.7948      3.3418      3.3414      3.7942      4.8360      6.7241      9.9239      15.227      22.624      31.168    
  39.562      46.743      63.378      65.201      63.396      58.364      50.964      41.983      32.164      22.618    
  14.739      9.4206      6.3916      4.6650      3.7859      3.5182      3.7859      4.6649      6.3916      9.4219    
  14.743      22.624      32.167      41.977      50.946      58.339      74.092      74.095      69.609      61.914    
  52.437      41.981      31.167      21.160      13.405      8.5523      5.9078      4.4470      3.8015      3.8020    
  4.4476      5.9077      8.5522      13.406      21.163      31.168      41.977      52.429      61.905      69.602    
  82.334      79.464      71.925      61.905      50.946      39.562      28.313      18.521      11.534      7.5156    
  5.3504      4.2262      3.8794      4.2262      5.3504      7.5156      11.534      18.521      28.313      39.562    
  50.946      61.905      71.925      79.464      85.515      79.478      69.612      58.340      46.738      35.045    
  24.044      15.217      9.5263      6.4646      4.7981      4.0518      4.0512      4.7972      6.4648      9.5270    
  15.217      24.045      35.049      46.743      58.339      69.602      79.464      85.508      69.463      61.577    
  51.992      41.567      30.885      21.026      13.371      8.5657      5.9384      4.4850      3.8418      3.8421    
  4.4857      5.9387      8.5645      13.369      21.025      30.888      41.573      51.995      61.574      69.456    
  74.092      74.096      61.577      53.349      43.829      33.703      23.869      15.627      9.9600      6.7220    
  4.8975      3.9609      3.6738      3.9607      4.8979      6.7223      9.9581      15.623      23.866      33.706    
  43.838      53.358      61.582      67.438      69.602      67.437      51.992      43.829      34.667      25.393    
  17.185      11.113      7.4034      5.2826      4.1043      3.5878      3.5872      4.1037      5.2834      7.4040    
  11.110      17.177      25.385      34.669      43.845      52.017      58.364      61.914      61.905      58.340    
  41.567      33.703      25.393      17.739      11.769      7.8833      5.5825      4.2319      3.5505      3.3433    
  3.5502      4.2323      5.5841      7.8842      11.765      17.728      25.380      33.702      41.586      48.105    
  52.455      53.984      52.429      48.071      30.885      23.869      17.185      11.769      8.0581      5.7481    
  4.3180      3.5339      3.1927      3.1930      3.5343      4.3187      5.7502      8.0608      11.768      17.175    
  23.855      30.880      37.221      41.996      44.555      44.546      41.977      37.210      21.026      15.627    
  11.113      7.8833      5.7481      4.3483      3.5269      3.1099      2.9830      3.1099      3.5262      4.3480    
  5.7507      7.8889      11.117      15.624      21.017      26.495      31.162      34.275      35.365      34.276    
  31.168      26.505      13.371      9.9600      7.4034      5.5825      4.3180      3.5269      3.0834      2.8868    
  2.8867      3.0826      3.5247      4.3159      5.5834      7.4088      9.9677      13.376      17.316      21.154    
  24.186      25.854      25.858      24.196      21.163      17.319      8.5657      6.7220      5.2826      4.2319    
  3.5339      3.1099      2.8868      2.8180      2.8874      3.1099      3.5317      4.2272      5.2781      6.7218    
  8.5716      10.874      13.412      15.744      17.387      17.979      17.388      15.743      13.406      10.866    
  5.9384      4.8975      4.1043      3.5505      3.1927      2.9830      2.8867      2.8874      2.9851      3.1951    
  3.5502      4.0990      4.8886      5.9315      7.1743      8.5587      9.9668      11.146      11.822      11.820    
  11.140      9.9581      8.5522      7.1744      4.4850      3.9609      3.5878      3.3433      3.1930      3.1099    
  3.0826      3.1099      3.1951      3.3482      3.5925      3.9609      4.4784      5.1406      5.9007      6.6718    
  7.3521      7.8335      8.0074      7.8292      7.3477      6.6725      5.9077      5.1504      3.8418      3.6738    
  3.5872      3.5502      3.5343      3.5262      3.5247      3.5317      3.5502      3.5925      3.6829      3.8490    
  4.1051      4.4405      4.8188      5.1851      5.4768      5.6382      5.6377      5.4773      5.1902      4.8277    
  4.4476      4.1051      3.8421      3.9607      4.1037      4.2323      4.3187      4.3480      4.3159      4.2272    
  4.0990      3.9609      3.8490      3.7940      3.8088      3.8833      3.9899      4.0948      4.1694      4.1967    
  4.1717      4.0994      3.9943      3.8831      3.8020      3.7839      4.4857      4.8979      5.2834      5.5841    
  5.7502      5.7507      5.5834      5.2781      4.8886      4.4784      4.1051      3.8088      3.6034      3.4778    
  3.4069      3.3680      3.3504      3.3517      3.3703      3.4068      3.4727      3.5945      3.8015      4.1050    
  5.9387      6.7223      7.4040      7.8842      8.0608      7.8889      7.4088      6.7218      5.9315      5.1406    
  4.4405      3.8833      3.4778      3.2020      3.0247      2.9243      2.8918      2.9244      3.0228      3.1973    
  3.4731      3.8831      4.4470      5.1505      8.5645      9.9581      11.110      11.765      11.768      11.117    
  9.9677      8.5716      7.1743      5.9007      4.8188      3.9899      3.4069      3.0247      2.7962      2.6893    
  2.6888      2.7945      3.0224      3.4068      3.9950      4.8277      5.9078      7.1744      13.369      15.623    
  17.177      17.728      17.175      15.624      13.376      10.874      8.5587      6.6718      5.1851      4.0948    
  3.3680      2.9243      2.6893      2.6160      2.6889      2.9243      3.3697      4.0993      5.1900      6.6725    
  8.5523      10.864      21.025      23.866      25.385      25.380      23.855      21.017      17.316      13.412    
  9.9668      7.3521      5.4768      4.1694      3.3504      2.8918      2.6888      2.6889      2.8925      3.3522    
  4.1714      5.4766      7.3472      9.9581      13.405      17.316      30.888      33.706      34.669      33.702    
  30.880      26.495      21.154      15.744      11.146      7.8335      5.6382      4.1967      3.3517      2.9244    
  2.7945      2.9243      3.3522      4.1972      5.6364      7.8286      11.141      15.743      21.160      26.505    
  41.573      43.838      43.845      41.586      37.221      31.162      24.186      17.387      11.822      8.0074    
  5.6377      4.1717      3.3703      3.0228      3.0224      3.3697      4.1714      5.6364      8.0051      11.822    
  17.393      24.196      31.167      37.214      51.995      53.358      52.017      48.105      41.996      34.275    
  25.854      17.979      11.820      7.8292      5.4773      4.0994      3.4068      3.1973      3.4068      4.0993    
  5.4766      7.8286      11.822      17.987      25.864      34.276      41.981      48.078      61.574      61.582    
  58.364      52.455      44.555      35.365      25.858      17.388      11.140      7.3477      5.1902      3.9943    
  3.4727      3.4731      3.9950      5.1900      7.3472      11.141      17.393      25.864      35.365      44.546    
  52.437      58.345      69.456      67.438      61.914      53.984      44.546      34.276      24.196      15.743    
  9.9581      6.6725      4.8277      3.8831      3.5945      3.8831      4.8277      6.6725      9.9581      15.743    
  24.196      34.276      44.546      53.984      61.914      67.438      74.092      69.602      61.905      52.429    
  41.977      31.168      21.163      13.406      8.5522      5.9077      4.4476      3.8020      3.8015      4.4470    
  5.9078      8.5523      13.405      21.160      31.167      41.981      52.437      61.914      69.609      74.095    
  74.096      67.437      58.340      48.071      37.210      26.505      17.319      10.866      7.1744      5.1504    
  4.1051      3.7839      4.1050      5.1505      7.1744      10.864      17.316      26.505      37.214      48.078    
  58.345      67.438      74.095      76.594      56.553      49.225      40.411      30.885      21.722      14.221    
  9.1804      6.2941      4.6356      3.7910      3.5333      3.7910      4.6361      6.2951      9.1803      14.218    
  21.717      30.881      40.411      49.231      56.563      61.574      63.378      61.567      49.225      41.502    
  32.728      23.869      16.132      10.498      7.0766      5.0878      3.9855      3.5039      3.5034      3.9852    
  5.0889      7.0784      10.497      16.126      23.861      32.724      41.507      49.238      55.116      58.345    
  58.339      55.102      40.411      32.728      24.615      17.185      11.432      7.7036      5.4795      4.1719    
  3.5128      3.3128      3.5128      4.1724      5.4810      7.7050      11.430      17.177      24.605      32.724    
  40.422      46.760      50.964      52.437      50.946      46.738      30.885      23.869      17.185      11.769    
  8.0581      5.7481      4.3180      3.5339      3.1927      3.1930      3.5343      4.3187      5.7502      8.0608    
  11.768      17.175      23.855      30.880      37.221      41.996      44.555      44.546      41.977      37.210    
  21.722      16.132      11.432      8.0581      5.8435      4.3975      3.5503      3.1210      2.9904      3.1211    
  3.5502      4.3986      5.8475      8.0632      11.432      16.123      21.708      27.361      32.167      35.369    
  36.489      35.365      32.167      27.371      14.221      10.498      7.7036      5.7481      4.3975      3.5557    
  3.0860      2.8783      2.8783      3.0856      3.5548      4.3979      5.7521      7.7103      10.502      14.218    
  18.484      22.611      25.853      27.630      27.634      25.864      22.624      18.495      9.1804      7.0766    