fcc Au                                  
   4.30000000000000     
     0.000000    0.500000    0.500000
     0.500000    0.000000    0.500000
     0.500000    0.500000    0.000000
   Au
     1
Direct
  0.000000  0.000000  0.000000
 
   24   24   24
 0.96739911536E+02 0.92692717129E+02 0.82361195819E+02 0.69463106700E+02 0.56553476091E+02
 0.44061083377E+02 0.31908002622E+02 0.21060751689E+02 0.13031681446E+02 0.83062395739E+01
 0.58305561168E+01 0.45382984062E+01 0.41356839334E+01 0.45382984062E+01 0.58305561168E+01
 0.83062395739E+01 0.13031681446E+02 0.21060751689E+02 0.31908002622E+02 0.44061083377E+02
 0.56553476091E+02 0.69463106700E+02 0.82361195819E+02 0.92692717129E+02 0.92692717129E+02
 0.85549917898E+02 0.74125592767E+02 0.61577170386E+02 0.49224897443E+02 0.37067898017E+02
 0.25587295784E+02 0.16219003667E+02 0.10074346332E+02 0.67689386435E+01 0.49897769774E+01
 0.41872234472E+01 0.41865511779E+01 0.49887919598E+01 0.67689295741E+01 0.10074980313E+02
 0.16220371788E+02 0.25591965165E+02 0.37076786459E+02 0.49230753779E+02 0.61567277473E+02
 0.74095823833E+02 0.85514954654E+02 0.92677030449E+02 0.82361195819E+02 0.74125592767E+02
 0.63395951530E+02 0.51991674341E+02 0.40411313749E+02 0.29035950724E+02 0.19067717461E+02
 0.11876656787E+02 0.77106524617E+01 0.54799416240E+01 0.43194714051E+01 0.39605134648E+01
 0.43191474567E+01 0.54798601804E+01 0.77104582413E+01 0.11876079183E+02 0.19069396864E+02
 0.29043661406E+02 0.40422479714E+02 0.51994233794E+02 0.63378408061E+02 0.74092325734E+02
 0.82334036779E+02 0.85514954654E+02 0.69463106700E+02 0.61577170386E+02 0.51991674341E+02
 0.41566825045E+02 0.30885221447E+02 0.21026343708E+02 0.13371382902E+02 0.85656961837E+01
 0.59383621508E+01 0.44849881029E+01 0.38418100377E+01 0.38420938126E+01 0.44856831201E+01
 0.59386895845E+01 0.85645070327E+01 0.13368928932E+02 0.21025320409E+02 0.30888325735E+02
 0.41572752098E+02 0.51995083733E+02 0.61574186166E+02 0.69456363081E+02 0.74092325734E+02
 0.74095823833E+02 0.56553476091E+02 0.49224897443E+02 0.40411313749E+02 0.30885221447E+02
 0.21722434981E+02 0.14221054617E+02 0.91803883433E+01 0.62940662692E+01 0.46356072703E+01
 0.37910368000E+01 0.35333152569E+01 0.37909918916E+01 0.46361381527E+01 0.62950809732E+01
 0.91803342147E+01 0.14218183226E+02 0.21717083086E+02 0.30880585305E+02 0.40411394395E+02
 0.49231100371E+02 0.56562859927E+02 0.61574186166E+02 0.63378408061E+02 0.61567277473E+02
 0.44061083377E+02 0.37067898017E+02 0.29035950724E+02 0.21026343708E+02 0.14221054617E+02
 0.94057066577E+01 0.64883053106E+01 0.47356585099E+01 0.37700186987E+01 0.33495136175E+01
 0.33490321873E+01 0.37693087914E+01 0.47363456114E+01 0.64912815907E+01 0.94094431291E+01
 0.14221871924E+02 0.21021438380E+02 0.29026636669E+02 0.37059155724E+02 0.44057104928E+02
 0.49231100371E+02 0.51995083733E+02 0.51994233794E+02 0.49230753779E+02 0.31908002622E+02
 0.25587295784E+02 0.19067717461E+02 0.13371382902E+02 0.91803883433E+01 0.64883053106E+01
 0.47698988768E+01 0.37597987105E+01 0.32508028593E+01 0.30965973797E+01 0.32504228751E+01
 0.37589152663E+01 0.47698353866E+01 0.64916773859E+01 0.91879436897E+01 0.13379322529E+02
 0.19069475746E+02 0.25578828265E+02 0.31891435478E+02 0.37059155724E+02 0.40411394395E+02
 0.41572752098E+02 0.40422479714E+02 0.37076786459E+02 0.21060751689E+02 0.16219003667E+02
 0.11876656787E+02 0.85656961837E+01 0.62940662692E+01 0.47356585099E+01 0.37597987105E+01
 0.32188028839E+01 0.29821706584E+01 0.29825201297E+01 0.32186706684E+01 0.37574101089E+01
 0.47319595999E+01 0.62935356465E+01 0.85726169540E+01 0.11889722394E+02 0.16230050439E+02
 0.21060539657E+02 0.25578828265E+02 0.29026636669E+02 0.30880585305E+02 0.30888325735E+02
 0.29043661406E+02 0.25591965165E+02 0.13031681446E+02 0.10074346332E+02 0.77106524617E+01
 0.59383621508E+01 0.46356072703E+01 0.37700186987E+01 0.32508028593E+01 0.29821706584E+01
 0.29002337460E+01 0.29829648100E+01 0.32507753341E+01 0.37666349525E+01 0.46281939931E+01
 0.59310781551E+01 0.77106779193E+01 0.10084798503E+02 0.13046788397E+02 0.16230050439E+02
 0.19069475746E+02 0.21021438380E+02 0.21717083086E+02 0.21025320409E+02 0.19069396864E+02
 0.16220371788E+02 0.83062395739E+01 0.67689386435E+01 0.54799416240E+01 0.44849881029E+01
 0.37910368000E+01 0.33495136175E+01 0.30965973797E+01 0.29825201297E+01 0.29829648100E+01
 0.30985494853E+01 0.33526165551E+01 0.37914613209E+01 0.44783906980E+01 0.54675812807E+01
 0.67586793411E+01 0.83057940781E+01 0.10084798503E+02 0.11889722394E+02 0.13379322529E+02
 0.14221871924E+02 0.14218183226E+02 0.13368928932E+02 0.11876079183E+02 0.10074980313E+02
 0.58305561168E+01 0.49897769774E+01 0.43194714051E+01 0.38418100377E+01 0.35333152569E+01
 0.33490321873E+01 0.32504228751E+01 0.32186706684E+01 0.32507753341E+01 0.33526165551E+01
 0.35409951359E+01 0.38490074666E+01 0.43191744072E+01 0.49794262891E+01 0.58155387276E+01
 0.67586793411E+01 0.77106779193E+01 0.85726169540E+01 0.91879436897E+01 0.94094431291E+01
 0.91803342147E+01 0.85645070327E+01 0.77104582413E+01 0.67689295741E+01 0.45382984062E+01
 0.41872234472E+01 0.39605134648E+01 0.38420938126E+01 0.37909918916E+01 0.37693087914E+01
 0.37589152663E+01 0.37574101089E+01 0.37666349525E+01 0.37914613209E+01 0.38490074666E+01
 0.39722398935E+01 0.41968126462E+01 0.45386796412E+01 0.49794262891E+01 0.54675812807E+01
 0.59310781551E+01 0.62935356465E+01 0.64916773859E+01 0.64912815907E+01 0.62950809732E+01
 0.59386895845E+01 0.54798601804E+01 0.49887919598E+01 0.41356839334E+01 0.41865511779E+01
 0.43191474567E+01 0.44856831201E+01 0.46361381527E+01 0.47363456114E+01 0.47698353866E+01
 0.47319595999E+01 0.46281939931E+01 0.44783906980E+01 0.43191744072E+01 0.41968126462E+01
 0.41508229809E+01 0.41968126462E+01 0.43191744072E+01 0.44783906980E+01 0.46281939931E+01
 0.47319595999E+01 0.47698353866E+01 0.47363456114E+01 0.46361381527E+01 0.44856831201E+01
 0.43191474567E+01 0.41865511779E+01 0.45382984062E+01 0.49887919598E+01 0.54798601804E+01
 0.59386895845E+01 0.62950809732E+01 0.64912815907E+01 0.64916773859E+01 0.62935356465E+01
 0.59310781551E+01 0.54675812807E+01 0.49794262891E+01 0.45386796412E+01 0.41968126462E+01
 0.39722398935E+01 0.38490074666E+01 0.37914613209E+01 0.37666349525E+01 0.37574101089E+01
 0.37589152663E+01 0.37693087914E+01 0.37909918916E+01 0.38420938126E+01 0.39605134648E+01
 0.41872234472E+01 0.58305561168E+01 0.67689295741E+01 0.77104582413E+01 0.85645070327E+01
 0.91803342147E+01 0.94094431291E+01 0.91879436897E+01 0.85726169540E+01 0.77106779193E+01
 0.67586793411E+01 0.58155387276E+01 0.49794262891E+01 0.43191744072E+01 0.38490074666E+01
 0.35409951359E+01 0.33526165551E+01 0.32507753341E+01 0.32186706684E+01 0.32504228751E+01
 0.33490321873E+01 0.35333152569E+01 0.38418100377E+01 0.43194714051E+01 0.49897769774E+01
 0.83062395739E+01 0.10074980313E+02 0.11876079183E+02 0.13368928932E+02 0.14218183226E+02
 0.14221871924E+02 0.13379322529E+02 0.11889722394E+02 0.10084798503E+02 0.83057940781E+01
 0.67586793411E+01 0.54675812807E+01 0.44783906980E+01 0.37914613209E+01 0.33526165551E+01
 0.30985494853E+01 0.29829648100E+01 0.29825201297E+01 0.30965973797E+01 0.33495136175E+01
 0.37910368000E+01 0.44849881029E+01 0.54799416240E+01 0.67689386435E+01 0.13031681446E+02
 0.16220371788E+02 0.19069396864E+02 0.21025320409E+02 0.21717083086E+02 0.21021438380E+02
 0.19069475746E+02 0.16230050439E+02 0.13046788397E+02 0.10084798503E+02 0.77106779193E+01
 0.59310781551E+01 0.46281939931E+01 0.37666349525E+01 0.32507753341E+01 0.29829648100E+01
 0.29002337460E+01 0.29821706584E+01 0.32508028593E+01 0.37700186987E+01 0.46356072703E+01
 0.59383621508E+01 0.77106524617E+01 0.10074346332E+02 0.21060751689E+02 0.25591965165E+02
 0.29043661406E+02 0.30888325735E+02 0.30880585305E+02 0.29026636669E+02 0.25578828265E+02
 0.21060539657E+02 0.16230050439E+02 0.11889722394E+02 0.85726169540E+01 0.62935356465E+01
 0.47319595999E+01 0.37574101089E+01 0.32186706684E+01 0.29825201297E+01 0.29821706584E+01
 0.32188028839E+01 0.37597987105E+01 0.47356585099E+01 0.62940662692E+01 0.85656961837E+01
 0.11876656787E+02 0.16219003667E+02 0.31908002622E+02 0.37076786459E+02 0.40422479714E+02
 0.41572752098E+02 0.40411394395E+02 0.37059155724E+02 0.31891435478E+02 0.25578828265E+02
 0.19069475746E+02 0.13379322529E+02 0.91879436897E+01 0.64916773859E+01 0.47698353866E+01
 0.37589152663E+01 0.32504228751E+01 0.30965973797E+01 0.32508028593E+01 0.37597987105E+01
 0.47698988768E+01 0.64883053106E+01 0.91803883433E+01 0.13371382902E+02 0.19067717461E+02
 0.25587295784E+02 0.44061083377E+02 0.49230753779E+02 0.51994233794E+02 0.51995083733E+02
 0.49231100371E+02 0.44057104928E+02 0.37059155724E+02 0.29026636669E+02 0.21021438380E+02
 0.14221871924E+02 0.94094431291E+01 0.64912815907E+01 0.47363456114E+01 0.37693087914E+01
 0.33490321873E+01 0.33495136175E+01 0.37700186987E+01 0.47356585099E+01 0.64883053106E+01
 0.94057066577E+01 0.14221054617E+02 0.21026343708E+02 0.29035950724E+02 0.37067898017E+02
 0.56553476091E+02 0.61567277473E+02 0.63378408061E+02 0.61574186166E+02 0.56562859927E+02
 0.49231100371E+02 0.40411394395E+02 0.30880585305E+02 0.21717083086E+02 0.14218183226E+02
 0.91803342147E+01 0.62950809732E+01 0.46361381527E+01 0.37909918916E+01 0.35333152569E+01
 0.37910368000E+01 0.46356072703E+01 0.62940662692E+01 0.91803883433E+01 0.14221054617E+02
 0.21722434981E+02 0.30885221447E+02 0.40411313749E+02 0.49224897443E+02 0.69463106700E+02
 0.74095823833E+02 0.74092325734E+02 0.69456363081E+02 0.61574186166E+02 0.51995083733E+02
 0.41572752098E+02 0.30888325735E+02 0.21025320409E+02 0.13368928932E+02 0.85645070327E+01
 0.59386895845E+01 0.44856831201E+01 0.38420938126E+01 0.38418100377E+01 0.44849881029E+01
 0.59383621508E+01 0.85656961837E+01 0.13371382902E+02 0.21026343708E+02 0.30885221447E+02
 0.41566825045E+02 0.51991674341E+02 0.61577170386E+02 0.82361195819E+02 0.85514954654E+02
 0.82334036779E+02 0.74092325734E+02 0.63378408061E+02 0.51994233794E+02 0.40422479714E+02
 0.29043661406E+02 0.19069396864E+02 0.11876079183E+02 0.77104582413E+01 0.54798601804E+01
 0.43191474567E+01 0.39605134648E+01 0.43194714051E+01 0.54799416240E+01 0.77106524617E+01
 0.11876656787E+02 0.19067717461E+02 0.29035950724E+02 0.40411313749E+02 0.51991674341E+02
 0.63395951530E+02 0.74125592767E+02 0.92692717129E+02 0.92677030449E+02 0.85514954654E+02
 0.74095823833E+02 0.61567277473E+02 0.49230753779E+02 0.37076786459E+02 0.25591965165E+02
 0.16220371788E+02 0.10074980313E+02 0.67689295741E+01 0.49887919598E+01 0.41865511779E+01
 0.41872234472E+01 0.49897769774E+01 0.67689386435E+01 0.10074346332E+02 0.16219003667E+02
 0.25587295784E+02 0.37067898017E+02 0.49224897443E+02 0.61577170386E+02 0.74125592767E+02
 0.85549917898E+02 0.92692717129E+02 0.85549917898E+02 0.74125592767E+02 0.61577170386E+02
 0.49224897443E+02 0.37067898017E+02 0.25587295784E+02 0.16219003667E+02 0.10074346332E+02
 0.67689386435E+01 0.49897769774E+01 0.41872234472E+01 0.41865511779E+01 0.49887919598E+01
 0.67689295741E+01 0.10074980313E+02 0.16220371788E+02 0.25591965165E+02 0.37076786459E+02
 0.49230753779E+02 0.61567277473E+02 0.74095823833E+02 0.85514954654E+02 0.92677030449E+02
 0.85549917898E+02 0.76646068483E+02 0.65223997568E+02 0.53349405240E+02 0.41501997164E+02
 0.29908470129E+02 0.19684447786E+02 0.12240329702E+02 0.79028489938E+01 0.55967147403E+01
 0.43950110929E+01 0.40224839047E+01 0.43947787652E+01 0.55965490616E+01 0.79021576969E+01
 0.12239471034E+02 0.19687842407E+02 0.29920902467E+02 0.41518115572E+02 0.53350740680E+02
 0.65194536041E+02 0.76593879210E+02 0.85508191793E+02 0.88979390771E+02 0.74125592767E+02
 0.65223997568E+02 0.54795573150E+02 0.43829073617E+02 0.32727671357E+02 0.22392698280E+02
 0.14227893050E+02 0.90258842649E+01 0.62030935218E+01 0.46499731657E+01 0.39585860917E+01
 0.39588524539E+01 0.46505247240E+01 0.62028104827E+01 0.90236472011E+01 0.14225772612E+02
 0.22396439734E+02 0.32739963569E+02 0.43841835331E+02 0.54793605826E+02 0.65200819925E+02
 0.74094698052E+02 0.79464145356E+02 0.79478492318E+02 0.61577170386E+02 0.53349405240E+02
 0.43829073617E+02 0.33702852093E+02 0.23868692104E+02 0.15626977273E+02 0.99599625168E+01
 0.67220198375E+01 0.48975142869E+01 0.39609266993E+01 0.36738098110E+01 0.39607181103E+01
 0.48978818259E+01 0.67223073967E+01 0.99580578909E+01 0.15622762080E+02 0.23866037112E+02
 0.33706122410E+02 0.43837825794E+02 0.53358359880E+02 0.61581891731E+02 0.67438429412E+02
 0.69601959189E+02 0.67437456803E+02 0.49224897443E+02 0.41501997164E+02 0.32727671357E+02
 0.23868692104E+02 0.16131616523E+02 0.10497631914E+02 0.70765771475E+01 0.50877741318E+01
 0.39855312419E+01 0.35038851882E+01 0.35034356502E+01 0.39851839354E+01 0.50889465737E+01
 0.70784120128E+01 0.10496942170E+02 0.16126255378E+02 0.23860957438E+02 0.32723704509E+02
 0.41506940430E+02 0.49237937579E+02 0.55116391860E+02 0.58345251014E+02 0.58339315595E+02
 0.55102498499E+02 0.37067898017E+02 0.29908470129E+02 0.22392698280E+02 0.15626977273E+02
 0.10497631914E+02 0.72048024783E+01 0.51908086100E+01 0.40045729407E+01 0.34073050364E+01
 0.32262204872E+01 0.34071005804E+01 0.40044543881E+01 0.51919216665E+01 0.72081045258E+01
 0.10501530305E+02 0.15627376354E+02 0.22387056816E+02 0.29899510322E+02 0.37061573544E+02
 0.42915102065E+02 0.46744780745E+02 0.48077832831E+02 0.46742883480E+02 0.42915840682E+02
 0.25587295784E+02 0.19684447786E+02 0.14227893050E+02 0.99599625168E+01 0.70765771475E+01
 0.51908086100E+01 0.40112459361E+01 0.33619744369E+01 0.30788490167E+01 0.30789409082E+01
 0.33614903437E+01 0.40097095773E+01 0.51904401517E+01 0.70807664399E+01 0.99687186628E+01
 0.14236008409E+02 0.19685360857E+02 0.25578849287E+02 0.30972895692E+02 0.35037254448E+02
 0.37208984289E+02 0.37213693587E+02 0.35049334623E+02 0.30986669548E+02 0.16219003667E+02
 0.12240329702E+02 0.90258842649E+01 0.67220198375E+01 0.50877741318E+01 0.40045729407E+01
 0.33619744369E+01 0.30327293926E+01 0.29325049850E+01 0.30329203734E+01 0.33608869042E+01
 0.40011161473E+01 0.50835488945E+01 0.67214855750E+01 0.90327718740E+01 0.12252867647E+02
 0.16229478358E+02 0.20400440602E+02 0.24036840293E+02 0.26496067691E+02 0.27365949148E+02
 0.26504508786E+02 0.24044933739E+02 0.20399456290E+02 0.10074346332E+02 0.79028489938E+01
 0.62030935218E+01 0.48975142869E+01 0.39855312419E+01 0.34073050364E+01 0.30788490167E+01
 0.29325049850E+01 0.29330507391E+01 0.30800890539E+01 0.34073659869E+01 0.39813913748E+01
 0.48886321697E+01 0.61945928001E+01 0.79023968574E+01 0.10084393597E+02 0.12650520730E+02
 0.15227660423E+02 0.17319819104E+02 0.18490522559E+02 0.18490286045E+02 0.17316364546E+02
 0.15217336244E+02 0.12636040335E+02 0.67689386435E+01 0.55967147403E+01 0.46499731657E+01
 0.39609266993E+01 0.35038851882E+01 0.32262204872E+01 0.30789409082E+01 0.30329203734E+01
 0.30800890539E+01 0.32296183490E+01 0.35081592003E+01 0.39611752115E+01 0.46423658432E+01
 0.55838005999E+01 0.67587822850E+01 0.80969185616E+01 0.95359608392E+01 0.10876459275E+02
 0.11838054162E+02 0.12185617739E+02 0.11829697158E+02 0.10864148831E+02 0.95270293727E+01
 0.80975160153E+01 0.49897769774E+01 0.43950110929E+01 0.39585860917E+01 0.36738098110E+01
 0.35034356502E+01 0.34071005804E+01 0.33614903437E+01 0.33608869042E+01 0.34073659869E+01
 0.35081592003E+01 0.36829775394E+01 0.39666564018E+01 0.43949261637E+01 0.49795996361E+01
 0.56906627806E+01 0.64554062661E+01 0.71745928520E+01 0.77519241756E+01 0.80780027680E+01
 0.80746823916E+01 0.77460675154E+01 0.71743676348E+01 0.64647508369E+01 0.57050314109E+01
 0.41872234472E+01 0.40224839047E+01 0.39588524539E+01 0.39607181103E+01 0.39851839354E+01
 0.40044543881E+01 0.40097095773E+01 0.40011161473E+01 0.39813913748E+01 0.39611752115E+01
 0.39666564018E+01 0.40351260606E+01 0.41969899506E+01 0.44571333909E+01 0.47886215510E+01
 0.51401519395E+01 0.54502224435E+01 0.56621504889E+01 0.57374055963E+01 0.56639551710E+01
 0.54564503866E+01 0.51505403327E+01 0.47971639760E+01 0.44568659489E+01 0.41865511779E+01
 0.43947787652E+01 0.46505247240E+01 0.48978818259E+01 0.50889465737E+01 0.51919216665E+01
 0.51904401517E+01 0.50835488945E+01 0.48886321697E+01 0.46423658432E+01 0.43949261637E+01
 0.41969899506E+01 0.40833095300E+01 0.40602075249E+01 0.41049116715E+01 0.41786537236E+01
 0.42454492776E+01 0.42838849818E+01 0.42861644904E+01 0.42513147024E+01 0.41844881655E+01
 0.41049753081E+01 0.40511692095E+01 0.40689901185E+01 0.49887919598E+01 0.55965490616E+01
 0.62028104827E+01 0.67223073967E+01 0.70784120128E+01 0.72081045258E+01 0.70807664399E+01
 0.67214855750E+01 0.61945928001E+01 0.55838005999E+01 0.49795996361E+01 0.44571333909E+01
 0.40602075249E+01 0.37937622731E+01 0.36317426187E+01 0.35385795888E+01 0.34893764702E+01
 0.34744318148E+01 0.34909154915E+01 0.35382910318E+01 0.36262870962E+01 0.37839380098E+01
 0.40518319133E+01 0.44568659489E+01 0.67689295741E+01 0.79021576969E+01 0.90236472011E+01
 0.99580578909E+01 0.10496942170E+02 0.10501530305E+02 0.99687186628E+01 0.90327718740E+01
 0.79023968574E+01 0.67587822850E+01 0.56906627806E+01 0.47886215510E+01 0.41049116715E+01
 0.36317426187E+01 0.33274717860E+01 0.31481581016E+01 0.30649996250E+01 0.30647710452E+01
 0.31460220809E+01 0.33219843201E+01 0.36258958506E+01 0.41050912214E+01 0.47981020604E+01
 0.57050314109E+01 0.10074980313E+02 0.12239471034E+02 0.14225772612E+02 0.15622762080E+02
 0.16126255378E+02 0.15627376354E+02 0.14236008409E+02 0.12252867647E+02 0.10084393597E+02
 0.80969185616E+01 0.64554062661E+01 0.51401519395E+01 0.41786537236E+01 0.35385795888E+01
 0.31481581016E+01 0.29413522809E+01 0.28767402812E+01 0.29403408319E+01 0.31463650420E+01
 0.35384065836E+01 0.41837001481E+01 0.51503723715E+01 0.64645983024E+01 0.80975160153E+01
 0.16220371788E+02 0.19687842407E+02 0.22396439734E+02 0.23866037112E+02 0.23860957438E+02
 0.22387056816E+02 0.19685360857E+02 0.16229478358E+02 0.12650520730E+02 0.95359608392E+01
 0.71745928520E+01 0.54502224435E+01 0.42454492776E+01 0.34893764702E+01 0.30649996250E+01
 0.28767402812E+01 0.28762883107E+01 0.30647551310E+01 0.34916762635E+01 0.42511388560E+01
 0.54560682803E+01 0.71743906748E+01 0.95263145691E+01 0.12636040335E+02 0.25591965165E+02
 0.29920902467E+02 0.32739963569E+02 0.33706122410E+02 0.32723704509E+02 0.29899510322E+02
 0.25578849287E+02 0.20400440602E+02 0.15227660423E+02 0.10876459275E+02 0.77519241756E+01
 0.56621504889E+01 0.42838849818E+01 0.34744318148E+01 0.30647710452E+01 0.29403408319E+01
 0.30647551310E+01 0.34756004887E+01 0.42862150016E+01 0.56627069906E+01 0.77468201837E+01
 0.10865513952E+02 0.15217066279E+02 0.20399456290E+02 0.37076786459E+02 0.41518115572E+02
 0.43841835331E+02 0.43837825794E+02 0.41506940430E+02 0.37061573544E+02 0.30972895692E+02
 0.24036840293E+02 0.17319819104E+02 0.11838054162E+02 0.80780027680E+01 0.57374055963E+01
 0.42861644904E+01 0.34909154915E+01 0.31460220809E+01 0.31463650420E+01 0.34916762635E+01
 0.42862150016E+01 0.57349341980E+01 0.80724589263E+01 0.11832180817E+02 0.17318694170E+02
 0.24043875507E+02 0.30986669548E+02 0.49230753779E+02 0.53350740680E+02 0.54793605826E+02
 0.53358359880E+02 0.49237937579E+02 0.42915102065E+02 0.35037254448E+02 0.26496067691E+02
 0.18490522559E+02 0.12185617739E+02 0.80746823916E+01 0.56639551710E+01 0.42513147024E+01
 0.35382910318E+01 0.33219843201E+01 0.35384065836E+01 0.42511388560E+01 0.56627069906E+01
 0.80724589263E+01 0.12184864670E+02 0.18494638847E+02 0.26505037304E+02 0.35045479386E+02
 0.42915840682E+02 0.61567277473E+02 0.65194536041E+02 0.65200819925E+02 0.61581891731E+02
 0.55116391860E+02 0.46744780745E+02 0.37208984289E+02 0.27365949148E+02 0.18490286045E+02
 0.11829697158E+02 0.77460675154E+01 0.54564503866E+01 0.41844881655E+01 0.36262870962E+01
 0.36258958506E+01 0.41837001481E+01 0.54560682803E+01 0.77468201837E+01 0.11832180817E+02
 0.18494638847E+02 0.27370615823E+02 0.37210054277E+02 0.46738228217E+02 0.55102498499E+02
 0.74095823833E+02 0.76593879210E+02 0.74094698052E+02 0.67438429412E+02 0.58345251014E+02
 0.48077832831E+02 0.37213693587E+02 0.26504508786E+02 0.17316364546E+02 0.10864148831E+02
 0.71743676348E+01 0.51505403327E+01 0.41049753081E+01 0.37839380098E+01 0.41050912214E+01
 0.51503723715E+01 0.71743906748E+01 0.10865513952E+02 0.17318694170E+02 0.26505037304E+02
 0.37210054277E+02 0.48071414523E+02 0.58340314704E+02 0.67437456803E+02 0.85514954654E+02
 0.85508191793E+02 0.79464145356E+02 0.69601959189E+02 0.58339315595E+02 0.46742883480E+02
 0.35049334623E+02 0.24044933739E+02 0.15217336244E+02 0.95270293727E+01 0.64647508369E+01
 0.47971639760E+01 0.40511692095E+01 0.40518319133E+01 0.47981020604E+01 0.64645983024E+01
 0.95263145691E+01 0.15217066279E+02 0.24043875507E+02 0.35045479386E+02 0.46738228217E+02
 0.58340314704E+02 0.69612417580E+02 0.79478492318E+02 0.92677030449E+02 0.88979390771E+02
 0.79478492318E+02 0.67437456803E+02 0.55102498499E+02 0.42915840682E+02 0.30986669548E+02
 0.20399456290E+02 0.12636040335E+02 0.80975160153E+01 0.57050314109E+01 0.44568659489E+01
 0.40689901185E+01 0.44568659489E+01 0.57050314109E+01 0.80975160153E+01 0.12636040335E+02
 0.20399456290E+02 0.30986669548E+02 0.42915840682E+02 0.55102498499E+02 0.67437456803E+02
 0.79478492318E+02 0.88979390771E+02 0.82361195819E+02 0.74125592767E+02 0.63395951530E+02
 0.51991674341E+02 0.40411313749E+02 0.29035950724E+02 0.19067717461E+02 0.11876656787E+02
 0.77106524617E+01 0.54799416240E+01 0.43194714051E+01 0.39605134648E+01 0.43191474567E+01
 0.54798601804E+01 0.77104582413E+01 0.11876079183E+02 0.19069396864E+02 0.29043661406E+02
 0.40422479714E+02 0.51994233794E+02 0.63378408061E+02 0.74092325734E+02 0.82334036779E+02
 0.85514954654E+02 0.74125592767E+02 0.65223997568E+02 0.54795573150E+02 0.43829073617E+02
 0.32727671357E+02 0.22392698280E+02 0.14227893050E+02 0.90258842649E+01 0.62030935218E+01
 0.46499731657E+01 0.39585860917E+01 0.39588524539E+01 0.46505247240E+01 0.62028104827E+01
 0.90236472011E+01 0.14225772612E+02 0.22396439734E+02 0.32739963569E+02 0.43841835331E+02
 0.54793605826E+02 0.65200819925E+02 0.74094698052E+02 0.79464145356E+02 0.79478492318E+02
 0.63395951530E+02 0.54795573150E+02 0.45000100340E+02 0.34667484396E+02 0.24615290708E+02
 0.16126575523E+02 0.10241369789E+02 0.68742013374E+01 0.49908637742E+01 0.40209592664E+01
 0.37230717012E+01 0.40206245801E+01 0.49908821392E+01 0.68736979399E+01 0.10238447935E+02
 0.16122405103E+02 0.24615307967E+02 0.34675694377E+02 0.45012859091E+02 0.54804091237E+02
 0.63395911409E+02 0.69608722875E+02 0.71925197234E+02 0.69612417580E+02 0.51991674341E+02
 0.43829073617E+02 0.34667484396E+02 0.25392900194E+02 0.17185137685E+02 0.11113191724E+02
 0.74034087292E+01 0.52826374607E+01 0.41043128280E+01 0.35877951534E+01 0.35871792652E+01
 0.41036774286E+01 0.52834353389E+01 0.74040203871E+01 0.11109818606E+02 0.17176896595E+02
 0.25385239741E+02 0.34669142632E+02 0.43844710526E+02 0.52016912191E+02 0.58363540032E+02
 0.61914254616E+02 0.61904875213E+02 0.58340314704E+02 0.40411313749E+02 0.32727671357E+02
 0.24615290708E+02 0.17185137685E+02 0.11431863606E+02 0.77036131520E+01 0.54795122291E+01
 0.41719209891E+01 0.35128373992E+01 0.33127902231E+01 0.35128268530E+01 0.41724194738E+01
 0.54809882989E+01 0.77049897433E+01 0.11429883028E+02 0.17177305787E+02 0.24604872726E+02
 0.32724113168E+02 0.40422354772E+02 0.46760229983E+02 0.50964016620E+02 0.52437287382E+02
 0.50946025273E+02 0.46738228217E+02 0.29035950724E+02 0.22392698280E+02 0.16126575523E+02
 0.11113191724E+02 0.77036131520E+01 0.55498586920E+01 0.42088394326E+01 0.34728125555E+01
 0.31524603347E+01 0.31527211186E+01 0.34729223399E+01 0.42084871749E+01 0.55508646174E+01
 0.77074838844E+01 0.11117323657E+02 0.16125701834E+02 0.22385333543E+02 0.29027387616E+02
 0.35042230835E+02 0.39564088775E+02 0.41982527437E+02 0.41980600314E+02 0.39561869760E+02
 0.35045479386E+02 0.19067717461E+02 0.14227893050E+02 0.10241369789E+02 0.74034087292E+01
 0.54795122291E+01 0.42088394326E+01 0.34602089451E+01 0.30787283653E+01 0.29625122095E+01
 0.30784325084E+01 0.34587065078E+01 0.42066554684E+01 0.54795441640E+01 0.74082518839E+01
 0.10249744216E+02 0.14234588031E+02 0.19067642097E+02 0.24036341838E+02 0.28302154334E+02
 0.31159022119E+02 0.32163637087E+02 0.31166518316E+02 0.28312815882E+02 0.24043875507E+02
 0.11876656787E+02 0.90258842649E+01 0.68742013374E+01 0.52826374607E+01 0.41719209891E+01
 0.34728125555E+01 0.30787283653E+01 0.29038247625E+01 0.29039978366E+01 0.30786691201E+01
 0.34711108669E+01 0.41677390747E+01 0.52778014211E+01 0.68732462991E+01 0.90322014702E+01
 0.11887984970E+02 0.15226189085E+02 0.18522463456E+02 0.21156125542E+02 0.22615090069E+02
 0.22617778493E+02 0.21160289692E+02 0.18520995809E+02 0.15217066279E+02 0.77106524617E+01
 0.62030935218E+01 0.49908637742E+01 0.41043128280E+01 0.35128373992E+01 0.31524603347E+01
 0.29625122095E+01 0.29039978366E+01 0.29639430962E+01 0.31545248565E+01 0.35128543437E+01
 0.40991426791E+01 0.49811018212E+01 0.61947214293E+01 0.77103894968E+01 0.95350701374E+01
 0.11545924811E+02 0.13413605545E+02 0.14742558215E+02 0.15223111007E+02 0.14738518749E+02
 0.13404501919E+02 0.11533803079E+02 0.95263145691E+01 0.54799416240E+01 0.46499731657E+01
 0.40209592664E+01 0.35877951534E+01 0.33127902231E+01 0.31527211186E+01 0.30784325084E+01
 0.30786691201E+01 0.31545248565E+01 0.33172399492E+01 0.35925446819E+01 0.40209358740E+01
 0.46423636749E+01 0.54679825790E+01 0.64556123596E+01 0.75150137916E+01 0.85594209589E+01
 0.94293384260E+01 0.99279006734E+01 0.99240445197E+01 0.94205630795E+01 0.85523480046E+01
 0.75156060976E+01 0.64645983024E+01 0.43194714051E+01 0.39585860917E+01 0.37230717012E+01
 0.35871792652E+01 0.35128268530E+01 0.34729223399E+01 0.34587065078E+01 0.34711108669E+01
 0.35128543437E+01 0.35925446819E+01 0.37328017904E+01 0.39666640516E+01 0.43194074906E+01
 0.47889746930E+01 0.53383045888E+01 0.59005863566E+01 0.63916227005E+01 0.67275825515E+01
 0.68462789852E+01 0.67247929072E+01 0.63916063950E+01 0.59078247154E+01 0.53503939845E+01
 0.47981020604E+01 0.39605134648E+01 0.39588524539E+01 0.40206245801E+01 0.41036774286E+01
 0.41724194738E+01 0.42084871749E+01 0.42066554684E+01 0.41677390747E+01 0.40991426791E+01
 0.40209358740E+01 0.39666640516E+01 0.39725679942E+01 0.40605360809E+01 0.42263648111E+01
 0.44402825559E+01 0.46575190685E+01 0.48321595335E+01 0.49289284963E+01 0.49300746738E+01
 0.48364447198E+01 0.46650108114E+01 0.44469651693E+01 0.42262308053E+01 0.40518319133E+01
 0.43191474567E+01 0.46505247240E+01 0.49908821392E+01 0.52834353389E+01 0.54809882989E+01
 0.55508646174E+01 0.54795441640E+01 0.52778014211E+01 0.49811018212E+01 0.46423636749E+01
 0.43194074906E+01 0.40605360809E+01 0.38914032138E+01 0.38086372416E+01 0.37859298650E+01
 0.37907816872E+01 0.38003898530E+01 0.38055276899E+01 0.38037840688E+01 0.37947769442E+01
 0.37859041730E+01 0.38014547438E+01 0.38793908292E+01 0.40511692095E+01 0.54798601804E+01
 0.62028104827E+01 0.68736979399E+01 0.74040203871E+01 0.77049897433E+01 0.77074838844E+01
 0.74082518839E+01 0.68732462991E+01 0.61947214293E+01 0.54679825790E+01 0.47889746930E+01
 0.42263648111E+01 0.38086372416E+01 0.35255441021E+01 0.33453792355E+01 0.32379498616E+01
 0.31871451385E+01 0.31877313106E+01 0.32379608760E+01 0.33417524471E+01 0.35181526595E+01
 0.38019516852E+01 0.42262308053E+01 0.47971639760E+01 0.77104582413E+01 0.90236472011E+01
 0.10238447935E+02 0.11109818606E+02 0.11429883028E+02 0.11117323657E+02 0.10249744216E+02
 0.90322014702E+01 0.77103894968E+01 0.64556123596E+01 0.53383045888E+01 0.44402825559E+01
 0.37859298650E+01 0.33453792355E+01 0.30699511860E+01 0.29196089366E+01 0.28716749136E+01
 0.29184797144E+01 0.30667145990E+01 0.33414276733E+01 0.37859117711E+01 0.44476496068E+01
 0.53503939845E+01 0.64647508369E+01 0.11876079183E+02 0.14225772612E+02 0.16122405103E+02
 0.17176896595E+02 0.17177305787E+02 0.16125701834E+02 0.14234588031E+02 0.11887984970E+02
 0.95350701374E+01 0.75150137916E+01 0.59005863566E+01 0.46575190685E+01 0.37907816872E+01
 0.32379498616E+01 0.29196089366E+01 0.27754573142E+01 0.27749983528E+01 0.29185801880E+01
 0.32379204530E+01 0.37942273089E+01 0.46648795588E+01 0.59076967669E+01 0.75156060976E+01
 0.95270293727E+01 0.19069396864E+02 0.22396439734E+02 0.24615307967E+02 0.25385239741E+02
 0.24604872726E+02 0.22385333543E+02 0.19067642097E+02 0.15226189085E+02 0.11545924811E+02
 0.85594209589E+01 0.63916227005E+01 0.48321595335E+01 0.38003898530E+01 0.31871451385E+01
 0.28716749136E+01 0.27749983528E+01 0.28716331149E+01 0.31883678266E+01 0.38037654574E+01
 0.48359995014E+01 0.63915976470E+01 0.85521841300E+01 0.11533803079E+02 0.15217336244E+02
 0.29043661406E+02 0.32739963569E+02 0.34675694377E+02 0.34669142632E+02 0.32724113168E+02
 0.29027387616E+02 0.24036341838E+02 0.18522463456E+02 0.13413605545E+02 0.94293384260E+01
 0.67275825515E+01 0.49289284963E+01 0.38055276899E+01 0.31877313106E+01 0.29184797144E+01
 0.29185801880E+01 0.31883678266E+01 0.38067286111E+01 0.49290401563E+01 0.67240871210E+01
 0.94218643181E+01 0.13405989236E+02 0.18520995809E+02 0.24044933739E+02 0.40422479714E+02
 0.43841835331E+02 0.45012859091E+02 0.43844710526E+02 0.40422354772E+02 0.35042230835E+02
 0.28302154334E+02 0.21156125542E+02 0.14742558215E+02 0.99279006734E+01 0.68462789852E+01
 0.49300746738E+01 0.38037840688E+01 0.32379608760E+01 0.30667145990E+01 0.32379204530E+01
 0.38037654574E+01 0.49290401563E+01 0.68429876723E+01 0.99239134108E+01 0.14742554638E+02
 0.21163112069E+02 0.28312815882E+02 0.35049334623E+02 0.51994233794E+02 0.54793605826E+02
 0.54804091237E+02 0.52016912191E+02 0.46760229983E+02 0.39564088775E+02 0.31159022119E+02
 0.22615090069E+02 0.15223111007E+02 0.99240445197E+01 0.67247929072E+01 0.48364447198E+01
 0.37947769442E+01 0.33417524471E+01 0.33414276733E+01 0.37942273089E+01 0.48359995014E+01
 0.67240871210E+01 0.99239134108E+01 0.15226690119E+02 0.22623896905E+02 0.31167538666E+02