   1   1   1   0
  0.1987675E+02  0.3040559E-09  0.3040559E-09  0.3040559E-09  0.5000000E-15
  1.000000000000000E-004
  CAR 
 fcc Au                                  
     33.70858573     -6.64991196  301      3.61977089      1.00000000
     -6.650  0.0000E+00  0.0000E+00
     -6.515  0.0000E+00  0.0000E+00
     -6.381 -0.2140E-33 -0.2879E-34
     -6.246 -0.1430E-28 -0.1924E-29
     -6.112 -0.3838E-24 -0.5163E-25
     -5.977 -0.4132E-20 -0.5560E-21
     -5.843 -0.1781E-16 -0.2397E-17
     -5.708 -0.2959E-13 -0.3983E-14
     -5.574 -0.2004E-10 -0.2701E-11
     -5.439 -0.5337E-08 -0.7207E-09
     -5.305 -0.5503E-06 -0.7475E-07
     -5.170 -0.2131E-04 -0.2941E-05
     -5.036 -0.2877E-03 -0.4165E-04
     -4.901 -0.1023E-02 -0.1792E-03
     -4.767  0.1761E-02  0.5774E-04
     -4.632  0.1440E-01  0.1995E-02
     -4.497  0.3743E-01  0.7031E-02
     -4.363  0.5823E-01  0.1486E-01
     -4.228  0.6263E-01  0.2329E-01
     -4.094  0.7102E-01  0.3284E-01
     -3.959  0.9694E-01  0.4588E-01
     -3.825  0.1179E+00  0.6174E-01
     -3.690  0.9386E-01  0.7437E-01
     -3.556  0.9189E-01  0.8673E-01
     -3.421  0.1581E+00  0.1080E+00
     -3.287  0.1835E+00  0.1327E+00
     -3.152  0.1362E+00  0.1510E+00
     -3.018  0.1571E+00  0.1721E+00
     -2.883  0.2113E+00  0.2006E+00
     -2.749  0.2139E+00  0.2293E+00
     -2.614  0.2633E+00  0.2648E+00
     -2.480  0.3735E+00  0.3150E+00
     -2.345  0.5313E+00  0.3865E+00
     -2.210  0.6625E+00  0.4756E+00
     -2.076  0.8784E+00  0.5938E+00
     -1.941  0.1214E+01  0.7571E+00
     -1.807  0.1628E+01  0.9761E+00
     -1.672  0.2070E+01  0.1255E+01
     -1.538  0.2237E+01  0.1556E+01
     -1.403  0.2130E+01  0.1842E+01
     -1.269  0.1936E+01  0.2103E+01
     -1.134  0.1781E+01  0.2342E+01
     -1.000  0.1538E+01  0.2549E+01
     -0.865  0.1788E+01  0.2790E+01
     -0.731  0.2310E+01  0.3100E+01
     -0.596  0.2508E+01  0.3438E+01
     -0.462  0.2527E+01  0.3778E+01
     -0.327  0.2750E+01  0.4148E+01
     -0.193  0.3034E+01  0.4556E+01
     -0.058  0.3545E+01  0.5033E+01
      0.077  0.3807E+01  0.5545E+01
      0.211  0.3012E+01  0.5950E+01
      0.346  0.2111E+01  0.6234E+01
      0.480  0.1942E+01  0.6495E+01
      0.615  0.2287E+01  0.6803E+01
      0.749  0.2750E+01  0.7173E+01
      0.884  0.2802E+01  0.7550E+01
      1.018  0.2453E+01  0.7880E+01
      1.153  0.2368E+01  0.8198E+01
      1.287  0.2133E+01  0.8485E+01
      1.422  0.2120E+01  0.8771E+01
      1.556  0.2380E+01  0.9091E+01
      1.691  0.3120E+01  0.9511E+01
      1.825  0.3453E+01  0.9975E+01
      1.960  0.2525E+01  0.1031E+02
      2.094  0.1314E+01  0.1049E+02
      2.229  0.6093E+00  0.1057E+02
      2.363  0.2170E+00  0.1060E+02
      2.498  0.1530E+00  0.1062E+02
      2.633  0.3156E+00  0.1067E+02
      2.767  0.4680E+00  0.1073E+02
      2.902  0.3570E+00  0.1078E+02
      3.036  0.2108E+00  0.1081E+02
      3.171  0.1540E+00  0.1083E+02
      3.305  0.3114E+00  0.1087E+02
      3.440  0.4962E+00  0.1093E+02
      3.574  0.3947E+00  0.1099E+02
      3.709  0.2468E+00  0.1102E+02
      3.843  0.2298E+00  0.1105E+02
      3.978  0.2399E+00  0.1108E+02
      4.112  0.3524E+00  0.1113E+02
      4.247  0.4078E+00  0.1119E+02
      4.381  0.3182E+00  0.1123E+02
      4.516  0.2758E+00  0.1127E+02
      4.650  0.3085E+00  0.1131E+02
      4.785  0.3011E+00  0.1135E+02
      4.920  0.2484E+00  0.1138E+02
      5.054  0.3391E+00  0.1143E+02
      5.189  0.3483E+00  0.1147E+02
      5.323  0.3005E+00  0.1151E+02
      5.458  0.2326E+00  0.1155E+02
      5.592  0.2371E+00  0.1158E+02
      5.727  0.3827E+00  0.1163E+02
      5.861  0.3954E+00  0.1168E+02
      5.996  0.3296E+00  0.1173E+02
      6.130  0.3386E+00  0.1177E+02
      6.265  0.4515E+00  0.1183E+02
      6.399  0.5679E+00  0.1191E+02
      6.534  0.3812E+00  0.1196E+02
      6.668  0.2393E+00  0.1199E+02
      6.803  0.2806E+00  0.1203E+02
      6.937  0.2887E+00  0.1207E+02
      7.072  0.3039E+00  0.1211E+02
      7.207  0.3698E+00  0.1216E+02
      7.341  0.4081E+00  0.1222E+02
      7.476  0.2782E+00  0.1225E+02
      7.610  0.9565E-01  0.1227E+02
      7.745  0.6627E-01  0.1227E+02
      7.879  0.3101E+00  0.1232E+02
      8.014  0.4973E+00  0.1238E+02
      8.148  0.4728E+00  0.1245E+02
      8.283  0.4848E+00  0.1251E+02
      8.417  0.4930E+00  0.1258E+02
      8.552  0.3703E+00  0.1263E+02
      8.686  0.2596E+00  0.1266E+02
      8.821  0.2913E+00  0.1270E+02
      8.955  0.4253E+00  0.1276E+02
      9.090  0.4737E+00  0.1282E+02
      9.224  0.3313E+00  0.1287E+02
      9.359  0.1803E+00  0.1289E+02
      9.493  0.2868E+00  0.1293E+02
      9.628  0.4879E+00  0.1300E+02
      9.763  0.4090E+00  0.1305E+02
      9.897  0.1688E+00  0.1307E+02
     10.032  0.1391E+00  0.1309E+02
     10.166  0.3644E+00  0.1314E+02
     10.301  0.4612E+00  0.1320E+02
     10.435  0.3345E+00  0.1325E+02
     10.570  0.4241E+00  0.1331E+02
     10.704  0.3761E+00  0.1336E+02
     10.839  0.3565E+00  0.1340E+02
     10.973  0.6210E+00  0.1349E+02
     11.108  0.5128E+00  0.1356E+02
     11.242  0.1153E+00  0.1357E+02
     11.377  0.3162E-01  0.1358E+02
     11.511  0.2335E+00  0.1361E+02
     11.646  0.5120E+00  0.1368E+02
     11.780  0.5087E+00  0.1375E+02
     11.915  0.3714E+00  0.1380E+02
     12.050  0.4696E+00  0.1386E+02
     12.184  0.4442E+00  0.1392E+02
     12.319  0.3711E+00  0.1397E+02
     12.453  0.5191E+00  0.1404E+02
     12.588  0.4405E+00  0.1410E+02
     12.722  0.3237E+00  0.1414E+02
     12.857  0.4211E+00  0.1420E+02
     12.991  0.4430E+00  0.1426E+02
     13.126  0.4294E+00  0.1431E+02
     13.260  0.5049E+00  0.1438E+02
     13.395  0.7391E+00  0.1448E+02
     13.529  0.6605E+00  0.1457E+02
     13.664  0.3384E+00  0.1462E+02
     13.798  0.4309E+00  0.1467E+02
     13.933  0.4772E+00  0.1474E+02
     14.067  0.4275E+00  0.1480E+02
     14.202  0.6847E+00  0.1489E+02
     14.337  0.8253E+00  0.1500E+02
     14.471  0.7823E+00  0.1510E+02
     14.606  0.6071E+00  0.1519E+02
     14.740  0.3865E+00  0.1524E+02
     14.875  0.2355E+00  0.1527E+02
     15.009  0.2924E+00  0.1531E+02
     15.144  0.4428E+00  0.1537E+02
     15.278  0.6030E+00  0.1545E+02
     15.413  0.7067E+00  0.1554E+02
     15.547  0.6018E+00  0.1563E+02
     15.682  0.4813E+00  0.1569E+02
     15.816  0.4685E+00  0.1575E+02
     15.951  0.5670E+00  0.1583E+02
     16.085  0.5221E+00  0.1590E+02
     16.220  0.4205E+00  0.1596E+02
     16.354  0.5279E+00  0.1603E+02
     16.489  0.5816E+00  0.1611E+02
     16.623  0.4441E+00  0.1617E+02
     16.758  0.4075E+00  0.1622E+02
     16.893  0.4718E+00  0.1628E+02
     17.027  0.5051E+00  0.1635E+02
     17.162  0.4349E+00  0.1641E+02
     17.296  0.3230E+00  0.1645E+02
     17.431  0.4268E+00  0.1651E+02
     17.565  0.5948E+00  0.1659E+02
     17.700  0.4926E+00  0.1666E+02
     17.834  0.4446E+00  0.1672E+02
     17.969  0.4771E+00  0.1678E+02
     18.103  0.5085E+00  0.1685E+02
     18.238  0.5868E+00  0.1693E+02
     18.372  0.6270E+00  0.1701E+02
     18.507  0.5078E+00  0.1708E+02
     18.641  0.3775E+00  0.1713E+02
     18.776  0.4798E+00  0.1720E+02
     18.910  0.4982E+00  0.1726E+02
     19.045  0.3991E+00  0.1732E+02
     19.180  0.4483E+00  0.1738E+02
     19.314  0.6104E+00  0.1746E+02
     19.449  0.8310E+00  0.1757E+02
     19.583  0.9048E+00  0.1769E+02
     19.718  0.1009E+01  0.1783E+02
     19.852  0.1047E+01  0.1797E+02
     19.987  0.8504E+00  0.1808E+02
     20.121  0.8820E+00  0.1820E+02
     20.256  0.1241E+01  0.1837E+02
     20.390  0.1260E+01  0.1854E+02
     20.525  0.9097E+00  0.1866E+02
     20.659  0.6828E+00  0.1875E+02
     20.794  0.5696E+00  0.1883E+02
     20.928  0.4755E+00  0.1889E+02
     21.063  0.6192E+00  0.1898E+02
     21.197  0.8210E+00  0.1909E+02
     21.332  0.8055E+00  0.1920E+02
     21.467  0.8147E+00  0.1931E+02
     21.601  0.7837E+00  0.1941E+02
     21.736  0.6718E+00  0.1950E+02
     21.870  0.7888E+00  0.1961E+02
     22.005  0.7442E+00  0.1971E+02
     22.139  0.5473E+00  0.1978E+02
     22.274  0.4179E+00  0.1984E+02
     22.408  0.3088E+00  0.1988E+02
     22.543  0.3695E+00  0.1993E+02
     22.677  0.5348E+00  0.2000E+02
     22.812  0.4440E+00  0.2006E+02
     22.946  0.4879E+00  0.2013E+02
     23.081  0.8795E+00  0.2024E+02
     23.215  0.8187E+00  0.2035E+02
     23.350  0.3491E+00  0.2040E+02
     23.484  0.2071E+00  0.2043E+02
     23.619  0.2094E+00  0.2046E+02
     23.753  0.2052E+00  0.2049E+02
     23.888  0.2069E+00  0.2051E+02
     24.023  0.2913E+00  0.2055E+02
     24.157  0.3842E+00  0.2060E+02
     24.292  0.4563E+00  0.2067E+02
     24.426  0.5565E+00  0.2074E+02
     24.561  0.6801E+00  0.2083E+02
     24.695  0.6072E+00  0.2091E+02
     24.830  0.3498E+00  0.2096E+02
     24.964  0.2114E+00  0.2099E+02
     25.099  0.2506E+00  0.2102E+02
     25.233  0.3907E+00  0.2108E+02
     25.368  0.3264E+00  0.2112E+02
     25.502  0.2317E+00  0.2115E+02
     25.637  0.4639E+00  0.2121E+02
     25.771  0.6912E+00  0.2131E+02
     25.906  0.6640E+00  0.2140E+02
     26.040  0.7004E+00  0.2149E+02
     26.175  0.7190E+00  0.2159E+02
     26.310  0.8212E+00  0.2170E+02
     26.444  0.1178E+01  0.2186E+02
     26.579  0.1204E+01  0.2202E+02
     26.713  0.7028E+00  0.2211E+02
     26.848  0.5253E+00  0.2218E+02
     26.982  0.6822E+00  0.2227E+02
     27.117  0.4563E+00  0.2234E+02
     27.251  0.4434E+00  0.2240E+02
     27.386  0.7315E+00  0.2249E+02
     27.520  0.7081E+00  0.2259E+02
     27.655  0.6999E+00  0.2268E+02
     27.789  0.9888E+00  0.2282E+02
     27.924  0.1073E+01  0.2296E+02
     28.058  0.7357E+00  0.2306E+02
     28.193  0.5068E+00  0.2313E+02
     28.327  0.6069E+00  0.2321E+02
     28.462  0.7164E+00  0.2331E+02
     28.597  0.5965E+00  0.2339E+02
     28.731  0.4167E+00  0.2344E+02
     28.866  0.4514E+00  0.2350E+02
     29.000  0.4346E+00  0.2356E+02
     29.135  0.2796E+00  0.2360E+02
     29.269  0.2152E+00  0.2363E+02
     29.404  0.3147E+00  0.2367E+02
     29.538  0.5632E+00  0.2375E+02
     29.673  0.5577E+00  0.2382E+02
     29.807  0.1991E+00  0.2385E+02
     29.942 -0.1611E-01  0.2385E+02
     30.076 -0.4885E-02  0.2384E+02
     30.211  0.7957E-01  0.2386E+02
     30.345  0.1250E+00  0.2387E+02
     30.480  0.7787E-01  0.2388E+02
     30.614  0.8786E-01  0.2389E+02
     30.749  0.1678E+00  0.2392E+02
     30.883  0.2064E+00  0.2394E+02
     31.018  0.1300E+00  0.2396E+02
     31.153  0.2062E-01  0.2397E+02
     31.287 -0.1093E-01  0.2396E+02
     31.422  0.2384E-02  0.2396E+02
     31.556  0.5454E-01  0.2397E+02
     31.691  0.1152E+00  0.2399E+02
     31.825  0.8862E-01  0.2400E+02
     31.960  0.1540E-01  0.2400E+02
     32.094 -0.5111E-02  0.2400E+02
     32.229 -0.1450E-02  0.2400E+02
     32.363 -0.1013E-03  0.2400E+02
     32.498 -0.2474E-05  0.2400E+02
     32.632 -0.2283E-07  0.2400E+02
     32.767 -0.8205E-10  0.2400E+02
     32.901 -0.1165E-12  0.2400E+02
     33.036 -0.7923E-16  0.2400E+02
     33.170  0.0000E+00  0.2400E+02
     33.305  0.0000E+00  0.2400E+02
     33.440  0.0000E+00  0.2400E+02
     33.574  0.0000E+00  0.2400E+02
     33.709  0.0000E+00  0.2400E+02
     33.70858573     -6.64991196  301      3.61977089      1.00000000
     -6.650  0.0000E+00  0.0000E+00  0.0000E+00
     -6.515  0.0000E+00  0.0000E+00  0.0000E+00
     -6.381 -0.1265E-33 -0.7458E-36 -0.1875E-37
     -6.246 -0.8453E-29 -0.4983E-31 -0.1253E-32
     -6.112 -0.2269E-24 -0.1338E-26 -0.3363E-28
     -5.977 -0.2443E-20 -0.1440E-22 -0.3621E-24
     -5.843 -0.1053E-16 -0.6208E-19 -0.1561E-20
     -5.708 -0.1749E-13 -0.1031E-15 -0.2594E-17
     -5.574 -0.1185E-10 -0.6988E-13 -0.1759E-14
     -5.439 -0.3155E-08 -0.1862E-10 -0.4699E-12
     -5.305 -0.3253E-06 -0.1928E-08 -0.4914E-10
     -5.170 -0.1259E-04 -0.7595E-07 -0.2019E-08
     -5.036 -0.1700E-03 -0.1110E-05 -0.3483E-07
     -4.901 -0.6020E-03 -0.6033E-05 -0.3137E-06
     -4.767  0.1060E-02 -0.1172E-04 -0.1576E-05
     -4.632  0.8525E-02  0.4124E-04 -0.1279E-05
     -4.497  0.2192E-01  0.3349E-03  0.1578E-04
     -4.363  0.3383E-01  0.7708E-03  0.6632E-04
     -4.228  0.3601E-01  0.1155E-02  0.1606E-03
     -4.094  0.4027E-01  0.1795E-02  0.3219E-03
     -3.959  0.5416E-01  0.3074E-02  0.7180E-03
     -3.825  0.6510E-01  0.4217E-02  0.1298E-02
     -3.690  0.5127E-01  0.3639E-02  0.1506E-02
     -3.556  0.4893E-01  0.4332E-02  0.2189E-02
     -3.421  0.8256E-01  0.8306E-02  0.4862E-02
     -3.287  0.9464E-01  0.1006E-01  0.6796E-02
     -3.152  0.6869E-01  0.7862E-02  0.6771E-02
     -3.018  0.7602E-01  0.9786E-02  0.1161E-01
     -2.883  0.9951E-01  0.1350E-01  0.1908E-01
     -2.749  0.9727E-01  0.1439E-01  0.2300E-01
     -2.614  0.1147E+00  0.1829E-01  0.3495E-01
     -2.480  0.1454E+00  0.2256E-01  0.8108E-01
     -2.345  0.1687E+00  0.2314E-01  0.1857E+00
     -2.210  0.1782E+00  0.2379E-01  0.2863E+00
     -2.076  0.2101E+00  0.3364E-01  0.4105E+00
     -1.941  0.2330E+00  0.4183E-01  0.6502E+00
     -1.807  0.2277E+00  0.4591E-01  0.1008E+01
     -1.672  0.2136E+00  0.4949E-01  0.1413E+01
     -1.538  0.1797E+00  0.5065E-01  0.1614E+01
     -1.403  0.1312E+00  0.4837E-01  0.1600E+01
     -1.269  0.9028E-01  0.4916E-01  0.1491E+01
     -1.134  0.5545E-01  0.5029E-01  0.1404E+01
     -1.000  0.2528E-01  0.4958E-01  0.1236E+01
     -0.865  0.1731E-01  0.6481E-01  0.1448E+01
     -0.731  0.1944E-01  0.7928E-01  0.1892E+01
     -0.596  0.2229E-01  0.7286E-01  0.2089E+01
     -0.462  0.2955E-01  0.6519E-01  0.2129E+01
     -0.327  0.4232E-01  0.7918E-01  0.2306E+01
     -0.193  0.5068E-01  0.8612E-01  0.2557E+01
     -0.058  0.4875E-01  0.8970E-01  0.3042E+01
      0.077  0.4924E-01  0.1095E+00  0.3261E+01
      0.211  0.5134E-01  0.1023E+00  0.2541E+01
      0.346  0.3855E-01  0.7038E-01  0.1785E+01
      0.480  0.2144E-01  0.5853E-01  0.1680E+01
      0.615  0.2429E-01  0.6597E-01  0.1992E+01
      0.749  0.3301E-01  0.6934E-01  0.2419E+01
      0.884  0.3090E-01  0.5820E-01  0.2499E+01
      1.018  0.2209E-01  0.3981E-01  0.2225E+01
      1.153  0.2017E-01  0.4037E-01  0.2156E+01
      1.287  0.1671E-01  0.3789E-01  0.1948E+01
      1.422  0.1512E-01  0.3071E-01  0.1960E+01
      1.556  0.2081E-01  0.2972E-01  0.2212E+01
      1.691  0.2515E-01  0.2626E-01  0.2940E+01
      1.825  0.1690E-01  0.1691E-01  0.3300E+01
      1.960  0.1224E-01  0.1312E-01  0.2418E+01
      2.094  0.3026E-01  0.1950E-01  0.1206E+01
      2.229  0.4314E-01  0.2374E-01  0.4932E+00
      2.363  0.2880E-01  0.2037E-01  0.1348E+00
      2.498  0.2478E-01  0.2414E-01  0.7017E-01
      2.633  0.4100E-01  0.3059E-01  0.1963E+00
      2.767  0.6030E-01  0.3926E-01  0.3043E+00
      2.902  0.5022E-01  0.3564E-01  0.2161E+00
      3.036  0.3447E-01  0.2844E-01  0.1077E+00
      3.171  0.2832E-01  0.1986E-01  0.7681E-01
      3.305  0.5551E-01  0.3391E-01  0.1688E+00
      3.440  0.8294E-01  0.6851E-01  0.2478E+00
      3.574  0.6110E-01  0.7151E-01  0.1705E+00
      3.709  0.4067E-01  0.5233E-01  0.9021E-01
      3.843  0.4588E-01  0.4080E-01  0.9015E-01
      3.978  0.5478E-01  0.3104E-01  0.1065E+00
      4.112  0.7816E-01  0.5067E-01  0.1488E+00
      4.247  0.7982E-01  0.7710E-01  0.1513E+00
      4.381  0.6345E-01  0.6442E-01  0.1100E+00
      4.516  0.5922E-01  0.5040E-01  0.1006E+00
      4.650  0.6078E-01  0.6305E-01  0.1061E+00
      4.785  0.6592E-01  0.5990E-01  0.9741E-01
      4.920  0.6379E-01  0.4709E-01  0.7360E-01
      5.054  0.8599E-01  0.6845E-01  0.9623E-01
      5.189  0.8872E-01  0.6624E-01  0.1053E+00
      5.323  0.7672E-01  0.5603E-01  0.9214E-01
      5.458  0.5888E-01  0.4797E-01  0.6427E-01
      5.592  0.5525E-01  0.6036E-01  0.5149E-01
      5.727  0.1108E+00  0.7639E-01  0.9243E-01
      5.861  0.1342E+00  0.6051E-01  0.1032E+00
      5.996  0.1191E+00  0.4571E-01  0.8700E-01
      6.130  0.1341E+00  0.3706E-01  0.9380E-01
      6.265  0.1913E+00  0.4694E-01  0.1117E+00
      6.399  0.2266E+00  0.7840E-01  0.1215E+00
      6.534  0.1345E+00  0.6602E-01  0.7951E-01
      6.668  0.7638E-01  0.4880E-01  0.4722E-01
      6.803  0.1088E+00  0.4478E-01  0.5427E-01
      6.937  0.1285E+00  0.3423E-01  0.5588E-01
      7.072  0.1285E+00  0.4248E-01  0.5582E-01
      7.207  0.1160E+00  0.7762E-01  0.7147E-01
      7.341  0.1072E+00  0.9942E-01  0.7930E-01
      7.476  0.6489E-01  0.7389E-01  0.5277E-01
      7.610  0.1988E-01  0.2720E-01  0.1724E-01
      7.745  0.1119E-01  0.1947E-01  0.1473E-01
      7.879  0.5579E-01  0.9341E-01  0.6186E-01
      8.014  0.1076E+00  0.1434E+00  0.8727E-01
      8.148  0.1174E+00  0.1303E+00  0.7558E-01
      8.283  0.1443E+00  0.1237E+00  0.6851E-01
      8.417  0.1647E+00  0.1167E+00  0.6757E-01
      8.552  0.1204E+00  0.8618E-01  0.5860E-01
      8.686  0.6894E-01  0.6666E-01  0.4572E-01
      8.821  0.5198E-01  0.9335E-01  0.4825E-01
      8.955  0.7444E-01  0.1414E+00  0.6511E-01
      9.090  0.8239E-01  0.1544E+00  0.7920E-01
      9.224  0.5855E-01  0.1049E+00  0.5867E-01
      9.359  0.4176E-01  0.5416E-01  0.2444E-01
      9.493  0.7585E-01  0.8155E-01  0.3464E-01
      9.628  0.1264E+00  0.1391E+00  0.6178E-01
      9.763  0.1113E+00  0.1177E+00  0.4447E-01
      9.897  0.5477E-01  0.4709E-01  0.1171E-01
     10.032  0.4943E-01  0.3568E-01  0.1277E-01
     10.166  0.8943E-01  0.1084E+00  0.4837E-01
     10.301  0.1033E+00  0.1410E+00  0.6205E-01
     10.435  0.6402E-01  0.1046E+00  0.5208E-01
     10.570  0.6002E-01  0.1373E+00  0.8170E-01
     10.704  0.5492E-01  0.1220E+00  0.6962E-01
     10.839  0.6056E-01  0.1231E+00  0.4817E-01
     10.973  0.9523E-01  0.2203E+00  0.8413E-01
     11.108  0.7406E-01  0.1805E+00  0.7218E-01
     11.242  0.1781E-01  0.3870E-01  0.1616E-01
     11.377  0.7493E-02  0.6865E-02  0.6637E-02
     11.511  0.2945E-01  0.8115E-01  0.4012E-01
     11.646  0.6121E-01  0.1893E+00  0.7722E-01
     11.780  0.6748E-01  0.1884E+00  0.6623E-01
     11.915  0.5954E-01  0.1307E+00  0.4221E-01
     12.050  0.7769E-01  0.1617E+00  0.6051E-01
     12.184  0.6461E-01  0.1557E+00  0.6833E-01
     12.319  0.3462E-01  0.1396E+00  0.6363E-01
     12.453  0.2373E-01  0.2079E+00  0.8904E-01
     12.588  0.1606E-01  0.1710E+00  0.7903E-01
     12.722  0.2187E-01  0.1106E+00  0.6264E-01
     12.857  0.3952E-01  0.1453E+00  0.7136E-01
     12.991  0.4528E-01  0.1615E+00  0.5727E-01
     13.126  0.5188E-01  0.1626E+00  0.3963E-01
     13.260  0.5064E-01  0.1996E+00  0.5833E-01
     13.395  0.3232E-01  0.3013E+00  0.1103E+00
     13.529  0.1320E-01  0.2668E+00  0.1023E+00
     13.664  0.7529E-02  0.1340E+00  0.5266E-01
     13.798  0.1760E-01  0.1720E+00  0.6357E-01
     13.933  0.2415E-01  0.1854E+00  0.6988E-01
     14.067  0.3336E-01  0.1555E+00  0.6194E-01
     14.202  0.5110E-01  0.2552E+00  0.9721E-01
     14.337  0.5202E-01  0.3237E+00  0.1153E+00
     14.471  0.3562E-01  0.3184E+00  0.1048E+00
     14.606  0.1817E-01  0.2477E+00  0.7903E-01
     14.740  0.1090E-01  0.1532E+00  0.5543E-01
     14.875  0.1079E-01  0.9051E-01  0.3777E-01
     15.009  0.1301E-01  0.1149E+00  0.4611E-01
     15.144  0.1277E-01  0.1701E+00  0.6809E-01
     15.278  0.2189E-01  0.2225E+00  0.9134E-01
     15.413  0.3127E-01  0.2639E+00  0.1068E+00
     15.547  0.2673E-01  0.2360E+00  0.8482E-01
     15.682  0.2287E-01  0.1921E+00  0.6218E-01
     15.816  0.2012E-01  0.1871E+00  0.6264E-01
     15.951  0.2051E-01  0.2252E+00  0.7903E-01
     16.085  0.1448E-01  0.2017E+00  0.7472E-01
     16.220  0.1020E-01  0.1570E+00  0.6320E-01
     16.354  0.1419E-01  0.2017E+00  0.7894E-01
     16.489  0.1866E-01  0.2066E+00  0.9307E-01
     16.623  0.1948E-01  0.1419E+00  0.7129E-01
     16.758  0.1871E-01  0.1440E+00  0.5422E-01
     16.893  0.1483E-01  0.1762E+00  0.6459E-01
     17.027  0.1046E-01  0.1785E+00  0.7357E-01
     17.162  0.7579E-02  0.1550E+00  0.5742E-01
     17.296  0.4819E-02  0.1267E+00  0.3861E-01
     17.431  0.6175E-02  0.1654E+00  0.6067E-01
     17.565  0.1267E-01  0.2211E+00  0.8297E-01
     17.700  0.1518E-01  0.1747E+00  0.5929E-01
     17.834  0.1668E-01  0.1423E+00  0.5576E-01
     17.969  0.1571E-01  0.1530E+00  0.6555E-01
     18.103  0.1296E-01  0.1484E+00  0.6384E-01
     18.238  0.1159E-01  0.1346E+00  0.6348E-01
     18.372  0.9639E-02  0.1274E+00  0.6992E-01
     18.507  0.7406E-02  0.1177E+00  0.6370E-01
     18.641  0.5658E-02  0.9591E-01  0.3772E-01
     18.776  0.7975E-02  0.1195E+00  0.4260E-01
     18.910  0.7691E-02  0.1143E+00  0.4808E-01
     19.045  0.4689E-02  0.6834E-01  0.3597E-01
     19.180  0.3499E-02  0.9792E-01  0.3925E-01
     19.314  0.1267E-01  0.1660E+00  0.5589E-01
     19.449  0.3205E-01  0.1862E+00  0.8450E-01
     19.583  0.3509E-01  0.1555E+00  0.9716E-01
     19.718  0.2505E-01  0.1611E+00  0.1034E+00
     19.852  0.2116E-01  0.1944E+00  0.1136E+00
     19.987  0.2351E-01  0.1698E+00  0.1120E+00
     20.121  0.3839E-01  0.1612E+00  0.1284E+00
     20.256  0.6501E-01  0.2193E+00  0.1787E+00
     20.390  0.6270E-01  0.2393E+00  0.1826E+00
     20.525  0.3221E-01  0.1957E+00  0.1338E+00
     20.659  0.1600E-01  0.1572E+00  0.9121E-01
     20.794  0.9184E-02  0.1430E+00  0.5845E-01
     20.928  0.5532E-02  0.1414E+00  0.4224E-01
     21.063  0.8469E-02  0.1938E+00  0.5399E-01
     21.197  0.7435E-02  0.2337E+00  0.7409E-01
     21.332  0.7723E-02  0.1961E+00  0.8233E-01
     21.467  0.2225E-01  0.1582E+00  0.1244E+00
     21.601  0.2985E-01  0.1222E+00  0.1600E+00
     21.736  0.1649E-01  0.1139E+00  0.1235E+00
     21.870  0.8218E-02  0.1707E+00  0.1023E+00
     22.005  0.1015E-01  0.1644E+00  0.1204E+00
     22.139  0.9381E-02  0.1081E+00  0.1234E+00
     22.274  0.5910E-02  0.8392E-01  0.7142E-01
     22.408  0.4067E-02  0.7443E-01  0.2391E-01
     22.543  0.5396E-02  0.1050E+00  0.2746E-01
     22.677  0.9918E-02  0.1615E+00  0.3967E-01
     22.812  0.8099E-02  0.1155E+00  0.3494E-01
     22.946  0.1062E-01  0.8825E-01  0.7532E-01
     23.081  0.2680E-01  0.1571E+00  0.1769E+00
     23.215  0.2614E-01  0.1562E+00  0.1611E+00
     23.350  0.1028E-01  0.9441E-01  0.4301E-01
     23.484  0.4919E-02  0.7830E-01  0.2212E-02
     23.619  0.1874E-02  0.6022E-01  0.1103E-01
     23.753  0.5389E-03  0.5077E-01  0.1902E-01
     23.888  0.1296E-02  0.4022E-01  0.1800E-01
     24.023  0.1363E-02  0.6144E-01  0.2124E-01
     24.157  0.2200E-02  0.1040E+00  0.3174E-01
     24.292  0.5461E-02  0.1206E+00  0.4965E-01
     24.426  0.1418E-01  0.1072E+00  0.8466E-01
     24.561  0.2282E-01  0.1025E+00  0.1138E+00
     24.695  0.1728E-01  0.9661E-01  0.8364E-01
     24.830  0.7317E-02  0.5442E-01  0.3553E-01
     24.964  0.3483E-02  0.2055E-01  0.1925E-01
     25.099  0.3118E-02  0.2866E-01  0.3283E-01
     25.233  0.2260E-02  0.4445E-01  0.6238E-01
     25.368  0.1071E-02  0.3459E-01  0.5226E-01
     25.502  0.2047E-02  0.2179E-01  0.3645E-01
     25.637  0.4321E-02  0.3550E-01  0.8667E-01
     25.771  0.4676E-02  0.4966E-01  0.1405E+00
     25.906  0.6817E-02  0.4956E-01  0.1350E+00
     26.040  0.1569E-01  0.6034E-01  0.1414E+00
     26.175  0.1846E-01  0.5774E-01  0.1687E+00
     26.310  0.1446E-01  0.4077E-01  0.2208E+00
     26.444  0.1469E-01  0.5620E-01  0.3001E+00
     26.579  0.1422E-01  0.4966E-01  0.3038E+00
     26.713  0.9680E-02  0.2022E-01  0.1783E+00
     26.848  0.6118E-02  0.3271E-01  0.1240E+00
     26.982  0.4760E-02  0.5678E-01  0.1660E+00
     27.117  0.2208E-02  0.4208E-01  0.1111E+00
     27.251  0.6257E-02  0.2857E-01  0.1014E+00
     27.386  0.1523E-01  0.3451E-01  0.1760E+00
     27.520  0.1894E-01  0.3061E-01  0.1593E+00
     27.655  0.2629E-01  0.2931E-01  0.1435E+00
     27.789  0.3452E-01  0.4181E-01  0.2129E+00
     27.924  0.2670E-01  0.4960E-01  0.2219E+00
     28.058  0.1353E-01  0.3438E-01  0.1299E+00
     28.193  0.1412E-01  0.1793E-01  0.8062E-01
     28.327  0.2501E-01  0.2366E-01  0.1117E+00
     28.462  0.2646E-01  0.3383E-01  0.1401E+00
     28.597  0.1527E-01  0.2625E-01  0.1089E+00
     28.731  0.8637E-02  0.1280E-01  0.7329E-01
     28.866  0.1619E-01  0.1757E-01  0.8507E-01
     29.000  0.1914E-01  0.2290E-01  0.8053E-01
     29.135  0.8334E-02  0.1146E-01  0.4584E-01
     29.269  0.1376E-02  0.2466E-02  0.2879E-01
     29.404  0.5731E-02  0.7398E-02  0.3500E-01
     29.538  0.1486E-01  0.1771E-01  0.5800E-01
     29.673  0.1667E-01  0.1711E-01  0.5729E-01
     29.807  0.7276E-02  0.6120E-02  0.2061E-01
     29.942 -0.3096E-04 -0.3575E-03 -0.1607E-02
     30.076 -0.5416E-03 -0.3451E-03 -0.6429E-03
     30.211  0.2330E-03  0.1244E-02  0.7212E-02
     30.345  0.7492E-03  0.2211E-02  0.1145E-01
     30.480  0.4147E-03  0.1123E-02  0.6711E-02
     30.614  0.5608E-04  0.3242E-03  0.5717E-02
     30.749  0.2287E-03  0.9436E-03  0.9678E-02
     30.883  0.2971E-03  0.1893E-02  0.9856E-02
     31.018  0.1317E-03  0.1742E-02  0.4819E-02
     31.153  0.1592E-04  0.4820E-03  0.4954E-03
     31.287 -0.7378E-05 -0.8502E-04 -0.3667E-03
     31.422 -0.2342E-05 -0.6769E-04 -0.1555E-03
     31.556 -0.1967E-06  0.6937E-04  0.8251E-03
     31.691  0.1194E-07  0.5058E-03  0.3150E-02
     31.825  0.2153E-07  0.5888E-03  0.3147E-02
     31.960  0.5446E-08  0.1429E-03  0.6730E-03
     32.094 -0.1121E-08 -0.3103E-04 -0.1729E-03
     32.229 -0.4108E-09 -0.1093E-04 -0.5492E-04
     32.363 -0.3143E-10 -0.8237E-06 -0.3977E-05
     32.498 -0.8171E-12 -0.2117E-07 -0.9933E-07
     32.632 -0.7936E-14 -0.2037E-09 -0.9334E-09
     32.767 -0.2981E-16 -0.7594E-12 -0.3409E-11
     32.901 -0.4401E-19 -0.1114E-14 -0.4910E-14
     33.036 -0.2946E-22 -0.7474E-18 -0.3319E-17
     33.170  0.0000E+00  0.0000E+00  0.0000E+00
     33.305  0.0000E+00  0.0000E+00  0.0000E+00
     33.440  0.0000E+00  0.0000E+00  0.0000E+00
     33.574  0.0000E+00  0.0000E+00  0.0000E+00
     33.709  0.0000E+00  0.0000E+00  0.0000E+00
