    1    1    1    1
  0.1987675E+02  0.3040559E-09  0.3040559E-09  0.3040559E-09  0.5000000E-15
  1.000000000000000E-004
  CAR 
 fcc Au                                  
     11    110     12
 
  0.5000000E-01  0.5000000E-01  0.5000000E-01  0.2000000E-02
    1       -4.649912   1.000000
    2       -0.298587   1.000000
    3       -0.253537   1.000000
    4       -0.253537   1.000000
    5        0.885391   1.000000
    6        0.885391   1.000000
    7       18.961326   0.000000
    8       21.134112   0.000000
    9       21.850369   0.000000
   10       21.850369   0.000000
   11       26.344152   0.000000
   12       28.367424   0.000000
 
  0.1500000E+00  0.5000000E-01  0.5000000E-01  0.6000000E-02
    1       -4.253566   1.000000
    2       -0.407975   1.000000
    3       -0.145540   1.000000
    4       -0.118820   1.000000
    5        0.782160   1.000000
    6        0.927668   1.000000
    7       18.725327   0.000000
    8       19.480564   0.000000
    9       21.302468   0.000000
   10       22.608586   0.000000
   11       25.340492   0.000000
   12       27.841650   0.000000
 
  0.2500000E+00  0.5000000E-01  0.5000000E-01  0.6000000E-02
    1       -3.383387   1.000000
    2       -0.479323   1.000000
    3       -0.022137   1.000000
    4       -0.008751   1.000000
    5        0.796195   1.000000
    6        1.099541   1.000000
    7       15.195729   0.000000
    8       19.401453   0.000000
    9       21.194045   0.000000
   10       23.221092   0.000000
   11       23.929040   0.000000
   12       25.808890   0.000000
 
  0.3500000E+00  0.5000000E-01  0.5000000E-01  0.6000000E-02
    1       -2.571631   1.000000
    2       -0.154213   1.000000
    3       -0.093783   1.000000
    4        0.111942   1.000000
    5        1.168138   1.000000
    6        1.546071   1.000000
    7       11.345152   0.000000
    8       18.882623   0.000000
    9       20.201794   0.000000
   10       21.984682   0.000000
   11       24.926078   0.000000
   12       25.736225   0.000000
 
  0.4500000E+00  0.5000000E-01  0.5000000E-01  0.6000000E-02
    1       -2.346692   1.000000
    2       -0.272851   1.000000
    3       -0.220713   1.000000
    4        1.337897   1.000000
    5        1.612838   1.000000
    6        2.451389   1.000000
    7        7.792133  -0.000000
    8       18.349703   0.000000
    9       19.410195   0.000000
   10       20.385700   0.000000
   11       26.191097   0.000000
   12       26.282403   0.000000
 
 -0.4500000E+00  0.5000000E-01  0.5000000E-01  0.6000000E-02
    1       -2.335521   1.000000
    2       -0.322875   1.000000
    3       -0.250741   1.000000
    4        1.555927   1.000000
    5        1.824514   1.000000
    6        3.562127   0.733040
    7        6.085538  -0.000000
    8       18.222877   0.000000
    9       19.459592   0.000000
   10       19.599113   0.000000
   11       26.491283   0.000000
   12       26.536186   0.000000
 
 -0.3500000E+00  0.5000000E-01  0.5000000E-01  0.6000000E-02
    1       -2.377083   1.000000
    2       -0.249818   1.000000
    3       -0.167085   1.000000
    4        0.901744   1.000000
    5        1.673104   1.000000
    6        1.904041   1.000000
    7        8.907318  -0.000000
    8       18.597709   0.000000
    9       19.755139   0.000000
   10       20.465863   0.000000
   11       26.131088   0.000000
   12       26.430970   0.000000
 
 -0.2500000E+00  0.5000000E-01  0.5000000E-01  0.6000000E-02
    1       -2.781913   1.000000
    2       -0.257926   1.000000
    3       -0.070625   1.000000
    4       -0.036571   1.000000
    5        1.109187   1.000000
    6        1.296899   1.000000
    7       12.617706   0.000000
    8       19.317474   0.000000
    9       20.484336   0.000000
   10       22.104434   0.000000
   11       24.602244   0.000000
   12       26.356086   0.000000
 
 -0.1500000E+00  0.5000000E-01  0.5000000E-01  0.6000000E-02
    1       -3.705748   1.000000
    2       -0.496419   1.000000
    3       -0.030555   1.000000
    4       -0.022061   1.000000
    5        0.762180   1.000000
    6        1.002358   1.000000
    7       16.474196   0.000000
    8       19.685705   0.000000
    9       21.116186   0.000000
   10       22.903490   0.000000
   11       24.138037   0.000000
   12       26.893279   0.000000
 
 -0.5000000E-01  0.5000000E-01  0.5000000E-01  0.6000000E-02
    1       -4.448701   1.000000
    2       -0.377527   1.000000
    3       -0.178597   1.000000
    4       -0.174769   1.000000
    5        0.798531   1.000000
    6        0.929349   1.000000
    7       19.070153   0.000000
    8       20.250279   0.000000
    9       21.430974   0.000000
   10       21.900186   0.000000
   11       26.428736   0.000000
   12       27.820699   0.000000
 
  0.1500000E+00  0.1500000E+00  0.5000000E-01  0.6000000E-02
    1       -4.056350   1.000000
    2       -0.538142   1.000000
    3       -0.022432   1.000000
    4       -0.019128   1.000000
    5        0.638725   1.000000
    6        1.013812   1.000000
    7       18.959353   0.000000
    8       19.623997   0.000000
    9       20.571584   0.000000
   10       21.420184   0.000000
   11       25.103055   0.000000
   12       27.542668   0.000000
 
  0.2500000E+00  0.1500000E+00  0.5000000E-01  0.1200000E-01
    1       -3.335676   1.000000
    2       -0.720608   1.000000
    3        0.060131   1.000000
    4        0.195872   1.000000
    5        0.608618   1.000000
    6        1.187546   1.000000
    7       16.683883   0.000000
    8       18.482622   0.000000
    9       20.665446   0.000000
   10       21.795864   0.000000
   11       23.072975   0.000000
   12       26.832170   0.000000
 
  0.3500000E+00  0.1500000E+00  0.5000000E-01  0.1200000E-01
    1       -2.429450   1.000000
    2       -0.633126   1.000000
    3       -0.161196   1.000000
    4        0.206822   1.000000
    5        1.125711   1.000000
    6        1.653390   1.000000
    7       12.835795   0.000000
    8       17.872549   0.000000
    9       19.698923   0.000000
   10       21.007617   0.000000
   11       24.608299   0.000000
   12       26.570417   0.000000
 
  0.4500000E+00  0.1500000E+00  0.5000000E-01  0.1200000E-01
    1       -2.061077   1.000000
    2       -0.388694   1.000000
    3        0.038146   1.000000
    4        0.190894   1.000000
    5        1.672821   1.000000
    6        2.722660   1.000000
    7        9.136556   0.000000
    8       17.552127   0.000000
    9       18.319934   0.000000
   10       20.011889   0.000000
   11       26.430726   0.000000
   12       27.313105   0.000000
 
 -0.4500000E+00  0.1500000E+00  0.5000000E-01  0.1200000E-01
    1       -2.032397   1.000000
    2       -0.486322   1.000000
    3       -0.019021   1.000000
    4        0.795175   1.000000
    5        1.788178   1.000000
    6        4.652286  -0.000000
    7        6.137606  -0.000000
    8       17.203705   0.000000
    9       17.842761   0.000000
   10       19.586580   0.000000
   11       26.550694   0.000000
   12       27.739680   0.000000
 
 -0.3500000E+00  0.1500000E+00  0.5000000E-01  0.1200000E-01
    1       -2.024714   1.000000
    2       -0.427654   1.000000
    3        0.000962   1.000000
    4        0.556735   1.000000
    5        1.560475   1.000000
    6        3.355190   1.034163
    7        8.062234  -0.000000
    8       16.716572   0.000000
    9       18.624126   0.000000
   10       20.195428   0.000000
   11       26.019429   0.000000
   12       27.325458   0.000000
 
 -0.2500000E+00  0.1500000E+00  0.5000000E-01  0.1200000E-01
    1       -2.209777   1.000000
    2       -0.414197   1.000000
    3       -0.174727   1.000000
    4        0.145042   1.000000
    5        1.046200   1.000000
    6        2.097070   1.000000
    7       11.588922   0.000000
    8       16.858709   0.000000
    9       19.762861   0.000000
   10       21.784286   0.000000
   11       24.606067   0.000000
   12       26.502100   0.000000
 
 -0.1500000E+00  0.1500000E+00  0.5000000E-01  0.1200000E-01
    1       -3.021558   1.000000
    2       -0.682220   1.000000
    3       -0.015706   1.000000
    4        0.212534   1.000000
    5        0.603383   1.000000
    6        1.395248   1.000000
    7       15.326754   0.000000
    8       17.451838   0.000000
    9       21.298684   0.000000
   10       22.201113   0.000000
   11       24.219619   0.000000
   12       25.627475   0.000000
 
 -0.5000000E-01  0.1500000E+00  0.5000000E-01  0.1200000E-01
    1       -3.873658   1.000000
    2       -0.531195   1.000000
    3       -0.018452   1.000000
    4       -0.013375   1.000000
    5        0.669758   1.000000
    6        1.026448   1.000000
    7       17.758633   0.000000
    8       19.128105   0.000000
    9       20.949549   0.000000
   10       22.645692   0.000000
   11       24.394689   0.000000
   12       27.007775   0.000000
 
  0.2500000E+00  0.2500000E+00  0.5000000E-01  0.6000000E-02
    1       -2.845976   1.000000
    2       -0.994629   1.000000
    3        0.189966   1.000000
    4        0.490442   1.000000
    5        0.645896   1.000000
    6        1.277024   1.000000
    7       17.021895   0.000000
    8       18.046855   0.000000
    9       19.661050   0.000000
   10       20.021232   0.000000
   11       20.640373   0.000000
   12       28.539726   0.000000
 
  0.3500000E+00  0.2500000E+00  0.5000000E-01  0.1200000E-01
    1       -2.123960   1.000000
    2       -1.164615   1.000000
    3        0.002349   1.000000
    4        0.760597   1.000000
    5        1.163897   1.000000
    6        1.667136   1.000000
    7       14.428828   0.000000
    8       16.295631   0.000000
    9       17.863020   0.000000
   10       20.374044   0.000000
   11       21.795239   0.000000
   12       28.472497   0.000000
 
  0.4500000E+00  0.2500000E+00  0.5000000E-01  0.1200000E-01
    1       -1.700576   1.000000
    2       -0.939084   1.000000
    3       -0.181567   1.000000
    4        0.662565   1.000000
    5        1.735048   1.000000
    6        2.934727   1.000007
    7       10.724485   0.000000
    8       15.588697   0.000000
    9       16.314098   0.000000
   10       20.203433   0.000000
   11       24.675784   0.000000
   12       28.158346   0.000000
 
 -0.4500000E+00  0.2500000E+00  0.5000000E-01  0.1200000E-01
    1       -1.603283   1.000000
    2       -0.727124   1.000000
    3       -0.000839   1.000000
    4        0.513313   1.000000
    5        1.815681   1.000000
    6        5.093697  -0.000000
    7        7.483077  -0.000000
    8       14.378830   0.000000
    9       16.379634   0.000000
   10       20.018211   0.000000
   11       27.259700   0.000000
   12       28.307555   0.000000
 
 -0.3500000E+00  0.2500000E+00  0.5000000E-01  0.1200000E-01
    1       -1.472578   1.000000
    2       -0.684009   1.000000
    3        0.036186   1.000000
    4        0.432941   1.000000
    5        1.522131   1.000000
    6        4.948146  -0.000000
    7        7.889709  -0.000000
    8       13.414721   0.000000
    9       17.468266   0.000000
   10       20.221666   0.000000
   11       26.620407   0.000000
   12       28.802873   0.000000
 
 -0.2500000E+00  0.2500000E+00  0.5000000E-01  0.1200000E-01
    1       -1.419419   1.000000
    2       -0.641742   1.000000
    3       -0.411308   1.000000
    4        0.497869   1.000000
    5        1.008669   1.000000
    6        3.281728   1.018976
    7       10.989657   0.000000
    8       13.311951   0.000000
    9       18.870119   0.000000
   10       21.209519   0.000000
   11       24.911465   0.000000
   12       28.449957   0.000000
 
 -0.1500000E+00  0.2500000E+00  0.5000000E-01  0.1200000E-01
    1       -2.094114   1.000000
    2       -0.733347   1.000000
    3       -0.207151   1.000000
    4        0.395907   1.000000
    5        0.710482   1.000000
    6        2.158144   1.000000
    7       12.963857   0.000000
    8       15.370641   0.000000
    9       20.104417   0.000000
   10       22.565680   0.000000
   11       23.560138   0.000000
   12       26.895875   0.000000
 
 -0.5000000E-01  0.2500000E+00  0.5000000E-01  0.1200000E-01
    1       -2.937847   1.000000
    2       -0.532423   1.000000
    3       -0.037484   1.000000
    4        0.067374   1.000000
    5        0.851280   1.000000
    6        1.340626   1.000000
    7       13.983019   0.000000
    8       18.771177   0.000000
    9       20.540218   0.000000
   10       22.627729   0.000000
   11       24.044590   0.000000
   12       25.866651   0.000000
 
  0.3500000E+00  0.3500000E+00  0.5000000E-01  0.6000000E-02
    1       -1.961098   1.000000
    2       -1.459703   1.000000
    3        0.741550   1.000000
    4        1.160209   1.000000
    5        1.561748   1.000000
    6        1.590690   1.000000
    7       14.254195   0.000000
    8       15.519522   0.000000
    9       15.531415   0.000000
   10       19.358340   0.000000
   11       21.130660   0.000000
   12       30.926838   0.000000
 
  0.4500000E+00  0.3500000E+00  0.5000000E-01  0.1200000E-01
    1       -1.815883   1.000000
    2       -1.542315   1.000000
    3        0.755891   1.000000
    4        1.392317   1.000000
    5        1.744143   1.000000
    6        3.053230   1.000231
    7       11.691650   0.000000
    8       13.877735   0.000000
    9       14.540538   0.000000
   10       20.191912   0.000000
   11       21.979964   0.000000
   12       30.292291   0.000000
 
 -0.4500000E+00  0.3500000E+00  0.5000000E-01  0.1200000E-01
    1       -1.680006   1.000000
    2       -1.280428   1.000000
    3        0.477288   1.000000
    4        1.162730   1.000000
    5        1.890780   1.000000
    6        5.321784  -0.000000
    7        8.938455  -0.000000
    8       12.104544   0.000000
    9       14.675160   0.000000
   10       20.459791   0.000000
   11       24.501970   0.000000
   12       29.316545   0.000000
 
 -0.3500000E+00  0.3500000E+00  0.5000000E-01  0.1200000E-01
    1       -1.455827   1.000000
    2       -0.863908   1.000000
    3        0.052153   1.000000
    4        0.913636   1.000000
    5        1.650935   1.000000
    6        6.346843  -0.000000
    7        8.450990  -0.000000
    8       10.551292   0.000000
    9       15.786237   0.000000
   10       20.426352   0.000000
   11       27.652691   0.000000
   12       28.201330   0.000000
 
 -0.2500000E+00  0.3500000E+00  0.5000000E-01  0.1200000E-01
    1       -1.249419   1.000000
    2       -0.633751   1.000000
    3       -0.327633   1.000000
    4        0.643544   1.000000
    5        1.343379   1.000000
    6        4.755410  -0.000000
    7        9.584066   0.000000
    8       11.523894   0.000000
    9       17.398581   0.000000
   10       20.486764   0.000000
   11       26.565155   0.000000
   12       29.131176   0.000000
 
 -0.1500000E+00  0.3500000E+00  0.5000000E-01  0.1200000E-01
    1       -1.733821   1.000000
    2       -0.500328   1.000000
    3       -0.056651   1.000000
    4        0.266265   1.000000
    5        1.283067   1.000000
    6        3.303137   1.023845
    7        9.505192   0.000000
    8       14.965205   0.000000
    9       18.772790   0.000000
   10       20.753467   0.000000
   11       25.423422   0.000000
   12       27.827265   0.000000
 
 -0.5000000E-01  0.3500000E+00  0.5000000E-01  0.1200000E-01
    1       -2.324861   1.000000
    2       -0.245567   1.000000
    3       -0.056559   1.000000
    4        0.242318   1.000000
    5        1.392810   1.000000
    6        1.977694   1.000000
    7       10.183747   0.000000
    8       18.302920   0.000000
    9       19.404019   0.000000
   10       21.031127   0.000000
   11       25.644858   0.000000
   12       26.258004   0.000000
 
  0.4500000E+00  0.4500000E+00  0.5000000E-01  0.6000000E-02
    1       -2.015456   1.000000
    2       -1.770628   1.000000
    3        1.660434   1.000000
    4        1.712182   1.000000
    5        1.914238   1.000000
    6        3.719236   0.131375
    7       10.176947   0.000000
    8       13.460183   0.000000
    9       13.808423   0.000000
   10       19.471796   0.000000
   11       21.545141   0.000000
   12       31.686422   0.000000
 
 -0.4500000E+00  0.4500000E+00  0.5000000E-01  0.1200000E-01
    1       -1.950569   1.000000
    2       -1.729970   1.000000
    3        1.439509   1.000000
    4        1.633567   1.000000
    5        2.025074   1.000000
    6        5.560950  -0.000000
    7        8.422332  -0.000000
    8       12.466903   0.000000
    9       13.408947   0.000000
   10       20.299114   0.000000
   11       22.128141   0.000000
   12       30.870164   0.000000
 
 -0.3500000E+00  0.4500000E+00  0.5000000E-01  0.1200000E-01
    1       -1.717763   1.000000
    2       -1.353759   1.000000
    3        0.702421   1.000000
    4        1.286560   1.000000
    5        1.888321   1.000000
    6        6.697539  -0.000000
    7        7.995191  -0.000000
    8       10.994658   0.000000
    9       14.376278   0.000000
   10       20.560537   0.000000
   11       24.473177   0.000000
   12       29.585106   0.000000
 
 -0.2500000E+00  0.4500000E+00  0.5000000E-01  0.1200000E-01
    1       -1.489255   1.000000
    2       -0.828912   1.000000
    3        0.017781   1.000000
    4        0.744530   1.000000
    5        1.742015   1.000000
    6        6.271920  -0.000000
    7        7.243041  -0.000000
    8       12.390593   0.000000
    9       15.981388   0.000000
   10       20.261346   0.000000
   11       27.513415   0.000000
   12       28.210292   0.000000
 
 -0.1500000E+00  0.4500000E+00  0.5000000E-01  0.1200000E-01
    1       -1.767564   1.000000
    2       -0.608458   1.000000
    3        0.186931   1.000000
    4        0.425126   1.000000
    5        1.696776   1.000000
    6        5.255334  -0.000000
    7        6.387876  -0.000000
    8       15.347223   0.000000
    9       17.614541   0.000000
   10       19.847881   0.000000
   11       26.633071   0.000000
   12       28.324904   0.000000
 
 -0.5000000E-01  0.4500000E+00  0.5000000E-01  0.1200000E-01
    1       -2.230406   1.000000
    2       -0.364511   1.000000
    3       -0.160607   1.000000
    4        1.130677   1.000000
    5        1.758338   1.000000
    6        3.446578   1.005052
    7        6.853077  -0.000000
    8       18.103342   0.000000
    9       18.675901   0.000000
   10       19.757197   0.000000
   11       26.396974   0.000000
   12       26.939286   0.000000
 
 -0.4500000E+00 -0.4500000E+00  0.5000000E-01  0.6000000E-02
    1       -2.069924   1.000000
    2       -1.837176   1.000000
    3        1.745046   1.000000
    4        1.909134   1.000000
    5        2.035052   1.000000
    6        4.985726  -0.000000
    7        8.542670  -0.000000
    8       13.059258   0.000000
    9       13.426086   0.000000
   10       19.545273   0.000000
   11       21.634866   0.000000
   12       31.547006   0.000000
 
 -0.3500000E+00 -0.4500000E+00  0.5000000E-01  0.1200000E-01
    1       -1.893458   1.000000
    2       -1.665858   1.000000
    3        1.170696   1.000000
    4        1.592893   1.000000
    5        1.908497   1.000000
    6        4.279643  -0.000016
    7        9.980669   0.000000
    8       12.930755   0.000000
    9       13.784089   0.000000
   10       20.242584   0.000000
   11       22.075476   0.000000
   12       30.741255   0.000000
 
 -0.2500000E+00 -0.4500000E+00  0.5000000E-01  0.1200000E-01
    1       -1.644761   1.000000
    2       -1.134598   1.000000
    3        0.134421   1.000000
    4        0.932299   1.000000
    5        1.853751   1.000000
    6        4.025594  -0.007268
    7        9.793916   0.000000
    8       13.821291   0.000000
    9       15.274230   0.000000
   10       20.308219   0.000000
   11       24.569059   0.000000
   12       28.818268   0.000000
 
 -0.1500000E+00 -0.4500000E+00  0.5000000E-01  0.1200000E-01
    1       -1.807236   1.000000
    2       -0.563752   1.000000
    3        0.029599   1.000000
    4        0.291602   1.000000
    5        1.806282   1.000000
    6        3.802000  -0.013280
    7        8.218984  -0.000000
    8       16.326788   0.000000
    9       17.016271   0.000000
   10       19.842957   0.000000
   11       26.903477   0.000000
   12       28.294885   0.000000
 
 -0.3500000E+00 -0.3500000E+00  0.5000000E-01  0.6000000E-02
    1       -1.942826   1.000000
    2       -1.641970   1.000000
    3        1.324406   1.000000
    4        1.464309   1.000000
    5        1.748040   1.000000
    6        2.442536   1.000000
    7       12.229936   0.000000
    8       14.246495   0.000000
    9       14.532161   0.000000
   10       19.390493   0.000000
   11       21.370976   0.000000
   12       31.708586   0.000000
 
 -0.2500000E+00 -0.3500000E+00  0.5000000E-01  0.1200000E-01
    1       -1.828341   1.000000
    2       -1.370450   1.000000
    3        0.284155   1.000000
    4        1.086845   1.000000
    5        1.519086   1.000000
    6        2.160703   1.000000
    7       13.172057   0.000000
    8       15.111450   0.000000
    9       15.881274   0.000000
   10       20.214282   0.000000
   11       21.863363   0.000000
   12       29.465982   0.000000
 
 -0.1500000E+00 -0.3500000E+00  0.5000000E-01  0.1200000E-01
    1       -1.968285   1.000000
    2       -0.759180   1.000000
    3       -0.282330   1.000000
    4        0.410149   1.000000
    5        1.492258   1.000000
    6        2.132288   1.000000
    7       11.745262   0.000000
    8       16.813522   0.000000
    9       18.107984   0.000000
   10       20.287926   0.000000
   11       24.756143   0.000000
   12       27.390745   0.000000
 
 -0.2500000E+00 -0.2500000E+00  0.5000000E-01  0.6000000E-02
    1       -2.256832   1.000000
    2       -1.237856   1.000000
    3        0.282333   1.000000
    4        0.819808   1.000000
    5        1.028035   1.000000
    6        1.432155   1.000000
    7       15.789089   0.000000
    8       16.731080   0.000000
    9       17.570682   0.000000
   10       19.441406   0.000000
   11       20.845234   0.000000
   12       29.611278   0.000000
 
 -0.1500000E+00 -0.2500000E+00  0.5000000E-01  0.1200000E-01
    1       -2.702561   1.000000
    2       -0.940749   1.000000
    3        0.006113   1.000000
    4        0.456873   1.000000
    5        0.797065   1.000000
    6        1.394527   1.000000
    7       15.583871   0.000000
    8       17.460762   0.000000
    9       19.914779   0.000000
   10       20.719265   0.000000
   11       22.002028   0.000000
   12       27.521896   0.000000
 
 -0.1500000E+00 -0.1500000E+00  0.5000000E-01  0.6000000E-02
    1       -3.499829   1.000000
    2       -0.752667   1.000000
    3        0.167686   1.000000
    4        0.205546   1.000000
    5        0.495260   1.000000
    6        1.133827   1.000000
    7       18.099409   0.000000
    8       19.378782   0.000000
    9       19.729798   0.000000
   10       20.778642   0.000000
   11       22.669703   0.000000
   12       27.777581   0.000000
 
  0.1500000E+00  0.1500000E+00  0.1500000E+00  0.2000000E-02
    1       -4.067227   1.000000
    2       -0.415196   1.000000
    3       -0.106434   1.000000
    4       -0.106434   1.000000
    5        0.859659   1.000000
    6        0.859659   1.000000
    7       17.639732   0.000000
    8       19.659472   0.000000
    9       22.108089   0.000000
   10       22.108089   0.000000
   11       25.139095   0.000000
   12       27.105542   0.000000
 
  0.2500000E+00  0.1500000E+00  0.1500000E+00  0.6000000E-02
    1       -3.519623   1.000000
    2       -0.568752   1.000000
    3       -0.000254   1.000000
    4        0.053427   1.000000
    5        0.630169   1.000000
    6        1.152469   1.000000
    7       16.511954   0.000000
    8       18.360922   0.000000
    9       21.343586   0.000000
   10       23.153718   0.000000
   11       24.020484   0.000000
   12       26.086884   0.000000
 
  0.3500000E+00  0.1500000E+00  0.1500000E+00  0.6000000E-02
    1       -2.589314   1.000000
    2       -0.680023   1.000000
    3       -0.067430   1.000000
    4        0.274314   1.000000
    5        0.565857   1.000000
    6        1.733533   1.000000
    7       14.087124   0.000000
    8       16.413010   0.000000
    9       21.079913   0.000000
   10       22.821692   0.000000
   11       23.707364   0.000000
   12       26.046757   0.000000
 
  0.4500000E+00  0.1500000E+00  0.1500000E+00  0.6000000E-02
    1       -1.973558   1.000000
    2       -0.392376   1.000000
    3       -0.031704   1.000000
    4        0.123903   1.000000
    5        1.076222   1.000000
    6        2.626553   1.000000
    7       10.477936   0.000000
    8       15.872504   0.000000
    9       19.729559   0.000000
   10       21.208340   0.000000
   11       24.837724   0.000000
   12       27.048699   0.000000
 
 -0.4500000E+00  0.1500000E+00  0.1500000E+00  0.6000000E-02
    1       -1.927400   1.000000
    2       -0.495197   1.000000
    3        0.039711   1.000000
    4        0.632336   1.000000
    5        1.587332   1.000000
    6        4.185295  -0.000237
    7        7.147859  -0.000000
    8       15.973271   0.000000
    9       19.080260   0.000000
   10       19.252010   0.000000
   11       26.569282   0.000000
   12       27.332849   0.000000
 
 -0.3500000E+00  0.1500000E+00  0.1500000E+00  0.6000000E-02
    1       -1.956676   1.000000
    2       -0.511349   1.000000
    3        0.076996   1.000000
    4        0.481829   1.000000
    5        1.846272   1.000000
    6        4.199404  -0.000163
    7        7.010947  -0.000000
    8       16.789954   0.000000
    9       18.150322   0.000000
   10       19.043730   0.000000
   11       27.464596   0.000000
   12       27.504124   0.000000
 
 -0.2500000E+00  0.1500000E+00  0.1500000E+00  0.6000000E-02
    1       -2.039009   1.000000
    2       -0.406019   1.000000
    3       -0.256572   1.000000
    4        0.200345   1.000000
    5        1.735923   1.000000
    6        2.264999   1.000000
    7       10.372758   0.000000
    8       17.962585   0.000000
    9       18.165106   0.000000
   10       19.462431   0.000000
   11       26.412493   0.000000
   12       27.683708   0.000000
 
 -0.1500000E+00  0.1500000E+00  0.1500000E+00  0.6000000E-02
    1       -2.604642   1.000000
    2       -0.835508   1.000000
    3       -0.068710   1.000000
    4        0.298812   1.000000
    5        1.078231   1.000000
    6        1.392368   1.000000
    7       14.198832   0.000000
    8       18.469636   0.000000
    9       19.533645   0.000000
   10       20.317551   0.000000
   11       23.374813   0.000000
   12       27.751359   0.000000
 
  0.2500000E+00  0.2500000E+00  0.1500000E+00  0.6000000E-02
    1       -3.197362   1.000000
    2       -0.649712   1.000000
    3        0.016378   1.000000
    4        0.112016   1.000000
    5        0.780908   1.000000
    6        1.187402   1.000000
    7       15.326549   0.000000
    8       19.654318   0.000000
    9       19.827329   0.000000
   10       22.331265   0.000000
   11       23.382271   0.000000
   12       27.188504   0.000000
 
  0.3500000E+00  0.2500000E+00  0.1500000E+00  0.1200000E-01
    1       -2.436784   1.000000
    2       -0.843959   1.000000
    3       -0.141673   1.000000
    4        0.435812   1.000000
    5        0.773755   1.000000
    6        1.718244   1.000000
    7       14.199250   0.000000
    8       16.438770   0.000000
    9       19.986062   0.000000
   10       21.873475   0.000000
   11       23.419387   0.000000
   12       26.420347   0.000000
 
  0.4500000E+00  0.2500000E+00  0.1500000E+00  0.1200000E-01
    1       -1.620682   1.000000
    2       -0.817251   1.000000
    3       -0.430037   1.000000
    4        0.621831   1.000000
    5        1.005414   1.000000
    6        2.695043   1.000000
    7       11.952004   0.000000
    8       14.346327   0.000000
    9       18.408414   0.000000
   10       22.255600   0.000000
   11       23.930762   0.000000
   12       27.324486   0.000000
 
 -0.4500000E+00  0.2500000E+00  0.1500000E+00  0.1200000E-01
    1       -1.494479   1.000000
    2       -0.675363   1.000000
    3       -0.153735   1.000000
    4        0.473170   1.000000
    5        1.520437   1.000000
    6        4.210282  -0.000121
    7        8.680356  -0.000000
    8       14.145486   0.000000
    9       16.992604   0.000000
   10       21.150317   0.000000
   11       25.684189   0.000000
   12       28.956778   0.000000
 
 -0.3500000E+00  0.2500000E+00  0.1500000E+00  0.1200000E-01
    1       -1.547454   1.000000
    2       -0.741870   1.000000
    3        0.108578   1.000000
    4        0.417013   1.000000
    5        1.729799   1.000000
    6        5.770015  -0.000000
    7        6.562404  -0.000000
    8       14.648415   0.000000
    9       16.059610   0.000000
   10       20.755195   0.000000
   11       26.324624   0.000000
   12       29.595335   0.000000
 
 -0.2500000E+00  0.2500000E+00  0.1500000E+00  0.1200000E-01
    1       -1.586871   1.000000
    2       -0.657901   1.000000
    3       -0.370555   1.000000
    4        0.568100   1.000000
    5        1.617385   1.000000
    6        3.549498   0.777977
    7        9.621104   0.000000
    8       14.938723   0.000000
    9       16.577399   0.000000
   10       21.027275   0.000000
   11       25.626745   0.000000
   12       27.705382   0.000000
 
 -0.1500000E+00  0.2500000E+00  0.1500000E+00  0.1200000E-01
    1       -1.888065   1.000000
    2       -1.019691   1.000000
    3       -0.268240   1.000000
    4        0.712118   1.000000
    5        1.091540   1.000000
    6        2.151316   1.000000
    7       13.106745   0.000000
    8       15.379298   0.000000
    9       18.095054   0.000000
   10       21.602009   0.000000
   11       23.107950   0.000000