       N       E                     dE             d eps       ncg     rms          rms(c)
DAV:   1     0.303142149387E+02    0.30314E+02   -0.34955E+03  3208   0.418E+02
DAV:   2    -0.412283483703E+01   -0.34437E+02   -0.31666E+02  3068   0.141E+02
DAV:   3    -0.447031588275E+01   -0.34748E+00   -0.34724E+00  3184   0.144E+01
DAV:   4    -0.447117848977E+01   -0.86261E-03   -0.86258E-03  3116   0.771E-01
DAV:   5    -0.447118462720E+01   -0.61374E-05   -0.61375E-05  2900   0.646E-02    0.304E+00
DAV:   6    -0.417388645951E+01    0.29730E+00   -0.99701E-01  3120   0.920E+00    0.666E-01
DAV:   7    -0.416083557183E+01    0.13051E-01   -0.27168E-02  3228   0.120E+00    0.311E-01
DAV:   8    -0.415724042115E+01    0.35952E-02   -0.15404E-03  3004   0.418E-01    0.128E-02
DAV:   9    -0.415724307492E+01   -0.26538E-05   -0.10161E-05  1712   0.206E-02
   1 F= -.41572431E+01 E0= -.41575203E+01  d E =0.831778E-03
