 vasp.5.4.4.18Apr17-6-g9f103f2a35 (build May 18 2018 14:42:58) complex          
  
 executed on             LinuxIFC date 2020.06.30  13:41:17
 running on    4 total cores
 distrk:  each k-point on    4 cores,    1 groups
 distr:  one band on NCORES_PER_BAND=   1 cores,    4 groups


--------------------------------------------------------------------------------------------------------


 INCAR:
 POTCAR:   PAW Au 04Feb1998                       
 POTCAR:   PAW Au 04Feb1998                       
   VRHFIN =Au: s1d10                                                            
   LEXCH  = CA                                                                  
   EATOM  =   929.4667 eV,   68.3139 Ry                                         
                                                                                
   TITEL  = PAW Au 04Feb1998                                                    
   LULTRA =        F    use ultrasoft PP ?                                      
   IUNSCR =        1    unscreen: 0-lin 1-nonlin 2-no                           
   RPACOR =    2.330    partial core radius                                     
   POMASS =  196.966; ZVAL   =   11.000    mass and valenz                      
   RCORE  =    2.500    outmost cutoff radius                                   
   RWIGS  =    2.840; RWIGS  =    1.503    wigner-seitz radius (au A)           
   ENMAX  =  229.869; ENMIN  =  172.402 eV                                      
   RCLOC  =    1.964    cutoff for local pot                                    
   LCOR   =        T    correct aug charges                                     
   LPAW   =        T    paw PP                                                  
   EAUG   =  356.670                                                            
   DEXC   =    -.020                                                            
   RMAX   =    3.041    core radius for proj-oper                               
   RDEP   =    2.598    core radius for depl-charge                             
   QCUT   =   -4.110; QGAM   =    8.221    optimization parameters              
                                                                                
   Description                                                                  
     l     E      TYP  RCUT    TYP  RCUT                                        
     2   .000     23  2.500                                                     
     2   .000     23  2.500                                                     
     0   .000     23  2.500                                                     
     0   .000     23  2.500                                                     
     1  -.200     23  2.500                                                     
     1   .000     23  2.500                                                     
     3   .000      7   .000                                                     
  local pseudopotential read in
  partial core-charges read in
  atomic valenz-charges read in
  non local Contribution for L=           2  read in
    real space projection operators read in
  non local Contribution for L=           2  read in
    real space projection operators read in
  non local Contribution for L=           0  read in
    real space projection operators read in
  non local Contribution for L=           0  read in
    real space projection operators read in
  non local Contribution for L=           1  read in
    real space projection operators read in
  non local Contribution for L=           1  read in
    real space projection operators read in
    PAW grid and wavefunctions read in
 
   number of l-projection  operators is LMAX  =           6
   number of lm-projection operators is LMMAX =          18
 
 PAW Au 04Feb1998                       :
 energy of atom  1       EATOM= -929.4667
 kinetic energy error for atom=    0.0706 (will be added to EATOM!!)
 
 
 POSCAR: FCC Au Bulk                             
  positions in direct lattice
  No initial velocities read in
 exchange correlation table for  LEXCH =        2
   RHO(1)=    0.500       N(1)  =     2000
   RHO(2)=  100.500       N(2)  =     4000
 


--------------------------------------------------------------------------------------------------------


 ion  position               nearest neighbor table
   1  0.000  0.000  0.000-
 
  LATTYP: Found a face centered cubic cell.
 ALAT       =     4.3000000000
  
  Lattice vectors:
  
 A1 = (   0.0000000000,   2.1500000000,   2.1500000000)
 A2 = (   2.1500000000,   0.0000000000,   2.1500000000)
 A3 = (   2.1500000000,   2.1500000000,   0.0000000000)


Analysis of symmetry for initial positions (statically):
=====================================================================
 Subroutine PRICEL returns:
 Original cell was already a primitive cell.
 

 Routine SETGRP: Setting up the symmetry group for a 
 face centered cubic supercell.


 Subroutine GETGRP returns: Found 48 space group operations
 (whereof 48 operations were pure point group operations)
 out of a pool of 48 trial point group operations.


The static configuration has the point symmetry O_h .


Analysis of symmetry for dynamics (positions and initial velocities):
=====================================================================
 Subroutine PRICEL returns:
 Original cell was already a primitive cell.
 

 Routine SETGRP: Setting up the symmetry group for a 
 face centered cubic supercell.


 Subroutine GETGRP returns: Found 48 space group operations
 (whereof 48 operations were pure point group operations)
 out of a pool of 48 trial point group operations.


The dynamic configuration has the point symmetry O_h .


 Subroutine INISYM returns: Found 48 space group operations
 (whereof 48 operations are pure point group operations),
 and found     1 'primitive' translations

 
 
 KPOINTS: 10x10x10                                

Automatic generation of k-mesh.
Space group operators:
 irot       det(A)        alpha          n_x          n_y          n_z        tau_x        tau_y        tau_z
    1     1.000000     0.000000     1.000000     0.000000     0.000000     0.000000     0.000000     0.000000
    2    -1.000000     0.000000     1.000000     0.000000     0.000000     0.000000     0.000000     0.000000
    3     1.000000   120.000000    -0.577350    -0.577350    -0.577350     0.000000     0.000000     0.000000
    4    -1.000000   120.000000    -0.577350    -0.577350    -0.577350     0.000000     0.000000     0.000000
    5     1.000000   120.000000     0.577350     0.577350     0.577350     0.000000     0.000000     0.000000
    6    -1.000000   120.000000     0.577350     0.577350     0.577350     0.000000     0.000000     0.000000
    7     1.000000    90.000000     0.000000     0.000000    -1.000000     0.000000     0.000000     0.000000
    8    -1.000000    90.000000     0.000000     0.000000    -1.000000     0.000000     0.000000     0.000000
    9     1.000000   180.000000     0.000000     0.707107     0.707107     0.000000     0.000000     0.000000
   10    -1.000000   180.000000     0.000000     0.707107     0.707107     0.000000     0.000000     0.000000
   11     1.000000    90.000000     0.000000     1.000000     0.000000     0.000000     0.000000     0.000000
   12    -1.000000    90.000000     0.000000     1.000000     0.000000     0.000000     0.000000     0.000000
   13     1.000000   180.000000     0.000000     0.000000     1.000000     0.000000     0.000000     0.000000
   14    -1.000000   180.000000     0.000000     0.000000     1.000000     0.000000     0.000000     0.000000
   15     1.000000   120.000000    -0.577350     0.577350     0.577350     0.000000     0.000000     0.000000
   16    -1.000000   120.000000    -0.577350     0.577350     0.577350     0.000000     0.000000     0.000000
   17     1.000000   120.000000    -0.577350     0.577350    -0.577350     0.000000     0.000000     0.000000
   18    -1.000000   120.000000    -0.577350     0.577350    -0.577350     0.000000     0.000000     0.000000
   19     1.000000    90.000000     0.000000     0.000000     1.000000     0.000000     0.000000     0.000000
   20    -1.000000    90.000000     0.000000     0.000000     1.000000     0.000000     0.000000     0.000000
   21     1.000000    90.000000    -1.000000     0.000000     0.000000     0.000000     0.000000     0.000000
   22    -1.000000    90.000000    -1.000000     0.000000     0.000000     0.000000     0.000000     0.000000
   23     1.000000   180.000000     0.707107     0.000000     0.707107     0.000000     0.000000     0.000000
   24    -1.000000   180.000000     0.707107     0.000000     0.707107     0.000000     0.000000     0.000000
   25     1.000000   120.000000     0.577350    -0.577350     0.577350     0.000000     0.000000     0.000000
   26    -1.000000   120.000000     0.577350    -0.577350     0.577350     0.000000     0.000000     0.000000
   27     1.000000   120.000000    -0.577350    -0.577350     0.577350     0.000000     0.000000     0.000000
   28    -1.000000   120.000000    -0.577350    -0.577350     0.577350     0.000000     0.000000     0.000000
   29     1.000000   180.000000     1.000000     0.000000     0.000000     0.000000     0.000000     0.000000
   30    -1.000000   180.000000     1.000000     0.000000     0.000000     0.000000     0.000000     0.000000
   31     1.000000    90.000000     0.000000    -1.000000     0.000000     0.000000     0.000000     0.000000
   32    -1.000000    90.000000     0.000000    -1.000000     0.000000     0.000000     0.000000     0.000000
   33     1.000000   180.000000     0.707107     0.707107     0.000000     0.000000     0.000000     0.000000
   34    -1.000000   180.000000     0.707107     0.707107     0.000000     0.000000     0.000000     0.000000
   35     1.000000    90.000000     1.000000     0.000000     0.000000     0.000000     0.000000     0.000000
   36    -1.000000    90.000000     1.000000     0.000000     0.000000     0.000000     0.000000     0.000000
   37     1.000000   120.000000     0.577350    -0.577350    -0.577350     0.000000     0.000000     0.000000
   38    -1.000000   120.000000     0.577350    -0.577350    -0.577350     0.000000     0.000000     0.000000
   39     1.000000   180.000000     0.000000     1.000000     0.000000     0.000000     0.000000     0.000000
   40    -1.000000   180.000000     0.000000     1.000000     0.000000     0.000000     0.000000     0.000000
   41     1.000000   120.000000     0.577350     0.577350    -0.577350     0.000000     0.000000     0.000000
   42    -1.000000   120.000000     0.577350     0.577350    -0.577350     0.000000     0.000000     0.000000
   43     1.000000   180.000000     0.000000    -0.707107     0.707107     0.000000     0.000000     0.000000
   44    -1.000000   180.000000     0.000000    -0.707107     0.707107     0.000000     0.000000     0.000000
   45     1.000000   180.000000     0.707107    -0.707107     0.000000     0.000000     0.000000     0.000000
   46    -1.000000   180.000000     0.707107    -0.707107     0.000000     0.000000     0.000000     0.000000
   47     1.000000   180.000000     0.707107     0.000000    -0.707107     0.000000     0.000000     0.000000
   48    -1.000000   180.000000     0.707107     0.000000    -0.707107     0.000000     0.000000     0.000000
 
 Subroutine IBZKPT returns following result:
 ===========================================
 
 Found    110 irreducible k-points:
 
 Following reciprocal coordinates:
            Coordinates               Weight
  0.050000  0.050000  0.050000     96.000000
  0.150000  0.050000  0.050000    288.000000
  0.250000  0.050000  0.050000    288.000000
  0.350000  0.050000  0.050000    288.000000
  0.450000  0.050000  0.050000    288.000000
 -0.450000  0.050000  0.050000    288.000000
 -0.350000  0.050000  0.050000    288.000000
 -0.250000  0.050000  0.050000    288.000000
 -0.150000  0.050000  0.050000    288.000000
 -0.050000  0.050000  0.050000    288.000000
  0.150000  0.150000  0.050000    288.000000
  0.250000  0.150000  0.050000    576.000000
  0.350000  0.150000  0.050000    576.000000
  0.450000  0.150000  0.050000    576.000000
 -0.450000  0.150000  0.050000    576.000000
 -0.350000  0.150000  0.050000    576.000000
 -0.250000  0.150000  0.050000    576.000000
 -0.150000  0.150000  0.050000    576.000000
 -0.050000  0.150000  0.050000    576.000000
  0.250000  0.250000  0.050000    288.000000
  0.350000  0.250000  0.050000    576.000000
  0.450000  0.250000  0.050000    576.000000
 -0.450000  0.250000  0.050000    576.000000
 -0.350000  0.250000  0.050000    576.000000
 -0.250000  0.250000  0.050000    576.000000
 -0.150000  0.250000  0.050000    576.000000
 -0.050000  0.250000  0.050000    576.000000
  0.350000  0.350000  0.050000    288.000000
  0.450000  0.350000  0.050000    576.000000
 -0.450000  0.350000  0.050000    576.000000
 -0.350000  0.350000  0.050000    576.000000
 -0.250000  0.350000  0.050000    576.000000
 -0.150000  0.350000  0.050000    576.000000
 -0.050000  0.350000  0.050000    576.000000
  0.450000  0.450000  0.050000    288.000000
 -0.450000  0.450000  0.050000    576.000000
 -0.350000  0.450000  0.050000    576.000000
 -0.250000  0.450000  0.050000    576.000000
 -0.150000  0.450000  0.050000    576.000000
 -0.050000  0.450000  0.050000    576.000000
 -0.450000 -0.450000  0.050000    288.000000
 -0.350000 -0.450000  0.050000    576.000000
 -0.250000 -0.450000  0.050000    576.000000
 -0.150000 -0.450000  0.050000    576.000000
 -0.350000 -0.350000  0.050000    288.000000
 -0.250000 -0.350000  0.050000    576.000000
 -0.150000 -0.350000  0.050000    576.000000
 -0.250000 -0.250000  0.050000    288.000000
 -0.150000 -0.250000  0.050000    576.000000
 -0.150000 -0.150000  0.050000    288.000000
  0.150000  0.150000  0.150000     96.000000
  0.250000  0.150000  0.150000    288.000000
  0.350000  0.150000  0.150000    288.000000
  0.450000  0.150000  0.150000    288.000000
 -0.450000  0.150000  0.150000    288.000000
 -0.350000  0.150000  0.150000    288.000000
 -0.250000  0.150000  0.150000    288.000000
 -0.150000  0.150000  0.150000    288.000000
  0.250000  0.250000  0.150000    288.000000
  0.350000  0.250000  0.150000    576.000000
  0.450000  0.250000  0.150000    576.000000
 -0.450000  0.250000  0.150000    576.000000
 -0.350000  0.250000  0.150000    576.000000
 -0.250000  0.250000  0.150000    576.000000
 -0.150000  0.250000  0.150000    576.000000
  0.350000  0.350000  0.150000    288.000000
  0.450000  0.350000  0.150000    576.000000
 -0.450000  0.350000  0.150000    576.000000
 -0.350000  0.350000  0.150000    576.000000
 -0.250000  0.350000  0.150000    576.000000
 -0.150000  0.350000  0.150000    576.000000
  0.450000  0.450000  0.150000    288.000000
 -0.450000  0.450000  0.150000    576.000000
 -0.350000  0.450000  0.150000    576.000000
 -0.250000  0.450000  0.150000    576.000000
 -0.150000  0.450000  0.150000    576.000000
 -0.450000 -0.450000  0.150000    288.000000
 -0.350000 -0.450000  0.150000    576.000000
 -0.250000 -0.450000  0.150000    576.000000
 -0.350000 -0.350000  0.150000    288.000000
 -0.250000 -0.350000  0.150000    576.000000
 -0.250000 -0.250000  0.150000    288.000000
  0.250000  0.250000  0.250000     96.000000
  0.350000  0.250000  0.250000    288.000000
  0.450000  0.250000  0.250000    288.000000
 -0.450000  0.250000  0.250000    288.000000
 -0.350000  0.250000  0.250000    288.000000
 -0.250000  0.250000  0.250000    288.000000
  0.350000  0.350000  0.250000    288.000000
  0.450000  0.350000  0.250000    576.000000
 -0.450000  0.350000  0.250000    576.000000
 -0.350000  0.350000  0.250000    576.000000
 -0.250000  0.350000  0.250000    576.000000
  0.450000  0.450000  0.250000    288.000000
 -0.450000  0.450000  0.250000    576.000000
 -0.350000  0.450000  0.250000    576.000000
 -0.250000  0.450000  0.250000    576.000000
 -0.450000 -0.450000  0.250000    288.000000
 -0.350000 -0.450000  0.250000    576.000000
 -0.350000 -0.350000  0.250000    288.000000
  0.350000  0.350000  0.350000     96.000000
  0.450000  0.350000  0.350000    288.000000
 -0.450000  0.350000  0.350000    288.000000
 -0.350000  0.350000  0.350000    288.000000
  0.450000  0.450000  0.350000    288.000000
 -0.450000  0.450000  0.350000    576.000000
 -0.350000  0.450000  0.350000    576.000000
 -0.450000 -0.450000  0.350000    288.000000
  0.450000  0.450000  0.450000     96.000000
 -0.450000  0.450000  0.450000    288.000000
 
 Following cartesian coordinates:
            Coordinates               Weight
  0.050000  0.050000  0.050000     96.000000
 -0.050000  0.150000  0.150000    288.000000
 -0.150000  0.250000  0.250000    288.000000
 -0.250000  0.350000  0.350000    288.000000
 -0.350000  0.450000  0.450000    288.000000
  0.550000 -0.450000 -0.450000    288.000000
  0.450000 -0.350000 -0.350000    288.000000
  0.350000 -0.250000 -0.250000    288.000000
  0.250000 -0.150000 -0.150000    288.000000
  0.150000 -0.050000 -0.050000    288.000000
  0.050000  0.050000  0.250000    288.000000
 -0.050000  0.150000  0.350000    576.000000
 -0.150000  0.250000  0.450000    576.000000
 -0.250000  0.350000  0.550000    576.000000
  0.650000 -0.550000 -0.350000    576.000000
  0.550000 -0.450000 -0.250000    576.000000
  0.450000 -0.350000 -0.150000    576.000000
  0.350000 -0.250000 -0.050000    576.000000
  0.250000 -0.150000  0.050000    576.000000
  0.050000  0.050000  0.450000    288.000000
 -0.050000  0.150000  0.550000    576.000000
 -0.150000  0.250000  0.650000    576.000000
  0.750000 -0.650000 -0.250000    576.000000
  0.650000 -0.550000 -0.150000    576.000000
  0.550000 -0.450000 -0.050000    576.000000
  0.450000 -0.350000  0.050000    576.000000
  0.350000 -0.250000  0.150000    576.000000
  0.050000  0.050000  0.650000    288.000000
 -0.050000  0.150000  0.750000    576.000000
  0.850000 -0.750000 -0.150000    576.000000
  0.750000 -0.650000 -0.050000    576.000000
  0.650000 -0.550000  0.050000    576.000000
  0.550000 -0.450000  0.150000    576.000000
  0.450000 -0.350000  0.250000    576.000000
  0.050000  0.050000  0.850000    288.000000
  0.950000 -0.850000 -0.050000    576.000000
  0.850000 -0.750000  0.050000    576.000000
  0.750000 -0.650000  0.150000    576.000000
  0.650000 -0.550000  0.250000    576.000000
  0.550000 -0.450000  0.350000    576.000000
  0.050000  0.050000 -0.950000    288.000000
 -0.050000  0.150000 -0.850000    576.000000
 -0.150000  0.250000 -0.750000    576.000000
 -0.250000  0.350000 -0.650000    576.000000
  0.050000  0.050000 -0.750000    288.000000
 -0.050000  0.150000 -0.650000    576.000000
 -0.150000  0.250000 -0.550000    576.000000
  0.050000  0.050000 -0.550000    288.000000
 -0.050000  0.150000 -0.450000    576.000000
  0.050000  0.050000 -0.350000    288.000000
  0.150000  0.150000  0.150000     96.000000
  0.050000  0.250000  0.250000    288.000000
 -0.050000  0.350000  0.350000    288.000000
 -0.150000  0.450000  0.450000    288.000000
  0.750000 -0.450000 -0.450000    288.000000
  0.650000 -0.350000 -0.350000    288.000000
  0.550000 -0.250000 -0.250000    288.000000
  0.450000 -0.150000 -0.150000    288.000000
  0.150000  0.150000  0.350000    288.000000
  0.050000  0.250000  0.450000    576.000000
 -0.050000  0.350000  0.550000    576.000000
  0.850000 -0.550000 -0.350000    576.000000
  0.750000 -0.450000 -0.250000    576.000000
  0.650000 -0.350000 -0.150000    576.000000
  0.550000 -0.250000 -0.050000    576.000000
  0.150000  0.150000  0.550000    288.000000
  0.050000  0.250000  0.650000    576.000000
  0.950000 -0.650000 -0.250000    576.000000
  0.850000 -0.550000 -0.150000    576.000000
  0.750000 -0.450000 -0.050000    576.000000
  0.650000 -0.350000  0.050000    576.000000
  0.150000  0.150000  0.750000    288.000000
  1.050000 -0.750000 -0.150000    576.000000
  0.950000 -0.650000 -0.050000    576.000000
  0.850000 -0.550000  0.050000    576.000000
  0.750000 -0.450000  0.150000    576.000000
  0.150000  0.150000 -1.050000    288.000000
  0.050000  0.250000 -0.950000    576.000000
 -0.050000  0.350000 -0.850000    576.000000
  0.150000  0.150000 -0.850000    288.000000
  0.050000  0.250000 -0.750000    576.000000
  0.150000  0.150000 -0.650000    288.000000
  0.250000  0.250000  0.250000     96.000000
  0.150000  0.350000  0.350000    288.000000
  0.050000  0.450000  0.450000    288.000000
  0.950000 -0.450000 -0.450000    288.000000
  0.850000 -0.350000 -0.350000    288.000000
  0.750000 -0.250000 -0.250000    288.000000
  0.250000  0.250000  0.450000    288.000000
  0.150000  0.350000  0.550000    576.000000
  1.050000 -0.550000 -0.350000    576.000000
  0.950000 -0.450000 -0.250000    576.000000
  0.850000 -0.350000 -0.150000    576.000000
  0.250000  0.250000  0.650000    288.000000
  1.150000 -0.650000 -0.250000    576.000000
  1.050000 -0.550000 -0.150000    576.000000
  0.950000 -0.450000 -0.050000    576.000000
  0.250000  0.250000 -1.150000    288.000000
  0.150000  0.350000 -1.050000    576.000000
  0.250000  0.250000 -0.950000    288.000000
  0.350000  0.350000  0.350000     96.000000
  0.250000  0.450000  0.450000    288.000000
  1.150000 -0.450000 -0.450000    288.000000
  1.050000 -0.350000 -0.350000    288.000000
  0.350000  0.350000  0.550000    288.000000
  1.250000 -0.550000 -0.350000    576.000000
  1.150000 -0.450000 -0.250000    576.000000
  0.350000  0.350000 -1.250000    288.000000
  0.450000  0.450000  0.450000     96.000000
  1.350000 -0.450000 -0.450000    288.000000
 


--------------------------------------------------------------------------------------------------------




 Dimension of arrays:
   k-points           NKPTS =    110   k-points in BZ     NKDIM =    110   number of bands    NBANDS=     12
   number of dos      NEDOS =    301   number of ions     NIONS =      1
   non local maximal  LDIM  =      6   non local SUM 2l+1 LMDIM =     18
   total plane-waves  NPLWV =   1728
   max r-space proj   IRMAX =      1   max aug-charges    IRDMAX=   5515
   dimension x,y,z NGX =    12 NGY =   12 NGZ =   12
   dimension x,y,z NGXF=    24 NGYF=   24 NGZF=   24
   support grid    NGXF=    24 NGYF=   24 NGZF=   24
   ions per type =               1
   NGX,Y,Z   is equivalent  to a cutoff of   6.56,  6.56,  6.56 a.u.
   NGXF,Y,Z  is equivalent  to a cutoff of  13.12, 13.12, 13.12 a.u.

 SYSTEM =  fcc Au                                  
 POSCAR =  FCC Au Bulk                             

 Startparameter for this run:
   NWRITE =      2    write-flag & timer
   PREC   = normal    normal or accurate (medium, high low for compatibility)
   ISTART =      0    job   : 0-new  1-cont  2-samecut
   ICHARG =      2    charge: 1-file 2-atom 10-const
   ISPIN  =      1    spin polarized calculation?
   LNONCOLLINEAR =      F non collinear calculations
   LSORBIT =      F    spin-orbit coupling
   INIWAV =      1    electr: 0-lowe 1-rand  2-diag
   LASPH  =      F    aspherical Exc in radial PAW
   METAGGA=      F    non-selfconsistent MetaGGA calc.

 Electronic Relaxation 1
   ENCUT  =  229.9 eV  16.89 Ry    4.11 a.u.   3.76  3.76  3.76*2*pi/ulx,y,z
   ENINI  =  229.9     initial cutoff
   ENAUG  =  356.7 eV  augmentation charge cutoff
   NELM   =     60;   NELMIN=  2; NELMDL= -5     # of ELM steps 
   EDIFF  = 0.1E-03   stopping-criterion for ELM
   LREAL  =      F    real-space projection
   NLSPLINE    = F    spline interpolate recip. space projectors
   LCOMPAT=      F    compatible to vasp.4.4
   GGA_COMPAT  = T    GGA compatible to vasp.4.4-vasp.4.6
   LMAXPAW     = -100 max onsite density
   LMAXMIX     =    2 max onsite mixed and CHGCAR
   VOSKOWN=      0    Vosko Wilk Nusair interpolation
   ROPT   =    0.00000
 Ionic relaxation
   EDIFFG = 0.1E-02   stopping-criterion for IOM
   NSW    =      0    number of steps for IOM
   NBLOCK =      1;   KBLOCK =      1    inner block; outer block 
   IBRION =     -1    ionic relax: 0-MD 1-quasi-New 2-CG
   NFREE  =      0    steps in history (QN), initial steepest desc. (CG)
   ISIF   =      2    stress and relaxation
   IWAVPR =     10    prediction:  0-non 1-charg 2-wave 3-comb
   ISYM   =      2    0-nonsym 1-usesym 2-fastsym
   LCORR  =      T    Harris-Foulkes like correction to forces

   POTIM  = 0.5000    time-step for ionic-motion
   TEIN   =    0.0    initial temperature
   TEBEG  =    0.0;   TEEND  =   0.0 temperature during run
   SMASS  =  -3.00    Nose mass-parameter (am)
   estimated Nose-frequenzy (Omega)   =  0.10E-29 period in steps =****** mass=  -0.211E-27a.u.
   SCALEE = 1.0000    scale energy and forces
   NPACO  =    256;   APACO  = 16.0  distance and # of slots for P.C.
   PSTRESS=    0.0 pullay stress

  Mass of Ions in am
   POMASS = 196.97
  Ionic Valenz
   ZVAL   =  11.00
  Atomic Wigner-Seitz radii
   RWIGS  =   1.50
  virtual crystal weights 
   VCA    =   1.00
   NELECT =      11.0000    total number of electrons
   NUPDOWN=      -1.0000    fix difference up-down

 DOS related values:
   EMIN   =  10.00;   EMAX   =-10.00  energy-range for DOS
   EFERMI =   0.00
   ISMEAR =     1;   SIGMA  =   0.20  broadening in eV -4-tet -1-fermi 0-gaus

 Electronic relaxation 2 (details)
   IALGO  =     38    algorithm
   LDIAG  =      T    sub-space diagonalisation (order eigenvalues)
   LSUBROT=      F    optimize rotation matrix (better conditioning)
   TURBO    =      0    0=normal 1=particle mesh
   IRESTART =      0    0=no restart 2=restart with 2 vectors
   NREBOOT  =      0    no. of reboots
   NMIN     =      0    reboot dimension
   EREF     =   0.00    reference energy to select bands
   IMIX   =      4    mixing-type and parameters
     AMIX     =   0.40;   BMIX     =  1.00
     AMIX_MAG =   1.60;   BMIX_MAG =  1.00
     AMIN     =   0.10
     WC   =   100.;   INIMIX=   1;  MIXPRE=   1;  MAXMIX= -45

 Intra band minimization:
   WEIMIN = 0.0000     energy-eigenvalue tresh-hold
   EBREAK =  0.21E-05  absolut break condition
   DEPER  =   0.30     relativ break condition  

   TIME   =   0.40     timestep for ELM

  volume/ion in A,a.u.               =      19.88       134.13
  Fermi-wavevector in a.u.,A,eV,Ry     =   1.344076  2.539936 24.579485  1.806541
  Thomas-Fermi vector in A             =   2.472099
 
 Write flags
   LWAVE        =      T    write WAVECAR
   LDOWNSAMPLE  =      F    k-point downsampling of WAVECAR
   LCHARG       =      T    write CHGCAR
   LVTOT        =      F    write LOCPOT, total local potential
   LVHAR        =      F    write LOCPOT, Hartree potential only
   LELF         =      F    write electronic localiz. function (ELF)
   LORBIT       =      0    0 simple, 1 ext, 2 COOP (PROOUT), +10 PAW based schemes


 Dipole corrections
   LMONO  =      F    monopole corrections only (constant potential shift)
   LDIPOL =      F    correct potential (dipole corrections)
   IDIPOL =      0    1-x, 2-y, 3-z, 4-all directions 
   EPSILON=  1.0000000 bulk dielectric constant

 Exchange correlation treatment:
   GGA     =    --    GGA type
   LEXCH   =     2    internal setting for exchange type
   VOSKOWN=      0    Vosko Wilk Nusair interpolation
   LHFCALC =     F    Hartree Fock is set to
   LHFONE  =     F    Hartree Fock one center treatment
   AEXX    =    0.0000 exact exchange contribution

 Linear response parameters
   LEPSILON=     F    determine dielectric tensor
   LRPA    =     F    only Hartree local field effects (RPA)
   LNABLA  =     F    use nabla operator in PAW spheres
   LVEL    =     F    velocity operator in full k-point grid
   LINTERFAST=   F  fast interpolation
   KINTER  =     0    interpolate to denser k-point grid
   CSHIFT  =0.1000    complex shift for real part using Kramers Kronig
   OMEGAMAX=  -1.0    maximum frequency
   DEG_THRESHOLD= 0.2000000E-02 threshold for treating states as degnerate
   RTIME   =   -0.100 relaxation time in fs
  (WPLASMAI=    0.000 imaginary part of plasma frequency in eV, 0.658/RTIME)
   DFIELD  = 0.0000000 0.0000000 0.0000000 field for delta impulse in time
 
 Orbital magnetization related:
   ORBITALMAG=     F  switch on orbital magnetization
   LCHIMAG   =     F  perturbation theory with respect to B field
   DQ        =  0.001000  dq finite difference perturbation B field
   LLRAUG    =     F  two centre corrections for induced B field



--------------------------------------------------------------------------------------------------------


 Static calculation
 charge density and potential will be updated during run
 non-spin polarized calculation
 Variant of blocked Davidson
 Davidson routine will perform the subspace rotation
 perform sub-space diagonalisation
    after iterative eigenvector-optimisation
 modified Broyden-mixing scheme, WC =      100.0
 initial mixing is a Kerker type mixing with AMIX =  0.4000 and BMIX =      1.0000
 Hartree-type preconditioning will be used
 using additional bands            6
 reciprocal scheme for non local part
 use partial core corrections
 calculate Harris-corrections to forces 
   (improved forces if not selfconsistent)
 use of overlap-Matrix (Vanderbilt PP)
 Methfessel and Paxton  Order N= 1 SIGMA  =   0.20


--------------------------------------------------------------------------------------------------------


  energy-cutoff  :      229.87
  volume of cell :       19.88
      direct lattice vectors                 reciprocal lattice vectors
     0.000000000  2.150000000  2.150000000    -0.232558140  0.232558140  0.232558140
     2.150000000  0.000000000  2.150000000     0.232558140 -0.232558140  0.232558140
     2.150000000  2.150000000  0.000000000     0.232558140  0.232558140 -0.232558140

  length of vectors
     3.040559159  3.040559159  3.040559159     0.402802513  0.402802513  0.402802513


 
 k-points in units of 2pi/SCALE and weight: 10x10x10                                
   0.05000000  0.05000000  0.05000000       0.002
  -0.05000000  0.15000000  0.15000000       0.006
  -0.15000000  0.25000000  0.25000000       0.006
  -0.25000000  0.35000000  0.35000000       0.006
  -0.35000000  0.45000000  0.45000000       0.006
   0.55000000 -0.45000000 -0.45000000       0.006
   0.45000000 -0.35000000 -0.35000000       0.006
   0.35000000 -0.25000000 -0.25000000       0.006
   0.25000000 -0.15000000 -0.15000000       0.006
   0.15000000 -0.05000000 -0.05000000       0.006
   0.05000000  0.05000000  0.25000000       0.006
  -0.05000000  0.15000000  0.35000000       0.012
  -0.15000000  0.25000000  0.45000000       0.012
  -0.25000000  0.35000000  0.55000000       0.012
   0.65000000 -0.55000000 -0.35000000       0.012
   0.55000000 -0.45000000 -0.25000000       0.012
   0.45000000 -0.35000000 -0.15000000       0.012
   0.35000000 -0.25000000 -0.05000000       0.012
   0.25000000 -0.15000000  0.05000000       0.012
   0.05000000  0.05000000  0.45000000       0.006
  -0.05000000  0.15000000  0.55000000       0.012
  -0.15000000  0.25000000  0.65000000       0.012
   0.75000000 -0.65000000 -0.25000000       0.012
   0.65000000 -0.55000000 -0.15000000       0.012
   0.55000000 -0.45000000 -0.05000000       0.012
   0.45000000 -0.35000000  0.05000000       0.012
   0.35000000 -0.25000000  0.15000000       0.012
   0.05000000  0.05000000  0.65000000       0.006
  -0.05000000  0.15000000  0.75000000       0.012
   0.85000000 -0.75000000 -0.15000000       0.012
   0.75000000 -0.65000000 -0.05000000       0.012
   0.65000000 -0.55000000  0.05000000       0.012
   0.55000000 -0.45000000  0.15000000       0.012
   0.45000000 -0.35000000  0.25000000       0.012
   0.05000000  0.05000000  0.85000000       0.006
   0.95000000 -0.85000000 -0.05000000       0.012
   0.85000000 -0.75000000  0.05000000       0.012
   0.75000000 -0.65000000  0.15000000       0.012
   0.65000000 -0.55000000  0.25000000       0.012
   0.55000000 -0.45000000  0.35000000       0.012
   0.05000000  0.05000000 -0.95000000       0.006
  -0.05000000  0.15000000 -0.85000000       0.012
  -0.15000000  0.25000000 -0.75000000       0.012
  -0.25000000  0.35000000 -0.65000000       0.012
   0.05000000  0.05000000 -0.75000000       0.006
  -0.05000000  0.15000000 -0.65000000       0.012
  -0.15000000  0.25000000 -0.55000000       0.012
   0.05000000  0.05000000 -0.55000000       0.006
  -0.05000000  0.15000000 -0.45000000       0.012
   0.05000000  0.05000000 -0.35000000       0.006
   0.15000000  0.15000000  0.15000000       0.002
   0.05000000  0.25000000  0.25000000       0.006
  -0.05000000  0.35000000  0.35000000       0.006
  -0.15000000  0.45000000  0.45000000       0.006
   0.75000000 -0.45000000 -0.45000000       0.006
   0.65000000 -0.35000000 -0.35000000       0.006
   0.55000000 -0.25000000 -0.25000000       0.006
   0.45000000 -0.15000000 -0.15000000       0.006
   0.15000000  0.15000000  0.35000000       0.006
   0.05000000  0.25000000  0.45000000       0.012
  -0.05000000  0.35000000  0.55000000       0.012
   0.85000000 -0.55000000 -0.35000000       0.012
   0.75000000 -0.45000000 -0.25000000       0.012
   0.65000000 -0.35000000 -0.15000000       0.012
   0.55000000 -0.25000000 -0.05000000       0.012
   0.15000000  0.15000000  0.55000000       0.006
   0.05000000  0.25000000  0.65000000       0.012
   0.95000000 -0.65000000 -0.25000000       0.012
   0.85000000 -0.55000000 -0.15000000       0.012
   0.75000000 -0.45000000 -0.05000000       0.012
   0.65000000 -0.35000000  0.05000000       0.012
   0.15000000  0.15000000  0.75000000       0.006
   1.05000000 -0.75000000 -0.15000000       0.012
   0.95000000 -0.65000000 -0.05000000       0.012
   0.85000000 -0.55000000  0.05000000       0.012
   0.75000000 -0.45000000  0.15000000       0.012
   0.15000000  0.15000000 -1.05000000       0.006
   0.05000000  0.25000000 -0.95000000       0.012
  -0.05000000  0.35000000 -0.85000000       0.012
   0.15000000  0.15000000 -0.85000000       0.006
   0.05000000  0.25000000 -0.75000000       0.012
   0.15000000  0.15000000 -0.65000000       0.006
   0.25000000  0.25000000  0.25000000       0.002
   0.15000000  0.35000000  0.35000000       0.006
   0.05000000  0.45000000  0.45000000       0.006
   0.95000000 -0.45000000 -0.45000000       0.006
   0.85000000 -0.35000000 -0.35000000       0.006
   0.75000000 -0.25000000 -0.25000000       0.006
   0.25000000  0.25000000  0.45000000       0.006
   0.15000000  0.35000000  0.55000000       0.012
   1.05000000 -0.55000000 -0.35000000       0.012
   0.95000000 -0.45000000 -0.25000000       0.012
   0.85000000 -0.35000000 -0.15000000       0.012
   0.25000000  0.25000000  0.65000000       0.006
   1.15000000 -0.65000000 -0.25000000       0.012
   1.05000000 -0.55000000 -0.15000000       0.012
   0.95000000 -0.45000000 -0.05000000       0.012
   0.25000000  0.25000000 -1.15000000       0.006
   0.15000000  0.35000000 -1.05000000       0.012
   0.25000000  0.25000000 -0.95000000       0.006
   0.35000000  0.35000000  0.35000000       0.002
   0.25000000  0.45000000  0.45000000       0.006
   1.15000000 -0.45000000 -0.45000000       0.006
   1.05000000 -0.35000000 -0.35000000       0.006
   0.35000000  0.35000000  0.55000000       0.006
   1.25000000 -0.55000000 -0.35000000       0.012
   1.15000000 -0.45000000 -0.25000000       0.012
   0.35000000  0.35000000 -1.25000000       0.006
   0.45000000  0.45000000  0.45000000       0.002
   1.35000000 -0.45000000 -0.45000000       0.006
 
 k-points in reciprocal lattice and weights: 10x10x10                                
   0.05000000  0.05000000  0.05000000       0.002
   0.15000000  0.05000000  0.05000000       0.006
   0.25000000  0.05000000  0.05000000       0.006
   0.35000000  0.05000000  0.05000000       0.006
   0.45000000  0.05000000  0.05000000       0.006
  -0.45000000  0.05000000  0.05000000       0.006
  -0.35000000  0.05000000  0.05000000       0.006
  -0.25000000  0.05000000  0.05000000       0.006
  -0.15000000  0.05000000  0.05000000       0.006
  -0.05000000  0.05000000  0.05000000       0.006
   0.15000000  0.15000000  0.05000000       0.006
   0.25000000  0.15000000  0.05000000       0.012
   0.35000000  0.15000000  0.05000000       0.012
   0.45000000  0.15000000  0.05000000       0.012
  -0.45000000  0.15000000  0.05000000       0.012
  -0.35000000  0.15000000  0.05000000       0.012
  -0.25000000  0.15000000  0.05000000       0.012
  -0.15000000  0.15000000  0.05000000       0.012
  -0.05000000  0.15000000  0.05000000       0.012
   0.25000000  0.25000000  0.05000000       0.006
   0.35000000  0.25000000  0.05000000       0.012
   0.45000000  0.25000000  0.05000000       0.012
  -0.45000000  0.25000000  0.05000000       0.012
  -0.35000000  0.25000000  0.05000000       0.012
  -0.25000000  0.25000000  0.05000000       0.012
  -0.15000000  0.25000000  0.05000000       0.012
  -0.05000000  0.25000000  0.05000000       0.012
   0.35000000  0.35000000  0.05000000       0.006
   0.45000000  0.35000000  0.05000000       0.012
  -0.45000000  0.35000000  0.05000000       0.012
  -0.35000000  0.35000000  0.05000000       0.012
  -0.25000000  0.35000000  0.05000000       0.012
  -0.15000000  0.35000000  0.05000000       0.012
  -0.05000000  0.35000000  0.05000000       0.012
   0.45000000  0.45000000  0.05000000       0.006
  -0.45000000  0.45000000  0.05000000       0.012
  -0.35000000  0.45000000  0.05000000       0.012
  -0.25000000  0.45000000  0.05000000       0.012
  -0.15000000  0.45000000  0.05000000       0.012
  -0.05000000  0.45000000  0.05000000       0.012
  -0.45000000 -0.45000000  0.05000000       0.006
  -0.35000000 -0.45000000  0.05000000       0.012
  -0.25000000 -0.45000000  0.05000000       0.012
  -0.15000000 -0.45000000  0.05000000       0.012
  -0.35000000 -0.35000000  0.05000000       0.006
  -0.25000000 -0.35000000  0.05000000       0.012
  -0.15000000 -0.35000000  0.05000000       0.012
  -0.25000000 -0.25000000  0.05000000       0.006
  -0.15000000 -0.25000000  0.05000000       0.012
  -0.15000000 -0.15000000  0.05000000       0.006
   0.15000000  0.15000000  0.15000000       0.002
   0.25000000  0.15000000  0.15000000       0.006
   0.35000000  0.15000000  0.15000000       0.006
   0.45000000  0.15000000  0.15000000       0.006
  -0.45000000  0.15000000  0.15000000       0.006
  -0.35000000  0.15000000  0.15000000       0.006
  -0.25000000  0.15000000  0.15000000       0.006
  -0.15000000  0.15000000  0.15000000       0.006
   0.25000000  0.25000000  0.15000000       0.006
   0.35000000  0.25000000  0.15000000       0.012
   0.45000000  0.25000000  0.15000000       0.012
  -0.45000000  0.25000000  0.15000000       0.012
  -0.35000000  0.25000000  0.15000000       0.012
  -0.25000000  0.25000000  0.15000000       0.012
  -0.15000000  0.25000000  0.15000000       0.012
   0.35000000  0.35000000  0.15000000       0.006
   0.45000000  0.35000000  0.15000000       0.012
  -0.45000000  0.35000000  0.15000000       0.012
  -0.35000000  0.35000000  0.15000000       0.012
  -0.25000000  0.35000000  0.15000000       0.012
  -0.15000000  0.35000000  0.15000000       0.012
   0.45000000  0.45000000  0.15000000       0.006
  -0.45000000  0.45000000  0.15000000       0.012
  -0.35000000  0.45000000  0.15000000       0.012
  -0.25000000  0.45000000  0.15000000       0.012
  -0.15000000  0.45000000  0.15000000       0.012
  -0.45000000 -0.45000000  0.15000000       0.006
  -0.35000000 -0.45000000  0.15000000       0.012
  -0.25000000 -0.45000000  0.15000000       0.012
  -0.35000000 -0.35000000  0.15000000       0.006
  -0.25000000 -0.35000000  0.15000000       0.012
  -0.25000000 -0.25000000  0.15000000       0.006
   0.25000000  0.25000000  0.25000000       0.002
   0.35000000  0.25000000  0.25000000       0.006
   0.45000000  0.25000000  0.25000000       0.006
  -0.45000000  0.25000000  0.25000000       0.006
  -0.35000000  0.25000000  0.25000000       0.006
  -0.25000000  0.25000000  0.25000000       0.006
   0.35000000  0.35000000  0.25000000       0.006
   0.45000000  0.35000000  0.25000000       0.012
  -0.45000000  0.35000000  0.25000000       0.012
  -0.35000000  0.35000000  0.25000000       0.012
  -0.25000000  0.35000000  0.25000000       0.012
   0.45000000  0.45000000  0.25000000       0.006
  -0.45000000  0.45000000  0.25000000       0.012
  -0.35000000  0.45000000  0.25000000       0.012
  -0.25000000  0.45000000  0.25000000       0.012
  -0.45000000 -0.45000000  0.25000000       0.006
  -0.35000000 -0.45000000  0.25000000       0.012
  -0.35000000 -0.35000000  0.25000000       0.006
   0.35000000  0.35000000  0.35000000       0.002
   0.45000000  0.35000000  0.35000000       0.006
  -0.45000000  0.35000000  0.35000000       0.006
  -0.35000000  0.35000000  0.35000000       0.006
   0.45000000  0.45000000  0.35000000       0.006
  -0.45000000  0.45000000  0.35000000       0.012
  -0.35000000  0.45000000  0.35000000       0.012
  -0.45000000 -0.45000000  0.35000000       0.006
   0.45000000  0.45000000  0.45000000       0.002
  -0.45000000  0.45000000  0.45000000       0.006
 
 position of ions in fractional coordinates (direct lattice) 
   0.00000000  0.00000000  0.00000000
 
 position of ions in cartesian coordinates  (Angst):
   0.00000000  0.00000000  0.00000000
 


--------------------------------------------------------------------------------------------------------


 k-point  1 :   0.0500 0.0500 0.0500  plane waves:     169
 k-point  2 :   0.1500 0.0500 0.0500  plane waves:     161
 k-point  3 :   0.2500 0.0500 0.0500  plane waves:     157
 k-point  4 :   0.3500 0.0500 0.0500  plane waves:     153
 k-point  5 :   0.4500 0.0500 0.0500  plane waves:     156
 k-point  6 :  -0.4500 0.0500 0.0500  plane waves:     158
 k-point  7 :  -0.3500 0.0500 0.0500  plane waves:     155
 k-point  8 :  -0.2500 0.0500 0.0500  plane waves:     154
 k-point  9 :  -0.1500 0.0500 0.0500  plane waves:     156
 k-point 10 :  -0.0500 0.0500 0.0500  plane waves:     164
 k-point 11 :   0.1500 0.1500 0.0500  plane waves:     162
 k-point 12 :   0.2500 0.1500 0.0500  plane waves:     160
 k-point 13 :   0.3500 0.1500 0.0500  plane waves:     153
 k-point 14 :   0.4500 0.1500 0.0500  plane waves:     155
 k-point 15 :  -0.4500 0.1500 0.0500  plane waves:     161
 k-point 16 :  -0.3500 0.1500 0.0500  plane waves:     157
 k-point 17 :  -0.2500 0.1500 0.0500  plane waves:     152
 k-point 18 :  -0.1500 0.1500 0.0500  plane waves:     159
 k-point 19 :  -0.0500 0.1500 0.0500  plane waves:     160
 k-point 20 :   0.2500 0.2500 0.0500  plane waves:     159
 k-point 21 :   0.3500 0.2500 0.0500  plane waves:     156
 k-point 22 :   0.4500 0.2500 0.0500  plane waves:     154
 k-point 23 :  -0.4500 0.2500 0.0500  plane waves:     159
 k-point 24 :  -0.3500 0.2500 0.0500  plane waves:     159
 k-point 25 :  -0.2500 0.2500 0.0500  plane waves:     157
 k-point 26 :  -0.1500 0.2500 0.0500  plane waves:     154
 k-point 27 :  -0.0500 0.2500 0.0500  plane waves:     156
 k-point 28 :   0.3500 0.3500 0.0500  plane waves:     155
 k-point 29 :   0.4500 0.3500 0.0500  plane waves:     158
 k-point 30 :  -0.4500 0.3500 0.0500  plane waves:     158
 k-point 31 :  -0.3500 0.3500 0.0500  plane waves:     158
 k-point 32 :  -0.2500 0.3500 0.0500  plane waves:     160
 k-point 33 :  -0.1500 0.3500 0.0500  plane waves:     159
 k-point 34 :  -0.0500 0.3500 0.0500  plane waves:     152
 k-point 35 :   0.4500 0.4500 0.0500  plane waves:     158
 k-point 36 :  -0.4500 0.4500 0.0500  plane waves:     156
 k-point 37 :  -0.3500 0.4500 0.0500  plane waves:     160
 k-point 38 :  -0.2500 0.4500 0.0500  plane waves:     159
 k-point 39 :  -0.1500 0.4500 0.0500  plane waves:     161
 k-point 40 :  -0.0500 0.4500 0.0500  plane waves:     159
 k-point 41 :  -0.4500-0.4500 0.0500  plane waves:     152
 k-point 42 :  -0.3500-0.4500 0.0500  plane waves:     160
 k-point 43 :  -0.2500-0.4500 0.0500  plane waves:     157
 k-point 44 :  -0.1500-0.4500 0.0500  plane waves:     158
 k-point 45 :  -0.3500-0.3500 0.0500  plane waves:     158
 k-point 46 :  -0.2500-0.3500 0.0500  plane waves:     156
 k-point 47 :  -0.1500-0.3500 0.0500  plane waves:     152
 k-point 48 :  -0.2500-0.2500 0.0500  plane waves:     155
 k-point 49 :  -0.1500-0.2500 0.0500  plane waves:     158
 k-point 50 :  -0.1500-0.1500 0.0500  plane waves:     159
 k-point 51 :   0.1500 0.1500 0.1500  plane waves:     159
 k-point 52 :   0.2500 0.1500 0.1500  plane waves:     159
 k-point 53 :   0.3500 0.1500 0.1500  plane waves:     157
 k-point 54 :   0.4500 0.1500 0.1500  plane waves:     154
 k-point 55 :  -0.4500 0.1500 0.1500  plane waves:     161
 k-point 56 :  -0.3500 0.1500 0.1500  plane waves:     158
 k-point 57 :  -0.2500 0.1500 0.1500  plane waves:     153
 k-point 58 :  -0.1500 0.1500 0.1500  plane waves:     159
 k-point 59 :   0.2500 0.2500 0.1500  plane waves:     158
 k-point 60 :   0.3500 0.2500 0.1500  plane waves:     155
 k-point 61 :   0.4500 0.2500 0.1500  plane waves:     153
 k-point 62 :  -0.4500 0.2500 0.1500  plane waves:     157
 k-point 63 :  -0.3500 0.2500 0.1500  plane waves:     163
 k-point 64 :  -0.2500 0.2500 0.1500  plane waves:     155
 k-point 65 :  -0.1500 0.2500 0.1500  plane waves:     152
 k-point 66 :   0.3500 0.3500 0.1500  plane waves:     154
 k-point 67 :   0.4500 0.3500 0.1500  plane waves:     153
 k-point 68 :  -0.4500 0.3500 0.1500  plane waves:     158
 k-point 69 :  -0.3500 0.3500 0.1500  plane waves:     158
 k-point 70 :  -0.2500 0.3500 0.1500  plane waves:     157
 k-point 71 :  -0.1500 0.3500 0.1500  plane waves:     156
 k-point 72 :   0.4500 0.4500 0.1500  plane waves:     160
 k-point 73 :  -0.4500 0.4500 0.1500  plane waves:     158
 k-point 74 :  -0.3500 0.4500 0.1500  plane waves:     159
 k-point 75 :  -0.2500 0.4500 0.1500  plane waves:     156
 k-point 76 :  -0.1500 0.4500 0.1500  plane waves:     157
 k-point 77 :  -0.4500-0.4500 0.1500  plane waves:     160
 k-point 78 :  -0.3500-0.4500 0.1500  plane waves:     160
 k-point 79 :  -0.2500-0.4500 0.1500  plane waves:     158
 k-point 80 :  -0.3500-0.3500 0.1500  plane waves:     160
 k-point 81 :  -0.2500-0.3500 0.1500  plane waves:     155
 k-point 82 :  -0.2500-0.2500 0.1500  plane waves:     155
 k-point 83 :   0.2500 0.2500 0.2500  plane waves:     156
 k-point 84 :   0.3500 0.2500 0.2500  plane waves:     154
 k-point 85 :   0.4500 0.2500 0.2500  plane waves:     155
 k-point 86 :  -0.4500 0.2500 0.2500  plane waves:     160
 k-point 87 :  -0.3500 0.2500 0.2500  plane waves:     158
 k-point 88 :  -0.2500 0.2500 0.2500  plane waves:     158
 k-point 89 :   0.3500 0.3500 0.2500  plane waves:     153
 k-point 90 :   0.4500 0.3500 0.2500  plane waves:     154
 k-point 91 :  -0.4500 0.3500 0.2500  plane waves:     158
 k-point 92 :  -0.3500 0.3500 0.2500  plane waves:     157
 k-point 93 :  -0.2500 0.3500 0.2500  plane waves:     157
 k-point 94 :   0.4500 0.4500 0.2500  plane waves:     156
 k-point 95 :  -0.4500 0.4500 0.2500  plane waves:     158
 k-point 96 :  -0.3500 0.4500 0.2500  plane waves:     159
 k-point 97 :  -0.2500 0.4500 0.2500  plane waves:     156
 k-point 98 :  -0.4500-0.4500 0.2500  plane waves:     158
 k-point 99 :  -0.3500-0.4500 0.2500  plane waves:     160
 k-point ** :  -0.3500-0.3500 0.2500  plane waves:     160
 k-point ** :   0.3500 0.3500 0.3500  plane waves:     153
 k-point ** :   0.4500 0.3500 0.3500  plane waves:     154
 k-point ** :  -0.4500 0.3500 0.3500  plane waves:     158
 k-point ** :  -0.3500 0.3500 0.3500  plane waves:     160
 k-point ** :   0.4500 0.4500 0.3500  plane waves:     157
 k-point ** :  -0.4500 0.4500 0.3500  plane waves:     159
 k-point ** :  -0.3500 0.4500 0.3500  plane waves:     160
 k-point ** :  -0.4500-0.4500 0.3500  plane waves:     160
 k-point ** :   0.4500 0.4500 0.4500  plane waves:     162
 k-point ** :  -0.4500 0.4500 0.4500  plane waves:     160

 maximum and minimum number of plane-waves per node :       169      152

 maximum number of plane-waves:       169
 maximum index in each direction: 
   IXMAX=    4   IYMAX=    4   IZMAX=    3
   IXMIN=   -4   IYMIN=   -4   IZMIN=   -4


 serial   3D FFT for wavefunctions
 parallel 3D FFT for charge:
    minimum data exchange during FFTs selected (reduces bandwidth)


 total amount of memory used by VASP MPI-rank0    34324. kBytes
=======================================================================

   base      :      30000. kBytes
   nonl-proj :       2727. kBytes
   fftplans  :        238. kBytes
   grid      :        331. kBytes
   one-center:         15. kBytes
   wavefun   :       1013. kBytes
 
     INWAV:  cpu time    0.0008: real time    0.0001
 Broyden mixing: mesh for mixing (old mesh)
   NGX =  7   NGY =  7   NGZ =  7
  (NGX  = 24   NGY  = 24   NGZ  = 24)
  gives a total of    343 points

 initial charge density was supplied:
 charge density of overlapping atoms calculated
 number of electron      11.0000000 magnetization 
 keeping initial charge density in first step


--------------------------------------------------------------------------------------------------------


 Maximum index for augmentation-charges         1261 (set IRDMAX)


--------------------------------------------------------------------------------------------------------


 First call to EWALD:  gamma=   0.654
 Maximum number of real-space cells 3x 3x 3
 Maximum number of reciprocal cells 3x 3x 3

    FEWALD:  cpu time    0.0012: real time    0.0013


--------------------------------------- Iteration      1(   1)  ---------------------------------------


    POTLOK:  cpu time    0.0014: real time    0.0028
    SETDIJ:  cpu time    0.0017: real time    0.0018
     EDDAV:  cpu time    0.2787: real time    0.2842
       DOS:  cpu time    0.0016: real time    0.0015
    --------------------------------------------
      LOOP:  cpu time    0.2834: real time    0.2903

 eigenvalue-minimisations  :  3208
 total energy-change (2. order) : 0.3031421E+02  (-0.3495539E+03)
 number of electron      11.0000000 magnetization 
 augmentation part       11.0000000 magnetization 

 Free energy of the ion-electron system (eV)
  ---------------------------------------------------
  alpha Z        PSCENC =        92.46377501
  Ewald energy   TEWEN  =      -928.90065159
  -Hartree energ DENC   =      -143.19178376
  -exchange      EXHF   =         0.00000000
  -V(xc)+E(xc)   XCENC  =        15.88284922
  PAW double counting   =       746.10209728     -725.46159323
  entropy T*S    EENTRO =        -0.00132342
  eigenvalues    EBANDS =        44.02469563
  atomic energy  EATOM  =       929.39614979
  Solvation  Ediel_sol  =         0.00000000
  ---------------------------------------------------
  free energy    TOTEN  =        30.31421494 eV

  energy without entropy =       30.31553835  energy(sigma->0) =       30.31465608


--------------------------------------------------------------------------------------------------------




--------------------------------------- Iteration      1(   2)  ---------------------------------------


     EDDAV:  cpu time    0.2532: real time    0.2597
       DOS:  cpu time    0.0014: real time    0.0014
    --------------------------------------------
      LOOP:  cpu time    0.2546: real time    0.2611

 eigenvalue-minimisations  :  3068
 total energy-change (2. order) :-0.3443705E+02  (-0.3166611E+02)
 number of electron      11.0000000 magnetization 
 augmentation part       11.0000000 magnetization 

 Free energy of the ion-electron system (eV)
  ---------------------------------------------------
  alpha Z        PSCENC =        92.46377501
  Ewald energy   TEWEN  =      -928.90065159
  -Hartree energ DENC   =      -143.19178376
  -exchange      EXHF   =         0.00000000
  -V(xc)+E(xc)   XCENC  =        15.88284922
  PAW double counting   =       746.10209728     -725.46159323
  entropy T*S    EENTRO =         0.00042157
  eigenvalues    EBANDS =         9.58590086
  atomic energy  EATOM  =       929.39614979
  Solvation  Ediel_sol  =         0.00000000
  ---------------------------------------------------
  free energy    TOTEN  =        -4.12283484 eV

  energy without entropy =       -4.12325641  energy(sigma->0) =       -4.12297536


--------------------------------------------------------------------------------------------------------




--------------------------------------- Iteration      1(   3)  ---------------------------------------


     EDDAV:  cpu time    0.2605: real time    0.2663
       DOS:  cpu time    0.0015: real time    0.0014
    --------------------------------------------
      LOOP:  cpu time    0.2620: real time    0.2678

 eigenvalue-minimisations  :  3184
 total energy-change (2. order) :-0.3474810E+00  (-0.3472388E+00)
 number of electron      11.0000000 magnetization 
 augmentation part       11.0000000 magnetization 

 Free energy of the ion-electron system (eV)
  ---------------------------------------------------
  alpha Z        PSCENC =        92.46377501
  Ewald energy   TEWEN  =      -928.90065159
  -Hartree energ DENC   =      -143.19178376
  -exchange      EXHF   =         0.00000000
  -V(xc)+E(xc)   XCENC  =        15.88284922
  PAW double counting   =       746.10209728     -725.46159323
  entropy T*S    EENTRO =         0.00074965
  eigenvalues    EBANDS =         9.23809174
  atomic energy  EATOM  =       929.39614979
  Solvation  Ediel_sol  =         0.00000000
  ---------------------------------------------------
  free energy    TOTEN  =        -4.47031588 eV

  energy without entropy =       -4.47106553  energy(sigma->0) =       -4.47056576


--------------------------------------------------------------------------------------------------------




--------------------------------------- Iteration      1(   4)  ---------------------------------------


     EDDAV:  cpu time    0.2680: real time    0.3002
       DOS:  cpu time    0.0015: real time    0.0015
    --------------------------------------------
      LOOP:  cpu time    0.2695: real time    0.3017

 eigenvalue-minimisations  :  3116
 total energy-change (2. order) :-0.8626070E-03  (-0.8625799E-03)
 number of electron      11.0000000 magnetization 
 augmentation part       11.0000000 magnetization 

 Free energy of the ion-electron system (eV)
  ---------------------------------------------------
  alpha Z        PSCENC =        92.46377501
  Ewald energy   TEWEN  =      -928.90065159
  -Hartree energ DENC   =      -143.19178376
  -exchange      EXHF   =         0.00000000
  -V(xc)+E(xc)   XCENC  =        15.88284922
  PAW double counting   =       746.10209728     -725.46159323
  entropy T*S    EENTRO =         0.00075055
  eigenvalues    EBANDS =         9.23722823
  atomic energy  EATOM  =       929.39614979
  Solvation  Ediel_sol  =         0.00000000
  ---------------------------------------------------
  free energy    TOTEN  =        -4.47117849 eV

  energy without entropy =       -4.47192904  energy(sigma->0) =       -4.47142867


--------------------------------------------------------------------------------------------------------




--------------------------------------- Iteration      1(   5)  ---------------------------------------


     EDDAV:  cpu time    0.2521: real time    0.2574
       DOS:  cpu time    0.0015: real time    0.0015
    CHARGE:  cpu time    0.0041: real time    0.0042
    MIXING:  cpu time    0.0004: real time    0.0003
    --------------------------------------------
      LOOP:  cpu time    0.2580: real time    0.2633

 eigenvalue-minimisations  :  2900
 total energy-change (2. order) :-0.6137431E-05  (-0.6137543E-05)
 number of electron      10.9999960 magnetization 
 augmentation part        3.8410149 magnetization 

 Broyden mixing:
  rms(total) = 0.30410E+00    rms(broyden)= 0.30378E+00
  rms(prec ) = 0.12546E+01
  weight for this iteration     100.00

 Free energy of the ion-electron system (eV)
  ---------------------------------------------------
  alpha Z        PSCENC =        92.46377501
  Ewald energy   TEWEN  =      -928.90065159
  -Hartree energ DENC   =      -143.19178376
  -exchange      EXHF   =         0.00000000
  -V(xc)+E(xc)   XCENC  =        15.88284922
  PAW double counting   =       746.10209728     -725.46159323
  entropy T*S    EENTRO =         0.00075056
  eigenvalues    EBANDS =         9.23722209
  atomic energy  EATOM  =       929.39614979
  Solvation  Ediel_sol  =         0.00000000
  ---------------------------------------------------
  free energy    TOTEN  =        -4.47118463 eV

  energy without entropy =       -4.47193518  energy(sigma->0) =       -4.47143481


--------------------------------------------------------------------------------------------------------




--------------------------------------- Iteration      1(   6)  ---------------------------------------


    POTLOK:  cpu time    0.0015: real time    0.0016
    SETDIJ:  cpu time    0.0014: real time    0.0013
     EDDAV:  cpu time    0.2437: real time    0.2486
       DOS:  cpu time    0.0016: real time    0.0015
    CHARGE:  cpu time    0.0053: real time    0.0054
    MIXING:  cpu time    0.0005: real time    0.0005
    --------------------------------------------
      LOOP:  cpu time    0.2548: real time    0.2588

 eigenvalue-minimisations  :  3120
 total energy-change (2. order) : 0.2972982E+00  (-0.9970088E-01)
 number of electron      10.9999958 magnetization 
 augmentation part        4.0066110 magnetization 

 Broyden mixing:
  rms(total) = 0.66563E-01    rms(broyden)= 0.66476E-01
  rms(prec ) = 0.23639E+00
  weight for this iteration     100.00

 eigenvalues of (default mixing * dielectric matrix)
  average eigenvalue GAMMA=   1.1246
  1.1246

 Free energy of the ion-electron system (eV)
  ---------------------------------------------------
  alpha Z        PSCENC =        92.46377501
  Ewald energy   TEWEN  =      -928.90065159
  -Hartree energ DENC   =      -134.55420286
  -exchange      EXHF   =         0.00000000
  -V(xc)+E(xc)   XCENC  =        15.44852566
  PAW double counting   =       730.76158525     -711.08133041
  entropy T*S    EENTRO =         0.00087630
  eigenvalues    EBANDS =         2.29138638
  atomic energy  EATOM  =       929.39614979
  Solvation  Ediel_sol  =         0.00000000
  ---------------------------------------------------
  free energy    TOTEN  =        -4.17388646 eV

  energy without entropy =       -4.17476276  energy(sigma->0) =       -4.17417856


--------------------------------------------------------------------------------------------------------




--------------------------------------- Iteration      1(   7)  ---------------------------------------


    POTLOK:  cpu time    0.0017: real time    0.0017
    SETDIJ:  cpu time    0.0013: real time    0.0013
     EDDAV:  cpu time    0.2442: real time    0.2488
       DOS:  cpu time    0.0016: real time    0.0015
    CHARGE:  cpu time    0.0046: real time    0.0047
    MIXING:  cpu time    0.0004: real time    0.0003
    --------------------------------------------
      LOOP:  cpu time    0.2529: real time    0.2583

 eigenvalue-minimisations  :  3228
 total energy-change (2. order) : 0.1305089E-01  (-0.2716763E-02)
 number of electron      10.9999958 magnetization 
 augmentation part        4.0294964 magnetization 

 Broyden mixing:
  rms(total) = 0.31148E-01    rms(broyden)= 0.31137E-01
  rms(prec ) = 0.72100E-01
  weight for this iteration     100.00

 eigenvalues of (default mixing * dielectric matrix)
  average eigenvalue GAMMA=   1.7408
  1.1266  2.3551

 Free energy of the ion-electron system (eV)
  ---------------------------------------------------
  alpha Z        PSCENC =        92.46377501
  Ewald energy   TEWEN  =      -928.90065159
  -Hartree energ DENC   =      -132.80233120
  -exchange      EXHF   =         0.00000000
  -V(xc)+E(xc)   XCENC  =        15.35396214
  PAW double counting   =       730.19236726     -711.02629822
  entropy T*S    EENTRO =         0.00084239
  eigenvalues    EBANDS =         1.16134886
  atomic energy  EATOM  =       929.39614979
  Solvation  Ediel_sol  =         0.00000000
  ---------------------------------------------------
  free energy    TOTEN  =        -4.16083557 eV

  energy without entropy =       -4.16167796  energy(sigma->0) =       -4.16111637


--------------------------------------------------------------------------------------------------------




--------------------------------------- Iteration      1(   8)  ---------------------------------------


    POTLOK:  cpu time    0.0014: real time    0.0015
    SETDIJ:  cpu time    0.0013: real time    0.0013
     EDDAV:  cpu time    0.2354: real time    0.2404
       DOS:  cpu time    0.0015: real time    0.0015
    CHARGE:  cpu time    0.0048: real time    0.0048
    MIXING:  cpu time    0.0005: real time    0.0004
    --------------------------------------------
      LOOP:  cpu time    0.2450: real time    0.2499

 eigenvalue-minimisations  :  3004
 total energy-change (2. order) : 0.3595151E-02  (-0.1540436E-03)
 number of electron      10.9999958 magnetization 
 augmentation part        4.0290979 magnetization 

 Broyden mixing:
  rms(total) = 0.12816E-02    rms(broyden)= 0.12751E-02
  rms(prec ) = 0.29387E-02
  weight for this iteration     100.00

 eigenvalues of (default mixing * dielectric matrix)
  average eigenvalue GAMMA=   1.6682
  1.1328  1.3877  2.4840

 Free energy of the ion-electron system (eV)
  ---------------------------------------------------
  alpha Z        PSCENC =        92.46377501
  Ewald energy   TEWEN  =      -928.90065159
  -Hartree energ DENC   =      -132.10286534
  -exchange      EXHF   =         0.00000000
  -V(xc)+E(xc)   XCENC  =        15.31048451
  PAW double counting   =       733.17486514     -714.50111293
  entropy T*S    EENTRO =         0.00083199
  eigenvalues    EBANDS =         1.00128300
  atomic energy  EATOM  =       929.39614979
  Solvation  Ediel_sol  =         0.00000000
  ---------------------------------------------------
  free energy    TOTEN  =        -4.15724042 eV

  energy without entropy =       -4.15807241  energy(sigma->0) =       -4.15751775


--------------------------------------------------------------------------------------------------------




--------------------------------------- Iteration      1(   9)  ---------------------------------------


    POTLOK:  cpu time    0.0015: real time    0.0016
    SETDIJ:  cpu time    0.0013: real time    0.0013
     EDDAV:  cpu time    0.1747: real time    0.1802
       DOS:  cpu time    0.0015: real time    0.0015
    --------------------------------------------
      LOOP:  cpu time    0.1791: real time    0.1846

 eigenvalue-minimisations  :  1712
 total energy-change (2. order) :-0.2653769E-05  (-0.1016085E-05)
 number of electron      10.9999958 magnetization 
 augmentation part        4.0290979 magnetization 

 Free energy of the ion-electron system (eV)
  ---------------------------------------------------
  alpha Z        PSCENC =        92.46377501
  Ewald energy   TEWEN  =      -928.90065159
  -Hartree energ DENC   =      -132.07639718
  -exchange      EXHF   =         0.00000000
  -V(xc)+E(xc)   XCENC  =        15.30890322
  PAW double counting   =       733.70393544     -715.03434307
  entropy T*S    EENTRO =         0.00083178
  eigenvalues    EBANDS =         0.98055353
  atomic energy  EATOM  =       929.39614979
  Solvation  Ediel_sol  =         0.00000000
  ---------------------------------------------------
  free energy    TOTEN  =        -4.15724307 eV

  energy without entropy =       -4.15807485  energy(sigma->0) =       -4.15752033


--------------------------------------------------------------------------------------------------------




 average (electrostatic) potential at core
  the test charge radii are     1.2098
  (the norm of the test charge is              1.0000)
       1 -47.1936
 
 
 
 E-fermi :   3.6198     XC(G=0): -12.1102     alpha+bet : -8.8234


 k-point     1 :       0.0500    0.0500    0.0500
  band No.  band energies     occupation 
      1      -4.6499      2.00000
      2      -0.2986      2.00000
      3      -0.2535      2.00000
      4      -0.2535      2.00000
      5       0.8854      2.00000
      6       0.8854      2.00000
      7      18.9613      0.00000
      8      21.1341      0.00000
      9      21.8504      0.00000
     10      21.8504      0.00000
     11      26.3442      0.00000
     12      28.3674      0.00000

 k-point     2 :       0.1500    0.0500    0.0500
  band No.  band energies     occupation 
      1      -4.2536      2.00000
      2      -0.4080      2.00000
      3      -0.1455      2.00000
      4      -0.1188      2.00000
      5       0.7822      2.00000
      6       0.9277      2.00000
      7      18.7253      0.00000
      8      19.4806      0.00000
      9      21.3025      0.00000
     10      22.6086      0.00000
     11      25.3405      0.00000
     12      27.8416      0.00000

 k-point     3 :       0.2500    0.0500    0.0500
  band No.  band energies     occupation 
      1      -3.3834      2.00000
      2      -0.4793      2.00000
      3      -0.0221      2.00000
      4      -0.0088      2.00000
      5       0.7962      2.00000
      6       1.0995      2.00000
      7      15.1957      0.00000
      8      19.4015      0.00000
      9      21.1940      0.00000
     10      23.2211      0.00000
     11      23.9290      0.00000
     12      25.8089      0.00000

 k-point     4 :       0.3500    0.0500    0.0500
  band No.  band energies     occupation 
      1      -2.5716      2.00000
      2      -0.1542      2.00000
      3      -0.0938      2.00000
      4       0.1119      2.00000
      5       1.1681      2.00000
      6       1.5461      2.00000
      7      11.3452      0.00000
      8      18.8826      0.00000
      9      20.2018      0.00000
     10      21.9847      0.00000
     11      24.9261      0.00000
     12      25.7362      0.00000

 k-point     5 :       0.4500    0.0500    0.0500
  band No.  band energies     occupation 
      1      -2.3467      2.00000
      2      -0.2729      2.00000
      3      -0.2207      2.00000
      4       1.3379      2.00000
      5       1.6128      2.00000
      6       2.4514      2.00000
      7       7.7921     -0.00000
      8      18.3497      0.00000
      9      19.4102      0.00000
     10      20.3857      0.00000
     11      26.1911      0.00000
     12      26.2824      0.00000

 k-point     6 :      -0.4500    0.0500    0.0500
  band No.  band energies     occupation 
      1      -2.3355      2.00000
      2      -0.3229      2.00000
      3      -0.2507      2.00000
      4       1.5559      2.00000
      5       1.8245      2.00000
      6       3.5621      1.46608
      7       6.0855     -0.00000
      8      18.2229      0.00000
      9      19.4596      0.00000
     10      19.5991      0.00000
     11      26.4913      0.00000
     12      26.5362      0.00000

 k-point     7 :      -0.3500    0.0500    0.0500
  band No.  band energies     occupation 
      1      -2.3771      2.00000
      2      -0.2498      2.00000
      3      -0.1671      2.00000
      4       0.9017      2.00000
      5       1.6731      2.00000
      6       1.9040      2.00000
      7       8.9073     -0.00000
      8      18.5977      0.00000
      9      19.7551      0.00000
     10      20.4659      0.00000
     11      26.1311      0.00000
     12      26.4310      0.00000

 k-point     8 :      -0.2500    0.0500    0.0500
  band No.  band energies     occupation 
      1      -2.7819      2.00000
      2      -0.2579      2.00000
      3      -0.0706      2.00000
      4      -0.0366      2.00000
      5       1.1092      2.00000
      6       1.2969      2.00000
      7      12.6177      0.00000
      8      19.3175      0.00000
      9      20.4843      0.00000
     10      22.1044      0.00000
     11      24.6022      0.00000
     12      26.3561      0.00000

 k-point     9 :      -0.1500    0.0500    0.0500
  band No.  band energies     occupation 
      1      -3.7057      2.00000
      2      -0.4964      2.00000
      3      -0.0306      2.00000
      4      -0.0221      2.00000
      5       0.7622      2.00000
      6       1.0024      2.00000
      7      16.4742      0.00000
      8      19.6857      0.00000
      9      21.1162      0.00000
     10      22.9035      0.00000
     11      24.1380      0.00000
     12      26.8933      0.00000

 k-point    10 :      -0.0500    0.0500    0.0500
  band No.  band energies     occupation 
      1      -4.4487      2.00000
      2      -0.3775      2.00000
      3      -0.1786      2.00000
      4      -0.1748      2.00000
      5       0.7985      2.00000
      6       0.9293      2.00000
      7      19.0702      0.00000
      8      20.2503      0.00000
      9      21.4310      0.00000
     10      21.9002      0.00000
     11      26.4287      0.00000
     12      27.8207      0.00000

 k-point    11 :       0.1500    0.1500    0.0500
  band No.  band energies     occupation 
      1      -4.0563      2.00000
      2      -0.5381      2.00000
      3      -0.0224      2.00000
      4      -0.0191      2.00000
      5       0.6387      2.00000
      6       1.0138      2.00000
      7      18.9594      0.00000
      8      19.6240      0.00000
      9      20.5716      0.00000
     10      21.4202      0.00000
     11      25.1031      0.00000
     12      27.5427      0.00000

 k-point    12 :       0.2500    0.1500    0.0500
  band No.  band energies     occupation 
      1      -3.3357      2.00000
      2      -0.7206      2.00000
      3       0.0601      2.00000
      4       0.1959      2.00000
      5       0.6086      2.00000
      6       1.1875      2.00000
      7      16.6839      0.00000
      8      18.4826      0.00000
      9      20.6654      0.00000
     10      21.7959      0.00000
     11      23.0730      0.00000
     12      26.8322      0.00000

 k-point    13 :       0.3500    0.1500    0.0500
  band No.  band energies     occupation 
      1      -2.4294      2.00000
      2      -0.6331      2.00000
      3      -0.1612      2.00000
      4       0.2068      2.00000
      5       1.1257      2.00000
      6       1.6534      2.00000
      7      12.8358      0.00000
      8      17.8725      0.00000
      9      19.6989      0.00000
     10      21.0076      0.00000
     11      24.6083      0.00000
     12      26.5704      0.00000

 k-point    14 :       0.4500    0.1500    0.0500
  band No.  band energies     occupation 
      1      -2.0611      2.00000
      2      -0.3887      2.00000
      3       0.0381      2.00000
      4       0.1909      2.00000
      5       1.6728      2.00000
      6       2.7227      2.00000
      7       9.1366      0.00000
      8      17.5521      0.00000
      9      18.3199      0.00000
     10      20.0119      0.00000
     11      26.4307      0.00000
     12      27.3131      0.00000

 k-point    15 :      -0.4500    0.1500    0.0500
  band No.  band energies     occupation 
      1      -2.0324      2.00000
      2      -0.4863      2.00000
      3      -0.0190      2.00000
      4       0.7952      2.00000
      5       1.7882      2.00000
      6       4.6523     -0.00000
      7       6.1376     -0.00000
      8      17.2037      0.00000
      9      17.8428      0.00000
     10      19.5866      0.00000
     11      26.5507      0.00000
     12      27.7397      0.00000

 k-point    16 :      -0.3500    0.1500    0.0500
  band No.  band energies     occupation 
      1      -2.0247      2.00000
      2      -0.4277      2.00000
      3       0.0010      2.00000
      4       0.5567      2.00000
      5       1.5605      2.00000
      6       3.3552      2.06833
      7       8.0622     -0.00000
      8      16.7166      0.00000
      9      18.6241      0.00000
     10      20.1954      0.00000
     11      26.0194      0.00000
     12      27.3255      0.00000

 k-point    17 :      -0.2500    0.1500    0.0500
  band No.  band energies     occupation 
      1      -2.2098      2.00000
      2      -0.4142      2.00000
      3      -0.1747      2.00000
      4       0.1450      2.00000
      5       1.0462      2.00000
      6       2.0971      2.00000
      7      11.5889      0.00000
      8      16.8587      0.00000
      9      19.7629      0.00000
     10      21.7843      0.00000
     11      24.6061      0.00000
     12      26.5021      0.00000

 k-point    18 :      -0.1500    0.1500    0.0500
  band No.  band energies     occupation 
      1      -3.0216      2.00000
      2      -0.6822      2.00000
      3      -0.0157      2.00000
      4       0.2125      2.00000
      5       0.6034      2.00000
      6       1.3952      2.00000
      7      15.3268      0.00000
      8      17.4518      0.00000
      9      21.2987      0.00000
     10      22.2011      0.00000
     11      24.2196      0.00000
     12      25.6275      0.00000

 k-point    19 :      -0.0500    0.1500    0.0500
  band No.  band energies     occupation 
      1      -3.8737      2.00000
      2      -0.5312      2.00000
      3      -0.0185      2.00000
      4      -0.0134      2.00000
      5       0.6698      2.00000
      6       1.0264      2.00000
      7      17.7586      0.00000
      8      19.1281      0.00000
      9      20.9495      0.00000
     10      22.6457      0.00000
     11      24.3947      0.00000
     12      27.0078      0.00000

 k-point    20 :       0.2500    0.2500    0.0500
  band No.  band energies     occupation 
      1      -2.8460      2.00000
      2      -0.9946      2.00000
      3       0.1900      2.00000
      4       0.4904      2.00000
      5       0.6459      2.00000
      6       1.2770      2.00000
      7      17.0219      0.00000
      8      18.0469      0.00000
      9      19.6611      0.00000
     10      20.0212      0.00000
     11      20.6404      0.00000
     12      28.5397      0.00000

 k-point    21 :       0.3500    0.2500    0.0500
  band No.  band energies     occupation 
      1      -2.1240      2.00000
      2      -1.1646      2.00000
      3       0.0023      2.00000
      4       0.7606      2.00000
      5       1.1639      2.00000
      6       1.6671      2.00000
      7      14.4288      0.00000
      8      16.2956      0.00000
      9      17.8630      0.00000
     10      20.3740      0.00000
     11      21.7952      0.00000
     12      28.4725      0.00000

 k-point    22 :       0.4500    0.2500    0.0500
  band No.  band energies     occupation 
      1      -1.7006      2.00000
      2      -0.9391      2.00000
      3      -0.1816      2.00000
      4       0.6626      2.00000
      5       1.7350      2.00000
      6       2.9347      2.00001
      7      10.7245      0.00000
      8      15.5887      0.00000
      9      16.3141      0.00000
     10      20.2034      0.00000
     11      24.6758      0.00000
     12      28.1583      0.00000

 k-point    23 :      -0.4500    0.2500    0.0500
  band No.  band energies     occupation 
      1      -1.6033      2.00000
      2      -0.7271      2.00000
      3      -0.0008      2.00000
      4       0.5133      2.00000
      5       1.8157      2.00000
      6       5.0937     -0.00000
      7       7.4831     -0.00000
      8      14.3788      0.00000
      9      16.3796      0.00000
     10      20.0182      0.00000
     11      27.2597      0.00000
     12      28.3076      0.00000

 k-point    24 :      -0.3500    0.2500    0.0500
  band No.  band energies     occupation 
      1      -1.4726      2.00000
      2      -0.6840      2.00000
      3       0.0362      2.00000
      4       0.4329      2.00000
      5       1.5221      2.00000
      6       4.9481     -0.00000
      7       7.8897     -0.00000
      8      13.4147      0.00000
      9      17.4683      0.00000
     10      20.2217      0.00000
     11      26.6204      0.00000
     12      28.8029      0.00000

 k-point    25 :      -0.2500    0.2500    0.0500
  band No.  band energies     occupation 
      1      -1.4194      2.00000
      2      -0.6417      2.00000
      3      -0.4113      2.00000
      4       0.4979      2.00000
      5       1.0087      2.00000
      6       3.2817      2.03795
      7      10.9897      0.00000
      8      13.3120      0.00000
      9      18.8701      0.00000
     10      21.2095      0.00000
     11      24.9115      0.00000
     12      28.4500      0.00000

 k-point    26 :      -0.1500    0.2500    0.0500
  band No.  band energies     occupation 
      1      -2.0941      2.00000
      2      -0.7333      2.00000
      3      -0.2072      2.00000
      4       0.3959      2.00000
      5       0.7105      2.00000
      6       2.1581      2.00000
      7      12.9639      0.00000
      8      15.3706      0.00000
      9      20.1044      0.00000
     10      22.5657      0.00000
     11      23.5601      0.00000
     12      26.8959      0.00000

 k-point    27 :      -0.0500    0.2500    0.0500
  band No.  band energies     occupation 
      1      -2.9378      2.00000
      2      -0.5324      2.00000
      3      -0.0375      2.00000
      4       0.0674      2.00000
      5       0.8513      2.00000
      6       1.3406      2.00000
      7      13.9830      0.00000
      8      18.7712      0.00000
      9      20.5402      0.00000
     10      22.6277      0.00000
     11      24.0446      0.00000
     12      25.8667      0.00000

 k-point    28 :       0.3500    0.3500    0.0500
  band No.  band energies     occupation 
      1      -1.9611      2.00000
      2      -1.4597      2.00000
      3       0.7415      2.00000
      4       1.1602      2.00000
      5       1.5617      2.00000
      6       1.5907      2.00000
      7      14.2542      0.00000
      8      15.5195      0.00000
      9      15.5314      0.00000
     10      19.3583      0.00000
     11      21.1307      0.00000
     12      30.9268      0.00000

 k-point    29 :       0.4500    0.3500    0.0500
  band No.  band energies     occupation 
      1      -1.8159      2.00000
      2      -1.5423      2.00000
      3       0.7559      2.00000
      4       1.3923      2.00000
      5       1.7441      2.00000
      6       3.0532      2.00046
      7      11.6917      0.00000
      8      13.8777      0.00000
      9      14.5405      0.00000
     10      20.1919      0.00000
     11      21.9800      0.00000
     12      30.2923      0.00000

 k-point    30 :      -0.4500    0.3500    0.0500
  band No.  band energies     occupation 
      1      -1.6800      2.00000
      2      -1.2804      2.00000
      3       0.4773      2.00000
      4       1.1627      2.00000
      5       1.8908      2.00000
      6       5.3218     -0.00000
      7       8.9385     -0.00000
      8      12.1045      0.00000
      9      14.6752      0.00000
     10      20.4598      0.00000
     11      24.5020      0.00000
     12      29.3165      0.00000

 k-point    31 :      -0.3500    0.3500    0.0500
  band No.  band energies     occupation 
      1      -1.4558      2.00000
      2      -0.8639      2.00000
      3       0.0522      2.00000
      4       0.9136      2.00000
      5       1.6509      2.00000
      6       6.3468     -0.00000
      7       8.4510     -0.00000
      8      10.5513      0.00000
      9      15.7862      0.00000
     10      20.4264      0.00000
     11      27.6527      0.00000
     12      28.2013      0.00000

 k-point    32 :      -0.2500    0.3500    0.0500
  band No.  band energies     occupation 
      1      -1.2494      2.00000
      2      -0.6338      2.00000
      3      -0.3276      2.00000
      4       0.6435      2.00000
      5       1.3434      2.00000
      6       4.7554     -0.00000
      7       9.5841      0.00000
      8      11.5239      0.00000
      9      17.3986      0.00000
     10      20.4868      0.00000
     11      26.5652      0.00000
     12      29.1312      0.00000

 k-point    33 :      -0.1500    0.3500    0.0500
  band No.  band energies     occupation 
      1      -1.7338      2.00000
      2      -0.5003      2.00000
[...]
      1      -1.4499      2.00000
      2      -1.0113      2.00000
      3      -0.0072      2.00000
      4       0.9775      2.00000
      5       1.8248      2.00000
      6       5.9444     -0.00000
      7       8.3066     -0.00000
      8      12.0474      0.00000
      9      14.4446      0.00000
     10      21.4470      0.00000
     11      25.9859      0.00000
     12      27.9028      0.00000

 k-point    94 :       0.4500    0.4500    0.2500
  band No.  band energies     occupation 
      1      -1.7769      2.00000
      2      -0.6617      2.00000
      3      -0.1570      2.00000
      4       0.4100      2.00000
      5       1.8550      2.00000
      6       3.2799      2.03717
      7       9.3986      0.00000
      8      16.1667      0.00000
      9      16.9749      0.00000
     10      19.4717      0.00000
     11      26.4347      0.00000
     12      28.3658      0.00000

 k-point    95 :      -0.4500    0.4500    0.2500
  band No.  band energies     occupation 
      1      -1.4610      2.00000
      2      -0.8736      2.00000
      3      -0.2202      2.00000
      4       0.8090      2.00000
      5       1.7556      2.00000
      6       4.6726     -0.00000
      7       8.8494     -0.00000
      8      13.7013      0.00000
      9      15.1502      0.00000
     10      21.2124      0.00000
     11      25.8348      0.00000
     12      27.7979      0.00000

 k-point    96 :      -0.3500    0.4500    0.2500
  band No.  band energies     occupation 
      1      -1.1255      2.00000
      2      -0.8461      2.00000
      3      -0.4865      2.00000
      4       0.8948      2.00000
      5       1.8587      2.00000
      6       6.2605     -0.00000
      7       9.1879      0.00000
      8      10.8960      0.00000
      9      13.4768      0.00000
     10      23.6829      0.00000
     11      25.2426      0.00000
     12      27.7987      0.00000

 k-point    97 :      -0.2500    0.4500    0.2500
  band No.  band energies     occupation 
      1      -1.2201      2.00000
      2      -0.8396      2.00000
      3      -0.3594      2.00000
      4       0.8615      2.00000
      5       2.0168      2.00000
      6       7.2872     -0.00000
      7       8.9822     -0.00000
      8      10.1738      0.00000
      9      12.5752      0.00000
     10      24.3301      0.00000
     11      25.7720      0.00000
     12      26.8351      0.00000

 k-point    98 :      -0.4500   -0.4500    0.2500
  band No.  band energies     occupation 
      1      -1.6221      2.00000
      2      -1.0360      2.00000
      3       0.2781      2.00000
      4       0.9164      2.00000
      5       1.8347      2.00000
      6       5.8287     -0.00000
      7       7.9868     -0.00000
      8      12.1493      0.00000
      9      15.7030      0.00000
     10      19.8858      0.00000
     11      26.0884      0.00000
     12      29.4183      0.00000

 k-point    99 :      -0.3500   -0.4500    0.2500
  band No.  band energies     occupation 
      1      -1.4747      2.00000
      2      -1.0719      2.00000
      3       0.1559      2.00000
      4       1.0354      2.00000
      5       1.8648      2.00000
      6       6.9811     -0.00000
      7       8.1742     -0.00000
      8      10.5862      0.00000
      9      14.1498      0.00000
     10      21.5990      0.00000
     11      26.0844      0.00000
     12      27.9876      0.00000

 k-point   100 :      -0.3500   -0.3500    0.2500
  band No.  band energies     occupation 
      1      -1.6303      2.00000
      2      -1.1096      2.00000
      3       0.4328      2.00000
      4       1.1107      2.00000
      5       1.7458      2.00000
      6       6.8522     -0.00000
      7       7.8859     -0.00000
      8      10.5890      0.00000
      9      15.4454      0.00000
     10      20.0221      0.00000
     11      26.0191      0.00000
     12      29.6461      0.00000

 k-point   101 :       0.3500    0.3500    0.3500
  band No.  band energies     occupation 
      1      -2.5041      2.00000
      2      -0.1711      2.00000
      3      -0.1711      2.00000
      4       0.6903      2.00000
      5       1.4488      2.00000
      6       1.4488      2.00000
      7      10.0617      0.00000
      8      18.8147      0.00000
      9      20.8229      0.00000
     10      20.8229      0.00000
     11      25.9380      0.00000
     12      26.0108      0.00000

 k-point   102 :       0.4500    0.3500    0.3500
  band No.  band energies     occupation 
      1      -2.2011      2.00000
      2      -0.3044      2.00000
      3      -0.0827      2.00000
      4       0.5845      2.00000
      5       1.3701      2.00000
      6       2.5436      2.00000
      7       9.0529     -0.00000
      8      17.4822      0.00000
      9      19.2645      0.00000
     10      20.8399      0.00000
     11      25.5866      0.00000
     12      26.5165      0.00000

 k-point   103 :      -0.4500    0.3500    0.3500
  band No.  band energies     occupation 
      1      -1.6109      2.00000
      2      -0.5697      2.00000
      3       0.1161      2.00000
      4       0.2715      2.00000
      5       1.3530      2.00000
      6       4.0385     -0.01167
      7       8.6205     -0.00000
      8      14.1261      0.00000
      9      19.2077      0.00000
     10      19.4705      0.00000
     11      26.2845      0.00000
     12      27.9030      0.00000

 k-point   104 :      -0.3500    0.3500    0.3500
  band No.  band energies     occupation 
      1      -1.3798      2.00000
      2      -0.6691      2.00000
      3      -0.1240      2.00000
      4       0.7506      2.00000
      5       1.4609      2.00000
      6       5.5173     -0.00000
      7       8.9996     -0.00000
      8      10.8731      0.00000
      9      17.1764      0.00000
     10      19.7802      0.00000
     11      28.0502      0.00000
     12      28.8692      0.00000

 k-point   105 :       0.4500    0.4500    0.3500
  band No.  band energies     occupation 
      1      -2.1909      2.00000
      2      -0.3688      2.00000
      3      -0.0817      2.00000
      4       0.7148      2.00000
      5       1.8107      2.00000
      6       2.9360      2.00001
      7       7.8865     -0.00000
      8      18.2858      0.00000
      9      18.8549      0.00000
     10      19.2709      0.00000
     11      26.9427      0.00000
     12      26.9580      0.00000

 k-point   106 :      -0.4500    0.4500    0.3500
  band No.  band energies     occupation 
      1      -1.8010      2.00000
      2      -0.5874      2.00000
      3       0.1575      2.00000
      4       0.3762      2.00000
      5       1.7073      2.00000
      6       4.4569     -0.00000
      7       7.2176     -0.00000
      8      15.9582      0.00000
      9      17.1346      0.00000
     10      20.3128      0.00000
     11      26.2122      0.00000
     12      28.5572      0.00000

 k-point   107 :      -0.3500    0.4500    0.3500
  band No.  band energies     occupation 
      1      -1.3116      2.00000
      2      -0.8275      2.00000
      3      -0.1190      2.00000
      4       0.6318      2.00000
      5       1.6753      2.00000
      6       5.9750     -0.00000
      7       7.3991     -0.00000
      8      12.7971      0.00000
      9      15.6572      0.00000
     10      21.2519      0.00000
     11      26.4275      0.00000
     12      29.6307      0.00000

 k-point   108 :      -0.4500   -0.4500    0.3500
  band No.  band energies     occupation 
      1      -1.7042      2.00000
      2      -0.6411      2.00000
      3       0.2534      2.00000
      4       0.2954      2.00000
      5       1.7759      2.00000
      6       5.6427     -0.00000
      7       6.3016     -0.00000
      8      14.8249      0.00000
      9      17.6464      0.00000
     10      19.2903      0.00000
     11      27.7569      0.00000
     12      28.0695      0.00000

 k-point   109 :       0.4500    0.4500    0.4500
  band No.  band energies     occupation 
      1      -2.3931      2.00000
      2      -0.2781      2.00000
      3      -0.2781      2.00000
      4       1.7702      2.00000
      5       1.7702      2.00000
      6       2.7133      2.00000
      7       6.7649     -0.00000
      8      18.2799      0.00000
      9      19.9472      0.00000
     10      19.9472      0.00000
     11      26.2888      0.00000
     12      26.2888      0.00000

 k-point   110 :      -0.4500    0.4500    0.4500
  band No.  band energies     occupation 
      1      -2.1771      2.00000
      2      -0.4017      2.00000
      3      -0.1417      2.00000
      4       1.1336      2.00000
      5       1.7569      2.00000
      6       4.1845     -0.00048
      7       6.1221     -0.00000
      8      17.6296      0.00000
      9      18.8357      0.00000
     10      19.3710      0.00000
     11      26.7086      0.00000
     12      26.8456      0.00000


--------------------------------------------------------------------------------------------------------


 soft charge-density along one line, spin component           1
         0         1         2         3         4         5         6         7         8         9
 total charge-density along one line
 
 pseudopotential strength for first ion, spin component:           1
-10.410   0.000   0.000   0.000   0.000   0.000   0.000   0.000  -0.000   0.000  -0.008   0.000   0.000   0.000  -0.000   0.000
  0.000   0.000 -10.410   0.000  -0.000   0.000   0.000   0.000   0.000   0.000   0.000   0.000  -0.008   0.000   0.000   0.000
  0.000   0.000  -0.000   0.000 -10.395   0.000  -0.000   0.000   0.000   0.000  -0.000   0.000   0.000   0.000  -0.010   0.000
  0.000   0.000   0.000   0.000  -0.000   0.000 -10.410   0.000  -0.000   0.000   0.000   0.000   0.000   0.000   0.000   0.000
 -0.000   0.000   0.000   0.000   0.000   0.000  -0.000   0.000 -10.395   0.000   0.000   0.000  -0.000   0.000  -0.000   0.000
 -0.008   0.000   0.000   0.000  -0.000   0.000   0.000   0.000   0.000   0.000   0.271   0.000  -0.000   0.000   0.000   0.000
  0.000   0.000  -0.008   0.000   0.000   0.000   0.000   0.000  -0.000   0.000  -0.000   0.000   0.271   0.000  -0.000   0.000
 -0.000   0.000   0.000   0.000  -0.010   0.000   0.000   0.000  -0.000   0.000   0.000   0.000  -0.000   0.000   0.272   0.000
  0.000   0.000   0.000   0.000   0.000   0.000  -0.008   0.000   0.000   0.000  -0.000   0.000  -0.000   0.000  -0.000   0.000
  0.000   0.000  -0.000   0.000  -0.000   0.000   0.000   0.000  -0.010   0.000  -0.000   0.000   0.000   0.000   0.000   0.000
  0.000   0.000   0.000   0.000   0.000   0.000   0.000   0.000   0.000   0.000   0.000   0.000   0.000   0.000  -0.000   0.000
 -0.000   0.000  -0.000   0.000  -0.000   0.000  -0.000   0.000  -0.000   0.000   0.000   0.000   0.000   0.000   0.000   0.000
 -0.000   0.000   0.000   0.000  -0.000   0.000   0.000   0.000  -0.000   0.000  -0.000   0.000  -0.000   0.000   0.000   0.000
  0.000   0.000   0.000   0.000   0.000   0.000   0.000   0.000   0.000   0.000  -0.000   0.000  -0.000   0.000  -0.000   0.000
  0.000   0.000   0.000   0.000  -0.000   0.000   0.000   0.000   0.000   0.000  -0.000   0.000  -0.000   0.000   0.000   0.000
  0.000   0.000  -0.000   0.000   0.000   0.000  -0.000   0.000   0.000   0.000   0.000   0.000   0.000   0.000  -0.000   0.000
 -0.000   0.000  -0.000   0.000  -0.000   0.000  -0.000   0.000  -0.000   0.000   0.000   0.000   0.000   0.000   0.000   0.000
 -0.000   0.000  -0.000   0.000   0.000   0.000  -0.000   0.000  -0.000   0.000   0.000   0.000   0.000   0.000  -0.000   0.000
 total augmentation occupancy for first ion, spin component:           1
  1.906  -0.000   0.000   0.000  -0.000  -0.072   0.000   0.000   0.000  -0.000   0.000   0.000   0.000   0.000   0.000   0.000
 -0.000   1.906   0.000  -0.000  -0.000  -0.000  -0.072  -0.000  -0.000   0.000   0.000   0.000   0.000   0.000   0.000   0.000
  0.000   0.000   1.950  -0.000   0.000   0.000   0.000  -0.109   0.000   0.000  -0.000   0.000   0.000   0.000   0.000   0.000
 -0.000   0.000   0.000   1.906   0.000  -0.000   0.000  -0.000  -0.072  -0.000   0.000  -0.000   0.000   0.000   0.000   0.000
 -0.000   0.000   0.000  -0.000   1.950   0.000  -0.000   0.000   0.000  -0.109   0.000   0.000   0.000   0.000   0.000   0.000
 -0.072   0.000   0.000  -0.000   0.000   0.128   0.000   0.000   0.000   0.000  -0.000   0.000   0.000   0.000   0.000   0.000
 -0.000  -0.072   0.000   0.000   0.000  -0.000   0.128   0.000   0.000   0.000   0.000   0.000   0.000   0.000   0.000   0.000
  0.000   0.000  -0.109  -0.000  -0.000   0.000   0.000   0.103   0.000   0.000  -0.000   0.000   0.000   0.000   0.000   0.000
  0.000   0.000  -0.000  -0.072   0.000   0.000   0.000   0.000   0.128  -0.000   0.000   0.000   0.000   0.000   0.000   0.000
  0.000  -0.000   0.000   0.000  -0.109  -0.000  -0.000   0.000   0.000   0.103   0.000  -0.000   0.000   0.000   0.000   0.000
 -0.000  -0.000  -0.000  -0.000   0.000  -0.000   0.000  -0.000  -0.000   0.000   1.007  -0.292   0.000   0.000   0.000   0.000
  0.000   0.000   0.000  -0.000   0.000   0.000   0.000   0.000  -0.000  -0.000  -0.292   0.166   0.000   0.000   0.000   0.000
  0.000   0.000   0.000   0.000   0.000   0.000   0.000   0.000   0.000   0.000   0.000   0.000   0.116  -0.000   0.000  -0.009
  0.000   0.000   0.000   0.000   0.000   0.000   0.000   0.000   0.000   0.000   0.000   0.000  -0.000   0.116   0.000   0.000
  0.000   0.000   0.000   0.000   0.000   0.000   0.000   0.000   0.000   0.000   0.000   0.000  -0.000   0.000   0.116   0.000
  0.000   0.000   0.000   0.000   0.000   0.000   0.000   0.000   0.000   0.000   0.000   0.000  -0.009  -0.000   0.000   0.001
  0.000   0.000   0.000   0.000   0.000   0.000   0.000   0.000   0.000   0.000   0.000   0.000   0.000  -0.009  -0.000  -0.000
  0.000   0.000   0.000   0.000   0.000   0.000   0.000   0.000   0.000   0.000   0.000   0.000   0.000  -0.000  -0.009  -0.000


------------------------ aborting loop because EDIFF is reached ----------------------------------------


    CHARGE:  cpu time    0.0050: real time    0.0050
    FORLOC:  cpu time    0.0003: real time    0.0002
    FORNL :  cpu time    0.0101: real time    0.0101
    STRESS:  cpu time    0.0652: real time    0.0654
    FORCOR:  cpu time    0.0011: real time    0.0011
    FORHAR:  cpu time    0.0010: real time    0.0007
    MIXING:  cpu time    0.0000: real time    0.0003
    OFIELD:  cpu time    0.0000: real time    0.0000

  FORCE on cell =-STRESS in cart. coord.  units (eV):
  Direction    XX          YY          ZZ          XY          YZ          ZX
  --------------------------------------------------------------------------------------
  Alpha Z    92.46378    92.46378    92.46378
  Ewald    -309.63356  -309.63356  -309.63356     0.00000    -0.00000     0.00000
  Hartree    44.03241    44.03241    44.03241     0.00000     0.00000     0.00000
  E(xc)     -48.44481   -48.44481   -48.44481     0.00002     0.00002     0.00002
  Local      75.26652    75.26652    75.26652     0.00034     0.00034     0.00034
  n-local   -52.17621   -49.72752   -53.45698     0.55099    -0.75292    -0.02388
  augment    42.66023    42.66023    42.66023    -0.00008    -0.00008    -0.00008
  Kinetic   152.72815   151.53082   153.49200    -0.58453     0.32862     0.00571
  Fock        0.00000     0.00000     0.00000     0.00000     0.00000     0.00000
  -------------------------------------------------------------------------------------
  Total      -2.85868    -2.85868    -2.85868    -0.00000    -0.00000    -0.00000
  in kB    -230.42600  -230.42600  -230.42600    -0.00000    -0.00000    -0.00000
  external pressure =     -230.43 kB  Pullay stress =        0.00 kB


 VOLUME and BASIS-vectors are now :
 -----------------------------------------------------------------------------
  energy-cutoff  :      229.87
  volume of cell :       19.88
      direct lattice vectors                 reciprocal lattice vectors
     0.000000000  2.150000000  2.150000000    -0.232558140  0.232558140  0.232558140
     2.150000000  0.000000000  2.150000000     0.232558140 -0.232558140  0.232558140
     2.150000000  2.150000000  0.000000000     0.232558140  0.232558140 -0.232558140

  length of vectors
     3.040559159  3.040559159  3.040559159     0.402802513  0.402802513  0.402802513


 FORCES acting on ions
    electron-ion (+dipol)            ewald-force                    non-local-force                 convergence-correction
 -----------------------------------------------------------------------------------------------
   -.252E-14 -.248E-14 -.331E-14   0.229E-15 0.993E-15 0.227E-14   0.662E-23 0.000E+00 -.662E-23   -.271E-14 0.106E-13 0.555E-14
 -----------------------------------------------------------------------------------------------
   -.252E-14 -.248E-14 -.331E-14   0.229E-15 0.993E-15 0.227E-14   0.662E-23 0.000E+00 -.662E-23   -.271E-14 0.106E-13 0.555E-14
 
 
 POSITION                                       TOTAL-FORCE (eV/Angst)
 -----------------------------------------------------------------------------------
      0.00000      0.00000      0.00000         0.000000      0.000000      0.000000
 -----------------------------------------------------------------------------------
    total drift:                               -0.000000      0.000000      0.000000


--------------------------------------------------------------------------------------------------------



  FREE ENERGIE OF THE ION-ELECTRON SYSTEM (eV)
  ---------------------------------------------------
  free  energy   TOTEN  =        -4.15724307 eV

  energy  without entropy=       -4.15807485  energy(sigma->0) =       -4.15752033
 


--------------------------------------------------------------------------------------------------------


    POTLOK:  cpu time    0.0031: real time    0.0031


--------------------------------------------------------------------------------------------------------


 writing wavefunctions
     LOOP+:  cpu time    2.4217: real time    2.5010
    4ORBIT:  cpu time    0.0000: real time    0.0000

volume of typ            1:    71.6 %
 
total charge     
 
# of ion       s       p       d       tot
------------------------------------------
    1        0.543   0.314   8.841   9.698
 
orbital moment (x)
 
# of ion     s             p             d             tot
-----------------------------------------------------------------
    1     0.000000E+00 -0.299187E-08  0.807548E-08  0.508361E-08
 
orbital moment (y)
 
# of ion     s             p             d             tot
-----------------------------------------------------------------
    1     0.000000E+00 -0.905678E-08 -0.786253E-09 -0.984304E-08
 
orbital moment (z)
 
# of ion     s             p             d             tot
-----------------------------------------------------------------
    1     0.000000E+00  0.316365E-08 -0.873953E-09  0.228970E-08
 

 total amount of memory used by VASP MPI-rank0    34324. kBytes
=======================================================================

   base      :      30000. kBytes
   nonl-proj :       2727. kBytes
   fftplans  :        238. kBytes
   grid      :        331. kBytes
   one-center:         15. kBytes
   wavefun   :       1013. kBytes
 
  
  
 General timing and accounting informations for this job:
 ========================================================
  
                  Total CPU time used (sec):        2.995
                            User time (sec):        2.493
                          System time (sec):        0.502
                         Elapsed time (sec):        3.144
  
                   Maximum memory used (kb):       63152.
                   Average memory used (kb):           0.
  
                          Minor page faults:        22052
                          Major page faults:            0
                 Voluntary context switches:         2225
