PROCAR new format
# of k-points:  110         # of bands:   12         # of ions:    1

 k-point     1 :    0.05000000 0.05000000 0.05000000     weight = 0.00200000

band     1 # energy   -4.64991196 # occ.  2.00000000
 
ion      s      p      d    tot
    1  0.591  0.003  0.000  0.595
 
band     2 # energy   -0.29858662 # occ.  2.00000000
 
ion      s      p      d    tot
    1  0.000  0.001  0.928  0.929
 
band     3 # energy   -0.25353674 # occ.  2.00000000
 
ion      s      p      d    tot
    1  0.000  0.000  0.931  0.931
 
band     4 # energy   -0.25353674 # occ.  2.00000000
 
ion      s      p      d    tot
    1  0.000  0.000  0.931  0.931
 
band     5 # energy    0.88539132 # occ.  2.00000000
 
ion      s      p      d    tot
    1  0.000  0.000  0.959  0.959
 
band     6 # energy    0.88539132 # occ.  2.00000000
 
ion      s      p      d    tot
    1  0.000  0.000  0.959  0.959
 
band     7 # energy   18.96132641 # occ.  0.00000000
 
ion      s      p      d    tot
    1  0.000  0.001  0.012  0.013
 
band     8 # energy   21.13411207 # occ.  0.00000000
 
ion      s      p      d    tot
    1  0.017  0.269  0.015  0.301
 
band     9 # energy   21.85036863 # occ.  0.00000000
 
ion      s      p      d    tot
    1  0.000  0.292  0.008  0.300
 
band    10 # energy   21.85036863 # occ.  0.00000000
 
ion      s      p      d    tot
    1  0.000  0.292  0.008  0.300
 
band    11 # energy   26.34415179 # occ.  0.00000000
 
ion      s      p      d    tot
    1  0.055  0.076  0.023  0.154
 
band    12 # energy   28.36742438 # occ.  0.00000000
 
ion      s      p      d    tot
    1  0.018  0.101  0.284  0.404
 

 k-point     2 :    0.15000000 0.05000000 0.05000000     weight = 0.00600000

band     1 # energy   -4.25356649 # occ.  2.00000000
 
ion      s      p      d    tot
    1  0.572  0.021  0.003  0.596
 
band     2 # energy   -0.40797472 # occ.  2.00000000
 
ion      s      p      d    tot
    1  0.000  0.004  0.915  0.920
 
band     3 # energy   -0.14553984 # occ.  2.00000000
 
ion      s      p      d    tot
    1  0.000  0.000  0.932  0.933
 
band     4 # energy   -0.11881978 # occ.  2.00000000
 
ion      s      p      d    tot
    1  0.001  0.003  0.927  0.931
 
band     5 # energy    0.78215959 # occ.  2.00000000
 
ion      s      p      d    tot
    1  0.000  0.000  0.953  0.953
 
band     6 # energy    0.92766814 # occ.  2.00000000
 
ion      s      p      d    tot
    1  0.000  0.000  0.957  0.958
 
band     7 # energy   18.72532694 # occ.  0.00000000
 
ion      s      p      d    tot
    1  0.030  0.176  0.099  0.305
 
band     8 # energy   19.48056437 # occ.  0.00000000
 
ion      s      p      d    tot
    1  0.030  0.119  0.032  0.181
 
band     9 # energy   21.30246826 # occ.  0.00000000
 
ion      s      p      d    tot
    1  0.000  0.329  0.041  0.371
 
band    10 # energy   22.60858638 # occ.  0.00000000
 
ion      s      p      d    tot
    1  0.000  0.303  0.027  0.331
 
band    11 # energy   25.34049197 # occ.  0.00000000
 
ion      s      p      d    tot
    1  0.001  0.244  0.099  0.345
 
band    12 # energy   27.84164992 # occ.  0.00000000
 
ion      s      p      d    tot
    1  0.001  0.127  0.160  0.288
 

 k-point     3 :    0.25000000 0.05000000 0.05000000     weight = 0.00600000

band     1 # energy   -3.38338709 # occ.  2.00000000
 
ion      s      p      d    tot
    1  0.510  0.050  0.054  0.614
 
band     2 # energy   -0.47932290 # occ.  2.00000000
 
ion      s      p      d    tot
    1  0.015  0.025  0.848  0.888
 
band     3 # energy   -0.02213733 # occ.  2.00000000
 
ion      s      p      d    tot
    1  0.002  0.005  0.920  0.927
 
band     4 # energy   -0.00875126 # occ.  2.00000000
 
ion      s      p      d    tot
    1  0.000  0.000  0.933  0.933
 
band     5 # energy    0.79619491 # occ.  2.00000000
 
ion      s      p      d    tot
    1  0.000  0.001  0.947  0.948
 
band     6 # energy    1.09954148 # occ.  2.00000000
 
ion      s      p      d    tot
    1  0.003  0.002  0.949  0.955
 
band     7 # energy   15.19572885 # occ.  0.00000000
 
ion      s      p      d    tot
    1  0.110  0.303  0.137  0.551
 
band     8 # energy   19.40145341 # occ.  0.00000000
 
ion      s      p      d    tot
    1  0.010  0.092  0.104  0.206
 
band     9 # energy   21.19404515 # occ.  0.00000000
 
ion      s      p      d    tot
    1  0.002  0.358  0.069  0.429
 
band    10 # energy   23.22109209 # occ.  0.00000000
 
ion      s      p      d    tot
    1  0.000  0.471  0.084  0.555
 
band    11 # energy   23.92904033 # occ.  0.00000000
 
ion      s      p      d    tot
    1  0.020  0.158  0.029  0.207
 
band    12 # energy   25.80889008 # occ.  0.00000000
 
ion      s      p      d    tot
    1  0.000  0.119  0.187  0.307
 

 k-point     4 :    0.35000000 0.05000000 0.05000000     weight = 0.00600000

band     1 # energy   -2.57163143 # occ.  2.00000000
 
ion      s      p      d    tot
    1  0.343  0.038  0.322  0.703
 
band     2 # energy   -0.15421284 # occ.  2.00000000
 
ion      s      p      d    tot
    1  0.007  0.007  0.906  0.919
 
band     3 # energy   -0.09378344 # occ.  2.00000000
 
ion      s      p      d    tot
    1  0.000  0.000  0.928  0.928
 
band     4 # energy    0.11194196 # occ.  2.00000000
 
ion      s      p      d    tot
    1  0.094  0.109  0.586  0.789
 
band     5 # energy    1.16813831 # occ.  2.00000000
 
ion      s      p      d    tot
    1  0.000  0.002  0.953  0.955
 
band     6 # energy    1.54607061 # occ.  2.00000000
 
ion      s      p      d    tot
    1  0.018  0.013  0.917  0.948
 
band     7 # energy   11.34515172 # occ.  0.00000000
 
ion      s      p      d    tot
    1  0.192  0.289  0.168  0.649
 
band     8 # energy   18.88262261 # occ.  0.00000000
 
ion      s      p      d    tot
    1  0.004  0.092  0.078  0.174
 
band     9 # energy   20.20179386 # occ.  0.00000000
 
ion      s      p      d    tot
    1  0.008  0.419  0.051  0.478
 
band    10 # energy   21.98468209 # occ.  0.00000000
 
ion      s      p      d    tot
    1  0.000  0.558  0.059  0.617
 
band    11 # energy   24.92607798 # occ.  0.00000000
 
ion      s      p      d    tot
    1  0.040  0.067  0.136  0.243
 
band    12 # energy   25.73622493 # occ.  0.00000000
 
ion      s      p      d    tot
    1  0.000  0.001  0.318  0.319
 

 k-point     5 :    0.45000000 0.05000000 0.05000000     weight = 0.00600000

band     1 # energy   -2.34669160 # occ.  2.00000000
 
ion      s      p      d    tot
    1  0.203  0.008  0.574  0.785
 
band     2 # energy   -0.27285105 # occ.  2.00000000
 
ion      s      p      d    tot
    1  0.000  0.001  0.920  0.921
 
band     3 # energy   -0.22071259 # occ.  2.00000000
 
ion      s      p      d    tot
    1  0.000  0.000  0.923  0.923
 
band     4 # energy    1.33789719 # occ.  2.00000000
 
ion      s      p      d    tot
    1  0.041  0.110  0.686  0.836
 
band     5 # energy    1.61283839 # occ.  2.00000000
 
ion      s      p      d    tot
    1  0.000  0.001  0.966  0.967
 
band     6 # energy    2.45138917 # occ.  2.00000000
 
ion      s      p      d    tot
    1  0.108  0.180  0.478  0.766
 
band     7 # energy    7.79213327 # occ. -0.00000000
 
ion      s      p      d    tot
    1  0.308  0.192  0.233  0.732
 
band     8 # energy   18.34970335 # occ.  0.00000000
 
ion      s      p      d    tot
    1  0.001  0.054  0.034  0.089
 
band     9 # energy   19.41019534 # occ.  0.00000000
 
ion      s      p      d    tot
    1  0.010  0.471  0.027  0.509
 
band    10 # energy   20.38570043 # occ.  0.00000000
 
ion      s      p      d    tot
    1  0.000  0.531  0.021  0.552
 
band    11 # energy   26.19109743 # occ.  0.00000000
 
ion      s      p      d    tot
    1  0.032  0.009  0.335  0.376
 
band    12 # energy   26.28240299 # occ.  0.00000000
 
ion      s      p      d    tot
    1  0.000  0.004  0.436  0.440
 

 k-point     6 :   -0.45000000 0.05000000 0.05000000     weight = 0.00600000

band     1 # energy   -2.33552107 # occ.  2.00000000
 
ion      s      p      d    tot
    1  0.176  0.002  0.622  0.800
 
band     2 # energy   -0.32287535 # occ.  2.00000000
 
ion      s      p      d    tot
    1  0.000  0.001  0.919  0.919
 
band     3 # energy   -0.25074149 # occ.  2.00000000
 
ion      s      p      d    tot
    1  0.000  0.000  0.922  0.922
 
band     4 # energy    1.55592689 # occ.  2.00000000
 
ion      s      p      d    tot
    1  0.001  0.050  0.865  0.917
 
band     5 # energy    1.82451359 # occ.  2.00000000
 
ion      s      p      d    tot
    1  0.000  0.000  0.974  0.974
 
band     6 # energy    3.56212737 # occ.  1.46608084
 
ion      s      p      d    tot
    1  0.020  0.421  0.129  0.570
 
band     7 # energy    6.08553821 # occ. -0.00000000
 
ion      s      p      d    tot
    1  0.463  0.025  0.352  0.840
 
band     8 # energy   18.22287735 # occ.  0.00000000
 
ion      s      p      d    tot
    1  0.000  0.026  0.017  0.043
 
band     9 # energy   19.45959169 # occ.  0.00000000
 
ion      s      p      d    tot
    1  0.012  0.501  0.024  0.537
 
band    10 # energy   19.59911275 # occ.  0.00000000
 
ion      s      p      d    tot
    1  0.000  0.523  0.014  0.537
 
band    11 # energy   26.49128255 # occ.  0.00000000
 
ion      s      p      d    tot
    1  0.000  0.004  0.435  0.439
 
band    12 # energy   26.53618597 # occ.  0.00000000
 
ion      s      p      d    tot
    1  0.005  0.001  0.439  0.445
 

 k-point     7 :   -0.35000000 0.05000000 0.05000000     weight = 0.00600000

band     1 # energy   -2.37708305 # occ.  2.00000000
 
ion      s      p      d    tot
    1  0.233  0.015  0.518  0.767
 
band     2 # energy   -0.24981785 # occ.  2.00000000
 
ion      s      p      d    tot
    1  0.000  0.000  0.922  0.922
 
band     3 # energy   -0.16708498 # occ.  2.00000000
 
ion      s      p      d    tot
    1  0.000  0.001  0.924  0.925
 
band     4 # energy    0.90174398 # occ.  2.00000000
 
ion      s      p      d    tot
    1  0.080  0.130  0.581  0.791
 
band     5 # energy    1.67310440 # occ.  2.00000000
 
ion      s      p      d    tot
    1  0.000  0.001  0.969  0.969
 
band     6 # energy    1.90404103 # occ.  2.00000000
 
ion      s      p      d    tot
    1  0.083  0.100  0.663  0.845
 
band     7 # energy    8.90731822 # occ. -0.00000000
 
ion      s      p      d    tot
    1  0.262  0.237  0.202  0.701
 
band     8 # energy   18.59770878 # occ.  0.00000000
 
ion      s      p      d    tot
    1  0.000  0.019  0.027  0.047
 
band     9 # energy   19.75513940 # occ.  0.00000000
 
ion      s      p      d    tot
    1  0.000  0.516  0.051  0.567
 
band    10 # energy   20.46586343 # occ.  0.00000000
 
ion      s      p      d    tot
    1  0.016  0.508  0.048  0.573
 
band    11 # energy   26.13108763 # occ.  0.00000000
 
ion      s      p      d    tot
    1  0.007  0.024  0.354  0.385
 
band    12 # energy   26.43096972 # occ.  0.00000000
 
ion      s      p      d    tot
    1  0.000  0.008  0.325  0.332
 

 k-point     8 :   -0.25000000 0.05000000 0.05000000     weight = 0.00600000

band     1 # energy   -2.78191270 # occ.  2.00000000
 
ion      s      p      d    tot
    1  0.410  0.050  0.205  0.664
 
band     2 # energy   -0.25792646 # occ.  2.00000000
 
ion      s      p      d    tot
    1  0.056  0.060  0.729  0.845
 
band     3 # energy   -0.07062474 # occ.  2.00000000
 
ion      s      p      d    tot
    1  0.009  0.015  0.884  0.909
 
band     4 # energy   -0.03657090 # occ.  2.00000000
 
ion      s      p      d    tot
    1  0.000  0.002  0.928  0.930
 
band     5 # energy    1.10918676 # occ.  2.00000000
 
ion      s      p      d    tot
    1  0.013  0.010  0.920  0.942
 
band     6 # energy    1.29689884 # occ.  2.00000000
 
ion      s      p      d    tot
    1  0.000  0.001  0.959  0.960
 
band     7 # energy   12.61770582 # occ.  0.00000000
 
ion      s      p      d    tot
    1  0.162  0.302  0.157  0.622
 
band     8 # energy   19.31747390 # occ.  0.00000000
 
ion      s      p      d    tot
    1  0.003  0.017  0.062  0.083
 
band     9 # energy   20.48433565 # occ.  0.00000000
 
ion      s      p      d    tot
    1  0.000  0.491  0.105  0.596
 
band    10 # energy   22.10443398 # occ.  0.00000000
 
ion      s      p      d    tot
    1  0.023  0.502  0.074  0.599
 
band    11 # energy   24.60224415 # occ.  0.00000000
 
ion      s      p      d    tot
    1  0.014  0.118  0.118  0.250
 
band    12 # energy   26.35608595 # occ.  0.00000000
 
ion      s      p      d    tot
    1  0.018  0.077  0.167  0.262
 

 k-point     9 :   -0.15000000 0.05000000 0.05000000     weight = 0.00600000

band     1 # energy   -3.70574810 # occ.  2.00000000
 
ion      s      p      d    tot
    1  0.538  0.042  0.024  0.604
 
band     2 # energy   -0.49641927 # occ.  2.00000000
 
ion      s      p      d    tot
    1  0.006  0.013  0.884  0.903
 
band     3 # energy   -0.03055494 # occ.  2.00000000
 
ion      s      p      d    tot
    1  0.001  0.003  0.927  0.930
 
band     4 # energy   -0.02206101 # occ.  2.00000000
 
ion      s      p      d    tot
    1  0.000  0.003  0.930  0.932
 
band     5 # energy    0.76218047 # occ.  2.00000000
 
ion      s      p      d    tot
    1  0.002  0.001  0.944  0.947
 
band     6 # energy    1.00235768 # occ.  2.00000000
 
ion      s      p      d    tot
    1  0.000  0.001  0.956  0.957
 
band     7 # energy   16.47419650 # occ.  0.00000000
 
ion      s      p      d    tot
    1  0.085  0.292  0.127  0.505
 
band     8 # energy   19.68570506 # occ.  0.00000000
 
ion      s      p      d    tot
    1  0.010  0.012  0.066  0.088
 
band     9 # energy   21.11618566 # occ.  0.00000000
 
ion      s      p      d    tot
    1  0.000  0.417  0.106  0.523
 
band    10 # energy   22.90348965 # occ.  0.00000000
 
ion      s      p      d    tot
    1  0.003  0.332  0.049  0.384
 
band    11 # energy   24.13803731 # occ.  0.00000000
 
ion      s      p      d    tot
    1  0.021  0.282  0.056  0.358
 
band    12 # energy   26.89327891 # occ.  0.00000000
 
ion      s      p      d    tot
    1  0.000  0.088  0.125  0.213
 

 k-point    10 :   -0.05000000 0.05000000 0.05000000     weight = 0.00600000

band     1 # energy   -4.44870082 # occ.  2.00000000
 
ion      s      p      d    tot
    1  0.582  0.013  0.001  0.595
 
band     2 # energy   -0.37752691 # occ.  2.00000000
 
ion      s      p      d    tot
    1  0.000  0.001  0.924  0.925
 
band     3 # energy   -0.17859731 # occ.  2.00000000
 
ion      s      p      d    tot
    1  0.000  0.001  0.930  0.931
 
band     4 # energy   -0.17476885 # occ.  2.00000000
 
ion      s      p      d    tot
    1  0.000  0.001  0.930  0.932
 
band     5 # energy    0.79853146 # occ.  2.00000000
 
ion      s      p      d    tot
    1  0.000  0.000  0.954  0.954
 
band     6 # energy    0.92934858 # occ.  2.00000000
 
ion      s      p      d    tot
    1  0.000  0.000  0.960  0.960
 
band     7 # energy   19.07015265 # occ.  0.00000000
 
ion      s      p      d    tot
    1  0.001  0.016  0.048  0.065
 
band     8 # energy   20.25027870 # occ.  0.00000000
 
ion      s      p      d    tot
    1  0.038  0.244  0.027  0.309
 
band     9 # energy   21.43097398 # occ.  0.00000000
 
ion      s      p      d    tot
    1  0.000  0.334  0.046  0.381
 
band    10 # energy   21.90018561 # occ.  0.00000000
 
ion      s      p      d    tot
    1  0.005  0.288  0.023  0.316
 
band    11 # energy   26.42873574 # occ.  0.00000000
 
ion      s      p      d    tot
    1  0.001  0.275  0.092  0.368
 
band    12 # energy   27.82069855 # occ.  0.00000000
 
ion      s      p      d    tot
    1  0.000  0.118  0.247  0.366
 

 k-point    11 :    0.15000000 0.15000000 0.05000000     weight = 0.00600000

band     1 # energy   -4.05634954 # occ.  2.00000000
 
ion      s      p      d    tot
    1  0.562  0.030  0.005  0.597
 
band     2 # energy   -0.53814189 # occ.  2.00000000
 
ion      s      p      d    tot
    1  0.000  0.001  0.916  0.917
 
band     3 # energy   -0.02243175 # occ.  2.00000000
 
ion      s      p      d    tot
    1  0.000  0.004  0.928  0.932
 
band     4 # energy   -0.01912759 # occ.  2.00000000
 
ion      s      p      d    tot
    1  0.000  0.004  0.928  0.932
 
band     5 # energy    0.63872531 # occ.  2.00000000
 
ion      s      p      d    tot
    1  0.003  0.001  0.942  0.945
 
band     6 # energy    1.01381177 # occ.  2.00000000
 
ion      s      p      d    tot
    1  0.000  0.000  0.961  0.961
 
band     7 # energy   18.95935252 # occ.  0.00000000
 
ion      s      p      d    tot
    1  0.031  0.190  0.104  0.325
 
band     8 # energy   19.62399664 # occ.  0.00000000
 
ion      s      p      d    tot
    1  0.030  0.084  0.052  0.166
 
band     9 # energy   20.57158404 # occ.  0.00000000
 
ion      s      p      d    tot
    1  0.000  0.389  0.093  0.481
 
band    10 # energy   21.42018432 # occ.  0.00000000
 
ion      s      p      d    tot
    1  0.014  0.269  0.056  0.338
 
band    11 # energy   25.10305528 # occ.  0.00000000
 
ion      s      p      d    tot
    1  0.049  0.463  0.061  0.573
 
band    12 # energy   27.54266829 # occ.  0.00000000
 
ion      s      p      d    tot
    1  0.001  0.089  0.137  0.227
 

 k-point    12 :    0.25000000 0.15000000 0.05000000     weight = 0.01200000

band     1 # energy   -3.33567557 # occ.  2.00000000
 
ion      s      p      d    tot
    1  0.515  0.058  0.032  0.606
 
band     2 # energy   -0.72060808 # occ.  2.00000000
 
ion      s      p      d    tot
    1  0.001  0.006  0.897  0.904
 
band     3 # energy    0.06013132 # occ.  2.00000000
 
ion      s      p      d    tot
    1  0.000  0.005  0.921  0.927
 
band     4 # energy    0.19587174 # occ.  2.00000000
 
ion      s      p      d    tot
    1  0.000  0.005  0.930  0.934
 
band     5 # energy    0.60861794 # occ.  2.00000000
 
ion      s      p      d    tot
    1  0.012  0.007  0.915  0.934
 
band     6 # energy    1.18754555 # occ.  2.00000000
 
ion      s      p      d    tot
    1  0.003  0.002  0.955  0.960
 
band     7 # energy   16.68388293 # occ.  0.00000000
 
ion      s      p      d    tot
    1  0.096  0.310  0.109  0.515
 
band     8 # energy   18.48262183 # occ.  0.00000000
 
ion      s      p      d    tot
    1  0.012  0.293  0.166  0.471
 
band     9 # energy   20.66544604 # occ.  0.00000000
 
ion      s      p      d    tot
    1  0.001  0.156  0.086  0.243
 
band    10 # energy   21.79586421 # occ.  0.00000000
 
ion      s      p      d    tot
    1  0.002  0.122  0.108  0.232
 
band    11 # energy   23.07297480 # occ.  0.00000000
 
ion      s      p      d    tot
    1  0.085  0.564  0.026  0.676
 
band    12 # energy   26.83216980 # occ.  0.00000000
 
ion      s      p      d    tot
    1  0.000  0.075  0.128  0.203
 

 k-point    13 :    0.35000000 0.15000000 0.05000000     weight = 0.01200000

band     1 # energy   -2.42944988 # occ.  2.00000000
 
ion      s      p      d    tot
    1  0.384  0.066  0.216  0.666
 
band     2 # energy   -0.63312602 # occ.  2.00000000
 
ion      s      p      d    tot
    1  0.035  0.041  0.783  0.859
 
band     3 # energy   -0.16119565 # occ.  2.00000000
 
ion      s      p      d    tot
    1  0.000  0.005  0.909  0.914
 
band     4 # energy    0.20682157 # occ.  2.00000000
 
ion      s      p      d    tot
    1  0.001  0.005  0.925  0.931
 
band     5 # energy    1.12571131 # occ.  2.00000000
 
ion      s      p      d    tot
    1  0.023  0.019  0.889  0.931
 
band     6 # energy    1.65339039 # occ.  2.00000000
 
ion      s      p      d    tot
    1  0.031  0.017  0.896  0.944
 
band     7 # energy   12.83579526 # occ.  0.00000000
 
ion      s      p      d    tot
    1  0.163  0.317  0.140  0.620
 
band     8 # energy   17.87254938 # occ.  0.00000000
 
ion      s      p      d    tot
    1  0.017  0.367  0.147  0.531
 
band     9 # energy   19.69892272 # occ.  0.00000000
 
ion      s      p      d    tot
    1  0.009  0.136  0.091  0.235
 
band    10 # energy   21.00761721 # occ.  0.00000000
 
ion      s      p      d    tot
    1  0.048  0.364  0.125  0.537
 
band    11 # energy   24.60829925 # occ.  0.00000000
 
ion      s      p      d    tot
    1  0.009  0.300  0.029  0.338
 
band    12 # energy   26.57041711 # occ.  0.00000000
 
ion      s      p      d    tot
    1  0.011  0.017  0.210  0.238
 

 k-point    14 :    0.45000000 0.15000000 0.05000000     weight = 0.01200000

band     1 # energy   -2.06107679 # occ.  2.00000000
 
ion      s      p      d    tot
    1  0.202  0.026  0.548  0.776
 
band     2 # energy   -0.38869436 # occ.  2.00000000
 
ion      s      p      d    tot
    1  0.001  0.004  0.901  0.906
 
band     3 # energy    0.03814604 # occ.  2.00000000
 
ion      s      p      d    tot
    1  0.010  0.022  0.872  0.904
 
band     4 # energy    0.19089355 # occ.  2.00000000
 
ion      s      p      d    tot
    1  0.049  0.077  0.713  0.839
 
band     5 # energy    1.67282096 # occ.  2.00000000
 
ion      s      p      d    tot
    1  0.003  0.008  0.951  0.962
 
band     6 # energy    2.72266024 # occ.  2.00000000
 
ion      s      p      d    tot
    1  0.133  0.110  0.593  0.835
 
band     7 # energy    9.13655649 # occ.  0.00000000
 
ion      s      p      d    tot
    1  0.249  0.259  0.177  0.685
 
band     8 # energy   17.55212701 # occ.  0.00000000
 
ion      s      p      d    tot
    1  0.022  0.408  0.111  0.541
 
band     9 # energy   18.31993362 # occ.  0.00000000
 
ion      s      p      d    tot
    1  0.021  0.209  0.106  0.335
 
band    10 # energy   20.01188913 # occ.  0.00000000
 
ion      s      p      d    tot
    1  0.019  0.342  0.065  0.426
 
band    11 # energy   26.43072614 # occ.  0.00000000
 
ion      s      p      d    tot
    1  0.013  0.054  0.247  0.315
 
band    12 # energy   27.31310482 # occ.  0.00000000
 
ion      s      p      d    tot
    1  0.006  0.067  0.246  0.319
 

 k-point    15 :   -0.45000000 0.15000000 0.05000000     weight = 0.01200000

band     1 # energy   -2.03239694 # occ.  2.00000000
 
ion      s      p      d    tot
    1  0.150  0.014  0.643  0.808
 
band     2 # energy   -0.48632220 # occ.  2.00000000
 
ion      s      p      d    tot
    1  0.000  0.005  0.898  0.903
 
band     3 # energy   -0.01902092 # occ.  2.00000000
 
ion      s      p      d    tot
    1  0.000  0.003  0.921  0.924
 
band     4 # energy    0.79517507 # occ.  2.00000000
 
ion      s      p      d    tot
    1  0.003  0.094  0.758  0.855
 
band     5 # energy    1.78817781 # occ.  2.00000000
 
ion      s      p      d    tot
    1  0.000  0.000  0.971  0.972
 
band     6 # energy    4.65228569 # occ. -0.00000000
 
ion      s      p      d    tot
    1  0.045  0.349  0.257  0.651
 
band     7 # energy    6.13760643 # occ. -0.00000000
 
ion      s      p      d    tot
    1  0.449  0.054  0.309  0.812
 
band     8 # energy   17.20370459 # occ.  0.00000000
 
ion      s      p      d    tot
    1  0.040  0.372  0.107  0.519
 
band     9 # energy   17.84276116 # occ.  0.00000000
 
ion      s      p      d    tot
    1  0.011  0.295  0.099  0.405
 
band    10 # energy   19.58657957 # occ.  0.00000000
 
ion      s      p      d    tot
    1  0.003  0.317  0.017  0.338
 
band    11 # energy   26.55069356 # occ.  0.00000000
 
ion      s      p      d    tot
    1  0.026  0.004  0.376  0.406
 
band    12 # energy   27.73968016 # occ.  0.00000000
 
ion      s      p      d    tot
    1  0.003  0.010  0.308  0.321
 

 k-point    16 :   -0.35000000 0.15000000 0.05000000     weight = 0.01200000

band     1 # energy   -2.02471417 # occ.  2.00000000
 
ion      s      p      d    tot
    1  0.176  0.021  0.596  0.793
 
band     2 # energy   -0.42765422 # occ.  2.00000000
 
ion      s      p      d    tot
    1  0.000  0.004  0.903  0.907
 
band     3 # energy    0.00096226 # occ.  2.00000000
 
ion      s      p      d    tot
    1  0.000  0.003  0.921  0.924
 
band     4 # energy    0.55673494 # occ.  2.00000000
 
ion      s      p      d    tot
    1  0.034  0.108  0.682  0.823
 
band     5 # energy    1.56047502 # occ.  2.00000000
 
ion      s      p      d    tot
    1  0.001  0.005  0.955  0.961
 
band     6 # energy    3.35519046 # occ.  2.06832652
 
ion      s      p      d    tot
    1  0.158  0.147  0.491  0.797
 
band     7 # energy    8.06223387 # occ. -0.00000000
 
ion      s      p      d    tot
    1  0.279  0.224  0.208  0.711
 
band     8 # energy   16.71657242 # occ.  0.00000000
 
ion      s      p      d    tot
    1  0.034  0.377  0.126  0.538
 
band     9 # energy   18.62412644 # occ.  0.00000000
 
ion      s      p      d    tot
    1  0.016  0.203  0.078  0.297
 
band    10 # energy   20.19542821 # occ.  0.00000000
 
ion      s      p      d    tot
    1  0.001  0.409  0.031  0.441
 
band    11 # energy   26.01942903 # occ.  0.00000000
 
ion      s      p      d    tot
    1  0.027  0.019  0.290  0.336
 
band    12 # energy   27.32545845 # occ.  0.00000000
 
ion      s      p      d    tot
    1  0.000  0.033  0.318  0.351
 

 k-point    17 :   -0.25000000 0.15000000 0.05000000     weight = 0.01200000

band     1 # energy   -2.20977730 # occ.  2.00000000
 
ion      s      p      d    tot
    1  0.320  0.055  0.331  0.705
 
band     2 # energy   -0.41419711 # occ.  2.00000000
 
ion      s      p      d    tot
    1  0.040  0.044  0.780  0.864
 
band     3 # energy   -0.17472652 # occ.  2.00000000
 
ion      s      p      d    tot
    1  0.016  0.033  0.828  0.877
 
band     4 # energy    0.14504152 # occ.  2.00000000
 
ion      s      p      d    tot
    1  0.004  0.005  0.917  0.926
 
band     5 # energy    1.04619959 # occ.  2.00000000
 
ion      s      p      d    tot
    1  0.006  0.008  0.928  0.943
 
band     6 # energy    2.09707010 # occ.  2.00000000
 
ion      s      p      d    tot
    1  0.068  0.034  0.821  0.923
 
band     7 # energy   11.58892200 # occ.  0.00000000
 
ion      s      p      d    tot
    1  0.192  0.300  0.150  0.642
 
band     8 # energy   16.85870853 # occ.  0.00000000
 
ion      s      p      d    tot
    1  0.029  0.360  0.162  0.551
 
band     9 # energy   19.76286106 # occ.  0.00000000
 
ion      s      p      d    tot
    1  0.014  0.145  0.052  0.210
 
band    10 # energy   21.78428644 # occ.  0.00000000
 
ion      s      p      d    tot
    1  0.011  0.450  0.088  0.548
 
band    11 # energy   24.60606730 # occ.  0.00000000
 
ion      s      p      d    tot
    1  0.007  0.137  0.091  0.235
 
band    12 # energy   26.50209992 # occ.  0.00000000
 
ion      s      p      d    tot
    1  0.007  0.066  0.280  0.353
 

 k-point    18 :   -0.15000000 0.15000000 0.05000000     weight = 0.01200000

band     1 # energy   -3.02155790 # occ.  2.00000000
 
ion      s      p      d    tot
    1  0.489  0.066  0.060  0.615
 
band     2 # energy   -0.68222034 # occ.  2.00000000
 
ion      s      p      d    tot
    1  0.003  0.014  0.879  0.896
 
band     3 # energy   -0.01570605 # occ.  2.00000000
 
ion      s      p      d    tot
    1  0.002  0.009  0.908  0.919
 
band     4 # energy    0.21253372 # occ.  2.00000000
 
ion      s      p      d    tot
    1  0.000  0.002  0.934  0.936
 
band     5 # energy    0.60338313 # occ.  2.00000000
 
ion      s      p      d    tot
    1  0.005  0.004  0.928  0.937
 
band     6 # energy    1.39524763 # occ.  2.00000000
 
ion      s      p      d    tot
    1  0.016  0.008  0.930  0.953
 
band     7 # energy   15.32675353 # occ.  0.00000000
 
ion      s      p      d    tot
    1  0.132  0.309  0.108  0.549
 
band     8 # energy   17.45183823 # occ.  0.00000000
 
ion      s      p      d    tot
    1  0.014  0.317  0.197  0.528
 
band     9 # energy   21.29868364 # occ.  0.00000000
 
ion      s      p      d    tot
    1  0.006  0.147  0.046  0.198
 
band    10 # energy   22.20111307 # occ.  0.00000000
 
ion      s      p      d    tot
    1  0.012  0.136  0.061  0.209
 
band    11 # energy   24.21961873 # occ.  0.00000000
 
ion      s      p      d    tot
    1  0.022  0.649  0.020  0.690
 
band    12 # energy   25.62747513 # occ.  0.00000000
 
ion      s      p      d    tot
    1  0.002  0.026  0.202  0.229
 

 k-point    19 :   -0.05000000 0.15000000 0.05000000     weight = 0.01200000

band     1 # energy   -3.87365805 # occ.  2.00000000
 
ion      s      p      d    tot
    1  0.551  0.037  0.011  0.599
 
band     2 # energy   -0.53119523 # occ.  2.00000000
 
ion      s      p      d    tot
    1  0.001  0.005  0.906  0.913
 
band     3 # energy   -0.01845162 # occ.  2.00000000
 
ion      s      p      d    tot
    1  0.001  0.005  0.924  0.930
 
band     4 # energy   -0.01337470 # occ.  2.00000000
 
ion      s      p      d    tot
    1  0.000  0.002  0.930  0.933
 
band     5 # energy    0.66975759 # occ.  2.00000000
 
ion      s      p      d    tot
    1  0.002  0.001  0.943  0.946
 
band     6 # energy    1.02644791 # occ.  2.00000000
 
ion      s      p      d    tot
    1  0.001  0.001  0.957  0.958
 
band     7 # energy   17.75863332 # occ.  0.00000000
 
ion      s      p      d    tot
    1  0.070  0.273  0.103  0.446
 
band     8 # energy   19.12810543 # occ.  0.00000000
 
ion      s      p      d    tot
    1  0.014  0.140  0.121  0.275
 
band     9 # energy   20.94954947 # occ.  0.00000000
 
ion      s      p      d    tot
    1  0.000  0.272  0.039  0.311
 
band    10 # energy   22.64569185 # occ.  0.00000000
 
ion      s      p      d    tot
    1  0.002  0.254  0.061  0.317
 
band    11 # energy   24.39468887 # occ.  0.00000000
 
ion      s      p      d    tot
    1  0.026  0.367  0.041  0.433
 
band    12 # energy   27.00777549 # occ.  0.00000000
 
ion      s      p      d    tot
    1  0.009  0.247  0.161  0.417
 

 k-point    20 :    0.25000000 0.25000000 0.05000000     weight = 0.00600000

band     1 # energy   -2.84597641 # occ.  2.00000000
 
ion      s      p      d    tot
    1  0.465  0.075  0.076  0.616
 
band     2 # energy   -0.99462884 # occ.  2.00000000
 
ion      s      p      d    tot
    1  0.000  0.001  0.897  0.899
 