<?xml version="1.0" encoding="ISO-8859-1"?>
<modeling>
 <generator>
  <i name="program" type="string">vasp </i>
  <i name="version" type="string">5.4.4.18Apr17-6-g9f103f2a35  </i>
  <i name="subversion" type="string">(build May 18 2018 14:42:58) complex            parallel </i>
  <i name="platform" type="string">LinuxIFC </i>
  <i name="date" type="string">2020 06 30 </i>
  <i name="time" type="string">13:41:17 </i>
 </generator>
 <incar>
  <i type="string" name="SYSTEM"> fcc Au</i>
  <i type="string" name="PREC">normal</i>
  <v name="RWIGS">      1.50300000</v>
  <v type="int" name="KPOINT_BSE">    -1     0     0     0</v>
 </incar>
 <structure name="primitive_cell" >
  <crystal>
   <varray name="basis" >
    <v>       0.00000000       2.15000000       2.15000000 </v>
    <v>       2.15000000       0.00000000       2.15000000 </v>
    <v>       2.15000000       2.15000000       0.00000000 </v>
   </varray>
   <i name="volume">     19.87675000 </i>
   <varray name="rec_basis" >
    <v>      -0.23255814       0.23255814       0.23255814 </v>
    <v>       0.23255814      -0.23255814       0.23255814 </v>
    <v>       0.23255814       0.23255814      -0.23255814 </v>
   </varray>
  </crystal>
  <varray name="positions" >
   <v>       0.00000000       0.00000000       0.00000000 </v>
  </varray>
 </structure>
 <varray name="primitive_index" >
  <v type="int" >        1 </v>
 </varray>
 <kpoints>
  <generation param="Monkhorst-Pack">
   <v type="int" name="divisions">      10       10       10 </v>
   <v name="usershift">      0.00000000       0.00000000       0.00000000 </v>
   <v name="genvec1">      0.10000000       0.00000000       0.00000000 </v>
   <v name="genvec2">      0.00000000       0.10000000       0.00000000 </v>
   <v name="genvec3">      0.00000000       0.00000000       0.10000000 </v>
   <v name="shift">      0.50000000       0.50000000       0.50000000 </v>
  </generation>
  <varray name="kpointlist" >
   <v>       0.05000000       0.05000000       0.05000000 </v>
   <v>       0.15000000       0.05000000       0.05000000 </v>
   <v>       0.25000000       0.05000000       0.05000000 </v>
   <v>       0.35000000       0.05000000       0.05000000 </v>
   <v>       0.45000000       0.05000000       0.05000000 </v>
   <v>      -0.45000000       0.05000000       0.05000000 </v>
   <v>      -0.35000000       0.05000000       0.05000000 </v>
   <v>      -0.25000000       0.05000000       0.05000000 </v>
   <v>      -0.15000000       0.05000000       0.05000000 </v>
   <v>      -0.05000000       0.05000000       0.05000000 </v>
   <v>       0.15000000       0.15000000       0.05000000 </v>
   <v>       0.25000000       0.15000000       0.05000000 </v>
   <v>       0.35000000       0.15000000       0.05000000 </v>
   <v>       0.45000000       0.15000000       0.05000000 </v>
   <v>      -0.45000000       0.15000000       0.05000000 </v>
   <v>      -0.35000000       0.15000000       0.05000000 </v>
   <v>      -0.25000000       0.15000000       0.05000000 </v>
   <v>      -0.15000000       0.15000000       0.05000000 </v>
   <v>      -0.05000000       0.15000000       0.05000000 </v>
   <v>       0.25000000       0.25000000       0.05000000 </v>
   <v>       0.35000000       0.25000000       0.05000000 </v>
   <v>       0.45000000       0.25000000       0.05000000 </v>
   <v>      -0.45000000       0.25000000       0.05000000 </v>
   <v>      -0.35000000       0.25000000       0.05000000 </v>
   <v>      -0.25000000       0.25000000       0.05000000 </v>
   <v>      -0.15000000       0.25000000       0.05000000 </v>
   <v>      -0.05000000       0.25000000       0.05000000 </v>
   <v>       0.35000000       0.35000000       0.05000000 </v>
   <v>       0.45000000       0.35000000       0.05000000 </v>
   <v>      -0.45000000       0.35000000       0.05000000 </v>
   <v>      -0.35000000       0.35000000       0.05000000 </v>
   <v>      -0.25000000       0.35000000       0.05000000 </v>
   <v>      -0.15000000       0.35000000       0.05000000 </v>
   <v>      -0.05000000       0.35000000       0.05000000 </v>
   <v>       0.45000000       0.45000000       0.05000000 </v>
   <v>      -0.45000000       0.45000000       0.05000000 </v>
   <v>      -0.35000000       0.45000000       0.05000000 </v>
   <v>      -0.25000000       0.45000000       0.05000000 </v>
   <v>      -0.15000000       0.45000000       0.05000000 </v>
   <v>      -0.05000000       0.45000000       0.05000000 </v>
   <v>      -0.45000000      -0.45000000       0.05000000 </v>
   <v>      -0.35000000      -0.45000000       0.05000000 </v>
   <v>      -0.25000000      -0.45000000       0.05000000 </v>
   <v>      -0.15000000      -0.45000000       0.05000000 </v>
   <v>      -0.35000000      -0.35000000       0.05000000 </v>
   <v>      -0.25000000      -0.35000000       0.05000000 </v>
   <v>      -0.15000000      -0.35000000       0.05000000 </v>
   <v>      -0.25000000      -0.25000000       0.05000000 </v>
   <v>      -0.15000000      -0.25000000       0.05000000 </v>
   <v>      -0.15000000      -0.15000000       0.05000000 </v>
   <v>       0.15000000       0.15000000       0.15000000 </v>
   <v>       0.25000000       0.15000000       0.15000000 </v>
   <v>       0.35000000       0.15000000       0.15000000 </v>
   <v>       0.45000000       0.15000000       0.15000000 </v>
   <v>      -0.45000000       0.15000000       0.15000000 </v>
   <v>      -0.35000000       0.15000000       0.15000000 </v>
   <v>      -0.25000000       0.15000000       0.15000000 </v>
   <v>      -0.15000000       0.15000000       0.15000000 </v>
   <v>       0.25000000       0.25000000       0.15000000 </v>
   <v>       0.35000000       0.25000000       0.15000000 </v>
   <v>       0.45000000       0.25000000       0.15000000 </v>
   <v>      -0.45000000       0.25000000       0.15000000 </v>
   <v>      -0.35000000       0.25000000       0.15000000 </v>
   <v>      -0.25000000       0.25000000       0.15000000 </v>
   <v>      -0.15000000       0.25000000       0.15000000 </v>
   <v>       0.35000000       0.35000000       0.15000000 </v>
   <v>       0.45000000       0.35000000       0.15000000 </v>
   <v>      -0.45000000       0.35000000       0.15000000 </v>
   <v>      -0.35000000       0.35000000       0.15000000 </v>
   <v>      -0.25000000       0.35000000       0.15000000 </v>
   <v>      -0.15000000       0.35000000       0.15000000 </v>
   <v>       0.45000000       0.45000000       0.15000000 </v>
   <v>      -0.45000000       0.45000000       0.15000000 </v>
   <v>      -0.35000000       0.45000000       0.15000000 </v>
   <v>      -0.25000000       0.45000000       0.15000000 </v>
   <v>      -0.15000000       0.45000000       0.15000000 </v>
   <v>      -0.45000000      -0.45000000       0.15000000 </v>
   <v>      -0.35000000      -0.45000000       0.15000000 </v>
   <v>      -0.25000000      -0.45000000       0.15000000 </v>
   <v>      -0.35000000      -0.35000000       0.15000000 </v>
   <v>      -0.25000000      -0.35000000       0.15000000 </v>
   <v>      -0.25000000      -0.25000000       0.15000000 </v>
   <v>       0.25000000       0.25000000       0.25000000 </v>
   <v>       0.35000000       0.25000000       0.25000000 </v>
   <v>       0.45000000       0.25000000       0.25000000 </v>
   <v>      -0.45000000       0.25000000       0.25000000 </v>
   <v>      -0.35000000       0.25000000       0.25000000 </v>
   <v>      -0.25000000       0.25000000       0.25000000 </v>
   <v>       0.35000000       0.35000000       0.25000000 </v>
   <v>       0.45000000       0.35000000       0.25000000 </v>
   <v>      -0.45000000       0.35000000       0.25000000 </v>
   <v>      -0.35000000       0.35000000       0.25000000 </v>
   <v>      -0.25000000       0.35000000       0.25000000 </v>
   <v>       0.45000000       0.45000000       0.25000000 </v>
   <v>      -0.45000000       0.45000000       0.25000000 </v>
   <v>      -0.35000000       0.45000000       0.25000000 </v>
   <v>      -0.25000000       0.45000000       0.25000000 </v>
   <v>      -0.45000000      -0.45000000       0.25000000 </v>
   <v>      -0.35000000      -0.45000000       0.25000000 </v>
   <v>      -0.35000000      -0.35000000       0.25000000 </v>
   <v>       0.35000000       0.35000000       0.35000000 </v>
   <v>       0.45000000       0.35000000       0.35000000 </v>
   <v>      -0.45000000       0.35000000       0.35000000 </v>
   <v>      -0.35000000       0.35000000       0.35000000 </v>
   <v>       0.45000000       0.45000000       0.35000000 </v>
   <v>      -0.45000000       0.45000000       0.35000000 </v>
   <v>      -0.35000000       0.45000000       0.35000000 </v>
   <v>      -0.45000000      -0.45000000       0.35000000 </v>
   <v>       0.45000000       0.45000000       0.45000000 </v>
   <v>      -0.45000000       0.45000000       0.45000000 </v>
  </varray>
  <varray name="weights" >
   <v>       0.00200000 </v>
   <v>       0.00600000 </v>
   <v>       0.00600000 </v>
   <v>       0.00600000 </v>
   <v>       0.00600000 </v>
   <v>       0.00600000 </v>
   <v>       0.00600000 </v>
   <v>       0.00600000 </v>
   <v>       0.00600000 </v>
   <v>       0.00600000 </v>
   <v>       0.00600000 </v>
   <v>       0.01200000 </v>
   <v>       0.01200000 </v>
   <v>       0.01200000 </v>
   <v>       0.01200000 </v>
   <v>       0.01200000 </v>
   <v>       0.01200000 </v>
   <v>       0.01200000 </v>
   <v>       0.01200000 </v>
   <v>       0.00600000 </v>
   <v>       0.01200000 </v>
   <v>       0.01200000 </v>
   <v>       0.01200000 </v>
   <v>       0.01200000 </v>
   <v>       0.01200000 </v>
   <v>       0.01200000 </v>
   <v>       0.01200000 </v>
   <v>       0.00600000 </v>
   <v>       0.01200000 </v>
   <v>       0.01200000 </v>
   <v>       0.01200000 </v>
   <v>       0.01200000 </v>
   <v>       0.01200000 </v>
   <v>       0.01200000 </v>
   <v>       0.00600000 </v>
   <v>       0.01200000 </v>
   <v>       0.01200000 </v>
   <v>       0.01200000 </v>
   <v>       0.01200000 </v>
   <v>       0.01200000 </v>
   <v>       0.00600000 </v>
   <v>       0.01200000 </v>
   <v>       0.01200000 </v>
   <v>       0.01200000 </v>
   <v>       0.00600000 </v>
   <v>       0.01200000 </v>
   <v>       0.01200000 </v>
   <v>       0.00600000 </v>
   <v>       0.01200000 </v>
   <v>       0.00600000 </v>
   <v>       0.00200000 </v>
   <v>       0.00600000 </v>
   <v>       0.00600000 </v>
   <v>       0.00600000 </v>
   <v>       0.00600000 </v>
   <v>       0.00600000 </v>
   <v>       0.00600000 </v>
   <v>       0.00600000 </v>
   <v>       0.00600000 </v>
   <v>       0.01200000 </v>
   <v>       0.01200000 </v>
   <v>       0.01200000 </v>
   <v>       0.01200000 </v>
   <v>       0.01200000 </v>
   <v>       0.01200000 </v>
   <v>       0.00600000 </v>
   <v>       0.01200000 </v>
   <v>       0.01200000 </v>
   <v>       0.01200000 </v>
   <v>       0.01200000 </v>
   <v>       0.01200000 </v>
   <v>       0.00600000 </v>
   <v>       0.01200000 </v>
   <v>       0.01200000 </v>
   <v>       0.01200000 </v>
   <v>       0.01200000 </v>
   <v>       0.00600000 </v>
   <v>       0.01200000 </v>
   <v>       0.01200000 </v>
   <v>       0.00600000 </v>
   <v>       0.01200000 </v>
   <v>       0.00600000 </v>
   <v>       0.00200000 </v>
   <v>       0.00600000 </v>
   <v>       0.00600000 </v>
   <v>       0.00600000 </v>
   <v>       0.00600000 </v>
   <v>       0.00600000 </v>
   <v>       0.00600000 </v>
   <v>       0.01200000 </v>
   <v>       0.01200000 </v>
   <v>       0.01200000 </v>
   <v>       0.01200000 </v>
   <v>       0.00600000 </v>
   <v>       0.01200000 </v>
   <v>       0.01200000 </v>
   <v>       0.01200000 </v>
   <v>       0.00600000 </v>
   <v>       0.01200000 </v>
   <v>       0.00600000 </v>
   <v>       0.00200000 </v>
   <v>       0.00600000 </v>
   <v>       0.00600000 </v>
   <v>       0.00600000 </v>
   <v>       0.00600000 </v>
   <v>       0.01200000 </v>
   <v>       0.01200000 </v>
   <v>       0.00600000 </v>
   <v>       0.00200000 </v>
   <v>       0.00600000 </v>
  </varray>
 </kpoints>
 <parameters>
  <separator name="general" >
   <i type="string" name="SYSTEM">fcc Au</i>
   <i type="logical" name="LCOMPAT"> F  </i>
  </separator>
  <separator name="electronic" >
   <i type="string" name="PREC">normal</i>
   <i name="ENMAX">    229.86900000</i>
   <i name="ENAUG">    356.67000000</i>
   <i name="EDIFF">      0.00010000</i>
   <i type="int" name="IALGO">    38</i>
   <i type="int" name="IWAVPR">    10</i>
   <i type="int" name="NBANDS">    12</i>
   <i name="NELECT">     11.00000000</i>
   <i type="int" name="TURBO">     0</i>
   <i type="int" name="IRESTART">     0</i>
   <i type="int" name="NREBOOT">     0</i>
   <i type="int" name="NMIN">     0</i>
   <i name="EREF">      0.00000000</i>
   <separator name="electronic smearing" >
    <i type="int" name="ISMEAR">     1</i>
    <i name="SIGMA">      0.20000000</i>
    <i name="KSPACING">      0.50000000</i>
    <i type="logical" name="KGAMMA"> T  </i>
   </separator>
   <separator name="electronic projectors" >
    <i type="logical" name="LREAL"> F  </i>
    <v name="ROPT">      0.00000000</v>
    <i type="int" name="LMAXPAW">  -100</i>
    <i type="int" name="LMAXMIX">     2</i>
    <i type="logical" name="NLSPLINE"> F  </i>
   </separator>
   <separator name="electronic startup" >
    <i type="int" name="ISTART">     0</i>
    <i type="int" name="ICHARG">     2</i>
    <i type="int" name="INIWAV">     1</i>
   </separator>
   <separator name="electronic spin" >
    <i type="int" name="ISPIN">     1</i>
    <i type="logical" name="LNONCOLLINEAR"> F  </i>
    <v name="MAGMOM">      1.00000000</v>
    <i name="NUPDOWN">     -1.00000000</i>
    <i type="logical" name="LSORBIT"> F  </i>
    <v name="SAXIS">      0.00000000      0.00000000      1.00000000</v>
    <i type="logical" name="LSPIRAL"> F  </i>
    <v name="QSPIRAL">      0.00000000      0.00000000      0.00000000</v>
    <i type="logical" name="LZEROZ"> F  </i>
   </separator>
   <separator name="electronic exchange-correlation" >
    <i type="logical" name="LASPH"> F  </i>
    <i type="logical" name="LMETAGGA"> F  </i>
   </separator>
   <separator name="electronic convergence" >
    <i type="int" name="NELM">    60</i>
    <i type="int" name="NELMDL">    -5</i>
    <i type="int" name="NELMIN">     2</i>
    <i name="ENINI">    229.86900000</i>
    <separator name="electronic convergence detail" >
     <i type="logical" name="LDIAG"> T  </i>
     <i type="logical" name="LSUBROT"> F  </i>
     <i name="WEIMIN">      0.00000000</i>
     <i name="EBREAK">      0.00000208</i>
     <i name="DEPER">      0.30000000</i>
     <i type="int" name="NRMM">     4</i>
     <i name="TIME">      0.40000000</i>
    </separator>
   </separator>
   <separator name="electronic mixer" >
    <i name="AMIX">      0.40000000</i>
    <i name="BMIX">      1.00000000</i>
    <i name="AMIN">      0.10000000</i>
    <i name="AMIX_MAG">      1.60000000</i>
    <i name="BMIX_MAG">      1.00000000</i>
    <separator name="electronic mixer details" >
     <i type="int" name="IMIX">     4</i>
     <i type="logical" name="MIXFIRST"> F  </i>
     <i type="int" name="MAXMIX">   -45</i>
     <i name="WC">    100.00000000</i>
     <i type="int" name="INIMIX">     1</i>
     <i type="int" name="MIXPRE">     1</i>
     <i type="int" name="MREMOVE">     5</i>
    </separator>
   </separator>
   <separator name="electronic dipolcorrection" >
    <i type="logical" name="LDIPOL"> F  </i>
    <i type="logical" name="LMONO"> F  </i>
    <i type="int" name="IDIPOL">     0</i>
    <i name="EPSILON">      1.00000000</i>
    <v name="DIPOL">   -100.00000000   -100.00000000   -100.00000000</v>
    <i name="EFIELD">      0.00000000</i>
   </separator>
  </separator>
  <separator name="grids" >
   <i type="int" name="NGX">    12</i>
   <i type="int" name="NGY">    12</i>
   <i type="int" name="NGZ">    12</i>
   <i type="int" name="NGXF">    24</i>
   <i type="int" name="NGYF">    24</i>
   <i type="int" name="NGZF">    24</i>
   <i type="logical" name="ADDGRID"> F  </i>
  </separator>
  <separator name="ionic" >
   <i type="int" name="NSW">     0</i>
   <i type="int" name="IBRION">    -1</i>
   <i type="int" name="MDALGO">     0</i>
   <i type="int" name="ISIF">     2</i>
   <i name="PSTRESS">      0.00000000</i>
   <i name="EDIFFG">      0.00100000</i>
   <i type="int" name="NFREE">     0</i>
   <i name="POTIM">      0.50000000</i>
   <i name="SMASS">     -3.00000000</i>
   <i name="SCALEE">      1.00000000</i>
  </separator>
  <separator name="ionic md" >
   <i name="TEBEG">      0.00010000</i>
   <i name="TEEND">      0.00010000</i>
   <i type="int" name="NBLOCK">     1</i>
   <i type="int" name="KBLOCK">     1</i>
   <i type="int" name="NPACO">   256</i>
   <i name="APACO">     16.00000000</i>
  </separator>
  <separator name="symmetry" >
   <i type="int" name="ISYM">     2</i>
   <i name="SYMPREC">      0.00001000</i>
  </separator>
  <separator name="dos" >
   <i type="int" name="LORBIT">     0</i>
   <v name="RWIGS">      1.50300000</v>
   <i type="int" name="NEDOS">   301</i>
   <i name="EMIN">     10.00000000</i>
   <i name="EMAX">    -10.00000000</i>
   <i name="EFERMI">      0.00000000</i>
  </separator>
  <separator name="writing" >
   <i type="int" name="NWRITE">     2</i>
   <i type="logical" name="LWAVE"> T  </i>
   <i type="logical" name="LDOWNSAMPLE"> F  </i>
   <i type="logical" name="LCHARG"> T  </i>
   <i type="logical" name="LPARD"> F  </i>
   <i type="logical" name="LVTOT"> F  </i>
   <i type="logical" name="LVHAR"> F  </i>
   <i type="logical" name="LELF"> F  </i>
   <i type="logical" name="LOPTICS"> F  </i>
   <v name="STM">      0.00000000      0.00000000      0.00000000      0.00000000      0.00000000      0.00000000      0.00000000</v>
  </separator>
  <separator name="performance" >
   <i type="int" name="NPAR">     4</i>
   <i type="int" name="NSIM">     4</i>
   <i type="int" name="NBLK">    -1</i>
   <i type="logical" name="LPLANE"> T  </i>
   <i type="logical" name="LSCALAPACK"> T  </i>
   <i type="logical" name="LSCAAWARE"> F  </i>
   <i type="logical" name="LSCALU"> F  </i>
   <i type="logical" name="LASYNC"> F  </i>
   <i type="logical" name="LORBITALREAL"> F  </i>
  </separator>
  <separator name="miscellaneous" >
   <i type="int" name="IDIOT">     3</i>
   <i type="int" name="ISPECIAL">     0</i>
   <i type="logical" name="LMUSIC"> F  </i>
   <v name="POMASS">    196.96600000</v>
   <v name="DARWINR">      0.00000000</v>
   <v name="DARWINV">      1.00000000</v>
   <i type="logical" name="LCORR"> T  </i>
  </separator>
  <i type="logical" name="GGA_COMPAT"> T  </i>
  <i type="logical" name="LBERRY"> F  </i>
  <i type="int" name="ICORELEVEL">     0</i>
  <i type="logical" name="LDAU"> F  </i>
  <i type="int" name="I_CONSTRAINED_M">     0</i>
  <separator name="electronic exchange-correlation" >
   <i type="string" name="GGA">--</i>
   <i type="int" name="VOSKOWN">     0</i>
   <i type="logical" name="LHFCALC"> F  </i>
   <i type="string" name="PRECFOCK"></i>
   <i type="logical" name="LSYMGRAD"> F  </i>
   <i type="logical" name="LHFONE"> F  </i>
   <i type="logical" name="LRHFCALC"> F  </i>
   <i type="logical" name="LTHOMAS"> F  </i>
   <i type="logical" name="LMODELHF"> F  </i>
   <i name="ENCUT4O">     -1.00000000</i>
   <i type="int" name="EXXOEP">     0</i>
   <i type="int" name="FOURORBIT">     0</i>
   <i name="AEXX">      0.00000000</i>
   <i name="HFALPHA">      0.00000000</i>
   <i name="MCALPHA">      0.00000000</i>
   <i name="ALDAX">      1.00000000</i>
   <i name="AGGAX">      1.00000000</i>
   <i name="ALDAC">      1.00000000</i>
   <i name="AGGAC">      1.00000000</i>
   <i type="int" name="NKREDX">     1</i>
   <i type="int" name="NKREDY">     1</i>
   <i type="int" name="NKREDZ">     1</i>
   <i type="logical" name="SHIFTRED"> F  </i>
   <i type="logical" name="ODDONLY"> F  </i>
   <i type="logical" name="EVENONLY"> F  </i>
   <i type="int" name="LMAXFOCK">     0</i>
   <i type="int" name="NMAXFOCKAE">     0</i>
   <i type="logical" name="LFOCKAEDFT"> F  </i>
   <i name="HFSCREEN">      0.00000000</i>
   <i name="HFSCREENC">      0.00000000</i>
   <i type="int" name="NBANDSGWLOW">     0</i>
  </separator>
  <separator name="vdW DFT" >
   <i type="logical" name="LUSE_VDW"> F  </i>
   <i name="Zab_VDW">     -0.84910000</i>
   <i name="PARAM1">      0.12340000</i>
   <i name="PARAM2">      1.00000000</i>
   <i name="PARAM3">      0.00000000</i>
  </separator>
  <separator name="model GW" >
   <i type="int" name="MODEL_GW">     0</i>
   <i name="MODEL_EPS0">     11.92605000</i>
   <i name="MODEL_ALPHA">      1.00000000</i>
  </separator>
  <separator name="linear response parameters" >
   <i type="logical" name="LEPSILON"> F  </i>
   <i type="logical" name="LRPA"> F  </i>
   <i type="logical" name="LNABLA"> F  </i>
   <i type="logical" name="LVEL"> F  </i>
   <i type="int" name="KINTER">     0</i>
   <i name="CSHIFT">      0.10000000</i>
   <i name="OMEGAMAX">     -1.00000000</i>
   <i name="DEG_THRESHOLD">      0.00200000</i>
   <i name="RTIME">     -0.10000000</i>
   <i name="WPLASMAI">      0.00000000</i>
   <v name="DFIELD">      0.00000000      0.00000000      0.00000000</v>
   <v name="WPLASMA">      0.00000000      0.00000000      0.00000000      0.00000000      0.00000000      0.00000000      0.00000000      0.00000000      0.00000000</v>
  </separator>
  <separator name="orbital magnetization" >
   <i type="logical" name="NUCIND"> F  </i>
   <v name="MAGPOS">      0.00000000      0.00000000      0.00000000</v>
   <i type="logical" name="LNICSALL"> T  </i>
   <i type="logical" name="ORBITALMAG"> F  </i>
   <i type="logical" name="LMAGBLOCH"> F  </i>
   <i type="logical" name="LCHIMAG"> F  </i>
   <i type="logical" name="LGAUGE"> T  </i>
   <i type="int" name="MAGATOM">     0</i>
   <v name="MAGDIPOL">      0.00000000      0.00000000      0.00000000</v>
   <v name="AVECCONST">      0.00000000      0.00000000      0.00000000</v>
  </separator>
  <separator name="response functions" >
   <i type="logical" name="LADDER"> F  </i>
   <i type="logical" name="LRPAFORCE"> F  </i>
   <i type="logical" name="LFXC"> F  </i>
   <i type="logical" name="LHARTREE"> T  </i>
   <i type="int" name="IBSE">     0</i>
   <v type="int" name="KPOINT">    -1     0     0     0</v>
   <i type="logical" name="LTCTE"> F  </i>
   <i type="logical" name="LTETE"> F  </i>
   <i type="logical" name="LTRIPLET"> F  </i>
   <i type="logical" name="LFXCEPS"> F  </i>
   <i type="logical" name="LFXHEG"> F  </i>
   <i type="int" name="NATURALO">     2</i>
   <i type="logical" name="L2ORDER"> F  </i>
   <i type="logical" name="LMP2LT"> F  </i>
   <i type="logical" name="LUSEW"> F  </i>
   <i name="ENCUTGW">     -2.00000000</i>
   <i name="ENCUTGWSOFT">     -2.00000000</i>
   <i name="ENCUTLF">     -1.00000000</i>
   <i type="int" name="LMAXMP2">    -1</i>
   <i name="SCISSOR">      0.00000000</i>
   <i type="int" name="NOMEGA">     0</i>
   <i type="int" name="NOMEGAR">     0</i>
   <i type="int" name="NBANDSGW">    -1</i>
   <i type="int" name="NBANDSO">    -1</i>
   <i type="int" name="NBANDSV">    -1</i>
   <i type="int" name="NELM">     1</i>
   <i type="int" name="NELMHF">     1</i>
   <i type="int" name="DIM">     3</i>
   <i type="int" name="ANTIRES">     0</i>
   <i name="OMEGAMAX">    -30.00000000</i>
   <i name="OMEGAMIN">    -30.00000000</i>
   <i name="OMEGATL">   -200.00000000</i>
   <i type="int" name="OMEGAGRID">   140</i>
   <i name="CSHIFT">     -0.10000000</i>
   <i type="logical" name="SELFENERGY"> F  </i>
   <i type="logical" name="LSPECTRAL"> F  </i>
   <i type="logical" name="LSPECTRALGW"> F  </i>
   <i type="logical" name="LSINGLES"> F  </i>
   <i type="logical" name="LFERMIGW"> F  </i>
   <i type="logical" name="ODDONLYGW"> F  </i>
   <i type="logical" name="EVENONLYGW"> F  </i>
   <i type="int" name="NKREDLFX">     1</i>
   <i type="int" name="NKREDLFY">     1</i>
   <i type="int" name="NKREDLFZ">     1</i>
   <i type="int" name="MAXMEM">  2800</i>
   <i type="int" name="TELESCOPE">     0</i>
   <i type="int" name="TAUPAR">     1</i>
   <i type="int" name="OMEGAPAR">    -1</i>
   <i name="LAMBDA">      1.00000000</i>
  </separator>
  <separator name="External order field" >
   <i name="OFIELD_KAPPA">      0.00000000</i>
   <v name="OFIELD_K">      0.00000000      0.00000000      0.00000000</v>
   <i name="OFIELD_Q6_NEAR">      0.00000000</i>
   <i name="OFIELD_Q6_FAR">      0.00000000</i>
   <i name="OFIELD_A">      0.00000000</i>
  </separator>
 </parameters>
 <atominfo>
  <atoms>       1 </atoms>
  <types>       1 </types>
  <array name="atoms" >
   <dimension dim="1">ion</dimension>
   <field type="string">element</field>
   <field type="int">atomtype</field>
   <set>
    <rc><c>Au</c><c>   1</c></rc>
   </set>
  </array>
  <array name="atomtypes" >
   <dimension dim="1">type</dimension>
   <field type="int">atomspertype</field>
   <field type="string">element</field>
   <field>mass</field>
   <field>valence</field>
   <field type="string">pseudopotential</field>
   <set>
    <rc><c>   1</c><c>Au</c><c>    196.96600000</c><c>     11.00000000</c><c> PAW Au 04Feb1998                       </c></rc>
   </set>
  </array>
 </atominfo>
 <structure name="initialpos" >
  <crystal>
   <varray name="basis" >
    <v>       0.00000000       2.15000000       2.15000000 </v>
    <v>       2.15000000       0.00000000       2.15000000 </v>
    <v>       2.15000000       2.15000000       0.00000000 </v>
   </varray>
   <i name="volume">     19.87675000 </i>
   <varray name="rec_basis" >
    <v>      -0.23255814       0.23255814       0.23255814 </v>
    <v>       0.23255814      -0.23255814       0.23255814 </v>
    <v>       0.23255814       0.23255814      -0.23255814 </v>
   </varray>
  </crystal>
  <varray name="positions" >
   <v>       0.00000000       0.00000000       0.00000000 </v>
  </varray>
 </structure>
 <calculation>
  <scstep>
   <time name="dav">    0.28    0.28</time>
   <time name="total">    0.28    0.29</time>
   <energy>
    <i name="alphaZ">     92.46377501 </i>
    <i name="ewald">   -928.90065159 </i>
    <i name="hartreedc">   -143.19178376 </i>
    <i name="XCdc">     15.88284922 </i>
    <i name="pawpsdc">    746.10209728 </i>
    <i name="pawaedc">   -725.46159323 </i>
    <i name="eentropy">     -0.00132342 </i>
    <i name="bandstr">     44.02469563 </i>
    <i name="atom">    929.39614979 </i>
    <i name="e_fr_energy">     30.31421494 </i>
    <i name="e_wo_entrp">     30.31553835 </i>
    <i name="e_0_energy">     30.31465608 </i>
   </energy>
  </scstep>
  <scstep>
   <time name="dav">    0.25    0.26</time>
   <time name="total">    0.25    0.26</time>
   <energy>
    <i name="e_fr_energy">     -4.12283484 </i>
    <i name="e_wo_entrp">     -4.12325641 </i>
    <i name="e_0_energy">     -4.12297536 </i>
   </energy>
  </scstep>
  <scstep>
   <time name="dav">    0.26    0.27</time>
   <time name="total">    0.26    0.27</time>
   <energy>
    <i name="e_fr_energy">     -4.47031588 </i>
    <i name="e_wo_entrp">     -4.47106553 </i>
    <i name="e_0_energy">     -4.47056576 </i>
   </energy>
  </scstep>
  <scstep>
   <time name="dav">    0.27    0.30</time>
   <time name="total">    0.27    0.30</time>
   <energy>
    <i name="e_fr_energy">     -4.47117849 </i>
    <i name="e_wo_entrp">     -4.47192904 </i>
    <i name="e_0_energy">     -4.47142867 </i>
   </energy>
  </scstep>
  <scstep>
   <time name="dav">    0.25    0.26</time>
   <time name="total">    0.26    0.26</time>
   <energy>
    <i name="e_fr_energy">     -4.47118463 </i>
    <i name="e_wo_entrp">     -4.47193518 </i>
    <i name="e_0_energy">     -4.47143481 </i>
   </energy>
  </scstep>
  <scstep>
   <time name="dav">    0.24    0.25</time>
   <time name="total">    0.25    0.26</time>
   <energy>
    <i name="e_fr_energy">     -4.17388646 </i>
    <i name="e_wo_entrp">     -4.17476276 </i>
    <i name="e_0_energy">     -4.17417856 </i>
   </energy>
  </scstep>
  <scstep>
   <time name="dav">    0.24    0.25</time>
   <time name="total">    0.25    0.26</time>
   <energy>
    <i name="e_fr_energy">     -4.16083557 </i>
    <i name="e_wo_entrp">     -4.16167796 </i>
    <i name="e_0_energy">     -4.16111637 </i>
   </energy>
  </scstep>
  <scstep>
   <time name="dav">    0.24    0.24</time>
   <time name="total">    0.25    0.25</time>
   <energy>
    <i name="e_fr_energy">     -4.15724042 </i>
    <i name="e_wo_entrp">     -4.15807241 </i>
    <i name="e_0_energy">     -4.15751775 </i>
   </energy>
  </scstep>
  <scstep>
   <time name="dav">    0.17    0.18</time>
   <time name="total">    0.18    0.18</time>
   <energy>
    <i name="alphaZ">     92.46377501 </i>
    <i name="ewald">   -928.90065159 </i>
    <i name="hartreedc">   -132.07639718 </i>
    <i name="XCdc">     15.30890322 </i>
    <i name="pawpsdc">    733.70393544 </i>
    <i name="pawaedc">   -715.03434307 </i>
    <i name="eentropy">      0.00083178 </i>
    <i name="bandstr">      0.98055353 </i>
    <i name="atom">    929.39614979 </i>
    <i name="e_fr_energy">     -4.15724307 </i>
    <i name="e_wo_entrp">     -4.15807485 </i>
    <i name="e_0_energy">     -4.15752033 </i>
   </energy>
  </scstep>
  <structure>
   <crystal>
    <varray name="basis" >
     <v>       0.00000000       2.15000000       2.15000000 </v>
     <v>       2.15000000       0.00000000       2.15000000 </v>
     <v>       2.15000000       2.15000000       0.00000000 </v>
    </varray>
    <i name="volume">     19.87675000 </i>
    <varray name="rec_basis" >
     <v>      -0.23255814       0.23255814       0.23255814 </v>
     <v>       0.23255814      -0.23255814       0.23255814 </v>
     <v>       0.23255814       0.23255814      -0.23255814 </v>
    </varray>
   </crystal>
   <varray name="positions" >
    <v>       0.00000000       0.00000000       0.00000000 </v>
   </varray>
  </structure>
  <varray name="forces" >
   <v>       0.00000000       0.00000000       0.00000000 </v>
  </varray>
  <varray name="stress" >
   <v>    -230.42600480      -0.00000000      -0.00000000 </v>
   <v>      -0.00000000    -230.42600480       0.00000000 </v>
   <v>       0.00000000      -0.00000000    -230.42600480 </v>
  </varray>
  <energy>
   <i name="e_fr_energy">     -4.15724307 </i>
   <i name="e_wo_entrp">     -4.15752033 </i>
   <i name="e_0_energy">      0.00083178 </i>
  </energy>
  <time name="totalsc">    2.42    2.50</time>
  <eigenvalues>
   <array>
    <dimension dim="1">band</dimension>
    <dimension dim="2">kpoint</dimension>
    <dimension dim="3">spin</dimension>
    <field>eigene</field>
    <field>occ</field>
    <set>
     <set comment="spin 1">
      <set comment="kpoint 1">
       <r>   -4.6499    1.0000 </r>
       <r>   -0.2986    1.0000 </r>
       <r>   -0.2535    1.0000 </r>
       <r>   -0.2535    1.0000 </r>
       <r>    0.8854    1.0000 </r>
       <r>    0.8854    1.0000 </r>
       <r>   18.9613    0.0000 </r>
       <r>   21.1341    0.0000 </r>
       <r>   21.8504    0.0000 </r>
       <r>   21.8504    0.0000 </r>
       <r>   26.3442    0.0000 </r>
       <r>   28.3674    0.0000 </r>
      </set>
      <set comment="kpoint 2">
       <r>   -4.2536    1.0000 </r>
       <r>   -0.4080    1.0000 </r>
       <r>   -0.1455    1.0000 </r>
       <r>   -0.1188    1.0000 </r>
       <r>    0.7822    1.0000 </r>
       <r>    0.9277    1.0000 </r>
       <r>   18.7253    0.0000 </r>
       <r>   19.4806    0.0000 </r>
       <r>   21.3025    0.0000 </r>
       <r>   22.6086    0.0000 </r>
       <r>   25.3405    0.0000 </r>
       <r>   27.8416    0.0000 </r>
      </set>
      <set comment="kpoint 3">
       <r>   -3.3834    1.0000 </r>
       <r>   -0.4793    1.0000 </r>
       <r>   -0.0221    1.0000 </r>
       <r>   -0.0088    1.0000 </r>
       <r>    0.7962    1.0000 </r>
       <r>    1.0995    1.0000 </r>
       <r>   15.1957    0.0000 </r>
       <r>   19.4015    0.0000 </r>
       <r>   21.1940    0.0000 </r>
       <r>   23.2211    0.0000 </r>
       <r>   23.9290    0.0000 </r>
       <r>   25.8089    0.0000 </r>
      </set>
      <set comment="kpoint 4">
       <r>   -2.5716    1.0000 </r>
       <r>   -0.1542    1.0000 </r>
       <r>   -0.0938    1.0000 </r>
       <r>    0.1119    1.0000 </r>
       <r>    1.1681    1.0000 </r>
       <r>    1.5461    1.0000 </r>
       <r>   11.3452    0.0000 </r>
       <r>   18.8826    0.0000 </r>
       <r>   20.2018    0.0000 </r>
       <r>   21.9847    0.0000 </r>
       <r>   24.9261    0.0000 </r>
       <r>   25.7362    0.0000 </r>
      </set>
      <set comment="kpoint 5">
       <r>   -2.3467    1.0000 </r>
       <r>   -0.2729    1.0000 </r>
       <r>   -0.2207    1.0000 </r>
       <r>    1.3379    1.0000 </r>
       <r>    1.6128    1.0000 </r>
       <r>    2.4514    1.0000 </r>
       <r>    7.7921   -0.0000 </r>
       <r>   18.3497    0.0000 </r>
       <r>   19.4102    0.0000 </r>
       <r>   20.3857    0.0000 </r>
       <r>   26.1911    0.0000 </r>
       <r>   26.2824    0.0000 </r>
      </set>
      <set comment="kpoint 6">
       <r>   -2.3355    1.0000 </r>
       <r>   -0.3229    1.0000 </r>
       <r>   -0.2507    1.0000 </r>
       <r>    1.5559    1.0000 </r>
       <r>    1.8245    1.0000 </r>
       <r>    3.5621    0.7330 </r>
       <r>    6.0855   -0.0000 </r>
       <r>   18.2229    0.0000 </r>
       <r>   19.4596    0.0000 </r>
       <r>   19.5991    0.0000 </r>
       <r>   26.4913    0.0000 </r>
       <r>   26.5362    0.0000 </r>
      </set>
      <set comment="kpoint 7">
       <r>   -2.3771    1.0000 </r>
       <r>   -0.2498    1.0000 </r>
       <r>   -0.1671    1.0000 </r>
       <r>    0.9017    1.0000 </r>
       <r>    1.6731    1.0000 </r>
       <r>    1.9040    1.0000 </r>
       <r>    8.9073   -0.0000 </r>
       <r>   18.5977    0.0000 </r>
       <r>   19.7551    0.0000 </r>
       <r>   20.4659    0.0000 </r>
       <r>   26.1311    0.0000 </r>
       <r>   26.4310    0.0000 </r>
      </set>
      <set comment="kpoint 8">
       <r>   -2.7819    1.0000 </r>
       <r>   -0.2579    1.0000 </r>
       <r>   -0.0706    1.0000 </r>
       <r>   -0.0366    1.0000 </r>
       <r>    1.1092    1.0000 </r>
       <r>    1.2969    1.0000 </r>
       <r>   12.6177    0.0000 </r>
       <r>   19.3175    0.0000 </r>
       <r>   20.4843    0.0000 </r>
       <r>   22.1044    0.0000 </r>
       <r>   24.6022    0.0000 </r>
       <r>   26.3561    0.0000 </r>
      </set>
      <set comment="kpoint 9">
       <r>   -3.7057    1.0000 </r>
       <r>   -0.4964    1.0000 </r>
       <r>   -0.0306    1.0000 </r>
       <r>   -0.0221    1.0000 </r>
       <r>    0.7622    1.0000 </r>
       <r>    1.0024    1.0000 </r>
       <r>   16.4742    0.0000 </r>
       <r>   19.6857    0.0000 </r>
       <r>   21.1162    0.0000 </r>
       <r>   22.9035    0.0000 </r>
       <r>   24.1380    0.0000 </r>
       <r>   26.8933    0.0000 </r>
      </set>
      <set comment="kpoint 10">
       <r>   -4.4487    1.0000 </r>
       <r>   -0.3775    1.0000 </r>
       <r>   -0.1786    1.0000 </r>
       <r>   -0.1748    1.0000 </r>
       <r>    0.7985    1.0000 </r>
       <r>    0.9293    1.0000 </r>
       <r>   19.0702    0.0000 </r>
       <r>   20.2503    0.0000 </r>
       <r>   21.4310    0.0000 </r>
       <r>   21.9002    0.0000 </r>
       <r>   26.4287    0.0000 </r>
       <r>   27.8207    0.0000 </r>
      </set>
      <set comment="kpoint 11">
       <r>   -4.0563    1.0000 </r>
       <r>   -0.5381    1.0000 </r>
       <r>   -0.0224    1.0000 </r>
       <r>   -0.0191    1.0000 </r>
       <r>    0.6387    1.0000 </r>
       <r>    1.0138    1.0000 </r>
       <r>   18.9594    0.0000 </r>
       <r>   19.6240    0.0000 </r>
       <r>   20.5716    0.0000 </r>
       <r>   21.4202    0.0000 </r>
       <r>   25.1031    0.0000 </r>
       <r>   27.5427    0.0000 </r>
      </set>
      <set comment="kpoint 12">
       <r>   -3.3357    1.0000 </r>
       <r>   -0.7206    1.0000 </r>
       <r>    0.0601    1.0000 </r>
       <r>    0.1959    1.0000 </r>
       <r>    0.6086    1.0000 </r>
       <r>    1.1875    1.0000 </r>
       <r>   16.6839    0.0000 </r>
       <r>   18.4826    0.0000 </r>
       <r>   20.6654    0.0000 </r>
       <r>   21.7959    0.0000 </r>
       <r>   23.0730    0.0000 </r>
       <r>   26.8322    0.0000 </r>
      </set>
      <set comment="kpoint 13">
       <r>   -2.4294    1.0000 </r>
       <r>   -0.6331    1.0000 </r>
       <r>   -0.1612    1.0000 </r>
       <r>    0.2068    1.0000 </r>
       <r>    1.1257    1.0000 </r>
       <r>    1.6534    1.0000 </r>
       <r>   12.8358    0.0000 </r>
       <r>   17.8725    0.0000 </r>
       <r>   19.6989    0.0000 </r>
       <r>   21.0076    0.0000 </r>
       <r>   24.6083    0.0000 </r>
       <r>   26.5704    0.0000 </r>
      </set>
      <set comment="kpoint 14">
       <r>   -2.0611    1.0000 </r>
       <r>   -0.3887    1.0000 </r>
       <r>    0.0381    1.0000 </r>
       <r>    0.1909    1.0000 </r>
       <r>    1.6728    1.0000 </r>
       <r>    2.7227    1.0000 </r>
       <r>    9.1366    0.0000 </r>
       <r>   17.5521    0.0000 </r>
       <r>   18.3199    0.0000 </r>
       <r>   20.0119    0.0000 </r>
       <r>   26.4307    0.0000 </r>
       <r>   27.3131    0.0000 </r>
      </set>
      <set comment="kpoint 15">
       <r>   -2.0324    1.0000 </r>
       <r>   -0.4863    1.0000 </r>
       <r>   -0.0190    1.0000 </r>
       <r>    0.7952    1.0000 </r>
       <r>    1.7882    1.0000 </r>
       <r>    4.6523   -0.0000 </r>
       <r>    6.1376   -0.0000 </r>
       <r>   17.2037    0.0000 </r>
       <r>   17.8428    0.0000 </r>
       <r>   19.5866    0.0000 </r>
       <r>   26.5507    0.0000 </r>
       <r>   27.7397    0.0000 </r>
      </set>
      <set comment="kpoint 16">
       <r>   -2.0247    1.0000 </r>
       <r>   -0.4277    1.0000 </r>
       <r>    0.0010    1.0000 </r>
       <r>    0.5567    1.0000 </r>
       <r>    1.5605    1.0000 </r>
       <r>    3.3552    1.0342 </r>
       <r>    8.0622   -0.0000 </r>
       <r>   16.7166    0.0000 </r>
       <r>   18.6241    0.0000 </r>
       <r>   20.1954    0.0000 </r>
       <r>   26.0194    0.0000 </r>
       <r>   27.3255    0.0000 </r>
      </set>
      <set comment="kpoint 17">
       <r>   -2.2098    1.0000 </r>
       <r>   -0.4142    1.0000 </r>
       <r>   -0.1747    1.0000 </r>
       <r>    0.1450    1.0000 </r>
       <r>    1.0462    1.0000 </r>
       <r>    2.0971    1.0000 </r>
       <r>   11.5889    0.0000 </r>
       <r>   16.8587    0.0000 </r>
       <r>   19.7629    0.0000 </r>
       <r>   21.7843    0.0000 </r>
       <r>   24.6061    0.0000 </r>
       <r>   26.5021    0.0000 </r>
      </set>
      <set comment="kpoint 18">
       <r>   -3.0216    1.0000 </r>
       <r>   -0.6822    1.0000 </r>
       <r>   -0.0157    1.0000 </r>
       <r>    0.2125    1.0000 </r>
       <r>    0.6034    1.0000 </r>
       <r>    1.3952    1.0000 </r>
       <r>   15.3268    0.0000 </r>
       <r>   17.4518    0.0000 </r>
       <r>   21.2987    0.0000 </r>
       <r>   22.2011    0.0000 </r>
       <r>   24.2196    0.0000 </r>
       <r>   25.6275    0.0000 </r>
      </set>
      <set comment="kpoint 19">
       <r>   -3.8737    1.0000 </r>
       <r>   -0.5312    1.0000 </r>
       <r>   -0.0185    1.0000 </r>
       <r>   -0.0134    1.0000 </r>
       <r>    0.6698    1.0000 </r>
       <r>    1.0264    1.0000 </r>
       <r>   17.7586    0.0000 </r>
       <r>   19.1281    0.0000 </r>
       <r>   20.9495    0.0000 </r>
       <r>   22.6457    0.0000 </r>
       <r>   24.3947    0.0000 </r>
       <r>   27.0078    0.0000 </r>
      </set>
      <set comment="kpoint 20">
       <r>   -2.8460    1.0000 </r>
       <r>   -0.9946    1.0000 </r>
       <r>    0.1900    1.0000 </r>
       <r>    0.4904    1.0000 </r>
       <r>    0.6459    1.0000 </r>
       <r>    1.2770    1.0000 </r>
       <r>   17.0219    0.0000 </r>
       <r>   18.0469    0.0000 </r>
       <r>   19.6611    0.0000 </r>
       <r>   20.0212    0.0000 </r>
       <r>   20.6404    0.0000 </r>
       <r>   28.5397    0.0000 </r>
      </set>
      <set comment="kpoint 21">
       <r>   -2.1240    1.0000 </r>
       <r>   -1.1646    1.0000 </r>
       <r>    0.0023    1.0000 </r>
       <r>    0.7606    1.0000 </r>
       <r>    1.1639    1.0000 </r>
       <r>    1.6671    1.0000 </r>
       <r>   14.4288    0.0000 </r>
       <r>   16.2956    0.0000 </r>
       <r>   17.8630    0.0000 </r>
       <r>   20.3740    0.0000 </r>
       <r>   21.7952    0.0000 </r>
       <r>   28.4725    0.0000 </r>
      </set>
      <set comment="kpoint 22">
       <r>   -1.7006    1.0000 </r>
       <r>   -0.9391    1.0000 </r>
       <r>   -0.1816    1.0000 </r>
       <r>    0.6626    1.0000 </r>
       <r>    1.7350    1.0000 </r>
       <r>    2.9347    1.0000 </r>
       <r>   10.7245    0.0000 </r>
       <r>   15.5887    0.0000 </r>
       <r>   16.3141    0.0000 </r>
       <r>   20.2034    0.0000 </r>
       <r>   24.6758    0.0000 </r>
       <r>   28.1583    0.0000 </r>
      </set>
      <set comment="kpoint 23">
       <r>   -1.6033    1.0000 </r>
       <r>   -0.7271    1.0000 </r>
       <r>   -0.0008    1.0000 </r>
       <r>    0.5133    1.0000 </r>
       <r>    1.8157    1.0000 </r>
       <r>    5.0937   -0.0000 </r>
       <r>    7.4831   -0.0000 </r>
       <r>   14.3788    0.0000 </r>
       <r>   16.3796    0.0000 </r>
       <r>   20.0182    0.0000 </r>
       <r>   27.2597    0.0000 </r>
       <r>   28.3076    0.0000 </r>
      </set>
      <set comment="kpoint 24">
       <r>   -1.4726    1.0000 </r>
       <r>   -0.6840    1.0000 </r>
       <r>    0.0362    1.0000 </r>
       <r>    0.4329    1.0000 </r>
       <r>    1.5221    1.0000 </r>
       <r>    4.9481   -0.0000 </r>
       <r>    7.8897   -0.0000 </r>
       <r>   13.4147    0.0000 </r>
       <r>   17.4683    0.0000 </r>
       <r>   20.2217    0.0000 </r>
       <r>   26.6204    0.0000 </r>
       <r>   28.8029    0.0000 </r>
      </set>
      <set comment="kpoint 25">
       <r>   -1.4194    1.0000 </r>
       <r>   -0.6417    1.0000 </r>
       <r>   -0.4113    1.0000 </r>
       <r>    0.4979    1.0000 </r>
       <r>    1.0087    1.0000 </r>
       <r>    3.2817    1.0190 </r>
       <r>   10.9897    0.0000 </r>
       <r>   13.3120    0.0000 </r>
       <r>   18.8701    0.0000 </r>
       <r>   21.2095    0.0000 </r>
       <r>   24.9115    0.0000 </r>
       <r>   28.4500    0.0000 </r>
      </set>
      <set comment="kpoint 26">
       <r>   -2.0941    1.0000 </r>
       <r>   -0.7333    1.0000 </r>
       <r>   -0.2072    1.0000 </r>
       <r>    0.3959    1.0000 </r>
       <r>    0.7105    1.0000 </r>
       <r>    2.1581    1.0000 </r>
       <r>   12.9639    0.0000 </r>
       <r>   15.3706    0.0000 </r>
       <r>   20.1044    0.0000 </r>
       <r>   22.5657    0.0000 </r>
       <r>   23.5601    0.0000 </r>
       <r>   26.8959    0.0000 </r>
      </set>
      <set comment="kpoint 27">
       <r>   -2.9378    1.0000 </r>
       <r>   -0.5324    1.0000 </r>
       <r>   -0.0375    1.0000 </r>
       <r>    0.0674    1.0000 </r>
       <r>    0.8513    1.0000 </r>
       <r>    1.3406    1.0000 </r>
       <r>   13.9830    0.0000 </r>
       <r>   18.7712    0.0000 </r>
       <r>   20.5402    0.0000 </r>
       <r>   22.6277    0.0000 </r>
       <r>   24.0446    0.0000 </r>
       <r>   25.8667    0.0000 </r>
      </set>
      <set comment="kpoint 28">
       <r>   -1.9611    1.0000 </r>
       <r>   -1.4597    1.0000 </r>
       <r>    0.7415    1.0000 </r>
       <r>    1.1602    1.0000 </r>
       <r>    1.5617    1.0000 </r>
       <r>    1.5907    1.0000 </r>
       <r>   14.2542    0.0000 </r>
       <r>   15.5195    0.0000 </r>
       <r>   15.5314    0.0000 </r>
       <r>   19.3583    0.0000 </r>
       <r>   21.1307    0.0000 </r>
       <r>   30.9268    0.0000 </r>
      </set>
      <set comment="kpoint 29">
       <r>   -1.8159    1.0000 </r>
       <r>   -1.5423    1.0000 </r>
       <r>    0.7559    1.0000 </r>
       <r>    1.3923    1.0000 </r>
       <r>    1.7441    1.0000 </r>
       <r>    3.0532    1.0002 </r>
       <r>   11.6917    0.0000 </r>
       <r>   13.8777    0.0000 </r>
       <r>   14.5405    0.0000 </r>
       <r>   20.1919    0.0000 </r>
       <r>   21.9800    0.0000 </r>
       <r>   30.2923    0.0000 </r>
      </set>
      <set comment="kpoint 30">
       <r>   -1.6800    1.0000 </r>
       <r>   -1.2804    1.0000 </r>
       <r>    0.4773    1.0000 </r>
       <r>    1.1627    1.0000 </r>
       <r>    1.8908    1.0000 </r>
       <r>    5.3218   -0.0000 </r>
       <r>    8.9385   -0.0000 </r>
       <r>   12.1045    0.0000 </r>
       <r>   14.6752    0.0000 </r>
       <r>   20.4598    0.0000 </r>
       <r>   24.5020    0.0000 </r>
       <r>   29.3165    0.0000 </r>
      </set>
      <set comment="kpoint 31">
       <r>   -1.4558    1.0000 </r>
       <r>   -0.8639    1.0000 </r>
       <r>    0.0522    1.0000 </r>
       <r>    0.9136    1.0000 </r>
       <r>    1.6509    1.0000 </r>
       <r>    6.3468   -0.0000 </r>
       <r>    8.4510   -0.0000 </r>
       <r>   10.5513    0.0000 </r>
       <r>   15.7862    0.0000 </r>
       <r>   20.4264    0.0000 </r>
       <r>   27.6527    0.0000 </r>
       <r>   28.2013    0.0000 </r>
      </set>
      <set comment="kpoint 32">
       <r>   -1.2494    1.0000 </r>
       <r>   -0.6338    1.0000 </r>
       <r>   -0.3276    1.0000 </r>
       <r>    0.6435    1.0000 </r>
       <r>    1.3434    1.0000 </r>
       <r>    4.7554   -0.0000 </r>
       <r>    9.5841    0.0000 </r>
       <r>   11.5239    0.0000 </r>
       <r>   17.3986    0.0000 </r>
       <r>   20.4868    0.0000 </r>
       <r>   26.5652    0.0000 </r>
       <r>   29.1312    0.0000 </r>
      </set>
      <set comment="kpoint 33">
       <r>   -1.7338    1.0000 </r>
       <r>   -0.5003    1.0000 </r>
       <r>   -0.0567    1.0000 </r>
       <r>    0.2663    1.0000 </r>
       <r>    1.2831    1.0000 </r>
       <r>    3.3031    1.0238 </r>
       <r>    9.5052    0.0000 </r>
       <r>   14.9652    0.0000 </r>
       <r>   18.7728    0.0000 </r>
       <r>   20.7535    0.0000 </r>
       <r>   25.4234    0.0000 </r>
       <r>   27.8273    0.0000 </r>
      </set>
      <set comment="kpoint 34">
       <r>   -2.3249    1.0000 </r>
       <r>   -0.2456    1.0000 </r>
       <r>   -0.0566    1.0000 </r>
       <r>    0.2423    1.0000 </r>
       <r>    1.3928    1.0000 </r>
       <r>    1.9777    1.0000 </r>
       <r>   10.1837    0.0000 </r>
       <r>   18.3029    0.0000 </r>
       <r>   19.4040    0.0000 </r>
       <r>   21.0311    0.0000 </r>
       <r>   25.6449    0.0000 </r>
       <r>   26.2580    0.0000 </r>
      </set>
      <set comment="kpoint 35">
       <r>   -2.0155    1.0000 </r>
       <r>   -1.7706    1.0000 </r>
       <r>    1.6604    1.0000 </r>
       <r>    1.7122    1.0000 </r>
       <r>    1.9142    1.0000 </r>
       <r>    3.7192    0.1314 </r>
       <r>   10.1769    0.0000 </r>
       <r>   13.4602    0.0000 </r>
       <r>   13.8084    0.0000 </r>
       <r>   19.4718    0.0000 </r>
       <r>   21.5451    0.0000 </r>
       <r>   31.6864    0.0000 </r>
      </set>
      <set comment="kpoint 36">
       <r>   -1.9506    1.0000 </r>
       <r>   -1.7300    1.0000 </r>
       <r>    1.4395    1.0000 </r>
       <r>    1.6336    1.0000 </r>
       <r>    2.0251    1.0000 </r>
       <r>    5.5609   -0.0000 </r>
       <r>    8.4223   -0.0000 </r>
       <r>   12.4669    0.0000 </r>
       <r>   13.4089    0.0000 </r>
       <r>   20.2991    0.0000 </r>
       <r>   22.1281    0.0000 </r>
       <r>   30.8702    0.0000 </r>
      </set>
      <set comment="kpoint 37">
       <r>   -1.7178    1.0000 </r>
       <r>   -1.3538    1.0000 </r>
       <r>    0.7024    1.0000 </r>
       <r>    1.2866    1.0000 </r>
       <r>    1.8883    1.0000 </r>
       <r>    6.6975   -0.0000 </r>
       <r>    7.9952   -0.0000 </r>
       <r>   10.9947    0.0000 </r>
       <r>   14.3763    0.0000 </r>
       <r>   20.5605    0.0000 </r>
       <r>   24.4732    0.0000 </r>
       <r>   29.5851    0.0000 </r>
      </set>
      <set comment="kpoint 38">
       <r>   -1.4893    1.0000 </r>
       <r>   -0.8289    1.0000 </r>
       <r>    0.0178    1.0000 </r>
       <r>    0.7445    1.0000 </r>
       <r>    1.7420    1.0000 </r>
       <r>    6.2719   -0.0000 </r>
       <r>    7.2430   -0.0000 </r>
       <r>   12.3906    0.0000 </r>
       <r>   15.9814    0.0000 </r>
       <r>   20.2613    0.0000 </r>
       <r>   27.5134    0.0000 </r>
       <r>   28.2103    0.0000 </r>
      </set>
      <set comment="kpoint 39">
       <r>   -1.7676    1.0000 </r>
       <r>   -0.6085    1.0000 </r>
       <r>    0.1869    1.0000 </r>
       <r>    0.4251    1.0000 </r>
       <r>    1.6968    1.0000 </r>
       <r>    5.2553   -0.0000 </r>
       <r>    6.3879   -0.0000 </r>
       <r>   15.3472    0.0000 </r>
       <r>   17.6145    0.0000 </r>
       <r>   19.8479    0.0000 </r>
       <r>   26.6331    0.0000 </r>
       <r>   28.3249    0.0000 </r>
      </set>
      <set comment="kpoint 40">
       <r>   -2.2304    1.0000 </r>
       <r>   -0.3645    1.0000 </r>
       <r>   -0.1606    1.0000 </r>
       <r>    1.1307    1.0000 </r>
       <r>    1.7583    1.0000 </r>
       <r>    3.4466    1.0051 </r>
       <r>    6.8531   -0.0000 </r>
       <r>   18.1033    0.0000 </r>
       <r>   18.6759    0.0000 </r>
       <r>   19.7572    0.0000 </r>
       <r>   26.3970    0.0000 </r>
       <r>   26.9393    0.0000 </r>
      </set>
      <set comment="kpoint 41">
       <r>   -2.0699    1.0000 </r>
       <r>   -1.8372    1.0000 </r>
       <r>    1.7450    1.0000 </r>
       <r>    1.9091    1.0000 </r>
       <r>    2.0351    1.0000 </r>
       <r>    4.9857   -0.0000 </r>
       <r>    8.5427   -0.0000 </r>
       <r>   13.0593    0.0000 </r>
       <r>   13.4261    0.0000 </r>
       <r>   19.5453    0.0000 </r>
       <r>   21.6349    0.0000 </r>
       <r>   31.5470    0.0000 </r>
      </set>
      <set comment="kpoint 42">
       <r>   -1.8935    1.0000 </r>
       <r>   -1.6659    1.0000 </r>
       <r>    1.1707    1.0000 </r>
       <r>    1.5929    1.0000 </r>
       <r>    1.9085    1.0000 </r>
       <r>    4.2796   -0.0000 </r>
       <r>    9.9807    0.0000 </r>
       <r>   12.9308    0.0000 </r>
       <r>   13.7841    0.0000 </r>
       <r>   20.2426    0.0000 </r>
       <r>   22.0755    0.0000 </r>
       <r>   30.7413    0.0000 </r>
      </set>
      <set comment="kpoint 43">
       <r>   -1.6448    1.0000 </r>
       <r>   -1.1346    1.0000 </r>
       <r>    0.1344    1.0000 </r>
       <r>    0.9323    1.0000 </r>
       <r>    1.8538    1.0000 </r>
       <r>    4.0256   -0.0073 </r>
       <r>    9.7939    0.0000 </r>
       <r>   13.8213    0.0000 </r>
       <r>   15.2742    0.0000 </r>
       <r>   20.3082    0.0000 </r>
       <r>   24.5691    0.0000 </r>
       <r>   28.8183    0.0000 </r>
      </set>
      <set comment="kpoint 44">
       <r>   -1.8072    1.0000 </r>
       <r>   -0.5638    1.0000 </r>
       <r>    0.0296    1.0000 </r>
       <r>    0.2916    1.0000 </r>
       <r>    1.8063    1.0000 </r>
       <r>    3.8020   -0.0133 </r>
       <r>    8.2190   -0.0000 </r>
       <r>   16.3268    0.0000 </r>
       <r>   17.0163    0.0000 </r>
       <r>   19.8430    0.0000 </r>
       <r>   26.9035    0.0000 </r>
       <r>   28.2949    0.0000 </r>
      </set>
      <set comment="kpoint 45">
       <r>   -1.9428    1.0000 </r>
       <r>   -1.6420    1.0000 </r>
       <r>    1.3244    1.0000 </r>
       <r>    1.4643    1.0000 </r>
       <r>    1.7480    1.0000 </r>
       <r>    2.4425    1.0000 </r>
       <r>   12.2299    0.0000 </r>
       <r>   14.2465    0.0000 </r>
       <r>   14.5322    0.0000 </r>
       <r>   19.3905    0.0000 </r>
       <r>   21.3710    0.0000 </r>
       <r>   31.7086    0.0000 </r>
      </set>
      <set comment="kpoint 46">
       <r>   -1.8283    1.0000 </r>
       <r>   -1.3705    1.0000 </r>
       <r>    0.2842    1.0000 </r>
       <r>    1.0868    1.0000 </r>
       <r>    1.5191    1.0000 </r>
       <r>    2.1607    1.0000 </r>
       <r>   13.1721    0.0000 </r>
       <r>   15.1114    0.0000 </r>
       <r>   15.8813    0.0000 </r>
       <r>   20.2143    0.0000 </r>
       <r>   21.8634    0.0000 </r>
       <r>   29.4660    0.0000 </r>
      </set>
      <set comment="kpoint 47">
       <r>   -1.9683    1.0000 </r>
       <r>   -0.7592    1.0000 </r>
       <r>   -0.2823    1.0000 </r>
       <r>    0.4101    1.0000 </r>
       <r>    1.4923    1.0000 </r>
       <r>    2.1323    1.0000 </r>
       <r>   11.7453    0.0000 </r>
       <r>   16.8135    0.0000 </r>
       <r>   18.1080    0.0000 </r>
       <r>   20.2879    0.0000 </r>
       <r>   24.7561    0.0000 </r>
       <r>   27.3907    0.0000 </r>
      </set>
      <set comment="kpoint 48">
       <r>   -2.2568    1.0000 </r>
       <r>   -1.2379    1.0000 </r>
       <r>    0.2823    1.0000 </r>
       <r>    0.8198    1.0000 </r>
       <r>    1.0280    1.0000 </r>
       <r>    1.4322    1.0000 </r>
       <r>   15.7891    0.0000 </r>
       <r>   16.7311    0.0000 </r>
       <r>   17.5707    0.0000 </r>
       <r>   19.4414    0.0000 </r>
       <r>   20.8452    0.0000 </r>
       <r>   29.6113    0.0000 </r>
      </set>
      <set comment="kpoint 49">
       <r>   -2.7026    1.0000 </r>
       <r>   -0.9407    1.0000 </r>
       <r>    0.0061    1.0000 </r>
       <r>    0.4569    1.0000 </r>
       <r>    0.7971    1.0000 </r>
       <r>    1.3945    1.0000 </r>
       <r>   15.5839    0.0000 </r>
       <r>   17.4608    0.0000 </r>
       <r>   19.9148    0.0000 </r>
       <r>   20.7193    0.0000 </r>
       <r>   22.0020    0.0000 </r>
       <r>   27.5219    0.0000 </r>
      </set>
      <set comment="kpoint 50">
       <r>   -3.4998    1.0000 </r>
       <r>   -0.7527    1.0000 </r>
       <r>    0.1677    1.0000 </r>
       <r>    0.2055    1.0000 </r>
       <r>    0.4953    1.0000 </r>
       <r>    1.1338    1.0000 </r>
       <r>   18.0994    0.0000 </r>
       <r>   19.3788    0.0000 </r>
       <r>   19.7298    0.0000 </r>
       <r>   20.7786    0.0000 </r>
       <r>   22.6697    0.0000 </r>
       <r>   27.7776    0.0000 </r>
      </set>
      <set comment="kpoint 51">
       <r>   -4.0672    1.0000 </r>
       <r>   -0.4152    1.0000 </r>
       <r>   -0.1064    1.0000 </r>
       <r>   -0.1064    1.0000 </r>
       <r>    0.8597    1.0000 </r>
       <r>    0.8597    1.0000 </r>
       <r>   17.6397    0.0000 </r>
       <r>   19.6595    0.0000 </r>
       <r>   22.1081    0.0000 </r>
       <r>   22.1081    0.0000 </r>
       <r>   25.1391    0.0000 </r>
       <r>   27.1055    0.0000 </r>
      </set>
      <set comment="kpoint 52">
       <r>   -3.5196    1.0000 </r>
       <r>   -0.5688    1.0000 </r>
       <r>   -0.0003    1.0000 </r>
       <r>    0.0534    1.0000 </r>
       <r>    0.6302    1.0000 </r>
       <r>    1.1525    1.0000 </r>
       <r>   16.5120    0.0000 </r>
       <r>   18.3609    0.0000 </r>
       <r>   21.3436    0.0000 </r>
       <r>   23.1537    0.0000 </r>
       <r>   24.0205    0.0000 </r>
       <r>   26.0869    0.0000 </r>
      </set>
      <set comment="kpoint 53">
       <r>   -2.5893    1.0000 </r>
       <r>   -0.6800    1.0000 </r>
       <r>   -0.0674    1.0000 </r>
       <r>    0.2743    1.0000 </r>
       <r>    0.5659    1.0000 </r>
       <r>    1.7335    1.0000 </r>
       <r>   14.0871    0.0000 </r>
       <r>   16.4130    0.0000 </r>
       <r>   21.0799    0.0000 </r>
       <r>   22.8217    0.0000 </r>
       <r>   23.7074    0.0000 </r>
       <r>   26.0468    0.0000 </r>
      </set>
      <set comment="kpoint 54">
       <r>   -1.9736    1.0000 </r>
       <r>   -0.3924    1.0000 </r>
       <r>   -0.0317    1.0000 </r>
       <r>    0.1239    1.0000 </r>
       <r>    1.0762    1.0000 </r>
       <r>    2.6266    1.0000 </r>
       <r>   10.4779    0.0000 </r>
       <r>   15.8725    0.0000 </r>
       <r>   19.7296    0.0000 </r>
       <r>   21.2083    0.0000 </r>
       <r>   24.8377    0.0000 </r>
       <r>   27.0487    0.0000 </r>
      </set>
      <set comment="kpoint 55">
       <r>   -1.9274    1.0000 </r>
       <r>   -0.4952    1.0000 </r>
       <r>    0.0397    1.0000 </r>
       <r>    0.6323    1.0000 </r>
       <r>    1.5873    1.0000 </r>
       <r>    4.1853   -0.0002 </r>
       <r>    7.1479   -0.0000 </r>
       <r>   15.9733    0.0000 </r>
       <r>   19.0803    0.0000 </r>
       <r>   19.2520    0.0000 </r>
       <r>   26.5693    0.0000 </r>
       <r>   27.3328    0.0000 </r>
      </set>
      <set comment="kpoint 56">
       <r>   -1.9567    1.0000 </r>
       <r>   -0.5113    1.0000 </r>
       <r>    0.0770    1.0000 </r>
       <r>    0.4818    1.0000 </r>
       <r>    1.8463    1.0000 </r>
       <r>    4.1994   -0.0002 </r>
       <r>    7.0109   -0.0000 </r>
       <r>   16.7900    0.0000 </r>
       <r>   18.1503    0.0000 </r>
       <r>   19.0437    0.0000 </r>
       <r>   27.4646    0.0000 </r>
       <r>   27.5041    0.0000 </r>
      </set>
      <set comment="kpoint 57">
       <r>   -2.0390    1.0000 </r>
       <r>   -0.4060    1.0000 </r>
       <r>   -0.2566    1.0000 </r>
       <r>    0.2003    1.0000 </r>
       <r>    1.7359    1.0000 </r>
       <r>    2.2650    1.0000 </r>
       <r>   10.3728    0.0000 </r>
       <r>   17.9626    0.0000 </r>
       <r>   18.1651    0.0000 </r>
       <r>   19.4624    0.0000 </r>
       <r>   26.4125    0.0000 </r>
       <r>   27.6837    0.0000 </r>
      </set>
      <set comment="kpoint 58">
       <r>   -2.6046    1.0000 </r>
       <r>   -0.8355    1.0000 </r>
       <r>   -0.0687    1.0000 </r>
       <r>    0.2988    1.0000 </r>
       <r>    1.0782    1.0000 </r>
       <r>    1.3924    1.0000 </r>
       <r>   14.1988    0.0000 </r>
       <r>   18.4696    0.0000 </r>
       <r>   19.5336    0.0000 </r>
       <r>   20.3176    0.0000 </r>
       <r>   23.3748    0.0000 </r>
       <r>   27.7514    0.0000 </r>
      </set>
      <set comment="kpoint 59">
       <r>   -3.1974    1.0000 </r>
       <r>   -0.6497    1.0000 </r>
       <r>    0.0164    1.0000 </r>
       <r>    0.1120    1.0000 </r>
       <r>    0.7809    1.0000 </r>
       <r>    1.1874    1.0000 </r>
       <r>   15.3265    0.0000 </r>
       <r>   19.6543    0.0000 </r>
       <r>   19.8273    0.0000 </r>
       <r>   22.3313    0.0000 </r>
       <r>   23.3823    0.0000 </r>
       <r>   27.1885    0.0000 </r>
      </set>
      <set comment="kpoint 60">
       <r>   -2.4368    1.0000 </r>
       <r>   -0.8440    1.0000 </r>
       <r>   -0.1417    1.0000 </r>
       <r>    0.4358    1.0000 </r>
       <r>    0.7738    1.0000 </r>
       <r>    1.7182    1.0000 </r>
       <r>   14.1992    0.0000 </r>
       <r>   16.4388    0.0000 </r>
       <r>   19.9861    0.0000 </r>
       <r>   21.8735    0.0000 </r>
       <r>   23.4194    0.0000 </r>
       <r>   26.4203    0.0000 </r>
      </set>
      <set comment="kpoint 61">
       <r>   -1.6207    1.0000 </r>
       <r>   -0.8173    1.0000 </r>
       <r>   -0.4300    1.0000 </r>
       <r>    0.6218    1.0000 </r>
       <r>    1.0054    1.0000 </r>
       <r>    2.6950    1.0000 </r>
       <r>   11.9520    0.0000 </r>
       <r>   14.3463    0.0000 </r>
       <r>   18.4084    0.0000 </r>
       <r>   22.2556    0.0000 </r>
       <r>   23.9308    0.0000 </r>
       <r>   27.3245    0.0000 </r>
      </set>
      <set comment="kpoint 62">
       <r>   -1.4945    1.0000 </r>
       <r>   -0.6754    1.0000 </r>
       <r>   -0.1537    1.0000 </r>
       <r>    0.4732    1.0000 </r>
       <r>    1.5204    1.0000 </r>
       <r>    4.2103   -0.0001 </r>
       <r>    8.6804   -0.0000 </r>
       <r>   14.1455    0.0000 </r>
       <r>   16.9926    0.0000 </r>
       <r>   21.1503    0.0000 </r>
       <r>   25.6842    0.0000 </r>
       <r>   28.9568    0.0000 </r>
      </set>
      <set comment="kpoint 63">
       <r>   -1.5475    1.0000 </r>
       <r>   -0.7419    1.0000 </r>
       <r>    0.1086    1.0000 </r>
       <r>    0.4170    1.0000 </r>
       <r>    1.7298    1.0000 </r>
       <r>    5.7700   -0.0000 </r>
       <r>    6.5624   -0.0000 </r>
       <r>   14.6484    0.0000 </r>
       <r>   16.0596    0.0000 </r>
       <r>   20.7552    0.0000 </r>
       <r>   26.3246    0.0000 </r>
       <r>   29.5953    0.0000 </r>
      </set>
      <set comment="kpoint 64">
       <r>   -1.5869    1.0000 </r>
       <r>   -0.6579    1.0000 </r>
       <r>   -0.3706    1.0000 </r>
       <r>    0.5681    1.0000 </r>
       <r>    1.6174    1.0000 </r>
       <r>    3.5495    0.7780 </r>
       <r>    9.6211    0.0000 </r>
       <r>   14.9387    0.0000 </r>
       <r>   16.5774    0.0000 </r>
       <r>   21.0273    0.0000 </r>
       <r>   25.6267    0.0000 </r>
       <r>   27.7054    0.0000 </r>
      </set>
      <set comment="kpoint 65">
       <r>   -1.8881    1.0000 </r>
       <r>   -1.0197    1.0000 </r>
       <r>   -0.2682    1.0000 </r>
       <r>    0.7121    1.0000 </r>
       <r>    1.0915    1.0000 </r>
       <r>    2.1513    1.0000 </r>
       <r>   13.1067    0.0000 </r>
       <r>   15.3793    0.0000 </r>
       <r>   18.0951    0.0000 </r>
       <r>   21.6020    0.0000 </r>
       <r>   23.1079    0.0000 </r>
       <r>   27.2517    0.0000 </r>
      </set>
      <set comment="kpoint 66">
       <r>   -2.0662    1.0000 </r>
       <r>   -1.0262    1.0000 </r>
       <r>   -0.1138    1.0000 </r>
       <r>    0.5343    1.0000 </r>
       <r>    1.5954    1.0000 </r>
       <r>    1.6263    1.0000 </r>
       <r>   13.0808    0.0000 </r>
       <r>   17.1824    0.0000 </r>
       <r>   17.9042    0.0000 </r>
       <r>   19.7274    0.0000 </r>
       <r>   23.2525    0.0000 </r>
       <r>   28.6555    0.0000 </r>
      </set>
      <set comment="kpoint 67">
       <r>   -1.5903    1.0000 </r>
       <r>   -1.1880    1.0000 </r>
       <r>   -0.1738    1.0000 </r>
       <r>    1.0194    1.0000 </r>
       <r>    1.4161    1.0000 </r>
       <r>    2.7963    1.0000 </r>
       <r>   12.0341    0.0000 </r>
       <r>   14.3330    0.0000 </r>
       <r>   16.1554    0.0000 </r>
       <r>   21.4405    0.0000 </r>
       <r>   23.0483    0.0000 </r>
       <r>   28.0112    0.0000 </r>
      </set>
      <set comment="kpoint 68">
       <r>   -1.2885    1.0000 </r>
       <r>   -1.0568    1.0000 </r>
       <r>   -0.3404    1.0000 </r>
       <r>    1.0843    1.0000 </r>
       <r>    1.6202    1.0000 </r>
       <r>    4.4411   -0.0000 </r>
       <r>   10.2167    0.0000 </r>
       <r>   12.4886    0.0000 </r>
       <r>   14.7065    0.0000 </r>
       <r>   22.5855    0.0000 </r>
       <r>   24.2479    0.0000 </r>
       <r>   27.6434    0.0000 </r>
      </set>
      <set comment="kpoint 69">
       <r>   -1.1587    1.0000 </r>
       <r>   -0.9201    1.0000 </r>
       <r>   -0.3062    1.0000 </r>
       <r>    0.8035    1.0000 </r>
       <r>    1.7885    1.0000 </r>
       <r>    6.4021   -0.0000 </r>
       <r>    7.8586   -0.0000 </r>
       <r>   12.0689    0.0000 </r>
       <r>   14.1801    0.0000 </r>
       <r>   22.4520    0.0000 </r>
       <r>   26.0121    0.0000 </r>
       <r>   28.5082    0.0000 </r>
      </set>
      <set comment="kpoint 70">
       <r>   -0.9731    1.0000 </r>
       <r>   -0.9033    1.0000 </r>
       <r>   -0.5992    1.0000 </r>
       <r>    0.8679    1.0000 </r>
       <r>    1.6002    1.0000 </r>
       <r>    5.0922   -0.0000 </r>
       <r>    9.6288    0.0000 </r>
       <r>   11.6149    0.0000 </r>
       <r>   15.0587    0.0000 </r>
       <r>   22.7087    0.0000 </r>
       <r>   25.1629    0.0000 </r>
       <r>   28.4166    0.0000 </r>
      </set>
      <set comment="kpoint 71">
       <r>   -1.3136    1.0000 </r>
       <r>   -0.9114    1.0000 </r>
       <r>   -0.5464    1.0000 </r>
       <r>    0.8886    1.0000 </r>
       <r>    1.3278    1.0000 </r>
       <r>    3.4347    1.0155 </r>
       <r>   11.0410    0.0000 </r>
       <r>   13.3796    0.0000 </r>
       <r>   16.4926    0.0000 </r>
       <r>   22.3340    0.0000 </r>
       <r>   24.1223    0.0000 </r>
       <r>   27.5087    0.0000 </r>
      </set>
      <set comment="kpoint 72">
       <r>   -1.7650    1.0000 </r>
       <r>   -1.3905    1.0000 </r>
       <r>    0.5425    1.0000 </r>
       <r>    1.0756    1.0000 </r>
       <r>    1.8853    1.0000 </r>
       <r>    3.4370    1.0137 </r>
       <r>   10.8280    0.0000 </r>
       <r>   13.8153    0.0000 </r>
       <r>   15.1263    0.0000 </r>
       <r>   19.9072    0.0000 </r>
       <r>   23.1096    0.0000 </r>
       <r>   30.1834    0.0000 </r>
      </set>
      <set comment="kpoint 73">
       <r>   -1.6689    1.0000 </r>
       <r>   -1.4581    1.0000 </r>
       <r>    0.5534    1.0000 </r>
       <r>    1.4041    1.0000 </r>
       <r>    1.8825    1.0000 </r>
       <r>    4.9980   -0.0000 </r>
       <r>    9.6770    0.0000 </r>
       <r>   12.3470    0.0000 </r>
       <r>   13.5304    0.0000 </r>
       <r>   21.5034    0.0000 </r>
       <r>   23.0716    0.0000 </r>
       <r>   29.1933    0.0000 </r>
      </set>
      <set comment="kpoint 74">
       <r>   -1.4526    1.0000 </r>
       <r>   -1.2158    1.0000 </r>
       <r>    0.1993    1.0000 </r>
       <r>    1.0927    1.0000 </r>
       <r>    2.0181    1.0000 </r>
       <r>    7.0543   -0.0000 </r>
       <r>    8.3815   -0.0000 </r>
       <r>   11.0108    0.0000 </r>
       <r>   12.7641    0.0000 </r>
       <r>   22.9917    0.0000 </r>
       <r>   24.5119    0.0000 </r>
       <r>   27.8793    0.0000 </r>
      </set>
      <set comment="kpoint 75">
       <r>   -1.1895    1.0000 </r>
       <r>   -0.8460    1.0000 </r>
       <r>   -0.3424    1.0000 </r>
       <r>    0.8513    1.0000 </r>
       <r>    1.8587    1.0000 </r>
       <r>    6.7053   -0.0000 </r>
       <r>    8.8012   -0.0000 </r>
       <r>   10.4828    0.0000 </r>
       <r>   13.7725    0.0000 </r>
       <r>   22.8911    0.0000 </r>
       <r>   26.3287    0.0000 </r>
       <r>   27.9880    0.0000 </r>
      </set>
      <set comment="kpoint 76">
       <r>   -1.2732    1.0000 </r>
       <r>   -0.8548    1.0000 </r>
       <r>   -0.2409    1.0000 </r>
       <r>    0.6730    1.0000 </r>
       <r>    1.6819    1.0000 </r>
       <r>    5.3298   -0.0000 </r>
       <r>    8.0477   -0.0000 </r>
       <r>   13.2998    0.0000 </r>
       <r>   15.2814    0.0000 </r>
       <r>   21.7902    0.0000 </r>
       <r>   25.8139    0.0000 </r>
       <r>   28.9557    0.0000 </r>
      </set>
      <set comment="kpoint 77">
       <r>   -1.8770    1.0000 </r>
       <r>   -1.5932    1.0000 </r>
       <r>    1.1914    1.0000 </r>
       <r>    1.4874    1.0000 </r>
       <r>    1.9420    1.0000 </r>
       <r>    6.0320   -0.0000 </r>
       <r>    8.2374   -0.0000 </r>
       <r>   11.6274    0.0000 </r>
       <r>   14.1417    0.0000 </r>
       <r>   20.1380    0.0000 </r>
       <r>   23.0998    0.0000 </r>
       <r>   30.6552    0.0000 </r>
      </set>
      <set comment="kpoint 78">
       <r>   -1.7307    1.0000 </r>
       <r>   -1.5182    1.0000 </r>
       <r>    0.8203    1.0000 </r>
       <r>    1.3904    1.0000 </r>
       <r>    2.0189    1.0000 </r>
       <r>    6.3687   -0.0000 </r>
       <r>    8.2819   -0.0000 </r>
       <r>   11.7872    0.0000 </r>
       <r>   13.1009    0.0000 </r>
       <r>   21.5679    0.0000 </r>
       <r>   23.0866    0.0000 </r>
       <r>   29.4759    0.0000 </r>
      </set>
      <set comment="kpoint 79">
       <r>   -1.3810    1.0000 </r>
       <r>   -1.1662    1.0000 </r>
       <r>   -0.0281    1.0000 </r>
       <r>    1.1355    1.0000 </r>
       <r>    1.8667    1.0000 </r>
       <r>    5.6859   -0.0000 </r>
       <r>    9.4009    0.0000 </r>
       <r>   11.6396    0.0000 </r>
       <r>   13.3828    0.0000 </r>
       <r>   22.8443    0.0000 </r>
       <r>   24.3877    0.0000 </r>
       <r>   27.7820    0.0000 </r>
      </set>
      <set comment="kpoint 80">
       <r>   -1.8274    1.0000 </r>
       <r>   -1.5239    1.0000 </r>
       <r>    0.9545    1.0000 </r>
       <r>    1.3244    1.0000 </r>
       <r>    1.9408    1.0000 </r>
       <r>    4.7036   -0.0000 </r>
       <r>    9.5762    0.0000 </r>
       <r>   12.3605    0.0000 </r>
       <r>   14.4784    0.0000 </r>
       <r>   20.0481    0.0000 </r>
       <r>   23.0987    0.0000 </r>
       <r>   30.5371    0.0000 </r>
      </set>
      <set comment="kpoint 81">
       <r>   -1.5842    1.0000 </r>
       <r>   -1.3418    1.0000 </r>
       <r>    0.1718    1.0000 </r>
       <r>    1.2835    1.0000 </r>
       <r>    1.6733    1.0000 </r>
       <r>    3.7561    0.0467 </r>
       <r>   10.9309    0.0000 </r>
       <r>   13.3075    0.0000 </r>
       <r>   14.5233    0.0000 </r>
       <r>   21.4319    0.0000 </r>
       <r>   23.0528    0.0000 </r>
       <r>   28.6765    0.0000 </r>
      </set>
      <set comment="kpoint 82">
       <r>   -1.7869    1.0000 </r>
       <r>   -1.2146    1.0000 </r>
       <r>    0.1060    1.0000 </r>
       <r>    0.8017    1.0000 </r>
       <r>    1.7673    1.0000 </r>
       <r>    2.4046    1.0000 </r>
       <r>   11.9638    0.0000 </r>
       <r>   15.7546    0.0000 </r>
       <r>   16.0464    0.0000 </r>
       <r>   19.7810    0.0000 </r>
       <r>   23.1565    0.0000 </r>
       <r>   29.5759    0.0000 </r>
      </set>
      <set comment="kpoint 83">
       <r>   -3.1268    1.0000 </r>
       <r>   -0.3378    1.0000 </r>
       <r>   -0.0512    1.0000 </r>
       <r>   -0.0512    1.0000 </r>
       <r>    1.0366    1.0000 </r>
       <r>    1.0366    1.0000 </r>
       <r>   13.8653    0.0000 </r>
       <r>   19.5639    0.0000 </r>
       <r>   21.9013    0.0000 </r>
       <r>   21.9013    0.0000 </r>
       <r>   24.6648    0.0000 </r>
       <r>   25.9699    0.0000 </r>
      </set>
      <set comment="kpoint 84">
       <r>   -2.5918    1.0000 </r>
       <r>   -0.4354    1.0000 </r>
       <r>   -0.0627    1.0000 </r>
       <r>    0.0595    1.0000 </r>
       <r>    0.8630    1.0000 </r>
       <r>    1.6673    1.0000 </r>
       <r>   12.7362    0.0000 </r>
       <r>   17.8215    0.0000 </r>
       <r>   20.4107    0.0000 </r>
       <r>   23.0650    0.0000 </r>
       <r>   23.8096    0.0000 </r>
       <r>   25.7134    0.0000 </r>
      </set>
      <set comment="kpoint 85">
       <r>   -1.7384    1.0000 </r>
       <r>   -0.6556    1.0000 </r>
       <r>   -0.2505    1.0000 </r>
       <r>    0.3633    1.0000 </r>
       <r>    0.7865    1.0000 </r>
       <r>    2.6671    1.0000 </r>
       <r>   11.8963    0.0000 </r>
       <r>   14.3153    0.0000 </r>
       <r>   20.1408    0.0000 </r>
       <r>   21.4111    0.0000 </r>
       <r>   24.2740    0.0000 </r>
       <r>   27.8859    0.0000 </r>
      </set>
      <set comment="kpoint 86">
       <r>   -1.3146    1.0000 </r>
       <r>   -0.5761    1.0000 </r>
       <r>   -0.3271    1.0000 </r>
       <r>    0.4907    1.0000 </r>
       <r>    1.1268    1.0000 </r>
       <r>    3.9474   -0.0213 </r>
       <r>   10.2112    0.0000 </r>
       <r>   12.3487    0.0000 </r>
       <r>   19.1990    0.0000 </r>
       <r>   19.7457    0.0000 </r>
       <r>   26.0452    0.0000 </r>
       <r>   28.3805    0.0000 </r>
      </set>
      <set comment="kpoint 87">
       <r>   -1.4895    1.0000 </r>
       <r>   -0.7005    1.0000 </r>
       <r>    0.0404    1.0000 </r>
       <r>    0.5437    1.0000 </r>
       <r>    1.6232    1.0000 </r>
       <r>    5.7865   -0.0000 </r>
       <r>    7.2546   -0.0000 </r>
       <r>   12.8260    0.0000 </r>
       <r>   17.3283    0.0000 </r>
       <r>   19.5870    0.0000 </r>
       <r>   27.9442    0.0000 </r>
       <r>   28.5672    0.0000 </r>
      </set>
      <set comment="kpoint 88">
       <r>   -1.6497    1.0000 </r>
       <r>   -0.8842    1.0000 </r>
       <r>    0.0454    1.0000 </r>
       <r>    0.6605    1.0000 </r>
       <r>    1.8867    1.0000 </r>
       <r>    4.4992   -0.0000 </r>
       <r>    8.5724   -0.0000 </r>
       <r>   14.0983    0.0000 </r>
       <r>   16.2162    0.0000 </r>
       <r>   19.6700    0.0000 </r>
       <r>   26.2356    0.0000 </r>
       <r>   28.9779    0.0000 </r>
      </set>
      <set comment="kpoint 89">
       <r>   -2.3979    1.0000 </r>
       <r>   -0.2671    1.0000 </r>
       <r>   -0.1793    1.0000 </r>
       <r>    0.0477    1.0000 </r>
       <r>    1.5173    1.0000 </r>
       <r>    1.5397    1.0000 </r>
       <r>   11.4517    0.0000 </r>
       <r>   19.0808    0.0000 </r>
       <r>   19.1464    0.0000 </r>
       <r>   20.5997    0.0000 </r>
       <r>   25.5856    0.0000 </r>
       <r>   27.0022    0.0000 </r>
      </set>
      <set comment="kpoint 90">
       <r>   -1.8526    1.0000 </r>
       <r>   -0.4226    1.0000 </r>
       <r>   -0.3996    1.0000 </r>
       <r>    0.3283    1.0000 </r>
       <r>    1.3604    1.0000 </r>
       <r>    2.6887    1.0000 </r>
       <r>   10.5463    0.0000 </r>
       <r>   15.9022    0.0000 </r>
       <r>   18.3650    0.0000 </r>
       <r>   21.0849    0.0000 </r>
       <r>   25.2583    0.0000 </r>
       <r>   27.3380    0.0000 </r>
      </set>
      <set comment="kpoint 91">
       <r>   -1.1480    1.0000 </r>
       <r>   -0.7268    1.0000 </r>
       <r>   -0.5860    1.0000 </r>
       <r>    0.7185    1.0000 </r>
       <r>    1.3012    1.0000 </r>
       <r>    4.0762   -0.0029 </r>
       <r>   10.2360    0.0000 </r>
       <r>   12.4038    0.0000 </r>
       <r>   16.9406    0.0000 </r>
       <r>   21.8320    0.0000 </r>
       <r>   25.1349    0.0000 </r>
       <r>   28.8249    0.0000 </r>
      </set>
      <set comment="kpoint 92">
       <r>   -1.1964    1.0000 </r>
       <r>   -0.7730    1.0000 </r>
       <r>   -0.3289    1.0000 </r>
       <r>    0.7881    1.0000 </r>
       <r>    1.6082    1.0000 </r>
       <r>    5.7199   -0.0000 </r>
       <r>    9.0837    0.0000 </r>
       <r>   10.9021    0.0000 </r>
       <r>   15.4960    0.0000 </r>
       <r>   21.5878    0.0000 </r>
       <r>   26.5122    0.0000 </r>
       <r>   29.4624    0.0000 </r>
      </set>
      <set comment="kpoint 93">
       <r>   -1.4499    1.0000 </r>
       <r>   -1.0113    1.0000 </r>
       <r>   -0.0072    1.0000 </r>
       <r>    0.9775    1.0000 </r>
       <r>    1.8248    1.0000 </r>
       <r>    5.9444   -0.0000 </r>
       <r>    8.3066   -0.0000 </r>
       <r>   12.0474    0.0000 </r>
       <r>   14.4446    0.0000 </r>
       <r>   21.4470    0.0000 </r>
       <r>   25.9859    0.0000 </r>
       <r>   27.9028    0.0000 </r>
      </set>
      <set comment="kpoint 94">
       <r>   -1.7769    1.0000 </r>
       <r>   -0.6617    1.0000 </r>
       <r>   -0.1570    1.0000 </r>
       <r>    0.4100    1.0000 </r>
       <r>    1.8550    1.0000 </r>
       <r>    3.2799    1.0186 </r>
       <r>    9.3986    0.0000 </r>
       <r>   16.1667    0.0000 </r>
       <r>   16.9749    0.0000 </r>
       <r>   19.4717    0.0000 </r>
       <r>   26.4347    0.0000 </r>
       <r>   28.3658    0.0000 </r>
      </set>
      <set comment="kpoint 95">
       <r>   -1.4610    1.0000 </r>
       <r>   -0.8736    1.0000 </r>
       <r>   -0.2202    1.0000 </r>
       <r>    0.8090    1.0000 </r>
       <r>    1.7556    1.0000 </r>
       <r>    4.6726   -0.0000 </r>
       <r>    8.8494   -0.0000 </r>
       <r>   13.7013    0.0000 </r>
       <r>   15.1502    0.0000 </r>
       <r>   21.2124    0.0000 </r>
       <r>   25.8348    0.0000 </r>
       <r>   27.7979    0.0000 </r>
      </set>
      <set comment="kpoint 96">
       <r>   -1.1255    1.0000 </r>
       <r>   -0.8461    1.0000 </r>
       <r>   -0.4865    1.0000 </r>
       <r>    0.8948    1.0000 </r>
       <r>    1.8587    1.0000 </r>
       <r>    6.2605   -0.0000 </r>
       <r>    9.1879    0.0000 </r>
       <r>   10.8960    0.0000 </r>
       <r>   13.4768    0.0000 </r>
       <r>   23.6829    0.0000 </r>
       <r>   25.2426    0.0000 </r>
       <r>   27.7987    0.0000 </r>
      </set>
      <set comment="kpoint 97">
       <r>   -1.2201    1.0000 </r>
       <r>   -0.8396    1.0000 </r>
       <r>   -0.3594    1.0000 </r>
       <r>    0.8615    1.0000 </r>
       <r>    2.0168    1.0000 </r>
       <r>    7.2872   -0.0000 </r>
       <r>    8.9822   -0.0000 </r>
       <r>   10.1738    0.0000 </r>
       <r>   12.5752    0.0000 </r>
       <r>   24.3301    0.0000 </r>
       <r>   25.7720    0.0000 </r>
       <r>   26.8351    0.0000 </r>
      </set>
      <set comment="kpoint 98">
       <r>   -1.6221    1.0000 </r>
       <r>   -1.0360    1.0000 </r>
       <r>    0.2781    1.0000 </r>
       <r>    0.9164    1.0000 </r>
       <r>    1.8347    1.0000 </r>
       <r>    5.8287   -0.0000 </r>
       <r>    7.9868   -0.0000 </r>
       <r>   12.1493    0.0000 </r>
       <r>   15.7030    0.0000 </r>
       <r>   19.8858    0.0000 </r>
       <r>   26.0884    0.0000 </r>
       <r>   29.4183    0.0000 </r>
      </set>
      <set comment="kpoint 99">
       <r>   -1.4747    1.0000 </r>
       <r>   -1.0719    1.0000 </r>
       <r>    0.1559    1.0000 </r>
       <r>    1.0354    1.0000 </r>
       <r>    1.8648    1.0000 </r>
       <r>    6.9811   -0.0000 </r>
       <r>    8.1742   -0.0000 </r>
       <r>   10.5862    0.0000 </r>
       <r>   14.1498    0.0000 </r>
       <r>   21.5990    0.0000 </r>
       <r>   26.0844    0.0000 </r>
       <r>   27.9876    0.0000 </r>
      </set>
      <set comment="kpoint 100">
       <r>   -1.6303    1.0000 </r>
       <r>   -1.1096    1.0000 </r>
       <r>    0.4328    1.0000 </r>
       <r>    1.1107    1.0000 </r>
       <r>    1.7458    1.0000 </r>
       <r>    6.8522   -0.0000 </r>
       <r>    7.8859   -0.0000 </r>
       <r>   10.5890    0.0000 </r>
       <r>   15.4454    0.0000 </r>
       <r>   20.0221    0.0000 </r>
       <r>   26.0191    0.0000 </r>
       <r>   29.6461    0.0000 </r>
      </set>
      <set comment="kpoint 101">
       <r>   -2.5041    1.0000 </r>
       <r>   -0.1711    1.0000 </r>
       <r>   -0.1711    1.0000 </r>
       <r>    0.6903    1.0000 </r>
       <r>    1.4488    1.0000 </r>
       <r>    1.4488    1.0000 </r>
       <r>   10.0617    0.0000 </r>
       <r>   18.8147    0.0000 </r>
       <r>   20.8229    0.0000 </r>
       <r>   20.8229    0.0000 </r>
       <r>   25.9380    0.0000 </r>
       <r>   26.0108    0.0000 </r>
      </set>
      <set comment="kpoint 102">
       <r>   -2.2011    1.0000 </r>
       <r>   -0.3044    1.0000 </r>
       <r>   -0.0827    1.0000 </r>
       <r>    0.5845    1.0000 </r>
       <r>    1.3701    1.0000 </r>
       <r>    2.5436    1.0000 </r>
       <r>    9.0529   -0.0000 </r>
       <r>   17.4822    0.0000 </r>
       <r>   19.2645    0.0000 </r>
       <r>   20.8399    0.0000 </r>
       <r>   25.5866    0.0000 </r>
       <r>   26.5165    0.0000 </r>
      </set>
      <set comment="kpoint 103">
       <r>   -1.6109    1.0000 </r>
       <r>   -0.5697    1.0000 </r>
       <r>    0.1161    1.0000 </r>
       <r>    0.2715    1.0000 </r>
       <r>    1.3530    1.0000 </r>
       <r>    4.0385   -0.0058 </r>
       <r>    8.6205   -0.0000 </r>
       <r>   14.1261    0.0000 </r>
       <r>   19.2077    0.0000 </r>
       <r>   19.4705    0.0000 </r>
       <r>   26.2845    0.0000 </r>
       <r>   27.9030    0.0000 </r>
      </set>
      <set comment="kpoint 104">
       <r>   -1.3798    1.0000 </r>
[...]
      <set comment="kpoint 93">
       <set comment="band 1">
        <r>  0.0388  0.0135  0.7936 </r>
       </set>
       <set comment="band 2">
        <r>  0.0000  0.0450  0.7987 </r>
       </set>
       <set comment="band 3">
        <r>  0.0271  0.0594  0.7801 </r>
       </set>
       <set comment="band 4">
        <r>  0.0008  0.0136  0.9220 </r>
       </set>
       <set comment="band 5">
        <r>  0.0024  0.0010  0.9673 </r>
       </set>
       <set comment="band 6">
        <r>  0.3491  0.1473  0.2703 </r>
       </set>
       <set comment="band 7">
        <r>  0.2064  0.3245  0.1151 </r>
       </set>
       <set comment="band 8">
        <r>  0.0959  0.3672  0.1891 </r>
       </set>
       <set comment="band 9">
        <r>  0.0033  0.3852  0.1662 </r>
       </set>
       <set comment="band 10">
        <r>  0.0282  0.1380  0.1866 </r>
       </set>
       <set comment="band 11">
        <r>  0.0326  0.1197  0.1729 </r>
       </set>
       <set comment="band 12">
        <r>  0.0418  0.0088  0.1914 </r>
       </set>
      </set>
      <set comment="kpoint 94">
       <set comment="band 1">
        <r>  0.1413  0.0272  0.6310 </r>
       </set>
       <set comment="band 2">
        <r>  0.0062  0.0398  0.8056 </r>
       </set>
       <set comment="band 3">
        <r>  0.0669  0.0515  0.7366 </r>
       </set>
       <set comment="band 4">
        <r>  0.0000  0.0058  0.9270 </r>
       </set>
       <set comment="band 5">
        <r>  0.0000  0.0003  0.9749 </r>
       </set>
       <set comment="band 6">
        <r>  0.1735  0.1298  0.5105 </r>
       </set>
       <set comment="band 7">
        <r>  0.2421  0.2877  0.1328 </r>
       </set>
       <set comment="band 8">
        <r>  0.0675  0.3293  0.1710 </r>
       </set>
       <set comment="band 9">
        <r>  0.0000  0.4920  0.0755 </r>
       </set>
       <set comment="band 10">
        <r>  0.0400  0.0897  0.1735 </r>
       </set>
       <set comment="band 11">
        <r>  0.0346  0.1727  0.1346 </r>
       </set>
       <set comment="band 12">
        <r>  0.0000  0.0177  0.1754 </r>
       </set>
      </set>
      <set comment="kpoint 95">
       <set comment="band 1">
        <r>  0.0695  0.0238  0.7397 </r>
       </set>
       <set comment="band 2">
        <r>  0.0009  0.0396  0.8069 </r>
       </set>
       <set comment="band 3">
        <r>  0.0502  0.0519  0.7568 </r>
       </set>
       <set comment="band 4">
        <r>  0.0014  0.0165  0.9130 </r>
       </set>
       <set comment="band 5">
        <r>  0.0006  0.0031  0.9644 </r>
       </set>
       <set comment="band 6">
        <r>  0.2606  0.1448  0.3807 </r>
       </set>
       <set comment="band 7">
        <r>  0.2402  0.2970  0.1192 </r>
       </set>
       <set comment="band 8">
        <r>  0.0960  0.4069  0.1428 </r>
       </set>
       <set comment="band 9">
        <r>  0.0012  0.3347  0.1937 </r>
       </set>
       <set comment="band 10">
        <r>  0.0221  0.1699  0.1320 </r>
       </set>
       <set comment="band 11">
        <r>  0.0108  0.1259  0.1680 </r>
       </set>
       <set comment="band 12">
        <r>  0.0741  0.0102  0.2369 </r>
       </set>
      </set>
      <set comment="kpoint 96">
       <set comment="band 1">
        <r>  0.0052  0.0309  0.7992 </r>
       </set>
       <set comment="band 2">
        <r>  0.0083  0.0416  0.8155 </r>
       </set>
       <set comment="band 3">
        <r>  0.0274  0.0533  0.7782 </r>
       </set>
       <set comment="band 4">
        <r>  0.0112  0.0093  0.9099 </r>
       </set>
       <set comment="band 5">
        <r>  0.0007  0.0025  0.9678 </r>
       </set>
       <set comment="band 6">
        <r>  0.4313  0.1178  0.2086 </r>
       </set>
       <set comment="band 7">
        <r>  0.1646  0.3421  0.1499 </r>
       </set>
       <set comment="band 8">
        <r>  0.0772  0.4183  0.1535 </r>
       </set>
       <set comment="band 9">
        <r>  0.0059  0.3131  0.2523 </r>
       </set>
       <set comment="band 10">
        <r>  0.0029  0.2068  0.0931 </r>
       </set>
       <set comment="band 11">
        <r>  0.0000  0.0515  0.2108 </r>
       </set>
       <set comment="band 12">
        <r>  0.0651  0.0961  0.2173 </r>
       </set>
      </set>
      <set comment="kpoint 97">
       <set comment="band 1">
        <r>  0.0037  0.0299  0.7986 </r>
       </set>
       <set comment="band 2">
        <r>  0.0023  0.0434  0.8210 </r>
       </set>
       <set comment="band 3">
        <r>  0.0041  0.0554  0.8101 </r>
       </set>
       <set comment="band 4">
        <r>  0.0266  0.0024  0.8981 </r>
       </set>
       <set comment="band 5">
        <r>  0.0001  0.0007  0.9763 </r>
       </set>
       <set comment="band 6">
        <r>  0.6082  0.0478  0.1124 </r>
       </set>
       <set comment="band 7">
        <r>  0.0471  0.4249  0.1723 </r>
       </set>
       <set comment="band 8">
        <r>  0.0415  0.4322  0.1667 </r>
       </set>
       <set comment="band 9">
        <r>  0.0002  0.3059  0.2731 </r>
       </set>
       <set comment="band 10">
        <r>  0.0060  0.1350  0.1720 </r>
       </set>
       <set comment="band 11">
        <r>  0.0040  0.1254  0.1565 </r>
       </set>
       <set comment="band 12">
        <r>  0.0211  0.1226  0.1649 </r>
       </set>
      </set>
      <set comment="kpoint 98">
       <set comment="band 1">
        <r>  0.0489  0.0054  0.7923 </r>
       </set>
       <set comment="band 2">
        <r>  0.0008  0.0464  0.7921 </r>
       </set>
       <set comment="band 3">
        <r>  0.0261  0.0706  0.7688 </r>
       </set>
       <set comment="band 4">
        <r>  0.0000  0.0068  0.9350 </r>
       </set>
       <set comment="band 5">
        <r>  0.0000  0.0000  0.9731 </r>
       </set>
       <set comment="band 6">
        <r>  0.3130  0.1619  0.2942 </r>
       </set>
       <set comment="band 7">
        <r>  0.2299  0.3138  0.0967 </r>
       </set>
       <set comment="band 8">
        <r>  0.0907  0.3361  0.2211 </r>
       </set>
       <set comment="band 9">
        <r>  0.0000  0.4964  0.0660 </r>
       </set>
       <set comment="band 10">
        <r>  0.0488  0.0528  0.2634 </r>
       </set>
       <set comment="band 11">
        <r>  0.0582  0.0980  0.1893 </r>
       </set>
       <set comment="band 12">
        <r>  0.0000  0.0058  0.1304 </r>
       </set>
      </set>
      <set comment="kpoint 99">
       <set comment="band 1">
        <r>  0.0279  0.0089  0.8111 </r>
       </set>
       <set comment="band 2">
        <r>  0.0000  0.0473  0.7967 </r>
       </set>
       <set comment="band 3">
        <r>  0.0039  0.0669  0.8031 </r>
       </set>
       <set comment="band 4">
        <r>  0.0081  0.0068  0.9239 </r>
       </set>
       <set comment="band 5">
        <r>  0.0006  0.0015  0.9699 </r>
       </set>
       <set comment="band 6">
        <r>  0.5549  0.0730  0.1320 </r>
       </set>
       <set comment="band 7">
        <r>  0.0466  0.4210  0.1745 </r>
       </set>
       <set comment="band 8">
        <r>  0.0756  0.3473  0.2277 </r>
       </set>
       <set comment="band 9">
        <r>  0.0076  0.4016  0.1550 </r>
       </set>
       <set comment="band 10">
        <r>  0.0318  0.1216  0.2222 </r>
       </set>
       <set comment="band 11">
        <r>  0.0536  0.1115  0.1846 </r>
       </set>
       <set comment="band 12">
        <r>  0.0061  0.0186  0.1337 </r>
       </set>
      </set>
      <set comment="kpoint 100">
       <set comment="band 1">
        <r>  0.0374  0.0006  0.8127 </r>
       </set>
       <set comment="band 2">
        <r>  0.0003  0.0485  0.7894 </r>
       </set>
       <set comment="band 3">
        <r>  0.0033  0.0755  0.7955 </r>
       </set>
       <set comment="band 4">
        <r>  0.0000  0.0070  0.9390 </r>
       </set>
       <set comment="band 5">
        <r>  0.0000  0.0001  0.9699 </r>
       </set>
       <set comment="band 6">
        <r>  0.5426  0.0792  0.1335 </r>
       </set>
       <set comment="band 7">
        <r>  0.0431  0.4211  0.1763 </r>
       </set>
       <set comment="band 8">
        <r>  0.0842  0.3208  0.2507 </r>
       </set>
       <set comment="band 9">
        <r>  0.0000  0.4974  0.0649 </r>
       </set>
       <set comment="band 10">
        <r>  0.0520  0.0466  0.2899 </r>
       </set>
       <set comment="band 11">
        <r>  0.0644  0.0856  0.1981 </r>
       </set>
       <set comment="band 12">
        <r>  0.0000  0.0007  0.1075 </r>
       </set>
      </set>
      <set comment="kpoint 101">
       <set comment="band 1">
        <r>  0.2848  0.0231  0.4306 </r>
       </set>
       <set comment="band 2">
        <r>  0.0000  0.0004  0.9256 </r>
       </set>
       <set comment="band 3">
        <r>  0.0000  0.0004  0.9256 </r>
       </set>
       <set comment="band 4">
        <r>  0.1478  0.1775  0.3923 </r>
       </set>
       <set comment="band 5">
        <r>  0.0000  0.0013  0.9612 </r>
       </set>
       <set comment="band 6">
        <r>  0.0000  0.0013  0.9612 </r>
       </set>
       <set comment="band 7">
        <r>  0.2254  0.2654  0.1859 </r>
       </set>
       <set comment="band 8">
        <r>  0.0005  0.0176  0.0205 </r>
       </set>
       <set comment="band 9">
        <r>  0.0000  0.5326  0.0521 </r>
       </set>
       <set comment="band 10">
        <r>  0.0000  0.5326  0.0521 </r>
       </set>
       <set comment="band 11">
        <r>  0.0932  0.0706  0.1457 </r>
       </set>
       <set comment="band 12">
        <r>  0.0000  0.0024  0.3275 </r>
       </set>
      </set>
      <set comment="kpoint 102">
       <set comment="band 1">
        <r>  0.2201  0.0223  0.5279 </r>
       </set>
       <set comment="band 2">
        <r>  0.0004  0.0028  0.9132 </r>
       </set>
       <set comment="band 3">
        <r>  0.0000  0.0005  0.9249 </r>
       </set>
       <set comment="band 4">
        <r>  0.0700  0.1293  0.5892 </r>
       </set>
       <set comment="band 5">
        <r>  0.0000  0.0013  0.9580 </r>
       </set>
       <set comment="band 6">
        <r>  0.1094  0.0895  0.6609 </r>
       </set>
       <set comment="band 7">
        <r>  0.2526  0.2482  0.1926 </r>
       </set>
       <set comment="band 8">
        <r>  0.0220  0.3246  0.1248 </r>
       </set>
       <set comment="band 9">
        <r>  0.0108  0.1721  0.0082 </r>
       </set>
       <set comment="band 10">
        <r>  0.0000  0.5242  0.0577 </r>
       </set>
       <set comment="band 11">
        <r>  0.0332  0.0318  0.2151 </r>
       </set>
       <set comment="band 12">
        <r>  0.0000  0.0225  0.3965 </r>
       </set>
      </set>
      <set comment="kpoint 103">
       <set comment="band 1">
        <r>  0.1401  0.0318  0.6359 </r>
       </set>
       <set comment="band 2">
        <r>  0.0005  0.0150  0.8715 </r>
       </set>
       <set comment="band 3">
        <r>  0.0223  0.1026  0.6975 </r>
       </set>
       <set comment="band 4">
        <r>  0.0000  0.0036  0.9244 </r>
       </set>
       <set comment="band 5">
        <r>  0.0000  0.0010  0.9578 </r>
       </set>
       <set comment="band 6">
        <r>  0.2403  0.1161  0.4458 </r>
       </set>
       <set comment="band 7">
        <r>  0.2311  0.2643  0.1946 </r>
       </set>
       <set comment="band 8">
        <r>  0.0625  0.3840  0.1640 </r>
       </set>
       <set comment="band 9">
        <r>  0.0000  0.4957  0.1048 </r>
       </set>
       <set comment="band 10">
        <r>  0.0189  0.0749  0.1016 </r>
       </set>
       <set comment="band 11">
        <r>  0.0142  0.0402  0.1284 </r>
       </set>
       <set comment="band 12">
        <r>  0.0000  0.0189  0.2957 </r>
       </set>
      </set>
      <set comment="kpoint 104">
       <set comment="band 1">
        <r>  0.0556  0.0066  0.7952 </r>
       </set>
       <set comment="band 2">
        <r>  0.0091  0.0712  0.7423 </r>
       </set>
       <set comment="band 3">
        <r>  0.0001  0.0683  0.7982 </r>
       </set>
       <set comment="band 4">
        <r>  0.0000  0.0070  0.9281 </r>
       </set>
       <set comment="band 5">
        <r>  0.0000  0.0002  0.9623 </r>
       </set>
       <set comment="band 6">
        <r>  0.4234  0.1021  0.2252 </r>
       </set>
       <set comment="band 7">
        <r>  0.1048  0.3444  0.2265 </r>
       </set>
       <set comment="band 8">
        <r>  0.1145  0.3447  0.1998 </r>
       </set>
       <set comment="band 9">
        <r>  0.0000  0.4931  0.0980 </r>
       </set>
       <set comment="band 10">
        <r>  0.0329  0.0542  0.2158 </r>
       </set>
       <set comment="band 11">
        <r>  0.0009  0.0479  0.0500 </r>
       </set>
       <set comment="band 12">
        <r>  0.0000  0.0012  0.1715 </r>
       </set>
      </set>
      <set comment="kpoint 105">
       <set comment="band 1">
        <r>  0.1877  0.0141  0.5874 </r>
       </set>
       <set comment="band 2">
        <r>  0.0003  0.0022  0.9092 </r>
       </set>
       <set comment="band 3">
        <r>  0.0000  0.0022  0.9229 </r>
       </set>
       <set comment="band 4">
        <r>  0.0371  0.0986  0.6982 </r>
       </set>
       <set comment="band 5">
        <r>  0.0000  0.0002  0.9734 </r>
       </set>
       <set comment="band 6">
        <r>  0.1301  0.1786  0.4607 </r>
       </set>
       <set comment="band 7">
        <r>  0.2975  0.2070  0.2151 </r>
       </set>
       <set comment="band 8">
        <r>  0.0053  0.1050  0.0713 </r>
       </set>
       <set comment="band 9">
        <r>  0.0000  0.5069  0.0544 </r>
       </set>
       <set comment="band 10">
        <r>  0.0380  0.3773  0.0758 </r>
       </set>
       <set comment="band 11">
        <r>  0.0000  0.0122  0.3117 </r>
       </set>
       <set comment="band 12">
        <r>  0.0124  0.0030  0.3817 </r>
       </set>
      </set>
      <set comment="kpoint 106">
       <set comment="band 1">
        <r>  0.1366  0.0235  0.6501 </r>
       </set>
       <set comment="band 2">
        <r>  0.0001  0.0077  0.8842 </r>
       </set>
       <set comment="band 3">
        <r>  0.0009  0.0144  0.9011 </r>
       </set>
       <set comment="band 4">
        <r>  0.0128  0.0853  0.7522 </r>
       </set>
       <set comment="band 5">
        <r>  0.0004  0.0023  0.9647 </r>
       </set>
       <set comment="band 6">
        <r>  0.1931  0.1919  0.3686 </r>
       </set>
       <set comment="band 7">
        <r>  0.2944  0.2070  0.2185 </r>
       </set>
       <set comment="band 8">
        <r>  0.0600  0.4252  0.1185 </r>
       </set>
       <set comment="band 9">
        <r>  0.0117  0.2703  0.1533 </r>
       </set>
       <set comment="band 10">
        <r>  0.0012  0.2729  0.0207 </r>
       </set>
       <set comment="band 11">
        <r>  0.0232  0.0126  0.3318 </r>
       </set>
       <set comment="band 12">
        <r>  0.0011  0.0224  0.2292 </r>
       </set>
      </set>
      <set comment="kpoint 107">
       <set comment="band 1">
        <r>  0.0691  0.0249  0.7494 </r>
       </set>
       <set comment="band 2">
        <r>  0.0055  0.0338  0.8113 </r>
       </set>
       <set comment="band 3">
        <r>  0.0001  0.0749  0.7817 </r>
       </set>
       <set comment="band 4">
        <r>  0.0011  0.0093  0.9202 </r>
       </set>
       <set comment="band 5">
        <r>  0.0034  0.0007  0.9620 </r>
       </set>
       <set comment="band 6">
        <r>  0.4440  0.0919  0.2297 </r>
       </set>
       <set comment="band 7">
        <r>  0.0899  0.3428  0.2383 </r>
       </set>
       <set comment="band 8">
        <r>  0.0986  0.3829  0.1613 </r>
       </set>
       <set comment="band 9">
        <r>  0.0112  0.3548  0.1765 </r>
       </set>
       <set comment="band 10">
        <r>  0.0071  0.1901  0.0977 </r>
       </set>
       <set comment="band 11">
        <r>  0.0093  0.0236  0.2348 </r>
       </set>
       <set comment="band 12">
        <r>  0.1116  0.0700  0.1040 </r>
       </set>
      </set>
      <set comment="kpoint 108">
       <set comment="band 1">
        <r>  0.1100  0.0201  0.6941 </r>
       </set>
       <set comment="band 2">
        <r>  0.0018  0.0217  0.8495 </r>
       </set>
       <set comment="band 3">
        <r>  0.0078  0.0852  0.7589 </r>
       </set>
       <set comment="band 4">
        <r>  0.0000  0.0047  0.9242 </r>
       </set>
       <set comment="band 5">
        <r>  0.0000  0.0002  0.9714 </r>
       </set>
       <set comment="band 6">
        <r>  0.1710  0.2480  0.3044 </r>
       </set>
       <set comment="band 7">
        <r>  0.3399  0.1678  0.2228 </r>
       </set>
       <set comment="band 8">
        <r>  0.0691  0.3649  0.1609 </r>
       </set>
       <set comment="band 9">
        <r>  0.0000  0.4970  0.0770 </r>
       </set>
       <set comment="band 10">
        <r>  0.0258  0.0774  0.1366 </r>
       </set>
       <set comment="band 11">
        <r>  0.0221  0.0224  0.2400 </r>
       </set>
       <set comment="band 12">
        <r>  0.0000  0.0137  0.2514 </r>
       </set>
      </set>
      <set comment="kpoint 109">
       <set comment="band 1">
        <r>  0.1888  0.0021  0.6034 </r>
       </set>
       <set comment="band 2">
        <r>  0.0000  0.0000  0.9224 </r>
       </set>
       <set comment="band 3">
        <r>  0.0000  0.0000  0.9224 </r>
       </set>
       <set comment="band 4">
        <r>  0.0000  0.0002  0.9720 </r>
       </set>
       <set comment="band 5">
        <r>  0.0000  0.0002  0.9720 </r>
       </set>
       <set comment="band 6">
        <r>  0.0947  0.3759  0.1049 </r>
       </set>
       <set comment="band 7">
        <r>  0.3787  0.1151  0.2884 </r>
       </set>
       <set comment="band 8">
        <r>  0.0000  0.0192  0.0021 </r>
       </set>
       <set comment="band 9">
        <r>  0.0000  0.5292  0.0063 </r>
       </set>
       <set comment="band 10">
        <r>  0.0000  0.5292  0.0063 </r>
       </set>
       <set comment="band 11">
        <r>  0.0000  0.0000  0.4482 </r>
       </set>
       <set comment="band 12">
        <r>  0.0000  0.0000  0.4482 </r>
       </set>
      </set>
      <set comment="kpoint 110">
       <set comment="band 1">
        <r>  0.1634  0.0087  0.6316 </r>
       </set>
       <set comment="band 2">
        <r>  0.0000  0.0028  0.9081 </r>
       </set>
       <set comment="band 3">
        <r>  0.0000  0.0012  0.9221 </r>
       </set>
       <set comment="band 4">
        <r>  0.0007  0.0904  0.7764 </r>
       </set>
       <set comment="band 5">
        <r>  0.0000  0.0002  0.9711 </r>
       </set>
       <set comment="band 6">
        <r>  0.0367  0.3649  0.2282 </r>
       </set>
       <set comment="band 7">
        <r>  0.4532  0.0408  0.3323 </r>
       </set>
       <set comment="band 8">
        <r>  0.0189  0.2794  0.0925 </r>
       </set>
       <set comment="band 9">
        <r>  0.0172  0.2160  0.0246 </r>
       </set>
       <set comment="band 10">
        <r>  0.0000  0.5133  0.0392 </r>
       </set>
       <set comment="band 11">
        <r>  0.0318  0.0030  0.3559 </r>
       </set>
       <set comment="band 12">
        <r>  0.0000  0.0119  0.4018 </r>
       </set>
      </set>
     </set>
    </set>
   </array>
  </projected>
 </calculation>
 <structure name="finalpos" >
  <crystal>
   <varray name="basis" >
    <v>       0.00000000       2.15000000       2.15000000 </v>
    <v>       2.15000000       0.00000000       2.15000000 </v>
    <v>       2.15000000       2.15000000       0.00000000 </v>
   </varray>
   <i name="volume">     19.87675000 </i>
   <varray name="rec_basis" >
    <v>      -0.23255814       0.23255814       0.23255814 </v>
    <v>       0.23255814      -0.23255814       0.23255814 </v>
    <v>       0.23255814       0.23255814      -0.23255814 </v>
   </varray>
  </crystal>
  <varray name="positions" >
   <v>       0.00000000       0.00000000       0.00000000 </v>
  </varray>
 </structure>
</modeling>
