   1   1   1   0
  0.1145315E+02  0.2459512E-09  0.2459512E-09  0.2459512E-09  0.5000000E-15
  1.000000000000000E-004
  CAR 
 bcc Fe                                  
     48.13066074     -5.02141994  301      5.69776065      1.00000000
     -5.021  0.0000E+00  0.0000E+00  0.0000E+00  0.0000E+00
     -4.844  0.0000E+00  0.0000E+00  0.0000E+00  0.0000E+00
     -4.667  0.0000E+00  0.0000E+00  0.0000E+00  0.0000E+00
     -4.490  0.0000E+00  0.0000E+00  0.0000E+00  0.0000E+00
     -4.313 -0.2292E-33  0.0000E+00 -0.4060E-34  0.0000E+00
     -4.136 -0.3471E-27 -0.4834E-34 -0.6149E-28 -0.8564E-35
     -3.958 -0.1080E-21 -0.8616E-28 -0.1913E-22 -0.1526E-28
     -3.781 -0.6642E-17 -0.3155E-22 -0.1177E-17 -0.5590E-23
     -3.604 -0.8582E-13 -0.2367E-17 -0.1521E-13 -0.4194E-18
     -3.427 -0.2218E-09 -0.3485E-13 -0.3932E-10 -0.6175E-14
     -3.250 -0.1136E-06 -0.1063E-09 -0.2017E-07 -0.1884E-10
     -3.073 -0.1117E-04 -0.6436E-07 -0.1998E-05 -0.1142E-07
     -2.895 -0.1877E-03 -0.7510E-05 -0.3526E-04 -0.1342E-05
     -2.718  0.1535E-04 -0.1531E-03 -0.3254E-04 -0.2847E-04
     -2.541  0.5523E-02 -0.1310E-03  0.9459E-03 -0.5169E-04
     -2.364  0.1476E-01  0.4557E-02  0.3560E-02  0.7557E-03
     -2.187  0.2123E-01  0.1396E-01  0.7323E-02  0.3230E-02
     -2.009  0.2763E-01  0.1995E-01  0.1222E-01  0.6765E-02
     -1.832  0.2698E-01  0.2752E-01  0.1700E-01  0.1164E-01
     -1.655  0.4156E-01  0.2532E-01  0.2436E-01  0.1613E-01
     -1.478  0.3407E-01  0.3951E-01  0.3040E-01  0.2313E-01
     -1.301  0.4233E-01  0.3534E-01  0.3790E-01  0.2939E-01
     -1.124  0.5474E-01  0.3650E-01  0.4760E-01  0.3585E-01
     -0.946  0.4928E-01  0.5296E-01  0.5633E-01  0.4524E-01
     -0.769  0.4957E-01  0.4866E-01  0.6511E-01  0.5386E-01
     -0.592  0.7267E-01  0.4352E-01  0.7799E-01  0.6157E-01
     -0.415  0.6681E-01  0.6232E-01  0.8982E-01  0.7261E-01
     -0.238  0.7180E-01  0.6482E-01  0.1025E+00  0.8410E-01
     -0.061  0.7624E-01  0.6141E-01  0.1161E+00  0.9498E-01
      0.117  0.1022E+00  0.6494E-01  0.1342E+00  0.1065E+00
      0.294  0.1096E+00  0.7342E-01  0.1536E+00  0.1195E+00
      0.471  0.1012E+00  0.8684E-01  0.1715E+00  0.1349E+00
      0.648  0.1471E+00  0.8662E-01  0.1976E+00  0.1502E+00
      0.825  0.2540E+00  0.8322E-01  0.2426E+00  0.1650E+00
      1.002  0.3821E+00  0.8824E-01  0.3103E+00  0.1806E+00
      1.180  0.5350E+00  0.1237E+00  0.4051E+00  0.2025E+00
      1.357  0.6464E+00  0.1259E+00  0.5196E+00  0.2248E+00
      1.534  0.7680E+00  0.1127E+00  0.6556E+00  0.2448E+00
      1.711  0.9685E+00  0.1207E+00  0.8272E+00  0.2662E+00
      1.888  0.7902E+00  0.2070E+00  0.9672E+00  0.3029E+00
      2.066  0.5114E+00  0.2060E+00  0.1058E+01  0.3394E+00
      2.243  0.5402E+00  0.2332E+00  0.1154E+01  0.3807E+00
      2.420  0.1284E+01  0.3633E+00  0.1381E+01  0.4450E+00
      2.597  0.1447E+01  0.3801E+00  0.1637E+01  0.5124E+00
      2.774  0.1112E+01  0.3328E+00  0.1834E+01  0.5714E+00
      2.951  0.1069E+01  0.4333E+00  0.2024E+01  0.6481E+00
      3.129  0.1317E+01  0.5903E+00  0.2257E+01  0.7527E+00
      3.306  0.1516E+01  0.6262E+00  0.2526E+01  0.8637E+00
      3.483  0.8906E+00  0.5498E+00  0.2683E+01  0.9611E+00
      3.660  0.5026E+00  0.4009E+00  0.2773E+01  0.1032E+01
      3.837  0.4488E+00  0.2865E+00  0.2852E+01  0.1083E+01
      4.014  0.4064E+00  0.4488E+00  0.2924E+01  0.1162E+01
      4.192  0.6175E+00  0.1029E+01  0.3033E+01  0.1345E+01
      4.369  0.8988E+00  0.1304E+01  0.3193E+01  0.1576E+01
      4.546  0.1384E+01  0.1233E+01  0.3438E+01  0.1794E+01
      4.723  0.1940E+01  0.1141E+01  0.3782E+01  0.1996E+01
      4.900  0.2218E+01  0.1148E+01  0.4175E+01  0.2200E+01
      5.077  0.2064E+01  0.1227E+01  0.4540E+01  0.2417E+01
      5.255  0.1282E+01  0.1059E+01  0.4767E+01  0.2605E+01
      5.432  0.7965E+00  0.7974E+00  0.4908E+01  0.2746E+01
      5.609  0.8297E+00  0.5122E+00  0.5055E+01  0.2837E+01
      5.786  0.8253E+00  0.3009E+00  0.5202E+01  0.2890E+01
      5.963  0.3911E+00  0.2185E+00  0.5271E+01  0.2929E+01
      6.141  0.1323E+00  0.2216E+00  0.5294E+01  0.2968E+01
      6.318  0.1592E+00  0.3491E+00  0.5323E+01  0.3030E+01
      6.495  0.2099E+00  0.4037E+00  0.5360E+01  0.3101E+01
      6.672  0.1258E+00  0.5681E+00  0.5382E+01  0.3202E+01
      6.849  0.1231E+00  0.8207E+00  0.5404E+01  0.3347E+01
      7.026  0.1109E+00  0.1035E+01  0.5424E+01  0.3531E+01
      7.204  0.1645E+00  0.1202E+01  0.5453E+01  0.3744E+01
      7.381  0.2136E+00  0.1409E+01  0.5491E+01  0.3993E+01
      7.558  0.1267E+00  0.1525E+01  0.5513E+01  0.4264E+01
      7.735  0.7940E-01  0.2169E+01  0.5527E+01  0.4648E+01
      7.912  0.1292E+00  0.1774E+01  0.5550E+01  0.4962E+01
      8.089  0.1461E+00  0.9413E+00  0.5576E+01  0.5129E+01
      8.267  0.1445E+00  0.6198E+00  0.5601E+01  0.5239E+01
      8.444  0.1709E+00  0.4482E+00  0.5632E+01  0.5318E+01
      8.621  0.1158E+00  0.3137E+00  0.5652E+01  0.5374E+01
      8.798  0.9719E-01  0.1959E+00  0.5669E+01  0.5409E+01
      8.975  0.9064E-01  0.1681E+00  0.5685E+01  0.5438E+01
      9.152  0.1030E+00  0.1947E+00  0.5704E+01  0.5473E+01
      9.330  0.1549E+00  0.2379E+00  0.5731E+01  0.5515E+01
      9.507  0.1215E+00  0.1722E+00  0.5753E+01  0.5546E+01
      9.684  0.1078E+00  0.1433E+00  0.5772E+01  0.5571E+01
      9.861  0.1130E+00  0.1331E+00  0.5792E+01  0.5595E+01
     10.038  0.7850E-01  0.1995E+00  0.5806E+01  0.5630E+01
     10.216  0.7640E-01  0.1876E+00  0.5819E+01  0.5663E+01
     10.393  0.6042E-01  0.1270E+00  0.5830E+01  0.5686E+01
     10.570  0.1015E+00  0.1053E+00  0.5848E+01  0.5704E+01
     10.747  0.1313E+00  0.1278E+00  0.5871E+01  0.5727E+01
     10.924  0.7164E-01  0.1338E+00  0.5884E+01  0.5751E+01
     11.101  0.7721E-01  0.1667E+00  0.5898E+01  0.5780E+01
     11.279  0.5857E-01  0.1341E+00  0.5908E+01  0.5804E+01
     11.456  0.4398E-01  0.7207E-01  0.5916E+01  0.5817E+01
     11.633  0.6250E-01  0.7168E-01  0.5927E+01  0.5829E+01
     11.810  0.3783E-01  0.1042E+00  0.5934E+01  0.5848E+01
     11.987  0.4588E-01  0.1138E+00  0.5942E+01  0.5868E+01
     12.164  0.8353E-01  0.1278E+00  0.5956E+01  0.5891E+01
     12.342  0.4853E-01  0.6916E-01  0.5965E+01  0.5903E+01
     12.519  0.2244E-01  0.5204E-01  0.5969E+01  0.5912E+01
     12.696  0.2655E-01  0.6566E-01  0.5974E+01  0.5924E+01
     12.873  0.1473E-01  0.5574E-01  0.5976E+01  0.5934E+01
     13.050  0.4670E-01  0.6038E-01  0.5985E+01  0.5944E+01
     13.227  0.2074E+00  0.6740E-01  0.6021E+01  0.5956E+01
     13.405  0.2752E+00  0.5775E-01  0.6070E+01  0.5966E+01
     13.582  0.2202E+00  0.2765E-01  0.6109E+01  0.5971E+01
     13.759  0.2597E+00  0.2043E-01  0.6155E+01  0.5975E+01
     13.936  0.1864E+00  0.3393E-01  0.6188E+01  0.5981E+01
     14.113  0.1502E+00  0.2907E-01  0.6215E+01  0.5986E+01
     14.291  0.2032E+00  0.1886E-01  0.6251E+01  0.5989E+01
     14.468  0.1749E+00  0.9602E-01  0.6282E+01  0.6007E+01
     14.645  0.1718E+00  0.2710E+00  0.6312E+01  0.6055E+01
     14.822  0.1388E+00  0.3669E+00  0.6337E+01  0.6120E+01
     14.999  0.1073E+00  0.2775E+00  0.6356E+01  0.6169E+01
     15.176  0.1990E+00  0.2172E+00  0.6391E+01  0.6207E+01
     15.354  0.2231E+00  0.2252E+00  0.6431E+01  0.6247E+01
     15.531  0.1427E+00  0.1709E+00  0.6456E+01  0.6277E+01
     15.708  0.1769E+00  0.1993E+00  0.6487E+01  0.6313E+01
     15.885  0.2183E+00  0.1878E+00  0.6526E+01  0.6346E+01
     16.062  0.1751E+00  0.1531E+00  0.6557E+01  0.6373E+01
     16.239  0.2054E+00  0.1859E+00  0.6593E+01  0.6406E+01
     16.417  0.2127E+00  0.2503E+00  0.6631E+01  0.6450E+01
     16.594  0.1898E+00  0.2020E+00  0.6665E+01  0.6486E+01
     16.771  0.1665E+00  0.2124E+00  0.6694E+01  0.6524E+01
     16.948  0.1995E+00  0.1878E+00  0.6730E+01  0.6557E+01
     17.125  0.1875E+00  0.1882E+00  0.6763E+01  0.6590E+01
     17.302  0.1804E+00  0.2272E+00  0.6795E+01  0.6631E+01
     17.480  0.1623E+00  0.2371E+00  0.6823E+01  0.6673E+01
     17.657  0.1759E+00  0.1821E+00  0.6855E+01  0.6705E+01
     17.834  0.2184E+00  0.1870E+00  0.6893E+01  0.6738E+01
     18.011  0.1755E+00  0.1808E+00  0.6924E+01  0.6770E+01
     18.188  0.1808E+00  0.1727E+00  0.6956E+01  0.6801E+01
     18.365  0.1571E+00  0.1938E+00  0.6984E+01  0.6835E+01
     18.543  0.2098E+00  0.2200E+00  0.7021E+01  0.6874E+01
     18.720  0.2168E+00  0.2227E+00  0.7060E+01  0.6913E+01
     18.897  0.1479E+00  0.1567E+00  0.7086E+01  0.6941E+01
     19.074  0.1664E+00  0.1703E+00  0.7116E+01  0.6971E+01
     19.251  0.1112E+00  0.1832E+00  0.7135E+01  0.7004E+01
     19.429  0.1737E+00  0.2453E+00  0.7166E+01  0.7047E+01
     19.606  0.2166E+00  0.1954E+00  0.7204E+01  0.7082E+01
     19.783  0.2077E+00  0.1706E+00  0.7241E+01  0.7112E+01
     19.960  0.1615E+00  0.1066E+00  0.7270E+01  0.7131E+01
     20.137  0.1445E+00  0.1437E+00  0.7295E+01  0.7157E+01
     20.314  0.1364E+00  0.2464E+00  0.7320E+01  0.7200E+01
     20.492  0.1955E+00  0.2265E+00  0.7354E+01  0.7240E+01
     20.669  0.2523E+00  0.1691E+00  0.7399E+01  0.7270E+01
     20.846  0.1584E+00  0.1642E+00  0.7427E+01  0.7299E+01
     21.023  0.1144E+00  0.1387E+00  0.7447E+01  0.7324E+01
     21.200  0.1294E+00  0.1997E+00  0.7470E+01  0.7359E+01
     21.377  0.1052E+00  0.2432E+00  0.7489E+01  0.7402E+01
     21.555  0.1510E+00  0.1778E+00  0.7516E+01  0.7434E+01
     21.732  0.2630E+00  0.1197E+00  0.7562E+01  0.7455E+01
     21.909  0.2785E+00  0.1184E+00  0.7612E+01  0.7476E+01
     22.086  0.1477E+00  0.1268E+00  0.7638E+01  0.7499E+01
     22.263  0.1341E+00  0.1861E+00  0.7661E+01  0.7532E+01
     22.440  0.2175E+00  0.2856E+00  0.7700E+01  0.7582E+01
     22.618  0.2014E+00  0.2144E+00  0.7736E+01  0.7620E+01
     22.795  0.2480E+00  0.1411E+00  0.7780E+01  0.7645E+01
     22.972  0.2452E+00  0.2025E+00  0.7823E+01  0.7681E+01
     23.149  0.2001E+00  0.2274E+00  0.7858E+01  0.7721E+01
     23.326  0.2061E+00  0.2385E+00  0.7895E+01  0.7764E+01
     23.504  0.1812E+00  0.2448E+00  0.7927E+01  0.7807E+01
     23.681  0.1879E+00  0.2347E+00  0.7960E+01  0.7848E+01
     23.858  0.3425E+00  0.2696E+00  0.8021E+01  0.7896E+01
     24.035  0.3685E+00  0.2394E+00  0.8086E+01  0.7939E+01
     24.212  0.2916E+00  0.1967E+00  0.8138E+01  0.7973E+01
     24.389  0.1810E+00  0.2965E+00  0.8170E+01  0.8026E+01
     24.567  0.1692E+00  0.4038E+00  0.8200E+01  0.8098E+01
     24.744  0.3204E+00  0.2819E+00  0.8257E+01  0.8148E+01
     24.921  0.2487E+00  0.1812E+00  0.8301E+01  0.8180E+01
     25.098  0.2060E+00  0.1775E+00  0.8337E+01  0.8211E+01
     25.275  0.2242E+00  0.3026E+00  0.8377E+01  0.8265E+01
     25.452  0.2966E+00  0.3002E+00  0.8430E+01  0.8318E+01
     25.630  0.2742E+00  0.2040E+00  0.8478E+01  0.8354E+01
     25.807  0.2373E+00  0.1946E+00  0.8520E+01  0.8388E+01
     25.984  0.2880E+00  0.3006E+00  0.8571E+01  0.8442E+01
     26.161  0.3440E+00  0.2930E+00  0.8632E+01  0.8494E+01
     26.338  0.2597E+00  0.2808E+00  0.8678E+01  0.8543E+01
     26.515  0.1702E+00  0.2893E+00  0.8708E+01  0.8595E+01
     26.693  0.1663E+00  0.2967E+00  0.8738E+01  0.8647E+01
     26.870  0.2382E+00  0.2192E+00  0.8780E+01  0.8686E+01
     27.047  0.1965E+00  0.1676E+00  0.8815E+01  0.8716E+01
     27.224  0.1856E+00  0.2572E+00  0.8848E+01  0.8761E+01
     27.401  0.2192E+00  0.2389E+00  0.8887E+01  0.8804E+01
     27.579  0.2118E+00  0.1586E+00  0.8924E+01  0.8832E+01
     27.756  0.1952E+00  0.1947E+00  0.8959E+01  0.8866E+01
     27.933  0.1628E+00  0.1691E+00  0.8988E+01  0.8896E+01
     28.110  0.1198E+00  0.1928E+00  0.9009E+01  0.8930E+01
     28.287  0.1728E+00  0.2336E+00  0.9039E+01  0.8972E+01
     28.464  0.1742E+00  0.1563E+00  0.9070E+01  0.8999E+01
     28.642  0.1478E+00  0.1728E+00  0.9096E+01  0.9030E+01
     28.819  0.1528E+00  0.1502E+00  0.9124E+01  0.9057E+01
     28.996  0.1177E+00  0.8749E-01  0.9144E+01  0.9072E+01
     29.173  0.1214E+00  0.1783E+00  0.9166E+01  0.9104E+01
     29.350  0.1223E+00  0.2026E+00  0.9188E+01  0.9140E+01
     29.527  0.1576E+00  0.1343E+00  0.9216E+01  0.9163E+01
     29.705  0.1958E+00  0.9937E-01  0.9250E+01  0.9181E+01
     29.882  0.2098E+00  0.1172E+00  0.9287E+01  0.9202E+01
     30.059  0.2165E+00  0.1905E+00  0.9326E+01  0.9236E+01
     30.236  0.1864E+00  0.2249E+00  0.9359E+01  0.9275E+01
     30.413  0.2813E+00  0.2113E+00  0.9409E+01  0.9313E+01
     30.590  0.4187E+00  0.2223E+00  0.9483E+01  0.9352E+01
     30.768  0.3095E+00  0.2705E+00  0.9538E+01  0.9400E+01
     30.945  0.2538E+00  0.3863E+00  0.9583E+01  0.9469E+01
     31.122  0.2455E+00  0.3395E+00  0.9626E+01  0.9529E+01
     31.299  0.2878E+00  0.2628E+00  0.9677E+01  0.9575E+01
     31.476  0.2407E+00  0.2365E+00  0.9720E+01  0.9617E+01
     31.654  0.1644E+00  0.2043E+00  0.9749E+01  0.9653E+01
     31.831  0.1485E+00  0.2879E+00  0.9775E+01  0.9704E+01
     32.008  0.1686E+00  0.2323E+00  0.9805E+01  0.9746E+01
     32.185  0.1579E+00  0.1703E+00  0.9833E+01  0.9776E+01
     32.362  0.1977E+00  0.1195E+00  0.9868E+01  0.9797E+01
     32.539  0.2116E+00  0.1663E+00  0.9906E+01  0.9826E+01
     32.717  0.1273E+00  0.2358E+00  0.9928E+01  0.9868E+01
     32.894  0.1212E+00  0.1383E+00  0.9950E+01  0.9893E+01
     33.071  0.1953E+00  0.1022E+00  0.9984E+01  0.9911E+01
     33.248  0.2916E+00  0.1641E+00  0.1004E+02  0.9940E+01
     33.425  0.4473E+00  0.2128E+00  0.1012E+02  0.9978E+01
     33.602  0.3521E+00  0.2970E+00  0.1018E+02  0.1003E+02
     33.780  0.3190E+00  0.3152E+00  0.1023E+02  0.1009E+02
     33.957  0.2778E+00  0.2837E+00  0.1028E+02  0.1014E+02
     34.134  0.2000E+00  0.2754E+00  0.1032E+02  0.1019E+02
     34.311  0.2048E+00  0.2612E+00  0.1035E+02  0.1023E+02
     34.488  0.2302E+00  0.4260E+00  0.1040E+02  0.1031E+02
     34.665  0.2440E+00  0.3222E+00  0.1044E+02  0.1036E+02
     34.843  0.2578E+00  0.1735E+00  0.1048E+02  0.1039E+02
     35.020  0.2468E+00  0.1625E+00  0.1053E+02  0.1042E+02
     35.197  0.2592E+00  0.2382E+00  0.1057E+02  0.1047E+02
     35.374  0.2437E+00  0.2829E+00  0.1062E+02  0.1052E+02
     35.551  0.2778E+00  0.2311E+00  0.1067E+02  0.1056E+02
     35.729  0.1837E+00  0.1980E+00  0.1070E+02  0.1059E+02
     35.906  0.2225E+00  0.2463E+00  0.1074E+02  0.1064E+02
     36.083  0.3319E+00  0.2726E+00  0.1080E+02  0.1068E+02
     36.260  0.2439E+00  0.2641E+00  0.1084E+02  0.1073E+02
     36.437  0.2194E+00  0.3114E+00  0.1088E+02  0.1079E+02
     36.614  0.3090E+00  0.2850E+00  0.1093E+02  0.1084E+02
     36.792  0.3140E+00  0.2391E+00  0.1099E+02  0.1088E+02
     36.969  0.2276E+00  0.2306E+00  0.1103E+02  0.1092E+02
     37.146  0.1690E+00  0.2400E+00  0.1106E+02  0.1096E+02
     37.323  0.2586E+00  0.2197E+00  0.1111E+02  0.1100E+02
     37.500  0.2995E+00  0.2615E+00  0.1116E+02  0.1105E+02
     37.677  0.2566E+00  0.2420E+00  0.1120E+02  0.1109E+02
     37.855  0.3239E+00  0.2295E+00  0.1126E+02  0.1113E+02
     38.032  0.2977E+00  0.2330E+00  0.1131E+02  0.1117E+02
     38.209  0.1612E+00  0.3252E+00  0.1134E+02  0.1123E+02
     38.386  0.2122E+00  0.3333E+00  0.1138E+02  0.1129E+02
     38.563  0.2243E+00  0.2691E+00  0.1142E+02  0.1134E+02
     38.740  0.1640E+00  0.2148E+00  0.1145E+02  0.1137E+02
     38.918  0.1482E+00  0.2229E+00  0.1148E+02  0.1141E+02
     39.095  0.1844E+00  0.2090E+00  0.1151E+02  0.1145E+02
     39.272  0.2154E+00  0.1266E+00  0.1155E+02  0.1147E+02
     39.449  0.2431E+00  0.1258E+00  0.1159E+02  0.1150E+02
     39.626  0.2314E+00  0.1826E+00  0.1163E+02  0.1153E+02
     39.804  0.1698E+00  0.2533E+00  0.1166E+02  0.1157E+02
     39.981  0.1050E+00  0.2715E+00  0.1168E+02  0.1162E+02
     40.158  0.1296E+00  0.1691E+00  0.1170E+02  0.1165E+02
     40.335  0.2290E+00  0.1924E+00  0.1174E+02  0.1168E+02
     40.512  0.1815E+00  0.1923E+00  0.1178E+02  0.1172E+02
     40.689  0.9031E-01  0.1515E+00  0.1179E+02  0.1175E+02
     40.867  0.4237E-01  0.1551E+00  0.1180E+02  0.1177E+02
     41.044  0.7568E-01  0.8074E-01  0.1181E+02  0.1179E+02
     41.221  0.8660E-01  0.5500E-01  0.1183E+02  0.1180E+02
     41.398  0.1137E+00  0.7432E-01  0.1185E+02  0.1181E+02
     41.575  0.1413E+00  0.7027E-01  0.1187E+02  0.1182E+02
     41.752  0.9424E-01  0.5925E-01  0.1189E+02  0.1183E+02
     41.930  0.6216E-01  0.1465E+00  0.1190E+02  0.1186E+02
     42.107  0.3915E-01  0.1712E+00  0.1191E+02  0.1189E+02
     42.284  0.3200E-01  0.9015E-01  0.1191E+02  0.1191E+02
     42.461  0.4129E-01  0.4226E-01  0.1192E+02  0.1191E+02
     42.638  0.6347E-01  0.1030E-01  0.1193E+02  0.1192E+02
     42.815  0.7700E-01  0.2956E-01  0.1195E+02  0.1192E+02
     42.993  0.3671E-01  0.6217E-01  0.1195E+02  0.1193E+02
     43.170  0.2541E-01  0.4720E-01  0.1196E+02  0.1194E+02
     43.347  0.4660E-01  0.3606E-01  0.1196E+02  0.1195E+02
     43.524  0.5396E-01  0.4596E-01  0.1197E+02  0.1195E+02
     43.701  0.1050E-01  0.6036E-01  0.1198E+02  0.1196E+02
     43.878  0.9787E-03  0.5228E-01  0.1198E+02  0.1197E+02
     44.056  0.2280E-01  0.9166E-02  0.1198E+02  0.1198E+02
     44.233  0.4144E-01  0.3439E-02  0.1199E+02  0.1198E+02
     44.410  0.3103E-01  0.1614E-01  0.1199E+02  0.1198E+02
     44.587  0.8191E-02  0.4995E-01  0.1199E+02  0.1199E+02
     44.764  0.7769E-02  0.3670E-01  0.1200E+02  0.1199E+02
     44.942  0.1395E-01  0.3539E-02  0.1200E+02  0.1200E+02
     45.119  0.5503E-02  0.6922E-03  0.1200E+02  0.1200E+02
     45.296  0.8424E-03  0.1072E-01  0.1200E+02  0.1200E+02
     45.473  0.3636E-02  0.9438E-02  0.1200E+02  0.1200E+02
     45.650  0.7914E-03  0.1734E-02  0.1200E+02  0.1200E+02
     45.827 -0.1596E-03  0.3438E-02  0.1200E+02  0.1200E+02
     46.005 -0.1448E-04  0.7039E-03  0.1200E+02  0.1200E+02
     46.182 -0.1690E-06 -0.1552E-03  0.1200E+02  0.1200E+02
     46.359 -0.3563E-09 -0.1306E-04  0.1200E+02  0.1200E+02
     46.536 -0.1460E-12 -0.1447E-06  0.1200E+02  0.1200E+02
     46.713 -0.1253E-16 -0.2907E-09  0.1200E+02  0.1200E+02
     46.890  0.0000E+00 -0.1137E-12  0.1200E+02  0.1200E+02
     47.068  0.0000E+00 -0.8773E-17  0.1200E+02  0.1200E+02
     47.245  0.0000E+00  0.0000E+00  0.1200E+02  0.1200E+02
     47.422  0.0000E+00  0.0000E+00  0.1200E+02  0.1200E+02
     47.599  0.0000E+00  0.0000E+00  0.1200E+02  0.1200E+02
     47.776  0.0000E+00  0.0000E+00  0.1200E+02  0.1200E+02
     47.953  0.0000E+00  0.0000E+00  0.1200E+02  0.1200E+02
     48.131  0.0000E+00  0.0000E+00  0.1200E+02  0.1200E+02
     48.13066074     -5.02141994  301      5.69776065      1.00000000
     -5.021  0.0000E+00  0.0000E+00  0.0000E+00  0.0000E+00  0.0000E+00  0.0000E+00
     -4.844  0.0000E+00  0.0000E+00  0.0000E+00  0.0000E+00  0.0000E+00  0.0000E+00
     -4.667  0.0000E+00  0.0000E+00  0.0000E+00  0.0000E+00  0.0000E+00  0.0000E+00
     -4.490  0.0000E+00  0.0000E+00  0.0000E+00  0.0000E+00  0.0000E+00  0.0000E+00
     -4.313 -0.1392E-33  0.0000E+00 -0.6910E-36  0.0000E+00 -0.3277E-38  0.0000E+00
     -4.136 -0.2108E-27 -0.2877E-34 -0.1047E-29 -0.1460E-36 -0.4987E-32 -0.4847E-39
     -3.958 -0.6556E-22 -0.5128E-28 -0.3262E-24 -0.2604E-30 -0.1562E-26 -0.8674E-33
     -3.781 -0.4033E-17 -0.1878E-22 -0.2014E-19 -0.9548E-25 -0.9794E-22 -0.3196E-27
     -3.604 -0.5211E-13 -0.1409E-17 -0.2622E-15 -0.7183E-20 -0.1322E-17 -0.2434E-22
     -3.427 -0.1347E-09 -0.2074E-13 -0.6920E-12 -0.1065E-15 -0.3810E-14 -0.3723E-18
     -3.250 -0.6896E-07 -0.6325E-10 -0.3746E-09 -0.3309E-12 -0.2524E-11 -0.1248E-14
     -3.073 -0.6771E-05 -0.3829E-07 -0.4290E-07 -0.2104E-09 -0.4297E-09 -0.9475E-12
     -2.895 -0.1134E-03 -0.4464E-05 -0.1121E-05 -0.2813E-07 -0.2013E-07 -0.1819E-09
     -2.718  0.1486E-04 -0.9075E-04 -0.5573E-05 -0.8491E-06 -0.2073E-06 -0.9638E-08
     -2.541  0.3340E-02 -0.7323E-04  0.3109E-04 -0.5281E-05  0.1465E-06 -0.1187E-06
     -2.364  0.8832E-02  0.2705E-02  0.1759E-03  0.2190E-04  0.3944E-05  0.1844E-07
     -2.187  0.1246E-01  0.8200E-02  0.4908E-03  0.1565E-03  0.2579E-04  0.2165E-05
     -2.009  0.1600E-01  0.1150E-01  0.8533E-03  0.4347E-03  0.5903E-04  0.1438E-04
     -1.832  0.1526E-01  0.1563E-01  0.1150E-02  0.8347E-03  0.1196E-03  0.3697E-04
     -1.655  0.2307E-01  0.1410E-01  0.2151E-02  0.1032E-02  0.2897E-03  0.6538E-04
     -1.478  0.1862E-01  0.2154E-01  0.1995E-02  0.2034E-02  0.3300E-03  0.1699E-03
     -1.301  0.2241E-01  0.1903E-01  0.3049E-02  0.2028E-02  0.6463E-03  0.1992E-03
     -1.124  0.2850E-01  0.1906E-01  0.4258E-02  0.2602E-02  0.1084E-02  0.3288E-03
     -0.946  0.2499E-01  0.2724E-01  0.4237E-02  0.4118E-02  0.1347E-02  0.5950E-03
     -0.769  0.2433E-01  0.2447E-01  0.4784E-02  0.4198E-02  0.1769E-02  0.7525E-03
     -0.592  0.3478E-01  0.2139E-01  0.7453E-02  0.4144E-02  0.3278E-02  0.8149E-03
     -0.415  0.3094E-01  0.2975E-01  0.7228E-02  0.6565E-02  0.3976E-02  0.1544E-02
     -0.238  0.3190E-01  0.3046E-01  0.8287E-02  0.7119E-02  0.5418E-02  0.1892E-02
     -0.061  0.3247E-01  0.2782E-01  0.9281E-02  0.7365E-02  0.7107E-02  0.2360E-02
      0.117  0.4178E-01  0.2876E-01  0.1263E-01  0.8172E-02  0.1184E-01  0.2850E-02
      0.294  0.4182E-01  0.3140E-01  0.1378E-01  0.9869E-02  0.1662E-01  0.3946E-02
      0.471  0.3632E-01  0.3622E-01  0.1273E-01  0.1197E-01  0.1861E-01  0.5568E-02
      0.648  0.4835E-01  0.3462E-01  0.1814E-01  0.1261E-01  0.3433E-01  0.6646E-02
      0.825  0.6753E-01  0.3211E-01  0.2441E-01  0.1228E-01  0.9266E-01  0.7776E-02
      1.002  0.7034E-01  0.3268E-01  0.2205E-01  0.1358E-01  0.2061E+00  0.9451E-02
      1.180  0.7766E-01  0.4400E-01  0.2880E-01  0.1943E-01  0.3208E+00  0.1529E-01
      1.357  0.7592E-01  0.4230E-01  0.3588E-01  0.1979E-01  0.4107E+00  0.1897E-01
      1.534  0.6107E-01  0.3575E-01  0.3982E-01  0.1705E-01  0.5334E+00  0.2086E-01
      1.711  0.6016E-01  0.3566E-01  0.5360E-01  0.1859E-01  0.6931E+00  0.2579E-01
      1.888  0.3840E-01  0.5762E-01  0.4069E-01  0.3164E-01  0.5904E+00  0.4969E-01
      2.066  0.1738E-01  0.5143E-01  0.2337E-01  0.2712E-01  0.4003E+00  0.6418E-01
      2.243  0.5267E-02  0.4775E-01  0.2331E-01  0.2192E-01  0.4499E+00  0.1005E+00
      2.420  0.2271E-02  0.6752E-01  0.4704E-01  0.3450E-01  0.1113E+01  0.1665E+00
      2.597  0.2992E-02  0.6615E-01  0.4927E-01  0.3774E-01  0.1263E+01  0.1785E+00
      2.774  0.7109E-02  0.4755E-01  0.4189E-01  0.2958E-01  0.9613E+00  0.1758E+00
      2.951  0.9278E-02  0.4720E-01  0.5344E-01  0.3755E-01  0.9042E+00  0.2491E+00
      3.129  0.1316E-01  0.4613E-01  0.7698E-01  0.4887E-01  0.1099E+01  0.3655E+00
      3.306  0.1834E-01  0.3365E-01  0.8686E-01  0.4618E-01  0.1269E+01  0.4165E+00
      3.483  0.1119E-01  0.2422E-01  0.5402E-01  0.3788E-01  0.7422E+00  0.3803E+00
      3.660  0.6861E-02  0.1384E-01  0.3998E-01  0.2689E-01  0.4034E+00  0.2866E+00
      3.837  0.7400E-02  0.5400E-02  0.3567E-01  0.1991E-01  0.3594E+00  0.2090E+00
      4.014  0.4606E-02  0.1278E-02  0.2796E-01  0.3536E-01  0.3371E+00  0.3392E+00
      4.192  0.3405E-02  0.1106E-02  0.2554E-01  0.7449E-01  0.5471E+00  0.8073E+00
      4.369  0.5253E-02  0.2640E-02  0.2143E-01  0.8467E-01  0.8244E+00  0.1046E+01
      4.546  0.6967E-02  0.3883E-02  0.2297E-01  0.8689E-01  0.1292E+01  0.9814E+00
      4.723  0.6659E-02  0.4585E-02  0.2125E-01  0.8951E-01  0.1845E+01  0.8959E+00
      4.900  0.5120E-02  0.5459E-02  0.1330E-01  0.9662E-01  0.2141E+01  0.8946E+00
      5.077  0.7935E-02  0.8066E-02  0.1357E-01  0.1076E+00  0.1993E+01  0.9498E+00
      5.255  0.1190E-01  0.6709E-02  0.2071E-01  0.7975E-01  0.1211E+01  0.8477E+00
      5.432  0.9690E-02  0.3449E-02  0.1811E-01  0.5912E-01  0.7417E+00  0.6490E+00
      5.609  0.9128E-02  0.3006E-02  0.2075E-01  0.4471E-01  0.7715E+00  0.4067E+00
      5.786  0.1293E-01  0.2541E-02  0.2420E-01  0.2900E-01  0.7570E+00  0.2334E+00
      5.963  0.6963E-02  0.1021E-02  0.1029E-01  0.2835E-01  0.3601E+00  0.1588E+00
      6.141  0.8014E-02  0.5781E-03  0.9645E-02  0.1629E-01  0.1040E+00  0.1835E+00
      6.318  0.1187E-01  0.1377E-02  0.2289E-01  0.1584E-01  0.1030E+00  0.3045E+00
      6.495  0.1363E-01  0.1208E-02  0.2937E-01  0.9043E-02  0.1397E+00  0.3687E+00
      6.672  0.9622E-02  0.3171E-02  0.1997E-01  0.7936E-02  0.7799E-01  0.5244E+00
      6.849  0.1121E-01  0.4253E-02  0.2359E-01  0.1180E-01  0.6735E-01  0.7603E+00
      7.026  0.9492E-02  0.3800E-02  0.2281E-01  0.1154E-01  0.5896E-01  0.9696E+00
      7.204  0.1114E-01  0.3324E-02  0.3460E-01  0.8201E-02  0.8977E-01  0.1141E+01
      7.381  0.1697E-01  0.3151E-02  0.4242E-01  0.9604E-02  0.1176E+00  0.1347E+01
      7.558  0.1143E-01  0.2410E-02  0.2799E-01  0.7650E-02  0.6333E-01  0.1470E+01
      7.735  0.7892E-02  0.5602E-02  0.1926E-01  0.7748E-02  0.3611E-01  0.2104E+01
      7.912  0.9013E-02  0.9724E-02  0.3685E-01  0.1734E-01  0.5461E-01  0.1700E+01
      8.089  0.1194E-01  0.9015E-02  0.3851E-01  0.1779E-01  0.6465E-01  0.8854E+00
      8.267  0.1056E-01  0.6845E-02  0.3477E-01  0.1110E-01  0.7024E-01  0.5843E+00
      8.444  0.1385E-01  0.8006E-02  0.4400E-01  0.1432E-01  0.7700E-01  0.4088E+00
      8.621  0.1074E-01  0.8412E-02  0.3229E-01  0.1846E-01  0.4701E-01  0.2683E+00
      8.798  0.8395E-02  0.8432E-02  0.2879E-01  0.1565E-01  0.3741E-01  0.1569E+00
      8.975  0.5507E-02  0.7817E-02  0.2982E-01  0.1850E-01  0.3303E-01  0.1257E+00
      9.152  0.5842E-02  0.7512E-02  0.3429E-01  0.2285E-01  0.3753E-01  0.1450E+00
      9.330  0.1210E-01  0.1081E-01  0.4509E-01  0.2929E-01  0.6175E-01  0.1727E+00
      9.507  0.9991E-02  0.7849E-02  0.3389E-01  0.2528E-01  0.4966E-01  0.1185E+00
      9.684  0.7674E-02  0.7758E-02  0.3412E-01  0.2458E-01  0.3942E-01  0.9162E-01
      9.861  0.7235E-02  0.6535E-02  0.3827E-01  0.2364E-01  0.3882E-01  0.8413E-01
     10.038  0.5582E-02  0.9254E-02  0.2734E-01  0.3536E-01  0.2551E-01  0.1267E+00
     10.216  0.6286E-02  0.1059E-01  0.2641E-01  0.3424E-01  0.2416E-01  0.1153E+00
     10.393  0.1862E-02  0.6081E-02  0.2204E-01  0.2716E-01  0.2050E-01  0.7306E-01
     10.570  0.3918E-02  0.4589E-02  0.3610E-01  0.2494E-01  0.3474E-01  0.5746E-01
     10.747  0.9344E-02  0.7247E-02  0.4260E-01  0.3019E-01  0.4540E-01  0.6754E-01
     10.924  0.5276E-02  0.7693E-02  0.2412E-01  0.3029E-01  0.2332E-01  0.7193E-01
     11.101  0.4277E-02  0.7467E-02  0.2931E-01  0.3855E-01  0.2239E-01  0.9054E-01
     11.279  0.3540E-02  0.6215E-02  0.2249E-01  0.3484E-01  0.1652E-01  0.6726E-01
     11.456  0.1550E-02  0.4851E-02  0.1724E-01  0.1997E-01  0.1312E-01  0.3273E-01
     11.633  0.1888E-02  0.2779E-02  0.2437E-01  0.2053E-01  0.1887E-01  0.3344E-01
     11.810  0.9764E-03  0.4199E-02  0.1493E-01  0.3068E-01  0.1134E-01  0.4681E-01
     11.987  0.2212E-02  0.5221E-02  0.1676E-01  0.3224E-01  0.1370E-01  0.5194E-01
     12.164  0.4331E-02  0.6693E-02  0.3165E-01  0.3639E-01  0.2342E-01  0.5671E-01
     12.342  0.2539E-02  0.2892E-02  0.1992E-01  0.2033E-01  0.1200E-01  0.3053E-01
     12.519  0.9091E-03  0.1311E-02  0.9515E-02  0.1676E-01  0.5458E-02  0.2229E-01
     12.696  0.4023E-03  0.2621E-02  0.1178E-01  0.2250E-01  0.6529E-02  0.2486E-01
     12.873 -0.1133E-02  0.2082E-02  0.7681E-02  0.1869E-01  0.3761E-02  0.2129E-01
     13.050  0.1575E-01  0.2448E-02  0.3327E-02  0.2235E-01  0.1798E-01  0.1996E-01
     13.227  0.6040E-01  0.2111E-02  0.2579E-01  0.2275E-01  0.7406E-01  0.2540E-01
     13.405  0.7195E-01  0.1855E-02  0.4372E-01  0.1810E-01  0.9354E-01  0.2352E-01
     13.582  0.5466E-01  0.1081E-02  0.3769E-01  0.1029E-01  0.7317E-01  0.9082E-02
     13.759  0.6274E-01  0.3308E-03  0.4537E-01  0.7846E-02  0.8647E-01  0.6865E-02
     13.936  0.4192E-01  0.1178E-02  0.3743E-01  0.1418E-01  0.5986E-01  0.8996E-02
     14.113  0.3223E-01  0.7027E-03  0.3240E-01  0.1399E-01  0.4599E-01  0.5465E-02
     14.291  0.3653E-01 -0.1591E-02  0.4810E-01  0.9790E-02  0.6297E-01  0.4782E-02
     14.468  0.3250E-01  0.1580E-01  0.4368E-01  0.1799E-01  0.5057E-01  0.4074E-01
     14.645  0.3418E-01  0.7568E-01  0.4091E-01  0.2161E-01  0.4925E-01  0.1204E+00
     14.822  0.2547E-01  0.8892E-01  0.3408E-01  0.4766E-01  0.4071E-01  0.1515E+00
     14.999  0.1561E-01  0.5548E-01  0.3121E-01  0.5294E-01  0.2959E-01  0.1042E+00
     15.176  0.3182E-01  0.5084E-01  0.5568E-01  0.3389E-01  0.5355E-01  0.8304E-01
     15.354  0.4864E-01  0.4219E-01  0.5063E-01  0.4215E-01  0.5995E-01  0.8594E-01
     15.531  0.3666E-01  0.2831E-01  0.2973E-01  0.3895E-01  0.3519E-01  0.6022E-01
     15.708  0.3605E-01  0.3743E-01  0.4935E-01  0.4283E-01  0.3780E-01  0.6841E-01
     15.885  0.4225E-01  0.3225E-01  0.5857E-01  0.4356E-01  0.5145E-01  0.6343E-01
     16.062  0.2852E-01  0.2177E-01  0.5144E-01  0.4197E-01  0.4138E-01  0.4755E-01
     16.239  0.3553E-01  0.3477E-01  0.5954E-01  0.4139E-01  0.4696E-01  0.5864E-01
     16.417  0.3962E-01  0.5373E-01  0.5797E-01  0.5347E-01  0.4952E-01  0.7451E-01
     16.594  0.3355E-01  0.4086E-01  0.5116E-01  0.4959E-01  0.4612E-01  0.5411E-01
     16.771  0.2894E-01  0.4419E-01  0.4984E-01  0.4748E-01  0.3504E-01  0.6005E-01
     16.948  0.3223E-01  0.3070E-01  0.6076E-01  0.4751E-01  0.4280E-01  0.5497E-01
     17.125  0.3294E-01  0.3246E-01  0.5364E-01  0.4777E-01  0.4128E-01  0.5277E-01
     17.302  0.2820E-01  0.4197E-01  0.5256E-01  0.5521E-01  0.4233E-01  0.6290E-01
     17.480  0.2178E-01  0.3982E-01  0.4852E-01  0.6214E-01  0.3936E-01  0.6422E-01
     17.657  0.2323E-01  0.3232E-01  0.5242E-01  0.4778E-01  0.4226E-01  0.4650E-01
     17.834  0.3007E-01  0.3117E-01  0.6754E-01  0.4749E-01  0.4832E-01  0.5093E-01
     18.011  0.2635E-01  0.2975E-01  0.5589E-01  0.4743E-01  0.3538E-01  0.4759E-01
     18.188  0.2464E-01  0.2562E-01  0.5520E-01  0.4567E-01  0.4075E-01  0.4792E-01
     18.365  0.2204E-01  0.2375E-01  0.4711E-01  0.5520E-01  0.3534E-01  0.5390E-01
     18.543  0.3215E-01  0.2969E-01  0.5951E-01  0.6186E-01  0.4690E-01  0.5754E-01
     18.720  0.2748E-01  0.3233E-01  0.6241E-01  0.6171E-01  0.5160E-01  0.5619E-01
     18.897  0.1651E-01  0.2252E-01  0.4952E-01  0.4407E-01  0.3127E-01  0.3855E-01
     19.074  0.1703E-01  0.2154E-01  0.5719E-01  0.4809E-01  0.3524E-01  0.4490E-01
     19.251  0.1038E-01  0.2875E-01  0.3691E-01  0.4721E-01  0.2519E-01  0.4618E-01