    1    1    1    2
  0.1145315E+02  0.2459512E-09  0.2459512E-09  0.2459512E-09  0.5000000E-15
  1.000000000000000E-004
  CAR 
 bcc Fe                                  
      8    250     12
 
  0.2500000E-01  0.2500000E-01  0.2500000E-01  0.1000000E-02
    1       -2.502582     -2.306588   1.000000   1.000000
    2        3.338800      5.483126   1.000000   1.031149
    3        3.338800      5.483126   1.000000   1.031149
    4        3.465290      5.627772   1.000000   0.777000
    5        4.738054      7.412034   1.000000  -0.000000
    6        4.738054      7.412034   1.000000  -0.000000
    7       29.931108     29.820613   0.000000   0.000000
    8       29.931108     29.820613   0.000000   0.000000
    9       30.812753     30.573519   0.000000   0.000000
   10       35.408888     35.966536   0.000000   0.000000
   11       35.709344     35.966538   0.000000   0.000000
   12       35.709372     36.375915   0.000000   0.000000
 
  0.7500000E-01  0.2500000E-01  0.2500000E-01  0.3000000E-02
    1       -2.199155     -2.000734   1.000000   1.000000
    2        3.255231      5.380219   1.000000   1.023635
    3        3.315612      5.443804   1.000000   1.035164
    4        3.637637      5.817193   1.000000   0.081263
    5        4.665704      7.317611   1.000000  -0.000000
    6        4.750254      7.426247   1.000000  -0.000000
    7       28.273547     28.373676   0.000000   0.000000
    8       29.225965     29.240729   0.000000   0.000000
    9       30.901726     30.705442   0.000000   0.000000
   10       33.542387     34.482533   0.000000   0.000000
   11       35.147080     35.457745   0.000000   0.000000
   12       35.959569     36.676040   0.000000   0.000000
 
  0.1250000E+00  0.2500000E-01  0.2500000E-01  0.3000000E-02
    1       -1.711855     -1.505597   1.000000   1.000000
    2        3.130520      5.225816   1.000000   1.002118
    3        3.279213      5.374914   1.000000   1.022409
    4        3.903742      6.109294   1.000000  -0.006606
    5        4.590191      7.212897   1.000000  -0.000000
    6        4.771446      7.451267   1.000000  -0.000000
    7       26.163365     26.487205   0.000000   0.000000
    8       28.340300     28.454437   0.000000   0.000000
    9       30.782464     30.707604   0.000000   0.000000
   10       31.902262     32.795406   0.000000   0.000000
   11       35.112988     35.425745   0.000000   0.000000
   12       35.138622     35.865726   0.000000   0.000000
 
  0.1750000E+00  0.2500000E-01  0.2500000E-01  0.3000000E-02
    1       -1.076312     -0.846687   1.000000   1.000000
    2        2.975539      5.036112   1.000000   1.000015
    3        3.227863      5.260622   1.000000   1.004194
    4        4.246980      6.487786   1.000000  -0.000000
    5        4.549785      7.144830   1.000000  -0.000000
    6        4.797963      7.484334   1.000000  -0.000000
    7       23.854875     24.375203   0.000000   0.000000
    8       27.353738     27.522057   0.000000   0.000000
    9       30.422917     30.600193   0.000000   0.000000
   10       30.517521     31.277180   0.000000   0.000000
   11       34.374276     35.053741   0.000000   0.000000
   12       35.689914     35.942004   0.000000   0.000000
 
  0.2250000E+00  0.2500000E-01  0.2500000E-01  0.3000000E-02
    1       -0.365351     -0.069227   1.000000   1.000000
    2        2.808759      4.833304   1.000000   1.000000
    3        3.219938      5.128182   1.000000   1.000213
    4        4.554315      6.930101   1.000000  -0.000000
    5        4.653283      7.135846   1.000000  -0.000000
    6        4.824341      7.520688   1.000000  -0.000000
    7       21.496561     22.182845   0.000000   0.000000
    8       26.365951     26.550595   0.000000   0.000000
    9       29.074327     29.892856   0.000000   0.000000
   10       30.225556     30.455601   0.000000   0.000000
   11       33.862104     34.493350   0.000000   0.000000
   12       36.660243     36.899008   0.000000   0.000000
 
  0.2750000E+00  0.2500000E-01  0.2500000E-01  0.3000000E-02
    1        0.280943      0.746941   1.000000   1.000000
    2        2.648625      4.638789   1.000000   1.000000
    3        3.396493      5.059445   1.000000   1.000031
    4        4.608995      7.174352   1.000000  -0.000000
    5        4.859095      7.411842   1.000000  -0.000000
    6        5.089922      7.567108   1.000075  -0.000000
    7       19.195481     20.032169   0.000000   0.000000
    8       25.469321     25.647749   0.000000   0.000000
    9       27.876880     28.653149   0.000000   0.000000
   10       29.992842     30.338506   0.000000   0.000000
   11       33.570423     34.178582   0.000000   0.000000
   12       37.941288     38.187955   0.000000   0.000000
 
  0.3250000E+00  0.2500000E-01  0.2500000E-01  0.3000000E-02
    1        0.690379      1.470039   1.000000   1.000000
    2        2.506145      4.467346   1.000000   1.000000
    3        3.897678      5.169686   1.000000   1.000605
    4        4.685983      7.240188   1.000000  -0.000000
    5        4.894261      7.615314   1.000000  -0.000000
    6        5.532612      7.875336   0.996343  -0.000000
    7       17.016603     18.011020   0.000000   0.000000
    8       24.718371     24.880770   0.000000   0.000000
    9       26.858017     27.587924   0.000000   0.000000
   10       29.796759     30.232658   0.000000   0.000000
   11       33.427993     34.036622   0.000000   0.000000
   12       39.464537     39.730126   0.000000   0.000000
 
  0.3750000E+00  0.2500000E-01  0.2500000E-01  0.3000000E-02
    1        0.847401      1.958018   1.000000   1.000000
    2        2.395224      4.334511   1.000000   1.000000
    3        4.564198      5.539027   1.000000   0.988410
    4        4.842838      7.300433   1.000000  -0.000000
    5        4.922301      7.655738   1.000000  -0.000000
    6        5.985643      8.280231  -0.030247  -0.000000
    7       15.082231     16.259307   0.000000   0.000000
    8       24.153144     24.298048   0.000000   0.000000
    9       26.077504     26.762450   0.000000   0.000000
   10       29.657930     30.156552   0.000000   0.000000
   11       33.381169     34.003472   0.000000   0.000000
   12       40.245076     40.393121   0.000000   0.000000
 
  0.4250000E+00  0.2500000E-01  0.2500000E-01  0.3000000E-02
    1        0.879128      2.189261   1.000000   1.000000
    2        2.324886      4.250584   1.000000   1.000000
    3        4.737438      6.022615   1.000000  -0.021947
    4        4.939478      7.333848   1.000001  -0.000000
    5        5.333754      7.681961   1.013673  -0.000000
    6        6.485948      8.572083  -0.000000  -0.000000
    7       13.601867     14.983243   0.000000   0.000000
    8       23.804415     23.936049   0.000000   0.000000
    9       25.583843     26.235484   0.000000   0.000000
   10       29.572558     30.108491   0.000000   0.000000
   11       33.380342     34.018081   0.000000   0.000000
   12       40.180987     40.267737   0.000000   0.000000
 
  0.4750000E+00  0.2500000E-01  0.2500000E-01  0.1500000E-02
    1        0.881455      2.251100   1.000000   1.000000
    2        2.300885      4.221952   1.000000   1.000000
    3        4.762175      6.258213   1.000000  -0.000270
    4        4.949082      7.339693   1.000001  -0.000000
    5        5.530133      7.694810   0.999171  -0.000000
    6        6.774550      8.684399  -0.000000  -0.000000
    7       13.006833     14.500686   0.000000   0.000000
    8       23.686392     23.813168   0.000000   0.000000
    9       25.415562     26.054694   0.000000   0.000000
   10       29.545508     30.093564   0.000000   0.000000
   11       33.400665     34.041122   0.000000   0.000000
   12       40.150634     40.214675   0.000000   0.000000
 
 -0.2500000E-01  0.2500000E-01  0.2500000E-01  0.7500000E-03
    1       -2.605416     -2.409985   1.000000   1.000000
    2        3.363066      5.515339   1.000000   1.013439
    3        3.363195      5.515543   1.000000   1.013271
    4        3.377532      5.533725   1.000000   0.995032
    5        4.730625      7.404246   1.000000  -0.000000
    6        4.763081      7.445646   1.000000  -0.000000
    7       30.300944     30.105171   0.000000   0.000000
    8       30.627755     30.413856   0.000000   0.000000
    9       30.627774     30.413887   0.000000   0.000000
   10       35.212451     35.466063   0.000000   0.000000
   11       36.283200     36.377120   0.000000   0.000000
   12       36.895857     37.846375   0.000000   0.000000
 
  0.7500000E-01  0.7500000E-01  0.2500000E-01  0.3000000E-02
    1       -1.806536     -1.602707   1.000000   1.000000
    2        3.177231      5.278099   1.000000   1.005745
    3        3.225257      5.328444   1.000000   1.012706
    4        3.884034      6.084420   1.000000  -0.009858
    5        4.617767      7.253121   1.000000  -0.000000
    6        4.752350      7.426075   1.000000  -0.000000
    7       26.985376     27.207752   0.000000   0.000000
    8       27.741244     27.946012   0.000000   0.000000
    9       31.277753     31.080193   0.000000   0.000000
   10       31.601108     32.513231   0.000000   0.000000
   11       35.334978     35.673472   0.000000   0.000000
   12       36.444572     37.172043   0.000000   0.000000
 
  0.1250000E+00  0.7500000E-01  0.2500000E-01  0.6000000E-02
    1       -1.246472     -1.027928   1.000000   1.000000
    2        3.042278      5.108812   1.000000   1.000127
    3        3.146356      5.209732   1.000000   1.001507
    4        4.217024      6.442394   1.000000  -0.000001
    5        4.560685      7.170161   1.000000  -0.000000
    6        4.787703      7.467541   1.000000  -0.000000
    7       25.019843     25.427588   0.000000   0.000000
    8       26.570139     26.871990   0.000000   0.000000
    9       29.962133     30.803242   0.000000   0.000000
   10       31.411073     31.305570   0.000000   0.000000
   11       35.460932     35.806789   0.000000   0.000000
   12       36.177753     36.854256   0.000000   0.000000
 
  0.1750000E+00  0.7500000E-01  0.2500000E-01  0.6000000E-02
    1       -0.568013     -0.309457   1.000000   1.000000
    2        2.879124      4.908562   1.000000   1.000000
    3        3.080866      5.070261   1.000000   1.000042
    4        4.537641      6.872651   1.000000  -0.000000
    5        4.623567      7.129172   1.000000  -0.000000
    6        4.827812      7.515875   1.000000  -0.000000
    7       22.749108     23.339147   0.000000   0.000000
    8       25.570355     25.913941   0.000000   0.000000
    9       28.570376     29.357017   0.000000   0.000000
   10       31.311515     31.339325   0.000000   0.000000
   11       35.563802     36.124973   0.000000   0.000000
   12       36.094360     36.478156   0.000000   0.000000
 
  0.2250000E+00  0.7500000E-01  0.2500000E-01  0.6000000E-02
    1        0.128219      0.494142   1.000000   1.000000
    2        2.712583      4.706001   1.000000   1.000000
    3        3.105127      4.947343   1.000000   1.000001
    4        4.565194      7.138189   1.000000  -0.000000
    5        4.861617      7.358298   1.000000  -0.000000
    6        5.095150      7.570056   1.000087  -0.000000
    7       20.429519     21.176414   0.000000   0.000000
    8       24.675175     25.033983   0.000000   0.000000
    9       27.374646     28.113790   0.000000   0.000000
   10       31.091463     31.255737   0.000000   0.000000
   11       35.166013     35.760089   0.000000   0.000000
   12       36.973801     37.272503   0.000000   0.000000
 
  0.2750000E+00  0.7500000E-01  0.2500000E-01  0.6000000E-02
    1        0.668213      1.279439   1.000000   1.000000
    2        2.563161      4.523646   1.000000   1.000000
    3        3.363030      4.930063   1.000000   1.000000
    4        4.629413      7.197450   1.000000  -0.000000
    5        4.906651      7.610950   1.000000  -0.000000
    6        5.610860      7.875045   0.832035  -0.000000
    7       18.182626     19.078209   0.000000   0.000000
    8       23.913136     24.269650   0.000000   0.000000
    9       26.359642     27.054469   0.000000   0.000000
   10       30.881914     31.151967   0.000000   0.000000
   11       34.894046     35.477861   0.000000   0.000000
   12       38.064297     38.348040   0.000000   0.000000
 
  0.3250000E+00  0.7500000E-01  0.2500000E-01  0.6000000E-02
    1        0.928603      1.894662   1.000000   1.000000
    2        2.439970      4.374464   1.000000   1.000000
    3        3.890468      5.125073   1.000000   1.000196
    4        4.703906      7.266926   1.000000  -0.000000
    5        4.957854      7.661521   1.000001  -0.000000
    6        6.187182      8.364883  -0.001462  -0.000000
    7       16.101629     17.160208   0.000000   0.000000
    8       23.304749     23.651842   0.000000   0.000000
    9       25.545827     26.197557   0.000000   0.000000
   10       30.698495     31.047939   0.000000   0.000000
   11       34.747051     35.334600   0.000000   0.000000
   12       39.052870     39.292764   0.000000   0.000000
 
  0.3750000E+00  0.7500000E-01  0.2500000E-01  0.6000000E-02
    1        0.995321      2.239571   1.000000   1.000000
    2        2.353550      4.269981   1.000000   1.000000
    3        4.413640      5.518382   1.000000   1.010855
    4        4.762601      7.321581   1.000000  -0.000000
    5        5.052142      7.704657   1.000025  -0.000000
    6        6.842603      8.803411  -0.000000  -0.000000
    7       14.333092     15.585702   0.000000   0.000000
    8       22.880284     23.217188   0.000000   0.000000
    9       24.972468     25.586916   0.000000   0.000000
   10       30.580024     30.979740   0.000000   0.000000
   11       34.690607     35.290549   0.000000   0.000000
   12       39.604447     39.749223   0.000000   0.000000
 
  0.4250000E+00  0.7500000E-01  0.2500000E-01  0.6000000E-02
    1        0.998623      2.368524   1.000000   1.000000
    2        2.308370      4.215701   1.000000   1.000000
    3        4.661845      5.854553   1.000000   0.014171
    4        4.772434      7.345559   1.000000  -0.000000
    5        5.189664      7.737651   1.000965  -0.000000
    6        7.408269      9.099622  -0.000000  -0.000000
    7       13.193344     14.630879   0.000000   0.000000
    8       22.661807     22.992438   0.000000   0.000000
    9       24.675420     25.267841   0.000000   0.000000
   10       30.513453     30.938934   0.000000   0.000000
   11       34.677608     35.288286   0.000000   0.000000
   12       39.775048     39.853262   0.000000   0.000000
 
 -0.7500000E-01  0.7500000E-01  0.2500000E-01  0.3000000E-02
    1       -2.400503     -2.203862   1.000000   1.000000
    2        3.316540      5.455936   1.000000   1.035419
    3        3.366148      5.507391   1.000000   1.019382
    4        3.490950      5.655289   1.000000   0.675297
    5        4.668188      7.322164   1.000000  -0.000000
    6        4.783540      7.468826   1.000000  -0.000000
    7       29.144194     29.106216   0.000000   0.000000
    8       30.313357     30.173189   0.000000   0.000000
    9       30.459881     30.340119   0.000000   0.000000
   10       34.435769     34.774007   0.000000   0.000000
   11       35.489844     36.418249   0.000000   0.000000
   12       35.646341     36.500304   0.000000   0.000000
 
  0.1250000E+00  0.1250000E+00  0.2500000E-01  0.3000000E-02
    1       -0.637456     -0.390858   1.000000   1.000000
    2        2.943361      4.966198   1.000000   1.000001
    3        2.987205      5.012632   1.000000   1.000007
    4        4.524115      6.861745   1.000000  -0.000000
    5        4.617361      7.114260   1.000000  -0.000000
    6        4.836394      7.521768   1.000000  -0.000000
    7       23.692040     24.178408   0.000000   0.000000
    8       24.703835     25.186195   0.000000   0.000000
    9       28.413396     29.184999   0.000000   0.000000
   10       31.795105     31.713756   0.000000   0.000000
   11       35.534346     35.932314   0.000000   0.000000
   12       37.057747     37.625221   0.000000   0.000000
 
  0.1750000E+00  0.1250000E+00  0.2500000E-01  0.6000000E-02
    1        0.049516      0.363985   1.000000   1.000000
    2        2.790325      4.774977   1.000000   1.000000
    3        2.905453      4.850092   1.000000   1.000000
    4        4.525762      7.100072   1.000000  -0.000000
    5        4.874268      7.344445   1.000000  -0.000000
    6        5.122579      7.595028   1.000184  -0.000000
    7       21.714264     22.355980   0.000000   0.000000
    8       23.446194     23.980462   0.000000   0.000000
    9       27.173901     27.876361   0.000000   0.000000
   10       31.902475     31.914993   0.000000   0.000000
   11       35.842194     36.248821   0.000000   0.000000
   12       37.330256     37.830232   0.000000   0.000000
 
  0.2250000E+00  0.1250000E+00  0.2500000E-01  0.6000000E-02
    1        0.681313      1.161807   1.000000   1.000000
    2        2.628187      4.575043   1.000000   1.000000
    3        2.966670      4.752413   1.000000   1.000000
    4        4.567392      7.134643   1.000000  -0.000000
    5        4.928222      7.616560   1.000000  -0.000000
    6        5.687456      7.920935   0.543540  -0.000000
    7       19.477505     20.269803   0.000000   0.000000
    8       22.565075     23.114250   0.000000   0.000000
    9       26.151670     26.801750   0.000000   0.000000
   10       31.830576     31.952834   0.000000   0.000000
   11       36.268932     36.688416   0.000000   0.000000
   12       37.458903     37.904775   0.000000   0.000000
 
  0.2750000E+00  0.1250000E+00  0.2500000E-01  0.6000000E-02
    1        1.072170      1.874405   1.000000   1.000000
    2        2.496329      4.412602   1.000000   1.000000
    3        3.265570      4.780584   1.000000   1.000000
    4        4.639836      7.205185   1.000000  -0.000000
    5        4.977915      7.671624   1.000002  -0.000000
    6        6.348156      8.483056  -0.000021  -0.000000
    7       17.303096     18.242021   0.000000   0.000000
    8       21.873863     22.426400   0.000000   0.000000
    9       25.326671     25.933649   0.000000   0.000000
   10       31.710165     31.922866   0.000000   0.000000
   11       36.499962     36.963600   0.000000   0.000000
   12       37.881563     38.240493   0.000000   0.000000
 
  0.3250000E+00  0.1250000E+00  0.2500000E-01  0.6000000E-02
    1        1.197777      2.349310   1.000000   1.000000
    2        2.399304      4.295970   1.000000   1.000000
    3        3.714504      5.006416   1.000000   1.000006
    4        4.711895      7.279569   1.000000  -0.000000
    5        5.040726      7.713362   1.000017  -0.000000
    6        7.122284      9.059941  -0.000000  -0.000000
    7       15.326602     16.433912   0.000000   0.000000
    8       21.356403     21.906155   0.000000   0.000000
    9       24.710691     25.281363   0.000000   0.000000
   10       31.585305     31.865284   0.000000   0.000000
   11       36.568120     37.076061   0.000000   0.000000
   12       38.414003     38.660803   0.000000   0.000000
 
  0.3750000E+00  0.1250000E+00  0.2500000E-01  0.6000000E-02
    1        1.206934      2.561043   1.000000   1.000000
    2        2.340640      4.225759   1.000000   1.000000
    3        4.057602      5.321717   1.000000   1.011544
    4        4.756674      7.332800   1.000000  -0.000000
    5        5.128407      7.755842   1.000214  -0.000000
    6        7.931804      9.583483  -0.000000  -0.000000
    7       13.758547     15.064395   0.000000   0.000000
    8       21.034901     21.579200   0.000000   0.000000
    9       24.329093     24.874446   0.000000   0.000000
   10       31.512142     31.830754   0.000000   0.000000
   11       36.614486     37.159264   0.000000   0.000000
   12       38.772738     38.901148   0.000000   0.000000
 
  0.4250000E+00  0.1250000E+00  0.2500000E-01  0.3000000E-02
    1        1.200544      2.613202   1.000000   1.000000
    2        2.319924      4.201446   1.000000   1.000000
    3        4.173023      5.467870   1.000000   1.034492
    4        4.766889      7.348765   1.000000  -0.000000
    5        5.174732      7.775986   1.000682  -0.000000
    6        8.349026      9.828159  -0.000000  -0.000000
    7       13.082481     14.510646   0.000000   0.000000
    8       20.923715     21.465838   0.000000   0.000000
    9       24.198872     24.735287   0.000000   0.000000
   10       31.478447     31.811169   0.000000   0.000000
   11       36.627539     37.190458   0.000000   0.000000
   12       38.886608     38.962664   0.000000   0.000000
 
 -0.1250000E+00  0.1250000E+00  0.2500000E-01  0.3000000E-02
    1       -2.001298     -1.800350   1.000000   1.000000
    2        3.215169      5.330217   1.000000   1.013024
    3        3.346839      5.465339   1.000000   1.034800
    4        3.699689      5.887185   1.000000  -0.018733
    5        4.580582      7.205912   1.000000  -0.000000
    6        4.797669      7.484991   1.000000  -0.000000
    7       27.262375     27.466438   0.000000   0.000000
    8       29.542207     29.510822   0.000000   0.000000
    9       30.168489     30.200344   0.000000   0.000000
   10       33.834363     34.571187   0.000000   0.000000
   11       34.256201     34.728833   0.000000   0.000000
   12       34.598895     35.355217   0.000000   0.000000
 
 -0.7500000E-01  0.1250000E+00  0.2500000E-01  0.3000000E-02
    1       -2.099296     -1.899852   1.000000   1.000000
    2        3.280318      5.404606   1.000000   1.029147
    3        3.332797      5.458818   1.000000   1.035313
    4        3.633801      5.812394   1.000000   0.092391
    5        4.570429      7.195274   1.000000  -0.000000
    6        4.815336      7.506915   1.000000  -0.000000
    7       27.946941     28.029353   0.000000   0.000000
    8       29.242693     29.355724   0.000000   0.000000
    9       30.540341     30.455023   0.000000   0.000000
   10       33.659421     34.058927   0.000000   0.000000
   11       33.956677     34.768588   0.000000   0.000000
   12       35.641994     36.417989   0.000000   0.000000
 
  0.1750000E+00  0.1750000E+00  0.2500000E-01  0.3000000E-02
    1        0.692827      1.122137   1.000000   1.000000
    2        2.680942      4.597467   1.000000   1.000000
    3        2.798003      4.687597   1.000000   1.000000
    4        4.542437      7.107898   1.000000  -0.000000
    5        4.937084      7.619561   1.000001  -0.000000
    6        5.717724      7.944761   0.415992  -0.000000
    7       20.551965     21.249782   0.000000   0.000000
    8       21.434397     22.101815   0.000000   0.000000
    9       26.112364     26.754730   0.000000   0.000000
   10       32.270426     32.308294   0.000000   0.000000
   11       35.927336     36.344592   0.000000   0.000000
   12       38.731201     39.134858   0.000000   0.000000
 
  0.2250000E+00  0.1750000E+00  0.2500000E-01  0.6000000E-02
    1        1.206000      1.873970   1.000000   1.000000
    2        2.538793      4.408639   1.000000   1.000000
    3        2.878903      4.616807   1.000000   1.000000
    4        4.590965      7.154425   1.000000  -0.000000
    5        4.987258      7.676630   1.000003  -0.000000
    6        6.433583      8.558544  -0.000001  -0.000000
    7       18.618757     19.445190   0.000000   0.000000
    8       20.348382     21.039766   0.000000   0.000000
    9       25.272616     25.879699   0.000000   0.000000
   10       32.417114     32.516723   0.000000   0.000000
   11       36.245351     36.626898   0.000000   0.000000
   12       39.343874     39.753721   0.000000   0.000000
 
  0.2750000E+00  0.1750000E+00  0.2500000E-01  0.6000000E-02
    1        1.442053      2.474263   1.000000   1.000000
    2        2.439443      4.285741   1.000000   1.000000
    3        3.158658      4.659950   1.000000   1.000000
    4        4.666861      7.233144   1.000000  -0.000000
    5        5.036495      7.712420   1.000015  -0.000000
    6        7.295720      9.244535  -0.000000  -0.000000
    7       16.546242     17.514382   0.000000   0.000000
    8       19.707044     20.400322   0.000000   0.000000
    9       24.636689     25.217971   0.000000   0.000000
   10       32.448903     32.615106   0.000000   0.000000
   11       36.763781     37.066580   0.000000   0.000000
   12       39.401354     39.846140   0.000000   0.000000
 
  0.3250000E+00  0.1750000E+00  0.2500000E-01  0.6000000E-02
    1        1.478773      2.800908   1.000000   1.000000
    2        2.378695      4.221036   1.000000   1.000000
    3        3.477792      4.846347   1.000000   1.000000
    4        4.737090      7.310600   1.000000  -0.000000
    5        5.088257      7.737073   1.000071  -0.000000
    6        8.275768      9.966195  -0.000000  -0.000000
    7       14.686713     15.826007   0.000000   0.000000
    8       19.275867     19.964520   0.000000   0.000000
    9       24.200743     24.763852   0.000000   0.000000
   10       32.437208     32.654950   0.000000   0.000000
   11       37.324013     37.530046   0.000000   0.000000
   12       39.235515     39.700744   0.000000   0.000000
 
  0.3750000E+00  0.1750000E+00  0.2500000E-01  0.6000000E-02
    1        1.465681      2.909384   1.000000   1.000000
    2        2.350482      4.192418   1.000000   1.000000
    3        3.664402      5.030422   1.000000   1.000013
    4        4.774720      7.356285   1.000000  -0.000000
    5        5.135832      7.759369   1.000260  -0.000000
    6        9.133207     10.560090  -0.000000  -0.000000
    7       13.380102     14.706452   0.000000   0.000000
    8       19.056663     19.739872   0.000000   0.000000
    9       23.979576     24.532795   0.000000   0.000000
   10       32.421087     32.666644   0.000000   0.000000
   11       37.783083     37.887342   0.000000   0.000000
   12       39.010787     39.510512   0.000000   0.000000
 
 -0.1750000E+00  0.1750000E+00  0.2500000E-01  0.3000000E-02
    1       -1.432935     -1.218363   1.000000   1.000000
    2        3.076238      5.159399   1.000000   1.000471
    3        3.305330      5.377212   1.000000   1.022939
    4        3.998862      6.220356   1.000000  -0.000689
    5        4.511976      7.106805   1.000000  -0.000000
    6        4.819020      7.509180   1.000000  -0.000000
    7       25.025126     25.453085   0.000000   0.000000
    8       28.497530     28.549437   0.000000   0.000000
    9       29.788374     30.003388   0.000000   0.000000
   10       32.298209     33.126228   0.000000   0.000000
   11       33.803904     34.465994   0.000000   0.000000
   12       34.738449     35.009551   0.000000   0.000000
 
 -0.1250000E+00  0.1750000E+00  0.2500000E-01  0.6000000E-02
    1       -1.615918     -1.407891   1.000000   1.000000
    2        3.172395      5.269259   1.000000   1.004911
    3        3.289453      5.387216   1.000000   1.025253
    4        3.891356      6.095304   1.000000  -0.008317
    5        4.471801      7.063066   1.000000  -0.000000
    6        4.848149      7.543641   1.000000  -0.000000
    7       26.132501     26.430950   0.000000   0.000000
    8       27.998736     28.247128   0.000000   0.000000
    9       30.307597     30.358283   0.000000   0.000000
   10       32.399050     33.167274   0.000000   0.000000
   11       33.742773     34.090968   0.000000   0.000000
   12       35.295996     35.953348   0.000000   0.000000
 
  0.2250000E+00  0.2250000E+00  0.2500000E-01  0.3000000E-02
    1        1.578478      2.533954   1.000000   1.000000
    2        2.450288      4.244133   1.000000   1.000000
    3        2.920905      4.564014   1.000000   1.000000
    4        4.645447      7.211235   1.000000  -0.000000
    5        5.033339      7.709491   1.000014  -0.000000
    6        7.352356      9.308484  -0.000000  -0.000000
    7       17.632457     18.508216   0.000000   0.000000
    8       18.460652     19.242360   0.000000   0.000000
    9       24.623236     25.214090   0.000000   0.000000
   10       32.863823     32.962874   0.000000   0.000000
   11       36.259923     36.603087   0.000000   0.000000
   12       41.251218     41.587794   0.000000   0.000000
 
  0.2750000E+00  0.2250000E+00  0.2500000E-01  0.6000000E-02
    1        1.726087      3.006205   1.000000   1.000000
    2        2.404624      4.159705   1.000000   1.000000
    3        3.071975      4.582312   1.000000   1.000000
    4        4.722535      7.294774   1.000000  -0.000000
    5        5.064947      7.719239   1.000036  -0.000000
    6        8.439077     10.166450  -0.000000  -0.000000
    7       15.873121     16.861815   0.000000   0.000000
    8       17.667215     18.473054   0.000000   0.000000
    9       24.160655     24.745991   0.000000   0.000000
   10       33.158976     33.284690   0.000000   0.000000
   11       36.458952     36.710916   0.000000   0.000000
   12       41.734663     42.149221   0.000000   0.000000
 
  0.3250000E+00  0.2250000E+00  0.2500000E-01  0.6000000E-02
    1        1.741227      3.216027   1.000000   1.000000
    2        2.393363      4.157205   1.000000   1.000000
    3        3.219630      4.661701   1.000000   1.000000
    4        4.790082      7.371818   1.000000  -0.000000
    5        5.085639      7.716941   1.000066  -0.000000
    6        9.604634     11.072540  -0.000000  -0.000000
    7       14.154325     15.307389   0.000000   0.000000
    8       17.313676     18.118288   0.000000   0.000000
    9       23.883257     24.465868   0.000000   0.000000
   10       33.315412     33.476214   0.000000   0.000000
   11       36.728555     36.869904   0.000000   0.000000
   12       41.489496     41.968034   0.000000   0.000000
 
  0.3750000E+00  0.2250000E+00  0.2500000E-01  0.3000000E-02
    1        1.733871      3.260438   1.000000   1.000000
    2        2.393122      4.166639   1.000000   1.000000