       N       E                     dE             d eps       ncg     rms          rms(c)
DAV:   1     0.115877072798E+02    0.11588E+02   -0.26725E+03 13520   0.473E+02
DAV:   2    -0.786800400344E+01   -0.19456E+02   -0.17737E+02 12856   0.946E+01
DAV:   3    -0.821931915872E+01   -0.35132E+00   -0.35029E+00 13864   0.145E+01
DAV:   4    -0.822038223036E+01   -0.10631E-02   -0.10630E-02 13420   0.748E-01
DAV:   5    -0.822038772795E+01   -0.54976E-05   -0.54980E-05 11348   0.549E-02
DAV:   6    -0.822038792801E+01   -0.20006E-06   -0.19915E-06  9404   0.109E-02
   1 F= -.82203879E+01 E0= -.82199435E+01  d E =-.133341E-02  mag=     2.3256
