PROCAR new format
# of k-points:  250         # of bands:   12         # of ions:    1

 k-point     1 :    0.02500000 0.02500000 0.02500000     weight = 0.00100000

band     1 # energy   -2.50258189 # occ.  1.00000000
 
ion      s      p      d    tot
    1  0.601  0.009  0.000  0.611
 
band     2 # energy    3.33880003 # occ.  1.00000000
 
ion      s      p      d    tot
    1  0.000  0.000  0.969  0.969
 
band     3 # energy    3.33880003 # occ.  1.00000000
 
ion      s      p      d    tot
    1  0.000  0.000  0.969  0.969
 
band     4 # energy    3.46528990 # occ.  1.00000000
 
ion      s      p      d    tot
    1  0.000  0.001  0.969  0.970
 
band     5 # energy    4.73805386 # occ.  1.00000000
 
ion      s      p      d    tot
    1  0.000  0.000  0.969  0.969
 
band     6 # energy    4.73805386 # occ.  1.00000000
 
ion      s      p      d    tot
    1  0.000  0.000  0.969  0.969
 
band     7 # energy   29.93110809 # occ.  0.00000000
 
ion      s      p      d    tot
    1  0.000  0.011  0.099  0.109
 
band     8 # energy   29.93110828 # occ.  0.00000000
 
ion      s      p      d    tot
    1  0.000  0.011  0.099  0.109
 
band     9 # energy   30.81275275 # occ.  0.00000000
 
ion      s      p      d    tot
    1  0.000  0.000  0.000  0.000
 
band    10 # energy   35.40888823 # occ.  0.00000000
 
ion      s      p      d    tot
    1  0.014  0.442  0.340  0.796
 
band    11 # energy   35.70934372 # occ.  0.00000000
 
ion      s      p      d    tot
    1  0.000  0.208  0.181  0.390
 
band    12 # energy   35.70937199 # occ.  0.00000000
 
ion      s      p      d    tot
    1  0.000  0.208  0.181  0.389
 

 k-point     2 :    0.07500000 0.02500000 0.02500000     weight = 0.00300000

band     1 # energy   -2.19915506 # occ.  1.00000000
 
ion      s      p      d    tot
    1  0.584  0.026  0.002  0.612
 
band     2 # energy    3.25523068 # occ.  1.00000000
 
ion      s      p      d    tot
    1  0.000  0.000  0.966  0.966
 
band     3 # energy    3.31561231 # occ.  1.00000000
 
ion      s      p      d    tot
    1  0.000  0.002  0.963  0.965
 
band     4 # energy    3.63763684 # occ.  1.00000000
 
ion      s      p      d    tot
    1  0.000  0.003  0.966  0.970
 
band     5 # energy    4.66570361 # occ.  1.00000000
 
ion      s      p      d    tot
    1  0.000  0.000  0.966  0.966
 
band     6 # energy    4.75025426 # occ.  1.00000000
 
ion      s      p      d    tot
    1  0.000  0.000  0.969  0.969
 
band     7 # energy   28.27354671 # occ.  0.00000000
 
ion      s      p      d    tot
    1  0.002  0.056  0.208  0.265
 
band     8 # energy   29.22596486 # occ.  0.00000000
 
ion      s      p      d    tot
    1  0.000  0.042  0.163  0.205
 
band     9 # energy   30.90172588 # occ.  0.00000000
 
ion      s      p      d    tot
    1  0.000  0.000  0.035  0.036
 
band    10 # energy   33.54238679 # occ.  0.00000000
 
ion      s      p      d    tot
    1  0.033  0.468  0.281  0.782
 
band    11 # energy   35.14707966 # occ.  0.00000000
 
ion      s      p      d    tot
    1  0.000  0.280  0.097  0.377
 
band    12 # energy   35.95956946 # occ.  0.00000000
 
ion      s      p      d    tot
    1  0.009  0.463  0.150  0.622
 

 k-point     3 :    0.12500000 0.02500000 0.02500000     weight = 0.00300000

band     1 # energy   -1.71185458 # occ.  1.00000000
 
ion      s      p      d    tot
    1  0.554  0.053  0.008  0.614
 
band     2 # energy    3.13052043 # occ.  1.00000000
 
ion      s      p      d    tot
    1  0.000  0.000  0.962  0.962
 
band     3 # energy    3.27921322 # occ.  1.00000000
 
ion      s      p      d    tot
    1  0.001  0.007  0.948  0.956
 
band     4 # energy    3.90374162 # occ.  1.00000000
 
ion      s      p      d    tot
    1  0.001  0.006  0.963  0.970
 
band     5 # energy    4.59019109 # occ.  1.00000000
 
ion      s      p      d    tot
    1  0.000  0.000  0.964  0.964
 
band     6 # energy    4.77144578 # occ.  1.00000000
 
ion      s      p      d    tot
    1  0.000  0.000  0.970  0.970
 
band     7 # energy   26.16336459 # occ.  0.00000000
 
ion      s      p      d    tot
    1  0.013  0.125  0.270  0.407
 
band     8 # energy   28.34030047 # occ.  0.00000000
 
ion      s      p      d    tot
    1  0.000  0.088  0.186  0.274
 
band     9 # energy   30.78246413 # occ.  0.00000000
 
ion      s      p      d    tot
    1  0.000  0.004  0.129  0.133
 
band    10 # energy   31.90226233 # occ.  0.00000000
 
ion      s      p      d    tot
    1  0.045  0.476  0.241  0.761
 
band    11 # energy   35.11298790 # occ.  0.00000000
 
ion      s      p      d    tot
    1  0.031  0.393  0.214  0.638
 
band    12 # energy   35.13862229 # occ.  0.00000000
 
ion      s      p      d    tot
    1  0.000  0.288  0.048  0.336
 

 k-point     4 :    0.17500000 0.02500000 0.02500000     weight = 0.00300000

band     1 # energy   -1.07631172 # occ.  1.00000000
 
ion      s      p      d    tot
    1  0.509  0.083  0.029  0.621
 
band     2 # energy    2.97553900 # occ.  1.00000000
 
ion      s      p      d    tot
    1  0.000  0.001  0.957  0.958
 
band     3 # energy    3.22786255 # occ.  1.00000000
 
ion      s      p      d    tot
    1  0.006  0.019  0.914  0.939
 
band     4 # energy    4.24698023 # occ.  1.00000000
 
ion      s      p      d    tot
    1  0.002  0.009  0.958  0.969
 
band     5 # energy    4.54978452 # occ.  1.00000000
 
ion      s      p      d    tot
    1  0.001  0.000  0.965  0.966
 
band     6 # energy    4.79796250 # occ.  1.00000000
 
ion      s      p      d    tot
    1  0.000  0.000  0.972  0.972
 
band     7 # energy   23.85487451 # occ.  0.00000000
 
ion      s      p      d    tot
    1  0.037  0.185  0.293  0.515
 
band     8 # energy   27.35373778 # occ.  0.00000000
 
ion      s      p      d    tot
    1  0.000  0.136  0.173  0.309
 
band     9 # energy   30.42291689 # occ.  0.00000000
 
ion      s      p      d    tot
    1  0.046  0.493  0.209  0.749
 
band    10 # energy   30.51752078 # occ.  0.00000000
 
ion      s      p      d    tot
    1  0.000  0.008  0.245  0.253
 
band    11 # energy   34.37427578 # occ.  0.00000000
 
ion      s      p      d    tot
    1  0.062  0.322  0.220  0.604
 
band    12 # energy   35.68991391 # occ.  0.00000000
 
ion      s      p      d    tot
    1  0.000  0.274  0.026  0.300
 

 k-point     5 :    0.22500000 0.02500000 0.02500000     weight = 0.00300000

band     1 # energy   -0.36535060 # occ.  1.00000000
 
ion      s      p      d    tot
    1  0.444  0.106  0.091  0.641
 
band     2 # energy    2.80875879 # occ.  1.00000000
 
ion      s      p      d    tot
    1  0.000  0.001  0.952  0.953
 
band     3 # energy    3.21993787 # occ.  1.00000000
 
ion      s      p      d    tot
    1  0.021  0.049  0.836  0.906
 
band     4 # energy    4.55431536 # occ.  1.00000000
 
ion      s      p      d    tot
    1  0.002  0.001  0.966  0.968
 
band     5 # energy    4.65328323 # occ.  1.00000000
 
ion      s      p      d    tot
    1  0.002  0.013  0.955  0.970
 
band     6 # energy    4.82434083 # occ.  1.00000001
 
ion      s      p      d    tot
    1  0.000  0.000  0.974  0.974
 
band     7 # energy   21.49656079 # occ.  0.00000000
 
ion      s      p      d    tot
    1  0.075  0.220  0.298  0.593
 
band     8 # energy   26.36595112 # occ.  0.00000000
 
ion      s      p      d    tot
    1  0.000  0.174  0.144  0.319
 
band     9 # energy   29.07432731 # occ.  0.00000000
 
ion      s      p      d    tot
    1  0.043  0.522  0.172  0.737
 
band    10 # energy   30.22555614 # occ.  0.00000000
 
ion      s      p      d    tot
    1  0.000  0.009  0.351  0.360
 
band    11 # energy   33.86210359 # occ.  0.00000000
 
ion      s      p      d    tot
    1  0.096  0.249  0.237  0.582
 
band    12 # energy   36.66024319 # occ.  0.00000000
 
ion      s      p      d    tot
    1  0.000  0.260  0.028  0.288
 

 k-point     6 :    0.27500000 0.02500000 0.02500000     weight = 0.00300000

band     1 # energy    0.28094294 # occ.  1.00000000
 
ion      s      p      d    tot
    1  0.348  0.101  0.238  0.687
 
band     2 # energy    2.64862481 # occ.  1.00000000
 
ion      s      p      d    tot
    1  0.000  0.001  0.948  0.949
 
band     3 # energy    3.39649306 # occ.  1.00000000
 
ion      s      p      d    tot
    1  0.056  0.114  0.677  0.846
 
band     4 # energy    4.60899490 # occ.  1.00000000
 
ion      s      p      d    tot
    1  0.001  0.002  0.970  0.973
 
band     5 # energy    4.85909479 # occ.  1.00000003
 
ion      s      p      d    tot
    1  0.000  0.000  0.976  0.976
 
band     6 # energy    5.08992217 # occ.  1.00007489
 
ion      s      p      d    tot
    1  0.006  0.018  0.945  0.968
 
band     7 # energy   19.19548125 # occ.  0.00000000
 
ion      s      p      d    tot
    1  0.124  0.226  0.300  0.650
 
band     8 # energy   25.46932134 # occ.  0.00000000
 
ion      s      p      d    tot
    1  0.000  0.203  0.114  0.316
 
band     9 # energy   27.87687971 # occ.  0.00000000
 
ion      s      p      d    tot
    1  0.038  0.556  0.129  0.723
 
band    10 # energy   29.99284152 # occ.  0.00000000
 
ion      s      p      d    tot
    1  0.000  0.008  0.435  0.443
 
band    11 # energy   33.57042348 # occ.  0.00000000
 
ion      s      p      d    tot
    1  0.130  0.181  0.265  0.575
 
band    12 # energy   37.94128765 # occ.  0.00000000
 
ion      s      p      d    tot
    1  0.000  0.248  0.047  0.295
 

 k-point     7 :    0.32500000 0.02500000 0.02500000     weight = 0.00300000

band     1 # energy    0.69037888 # occ.  1.00000000
 
ion      s      p      d    tot
    1  0.237  0.063  0.456  0.756
 
band     2 # energy    2.50614478 # occ.  1.00000000
 
ion      s      p      d    tot
    1  0.000  0.001  0.945  0.946
 
band     3 # energy    3.89767832 # occ.  1.00000000
 
ion      s      p      d    tot
    1  0.092  0.209  0.471  0.772
 
band     4 # energy    4.68598266 # occ.  1.00000000
 
ion      s      p      d    tot
    1  0.000  0.010  0.963  0.973
 
band     5 # energy    4.89426145 # occ.  1.00000010
 
ion      s      p      d    tot
    1  0.000  0.000  0.979  0.979
 
band     6 # energy    5.53261227 # occ.  0.99634332
 
ion      s      p      d    tot
    1  0.011  0.032  0.916  0.960
 
band     7 # energy   17.01660265 # occ.  0.00000000
 
ion      s      p      d    tot
    1  0.186  0.201  0.310  0.697
 
band     8 # energy   24.71837075 # occ.  0.00000000
 
ion      s      p      d    tot
    1  0.000  0.222  0.087  0.309
 
band     9 # energy   26.85801654 # occ.  0.00000000
 
ion      s      p      d    tot
    1  0.034  0.588  0.086  0.708
 
band    10 # energy   29.79675933 # occ.  0.00000000
 
ion      s      p      d    tot
    1  0.000  0.007  0.499  0.506
 
band    11 # energy   33.42799287 # occ.  0.00000000
 
ion      s      p      d    tot
    1  0.161  0.123  0.297  0.581
 
band    12 # energy   39.46453740 # occ.  0.00000000
 
ion      s      p      d    tot
    1  0.000  0.237  0.078  0.315
 

 k-point     8 :    0.37500000 0.02500000 0.02500000     weight = 0.00300000

band     1 # energy    0.84740054 # occ.  1.00000000
 
ion      s      p      d    tot
    1  0.160  0.027  0.622  0.808
 
band     2 # energy    2.39522432 # occ.  1.00000000
 
ion      s      p      d    tot
    1  0.000  0.001  0.943  0.944
 
band     3 # energy    4.56419819 # occ.  1.00000000
 
ion      s      p      d    tot
    1  0.064  0.155  0.614  0.832
 
band     4 # energy    4.84283819 # occ.  1.00000001
 
ion      s      p      d    tot
    1  0.014  0.140  0.726  0.880
 
band     5 # energy    4.92230080 # occ.  1.00000030
 
ion      s      p      d    tot
    1  0.000  0.000  0.981  0.981
 
band     6 # energy    5.98564275 # occ. -0.03024680
 
ion      s      p      d    tot
    1  0.022  0.088  0.809  0.918
 
band     7 # energy   15.08223128 # occ.  0.00000000
 
ion      s      p      d    tot
    1  0.261  0.144  0.337  0.742
 
band     8 # energy   24.15314407 # occ.  0.00000000
 
ion      s      p      d    tot
    1  0.000  0.235  0.067  0.302
 
band     9 # energy   26.07750371 # occ.  0.00000000
 
ion      s      p      d    tot
    1  0.031  0.613  0.048  0.693
 
band    10 # energy   29.65792972 # occ.  0.00000000
 
ion      s      p      d    tot
    1  0.000  0.006  0.543  0.549
 
band    11 # energy   33.38116923 # occ.  0.00000000
 
ion      s      p      d    tot
    1  0.188  0.076  0.329  0.593
 
band    12 # energy   40.24507557 # occ.  0.00000000
 
ion      s      p      d    tot
    1  0.029  0.039  0.082  0.149
 

 k-point     9 :    0.42500000 0.02500000 0.02500000     weight = 0.00300000

band     1 # energy    0.87912780 # occ.  1.00000000
 
ion      s      p      d    tot
    1  0.123  0.008  0.703  0.833
 
band     2 # energy    2.32488616 # occ.  1.00000000
 
ion      s      p      d    tot
    1  0.000  0.001  0.941  0.942
 
band     3 # energy    4.73743752 # occ.  1.00000000
 
ion      s      p      d    tot
    1  0.013  0.006  0.951  0.970
 
band     4 # energy    4.93947792 # occ.  1.00000057
 
ion      s      p      d    tot
    1  0.000  0.000  0.983  0.983
 
band     5 # energy    5.33375365 # occ.  1.01367319
 
ion      s      p      d    tot
    1  0.015  0.255  0.529  0.799
 
band     6 # energy    6.48594777 # occ. -0.00000019
 
ion      s      p      d    tot
    1  0.020  0.249  0.537  0.806
 
band     7 # energy   13.60186744 # occ.  0.00000000
 
ion      s      p      d    tot
    1  0.346  0.057  0.384  0.788
 
band     8 # energy   23.80441471 # occ.  0.00000000
 
ion      s      p      d    tot
    1  0.000  0.242  0.055  0.297
 
band     9 # energy   25.58384342 # occ.  0.00000000
 
ion      s      p      d    tot
    1  0.030  0.630  0.023  0.682
 
band    10 # energy   29.57255809 # occ.  0.00000000
 
ion      s      p      d    tot
    1  0.000  0.006  0.569  0.574
 
band    11 # energy   33.38034191 # occ.  0.00000000
 
ion      s      p      d    tot
    1  0.206  0.046  0.352  0.604
 
band    12 # energy   40.18098662 # occ.  0.00000000
 
ion      s      p      d    tot
    1  0.008  0.063  0.023  0.094
 

 k-point    10 :    0.47500000 0.02500000 0.02500000     weight = 0.00150000

band     1 # energy    0.88145475 # occ.  1.00000000
 
ion      s      p      d    tot
    1  0.112  0.002  0.726  0.840
 
band     2 # energy    2.30088508 # occ.  1.00000000
 
ion      s      p      d    tot
    1  0.000  0.001  0.941  0.942
 
band     3 # energy    4.76217520 # occ.  1.00000000
 
ion      s      p      d    tot
    1  0.010  0.000  0.967  0.977
 
band     4 # energy    4.94908232 # occ.  1.00000081
 
ion      s      p      d    tot
    1  0.000  0.000  0.984  0.984
 
band     5 # energy    5.53013345 # occ.  0.99917090
 
ion      s      p      d    tot
    1  0.000  0.215  0.620  0.835
 
band     6 # energy    6.77454977 # occ. -0.00000000
 
ion      s      p      d    tot
    1  0.000  0.361  0.374  0.735
 
band     7 # energy   13.00683293 # occ.  0.00000000
 
ion      s      p      d    tot
    1  0.394  0.002  0.417  0.813
 
band     8 # energy   23.68639154 # occ.  0.00000000
 
ion      s      p      d    tot
    1  0.000  0.244  0.051  0.295
 
band     9 # energy   25.41556179 # occ.  0.00000000
 
ion      s      p      d    tot
    1  0.029  0.636  0.013  0.678
 
band    10 # energy   29.54550805 # occ.  0.00000000
 
ion      s      p      d    tot
    1  0.000  0.006  0.577  0.583
 
band    11 # energy   33.40066526 # occ.  0.00000000
 
ion      s      p      d    tot
    1  0.212  0.036  0.360  0.608
 
band    12 # energy   40.15063376 # occ.  0.00000000
 
ion      s      p      d    tot
    1  0.000  0.073  0.001  0.073
 

 k-point    11 :   -0.02500000 0.02500000 0.02500000     weight = 0.00075000

band     1 # energy   -2.60541628 # occ.  1.00000000
 
ion      s      p      d    tot
    1  0.607  0.003  0.000  0.610
 
band     2 # energy    3.36306587 # occ.  1.00000000
 
ion      s      p      d    tot
    1  0.000  0.000  0.970  0.970
 
band     3 # energy    3.36319537 # occ.  1.00000000
 
ion      s      p      d    tot
    1  0.000  0.000  0.970  0.970
 
band     4 # energy    3.37753226 # occ.  1.00000000
 
ion      s      p      d    tot
    1  0.000  0.000  0.970  0.970
 
band     5 # energy    4.73062548 # occ.  1.00000000
 
ion      s      p      d    tot
    1  0.000  0.000  0.968  0.968
 
band     6 # energy    4.76308121 # occ.  1.00000000
 
ion      s      p      d    tot
    1  0.000  0.000  0.970  0.970
 
band     7 # energy   30.30094403 # occ.  0.00000000
 
ion      s      p      d    tot
    1  0.000  0.000  0.039  0.039
 
band     8 # energy   30.62775537 # occ.  0.00000000
 
ion      s      p      d    tot
    1  0.000  0.001  0.021  0.022
 
band     9 # energy   30.62777404 # occ.  0.00000000
 
ion      s      p      d    tot
    1  0.000  0.001  0.021  0.022
 
band    10 # energy   35.21245142 # occ.  0.00000000
 
ion      s      p      d    tot
    1  0.002  0.142  0.271  0.414
 
band    11 # energy   36.28320046 # occ.  0.00000000
 
ion      s      p      d    tot
    1  0.000  0.000  0.322  0.322
 
band    12 # energy   36.89585728 # occ.  0.00000000
 
ion      s      p      d    tot
    1  0.000  0.386  0.398  0.783
 

 k-point    12 :    0.07500000 0.07500000 0.02500000     weight = 0.00300000

band     1 # energy   -1.80653613 # occ.  1.00000000
 
ion      s      p      d    tot
    1  0.560  0.048  0.006  0.613
 
band     2 # energy    3.17723114 # occ.  1.00000000
 
ion      s      p      d    tot
    1  0.000  0.002  0.960  0.962
 
band     3 # energy    3.22525688 # occ.  1.00000000
 
ion      s      p      d    tot
    1  0.000  0.003  0.957  0.960
 
band     4 # energy    3.88403414 # occ.  1.00000000
 
ion      s      p      d    tot
    1  0.001  0.007  0.961  0.969
 
band     5 # energy    4.61776724 # occ.  1.00000000
 
ion      s      p      d    tot
    1  0.000  0.000  0.965  0.965
 
band     6 # energy    4.75235024 # occ.  1.00000000
 
ion      s      p      d    tot
    1  0.000  0.000  0.970  0.970
 
band     7 # energy   26.98537605 # occ.  0.00000000
 
ion      s      p      d    tot
    1  0.000  0.090  0.253  0.343
 
band     8 # energy   27.74124415 # occ.  0.00000000
 
ion      s      p      d    tot
    1  0.006  0.103  0.228  0.336
 
band     9 # energy   31.27775336 # occ.  0.00000000
 
ion      s      p      d    tot
    1  0.000  0.002  0.033  0.035
 
band    10 # energy   31.60110811 # occ.  0.00000000
 
ion      s      p      d    tot
    1  0.062  0.475  0.231  0.768
 
band    11 # energy   35.33497805 # occ.  0.00000000
 
ion      s      p      d    tot
    1  0.007  0.269  0.109  0.384
 
band    12 # energy   36.44457220 # occ.  0.00000000
 
ion      s      p      d    tot
    1  0.000  0.446  0.155  0.601
 

 k-point    13 :    0.12500000 0.07500000 0.02500000     weight = 0.00600000

band     1 # energy   -1.24647239 # occ.  1.00000000
 
ion      s      p      d    tot
    1  0.523  0.076  0.019  0.618
 
band     2 # energy    3.04227797 # occ.  1.00000000
 
ion      s      p      d    tot
    1  0.000  0.002  0.954  0.957
 
band     3 # energy    3.14635610 # occ.  1.00000000
 
ion      s      p      d    tot
    1  0.001  0.008  0.941  0.950
 
band     4 # energy    4.21702436 # occ.  1.00000000
 
ion      s      p      d    tot
    1  0.003  0.012  0.952  0.967
 
band     5 # energy    4.56068469 # occ.  1.00000000
 
ion      s      p      d    tot
    1  0.000  0.000  0.964  0.964
 
band     6 # energy    4.78770282 # occ.  1.00000000
 
ion      s      p      d    tot
    1  0.001  0.000  0.971  0.972
 
band     7 # energy   25.01984265 # occ.  0.00000000
 
ion      s      p      d    tot
    1  0.012  0.153  0.288  0.453
 
band     8 # energy   26.57013931 # occ.  0.00000000
 
ion      s      p      d    tot
    1  0.011  0.148  0.237  0.397
 
band     9 # energy   29.96213277 # occ.  0.00000000
 
ion      s      p      d    tot
    1  0.079  0.463  0.191  0.732
 
band    10 # energy   31.41107273 # occ.  0.00000000
 
ion      s      p      d    tot
    1  0.001  0.007  0.097  0.105
 
band    11 # energy   35.46093229 # occ.  0.00000000
 
ion      s      p      d    tot
    1  0.009  0.240  0.139  0.388
 
band    12 # energy   36.17775325 # occ.  0.00000000
 
ion      s      p      d    tot
    1  0.014  0.363  0.211  0.589
 

 k-point    14 :    0.17500000 0.07500000 0.02500000     weight = 0.00600000

band     1 # energy   -0.56801281 # occ.  1.00000000
 
ion      s      p      d    tot
    1  0.470  0.105  0.055  0.630
 
band     2 # energy    2.87912383 # occ.  1.00000000
 
ion      s      p      d    tot
    1  0.000  0.003  0.949  0.952
 
band     3 # energy    3.08086590 # occ.  1.00000000
 
ion      s      p      d    tot
    1  0.007  0.023  0.901  0.931
 
band     4 # energy    4.53764061 # occ.  1.00000000
 
ion      s      p      d    tot
    1  0.001  0.001  0.964  0.965
 
band     5 # energy    4.62356718 # occ.  1.00000000
 
ion      s      p      d    tot
    1  0.005  0.018  0.943  0.966
 
band     6 # energy    4.82781152 # occ.  1.00000001
 
ion      s      p      d    tot
    1  0.002  0.001  0.971  0.973
 
band     7 # energy   22.74910839 # occ.  0.00000000
 
ion      s      p      d    tot
    1  0.044  0.207  0.298  0.548
 
band     8 # energy   25.57035505 # occ.  0.00000000
 
ion      s      p      d    tot
    1  0.014  0.180  0.227  0.421
 
band     9 # energy   28.57037634 # occ.  0.00000000
 
ion      s      p      d    tot
    1  0.083  0.459  0.161  0.704
 
band    10 # energy   31.31151452 # occ.  0.00000000
 
ion      s      p      d    tot
    1  0.004  0.012  0.196  0.212
 
band    11 # energy   35.56380179 # occ.  0.00000000
 
ion      s      p      d    tot
    1  0.015  0.282  0.272  0.569
 
band    12 # energy   36.09435970 # occ.  0.00000000
 
ion      s      p      d    tot
    1  0.034  0.238  0.091  0.363
 

 k-point    15 :    0.22500000 0.07500000 0.02500000     weight = 0.00600000

band     1 # energy    0.12821858 # occ.  1.00000000
 
ion      s      p      d    tot
    1  0.391  0.117  0.152  0.660
 
band     2 # energy    2.71258303 # occ.  1.00000000
 
ion      s      p      d    tot
    1  0.000  0.003  0.944  0.948
 
band     3 # energy    3.10512726 # occ.  1.00000000
 
ion      s      p      d    tot
    1  0.026  0.059  0.809  0.894
 
band     4 # energy    4.56519407 # occ.  1.00000000
 
ion      s      p      d    tot
    1  0.001  0.001  0.968  0.970
 
band     5 # energy    4.86161725 # occ.  1.00000003
 
ion      s      p      d    tot
    1  0.001  0.000  0.975  0.977
 
band     6 # energy    5.09515031 # occ.  1.00008681
 
ion      s      p      d    tot
    1  0.014  0.029  0.915  0.958
 
band     7 # energy   20.42951927 # occ.  0.00000000
 
ion      s      p      d    tot
    1  0.089  0.231  0.297  0.617
 
band     8 # energy   24.67517508 # occ.  0.00000000
 
ion      s      p      d    tot
    1  0.015  0.207  0.209  0.431
 
band     9 # energy   27.37464629 # occ.  0.00000000
 
ion      s      p      d    tot
    1  0.082  0.470  0.132  0.684
 
band    10 # energy   31.09146276 # occ.  0.00000000
 
ion      s      p      d    tot
    1  0.006  0.013  0.292  0.312
 
band    11 # energy   35.16601305 # occ.  0.00000000
 
ion      s      p      d    tot
    1  0.050  0.250  0.272  0.572
 
band    12 # energy   36.97380078 # occ.  0.00000000
 
ion      s      p      d    tot
    1  0.030  0.196  0.105  0.331
 

 k-point    16 :    0.27500000 0.07500000 0.02500000     weight = 0.00600000

band     1 # energy    0.66821279 # occ.  1.00000000
 
ion      s      p      d    tot
    1  0.282  0.093  0.347  0.722
 
band     2 # energy    2.56316134 # occ.  1.00000000
 
ion      s      p      d    tot
    1  0.000  0.004  0.941  0.944
 
band     3 # energy    3.36302979 # occ.  1.00000000
 
ion      s      p      d    tot
    1  0.060  0.132  0.642  0.834
 
band     4 # energy    4.62941298 # occ.  1.00000000
 
ion      s      p      d    tot
    1  0.001  0.002  0.970  0.973
 
band     5 # energy    4.90665051 # occ.  1.00000017
 
ion      s      p      d    tot
    1  0.003  0.001  0.974  0.978
 
band     6 # energy    5.61085975 # occ.  0.83203548
 
ion      s      p      d    tot
    1  0.024  0.050  0.868  0.943
 
band     7 # energy   18.18262641 # occ.  0.00000000
 
ion      s      p      d    tot
    1  0.145  0.224  0.300  0.669
 
band     8 # energy   23.91313569 # occ.  0.00000000
 
ion      s      p      d    tot
    1  0.017  0.230  0.186  0.433
 
band     9 # energy   26.35964211 # occ.  0.00000000
 
ion      s      p      d    tot
    1  0.077  0.489  0.101  0.667
 
band    10 # energy   30.88191443 # occ.  0.00000000
 
ion      s      p      d    tot
    1  0.008  0.012  0.368  0.388
 
band    11 # energy   34.89404554 # occ.  0.00000000
 
ion      s      p      d    tot
    1  0.082  0.204  0.283  0.569
 
band    12 # energy   38.06429684 # occ.  0.00000000
 
ion      s      p      d    tot
    1  0.034  0.158  0.130  0.322
 

 k-point    17 :    0.32500000 0.07500000 0.02500000     weight = 0.00600000

band     1 # energy    0.92860322 # occ.  1.00000000
 
ion      s      p      d    tot
    1  0.183  0.050  0.556  0.789
 
band     2 # energy    2.43996972 # occ.  1.00000000
 
ion      s      p      d    tot
    1  0.000  0.004  0.938  0.942
 
band     3 # energy    3.89046841 # occ.  1.00000000
 
ion      s      p      d    tot
    1  0.069  0.199  0.524  0.792
 
band     4 # energy    4.70390588 # occ.  1.00000000
 
ion      s      p      d    tot
    1  0.001  0.006  0.967  0.975
 
band     5 # energy    4.95785421 # occ.  1.00000110
 
ion      s      p      d    tot
    1  0.005  0.006  0.964  0.976
 
band     6 # energy    6.18718168 # occ. -0.00146186
 
ion      s      p      d    tot
    1  0.038  0.099  0.767  0.905
 
band     7 # energy   16.10162914 # occ.  0.00000000
 
ion      s      p      d    tot
    1  0.213  0.186  0.315  0.714
 
band     8 # energy   23.30474926 # occ.  0.00000000
 
ion      s      p      d    tot
    1  0.018  0.248  0.165  0.431
 
band     9 # energy   25.54582721 # occ.  0.00000000
 
ion      s      p      d    tot
    1  0.073  0.508  0.070  0.651
 
band    10 # energy   30.69849476 # occ.  0.00000000
 
ion      s      p      d    tot
    1  0.009  0.010  0.424  0.443
 
band    11 # energy   34.74705115 # occ.  0.00000000
 
ion      s      p      d    tot
    1  0.113  0.159  0.302  0.574
 
band    12 # energy   39.05287019 # occ.  0.00000000
 
ion      s      p      d    tot
    1  0.036  0.103  0.142  0.281
 

 k-point    18 :    0.37500000 0.07500000 0.02500000     weight = 0.00600000

band     1 # energy    0.99532116 # occ.  1.00000000
 
ion      s      p      d    tot
    1  0.128  0.021  0.677  0.827
 
band     2 # energy    2.35355049 # occ.  1.00000000
 
ion      s      p      d    tot
    1  0.000  0.004  0.936  0.940
 
band     3 # energy    4.41364037 # occ.  1.00000000
 
ion      s      p      d    tot
    1  0.034  0.183  0.611  0.827
 
band     4 # energy    4.76260143 # occ.  1.00000000
 
ion      s      p      d    tot
    1  0.002  0.013  0.956  0.972
 
band     5 # energy    5.05214177 # occ.  1.00002465
 
ion      s      p      d    tot
    1  0.007  0.040  0.907  0.955
 
band     6 # energy    6.84260304 # occ. -0.00000000
 
ion      s      p      d    tot
    1  0.039  0.204  0.588  0.831
 
band     7 # energy   14.33309218 # occ.  0.00000000
 
ion      s      p      d    tot
    1  0.294  0.114  0.351  0.759
 
band     8 # energy   22.88028422 # occ.  0.00000000
 
ion      s      p      d    tot
    1  0.019  0.261  0.149  0.429
 
band     9 # energy   24.97246792 # occ.  0.00000000
 
ion      s      p      d    tot
    1  0.070  0.522  0.045  0.637
 
band    10 # energy   30.58002403 # occ.  0.00000000
 
ion      s      p      d    tot
    1  0.009  0.008  0.461  0.478
 
band    11 # energy   34.69060651 # occ.  0.00000000
 
ion      s      p      d    tot
    1  0.138  0.123  0.322  0.583
 
band    12 # energy   39.60444738 # occ.  0.00000000
 
ion      s      p      d    tot
    1  0.021  0.067  0.099  0.187
 

 k-point    19 :    0.42500000 0.07500000 0.02500000     weight = 0.00600000

band     1 # energy    0.99862343 # occ.  1.00000000
 
ion      s      p      d    tot
    1  0.107  0.010  0.724  0.841
 
band     2 # energy    2.30837003 # occ.  1.00000000
 
ion      s      p      d    tot
    1  0.000  0.004  0.935  0.939
 
band     3 # energy    4.66184513 # occ.  1.00000000
 
ion      s      p      d    tot
    1  0.005  0.120  0.764  0.889
 
band     4 # energy    4.77243432 # occ.  1.00000000
 
ion      s      p      d    tot
    1  0.006  0.009  0.957  0.972
 
band     5 # energy    5.18966398 # occ.  1.00096453
 
ion      s      p      d    tot
    1  0.002  0.094  0.826  0.922
 
band     6 # energy    7.40826922 # occ. -0.00000000
 
ion      s      p      d    tot
    1  0.009  0.328  0.419  0.756
 
band     7 # energy   13.19334371 # occ.  0.00000000
 
ion      s      p      d    tot
    1  0.373  0.028  0.399  0.800
 
band     8 # energy   22.66180694 # occ.  0.00000000
 
ion      s      p      d    tot
    1  0.020  0.268  0.140  0.428
 
band     9 # energy   24.67542029 # occ.  0.00000000
 
ion      s      p      d    tot
    1  0.068  0.530  0.031  0.629
 
band    10 # energy   30.51345297 # occ.  0.00000000
 
ion      s      p      d    tot
    1  0.009  0.008  0.479  0.496
 
band    11 # energy   34.67760792 # occ.  0.00000000
 
ion      s      p      d    tot
    1  0.153  0.103  0.335  0.591
 
band    12 # energy   39.77504784 # occ.  0.00000000
 
ion      s      p      d    tot
    1  0.003  0.066  0.052  0.121
 

 k-point    20 :   -0.07500000 0.07500000 0.02500000     weight = 0.00300000

band     1 # energy   -2.40050350 # occ.  1.00000000
 
ion      s      p      d    tot
    1  0.596  0.015  0.000  0.611
 
band     2 # energy    3.31654006 # occ.  1.00000000
 
ion      s      p      d    tot
    1  0.000  0.000  0.968  0.968
 