<?xml version="1.0" encoding="ISO-8859-1"?>
<modeling>
 <generator>
  <i name="program" type="string">vasp </i>
  <i name="version" type="string">5.4.4.18Apr17-6-g9f103f2a35  </i>
  <i name="subversion" type="string">(build Jul 01 2019 03:25:34) complex            parallel </i>
  <i name="platform" type="string">LinuxIFC </i>
  <i name="date" type="string">2020 07 01 </i>
  <i name="time" type="string">21:29:44 </i>
 </generator>
 <incar>
  <i type="string" name="SYSTEM"> bcc Fe</i>
  <i type="string" name="PREC">normal</i>
  <i type="int" name="ISPIN">     2</i>
  <i type="int" name="ICHARG">    11</i>
  <i name="EDIFF">      0.00010000</i>
  <i name="ENCUT">    268.00000000</i>
  <v name="RWIGS">      1.30200000</v>
  <v name="MAGMOM">      3.00000000</v>
  <i type="logical" name="LCHARG"> F  </i>
  <v type="int" name="KPOINT_BSE">    -1     0     0     0</v>
 </incar>
 <structure name="primitive_cell" >
  <crystal>
   <varray name="basis" >
    <v>      -1.42000000       1.42000000       1.42000000 </v>
    <v>       1.42000000      -1.42000000       1.42000000 </v>
    <v>       1.42000000       1.42000000      -1.42000000 </v>
   </varray>
   <i name="volume">     11.45315200 </i>
   <varray name="rec_basis" >
    <v>       0.00000000       0.35211268       0.35211268 </v>
    <v>       0.35211268       0.00000000       0.35211268 </v>
    <v>       0.35211268       0.35211268       0.00000000 </v>
   </varray>
  </crystal>
  <varray name="positions" >
   <v>       0.00000000       0.00000000       0.00000000 </v>
  </varray>
 </structure>
 <varray name="primitive_index" >
  <v type="int" >        1 </v>
 </varray>
 <kpoints>
  <generation param="Monkhorst-Pack">
   <v type="int" name="divisions">      20       20       20 </v>
   <v name="usershift">      0.00000000       0.00000000       0.00000000 </v>
   <v name="genvec1">      0.05000000       0.00000000       0.00000000 </v>
   <v name="genvec2">      0.00000000       0.05000000       0.00000000 </v>
   <v name="genvec3">      0.00000000       0.00000000       0.05000000 </v>
   <v name="shift">      0.50000000       0.50000000       0.50000000 </v>
  </generation>
  <varray name="kpointlist" >
   <v>       0.02500000       0.02500000       0.02500000 </v>
   <v>       0.07500000       0.02500000       0.02500000 </v>
   <v>       0.12500000       0.02500000       0.02500000 </v>
   <v>       0.17500000       0.02500000       0.02500000 </v>
   <v>       0.22500000       0.02500000       0.02500000 </v>
   <v>       0.27500000       0.02500000       0.02500000 </v>
   <v>       0.32500000       0.02500000       0.02500000 </v>
   <v>       0.37500000       0.02500000       0.02500000 </v>
   <v>       0.42500000       0.02500000       0.02500000 </v>
   <v>       0.47500000       0.02500000       0.02500000 </v>
   <v>      -0.02500000       0.02500000       0.02500000 </v>
   <v>       0.07500000       0.07500000       0.02500000 </v>
   <v>       0.12500000       0.07500000       0.02500000 </v>
   <v>       0.17500000       0.07500000       0.02500000 </v>
   <v>       0.22500000       0.07500000       0.02500000 </v>
   <v>       0.27500000       0.07500000       0.02500000 </v>
   <v>       0.32500000       0.07500000       0.02500000 </v>
   <v>       0.37500000       0.07500000       0.02500000 </v>
   <v>       0.42500000       0.07500000       0.02500000 </v>
   <v>      -0.07500000       0.07500000       0.02500000 </v>
   <v>       0.12500000       0.12500000       0.02500000 </v>
   <v>       0.17500000       0.12500000       0.02500000 </v>
   <v>       0.22500000       0.12500000       0.02500000 </v>
   <v>       0.27500000       0.12500000       0.02500000 </v>
   <v>       0.32500000       0.12500000       0.02500000 </v>
   <v>       0.37500000       0.12500000       0.02500000 </v>
   <v>       0.42500000       0.12500000       0.02500000 </v>
   <v>      -0.12500000       0.12500000       0.02500000 </v>
   <v>      -0.07500000       0.12500000       0.02500000 </v>
   <v>       0.17500000       0.17500000       0.02500000 </v>
   <v>       0.22500000       0.17500000       0.02500000 </v>
   <v>       0.27500000       0.17500000       0.02500000 </v>
   <v>       0.32500000       0.17500000       0.02500000 </v>
   <v>       0.37500000       0.17500000       0.02500000 </v>
   <v>      -0.17500000       0.17500000       0.02500000 </v>
   <v>      -0.12500000       0.17500000       0.02500000 </v>
   <v>       0.22500000       0.22500000       0.02500000 </v>
   <v>       0.27500000       0.22500000       0.02500000 </v>
   <v>       0.32500000       0.22500000       0.02500000 </v>
   <v>       0.37500000       0.22500000       0.02500000 </v>
   <v>      -0.22500000       0.22500000       0.02500000 </v>
   <v>      -0.17500000       0.22500000       0.02500000 </v>
   <v>      -0.12500000       0.22500000       0.02500000 </v>
   <v>       0.27500000       0.27500000       0.02500000 </v>
   <v>       0.32500000       0.27500000       0.02500000 </v>
   <v>      -0.27500000       0.27500000       0.02500000 </v>
   <v>      -0.22500000       0.27500000       0.02500000 </v>
   <v>      -0.17500000       0.27500000       0.02500000 </v>
   <v>       0.32500000       0.32500000       0.02500000 </v>
   <v>      -0.32500000       0.32500000       0.02500000 </v>
   <v>      -0.27500000       0.32500000       0.02500000 </v>
   <v>      -0.22500000       0.32500000       0.02500000 </v>
   <v>      -0.17500000       0.32500000       0.02500000 </v>
   <v>      -0.37500000       0.37500000       0.02500000 </v>
   <v>      -0.32500000       0.37500000       0.02500000 </v>
   <v>      -0.27500000       0.37500000       0.02500000 </v>
   <v>      -0.22500000       0.37500000       0.02500000 </v>
   <v>      -0.42500000       0.42500000       0.02500000 </v>
   <v>      -0.37500000       0.42500000       0.02500000 </v>
   <v>      -0.32500000       0.42500000       0.02500000 </v>
   <v>      -0.27500000       0.42500000       0.02500000 </v>
   <v>      -0.22500000       0.42500000       0.02500000 </v>
   <v>      -0.47500000       0.47500000       0.02500000 </v>
   <v>      -0.42500000       0.47500000       0.02500000 </v>
   <v>      -0.37500000       0.47500000       0.02500000 </v>
   <v>      -0.32500000       0.47500000       0.02500000 </v>
   <v>      -0.27500000       0.47500000       0.02500000 </v>
   <v>      -0.47500000      -0.47500000       0.02500000 </v>
   <v>      -0.42500000      -0.47500000       0.02500000 </v>
   <v>      -0.37500000      -0.47500000       0.02500000 </v>
   <v>      -0.32500000      -0.47500000       0.02500000 </v>
   <v>      -0.27500000      -0.47500000       0.02500000 </v>
   <v>      -0.42500000      -0.42500000       0.02500000 </v>
   <v>      -0.37500000      -0.42500000       0.02500000 </v>
   <v>      -0.32500000      -0.42500000       0.02500000 </v>
   <v>      -0.37500000      -0.37500000       0.02500000 </v>
   <v>      -0.32500000      -0.37500000       0.02500000 </v>
   <v>       0.07500000       0.07500000       0.07500000 </v>
   <v>       0.12500000       0.07500000       0.07500000 </v>
   <v>       0.17500000       0.07500000       0.07500000 </v>
   <v>       0.22500000       0.07500000       0.07500000 </v>
   <v>       0.27500000       0.07500000       0.07500000 </v>
   <v>       0.32500000       0.07500000       0.07500000 </v>
   <v>       0.37500000       0.07500000       0.07500000 </v>
   <v>       0.42500000       0.07500000       0.07500000 </v>
   <v>      -0.07500000       0.07500000       0.07500000 </v>
   <v>       0.12500000       0.12500000       0.07500000 </v>
   <v>       0.17500000       0.12500000       0.07500000 </v>
   <v>       0.22500000       0.12500000       0.07500000 </v>
   <v>       0.27500000       0.12500000       0.07500000 </v>
   <v>       0.32500000       0.12500000       0.07500000 </v>
   <v>       0.37500000       0.12500000       0.07500000 </v>
   <v>      -0.12500000       0.12500000       0.07500000 </v>
   <v>       0.17500000       0.17500000       0.07500000 </v>
   <v>       0.22500000       0.17500000       0.07500000 </v>
   <v>       0.27500000       0.17500000       0.07500000 </v>
   <v>       0.32500000       0.17500000       0.07500000 </v>
   <v>       0.37500000       0.17500000       0.07500000 </v>
   <v>      -0.17500000       0.17500000       0.07500000 </v>
   <v>      -0.12500000       0.17500000       0.07500000 </v>
   <v>       0.22500000       0.22500000       0.07500000 </v>
   <v>       0.27500000       0.22500000       0.07500000 </v>
   <v>       0.32500000       0.22500000       0.07500000 </v>
   <v>      -0.22500000       0.22500000       0.07500000 </v>
   <v>      -0.17500000       0.22500000       0.07500000 </v>
   <v>       0.27500000       0.27500000       0.07500000 </v>
   <v>       0.32500000       0.27500000       0.07500000 </v>
   <v>      -0.27500000       0.27500000       0.07500000 </v>
   <v>      -0.22500000       0.27500000       0.07500000 </v>
   <v>      -0.17500000       0.27500000       0.07500000 </v>
   <v>      -0.32500000       0.32500000       0.07500000 </v>
   <v>      -0.27500000       0.32500000       0.07500000 </v>
   <v>      -0.22500000       0.32500000       0.07500000 </v>
   <v>      -0.37500000       0.37500000       0.07500000 </v>
   <v>      -0.32500000       0.37500000       0.07500000 </v>
   <v>      -0.27500000       0.37500000       0.07500000 </v>
   <v>      -0.22500000       0.37500000       0.07500000 </v>
   <v>      -0.42500000       0.42500000       0.07500000 </v>
   <v>      -0.37500000       0.42500000       0.07500000 </v>
   <v>      -0.32500000       0.42500000       0.07500000 </v>
   <v>      -0.27500000       0.42500000       0.07500000 </v>
   <v>      -0.47500000       0.47500000       0.07500000 </v>
   <v>      -0.42500000       0.47500000       0.07500000 </v>
   <v>      -0.37500000       0.47500000       0.07500000 </v>
   <v>      -0.32500000       0.47500000       0.07500000 </v>
   <v>      -0.27500000       0.47500000       0.07500000 </v>
   <v>      -0.47500000      -0.47500000       0.07500000 </v>
   <v>      -0.42500000      -0.47500000       0.07500000 </v>
   <v>      -0.37500000      -0.47500000       0.07500000 </v>
   <v>      -0.32500000      -0.47500000       0.07500000 </v>
   <v>      -0.42500000      -0.42500000       0.07500000 </v>
   <v>      -0.37500000      -0.42500000       0.07500000 </v>
   <v>      -0.32500000      -0.42500000       0.07500000 </v>
   <v>      -0.37500000      -0.37500000       0.07500000 </v>
   <v>       0.12500000       0.12500000       0.12500000 </v>
   <v>       0.17500000       0.12500000       0.12500000 </v>
   <v>       0.22500000       0.12500000       0.12500000 </v>
   <v>       0.27500000       0.12500000       0.12500000 </v>
   <v>       0.32500000       0.12500000       0.12500000 </v>
   <v>       0.37500000       0.12500000       0.12500000 </v>
   <v>      -0.12500000       0.12500000       0.12500000 </v>
   <v>       0.17500000       0.17500000       0.12500000 </v>
   <v>       0.22500000       0.17500000       0.12500000 </v>
   <v>       0.27500000       0.17500000       0.12500000 </v>
   <v>       0.32500000       0.17500000       0.12500000 </v>
   <v>      -0.17500000       0.17500000       0.12500000 </v>
   <v>       0.22500000       0.22500000       0.12500000 </v>
   <v>       0.27500000       0.22500000       0.12500000 </v>
   <v>       0.32500000       0.22500000       0.12500000 </v>
   <v>      -0.22500000       0.22500000       0.12500000 </v>
   <v>      -0.17500000       0.22500000       0.12500000 </v>
   <v>       0.27500000       0.27500000       0.12500000 </v>
   <v>      -0.27500000       0.27500000       0.12500000 </v>
   <v>      -0.22500000       0.27500000       0.12500000 </v>
   <v>      -0.32500000       0.32500000       0.12500000 </v>
   <v>      -0.27500000       0.32500000       0.12500000 </v>
   <v>      -0.22500000       0.32500000       0.12500000 </v>
   <v>      -0.37500000       0.37500000       0.12500000 </v>
   <v>      -0.32500000       0.37500000       0.12500000 </v>
   <v>      -0.27500000       0.37500000       0.12500000 </v>
   <v>      -0.42500000       0.42500000       0.12500000 </v>
   <v>      -0.37500000       0.42500000       0.12500000 </v>
   <v>      -0.32500000       0.42500000       0.12500000 </v>
   <v>      -0.27500000       0.42500000       0.12500000 </v>
   <v>      -0.47500000       0.47500000       0.12500000 </v>
   <v>      -0.42500000       0.47500000       0.12500000 </v>
   <v>      -0.37500000       0.47500000       0.12500000 </v>
   <v>      -0.32500000       0.47500000       0.12500000 </v>
   <v>      -0.47500000      -0.47500000       0.12500000 </v>
   <v>      -0.42500000      -0.47500000       0.12500000 </v>
   <v>      -0.37500000      -0.47500000       0.12500000 </v>
   <v>      -0.32500000      -0.47500000       0.12500000 </v>
   <v>      -0.42500000      -0.42500000       0.12500000 </v>
   <v>      -0.37500000      -0.42500000       0.12500000 </v>
   <v>      -0.37500000      -0.37500000       0.12500000 </v>
   <v>       0.17500000       0.17500000       0.17500000 </v>
   <v>       0.22500000       0.17500000       0.17500000 </v>
   <v>       0.27500000       0.17500000       0.17500000 </v>
   <v>       0.32500000       0.17500000       0.17500000 </v>
   <v>      -0.17500000       0.17500000       0.17500000 </v>
   <v>       0.22500000       0.22500000       0.17500000 </v>
   <v>       0.27500000       0.22500000       0.17500000 </v>
   <v>      -0.22500000       0.22500000       0.17500000 </v>
   <v>       0.27500000       0.27500000       0.17500000 </v>
   <v>      -0.27500000       0.27500000       0.17500000 </v>
   <v>      -0.22500000       0.27500000       0.17500000 </v>
   <v>      -0.32500000       0.32500000       0.17500000 </v>
   <v>      -0.27500000       0.32500000       0.17500000 </v>
   <v>      -0.37500000       0.37500000       0.17500000 </v>
   <v>      -0.32500000       0.37500000       0.17500000 </v>
   <v>      -0.27500000       0.37500000       0.17500000 </v>
   <v>      -0.42500000       0.42500000       0.17500000 </v>
   <v>      -0.37500000       0.42500000       0.17500000 </v>
   <v>      -0.32500000       0.42500000       0.17500000 </v>
   <v>      -0.47500000       0.47500000       0.17500000 </v>
   <v>      -0.42500000       0.47500000       0.17500000 </v>
   <v>      -0.37500000       0.47500000       0.17500000 </v>
   <v>      -0.32500000       0.47500000       0.17500000 </v>
   <v>      -0.47500000      -0.47500000       0.17500000 </v>
   <v>      -0.42500000      -0.47500000       0.17500000 </v>
   <v>      -0.37500000      -0.47500000       0.17500000 </v>
   <v>      -0.42500000      -0.42500000       0.17500000 </v>
   <v>      -0.37500000      -0.42500000       0.17500000 </v>
   <v>       0.22500000       0.22500000       0.22500000 </v>
   <v>       0.27500000       0.22500000       0.22500000 </v>
   <v>      -0.22500000       0.22500000       0.22500000 </v>
   <v>      -0.27500000       0.27500000       0.22500000 </v>
   <v>      -0.32500000       0.32500000       0.22500000 </v>
   <v>      -0.27500000       0.32500000       0.22500000 </v>
   <v>      -0.37500000       0.37500000       0.22500000 </v>
   <v>      -0.32500000       0.37500000       0.22500000 </v>
   <v>      -0.42500000       0.42500000       0.22500000 </v>
   <v>      -0.37500000       0.42500000       0.22500000 </v>
   <v>      -0.32500000       0.42500000       0.22500000 </v>
   <v>      -0.47500000       0.47500000       0.22500000 </v>
   <v>      -0.42500000       0.47500000       0.22500000 </v>
   <v>      -0.37500000       0.47500000       0.22500000 </v>
   <v>      -0.47500000      -0.47500000       0.22500000 </v>
   <v>      -0.42500000      -0.47500000       0.22500000 </v>
   <v>      -0.37500000      -0.47500000       0.22500000 </v>
   <v>      -0.42500000      -0.42500000       0.22500000 </v>
   <v>      -0.27500000       0.27500000       0.27500000 </v>
   <v>      -0.32500000       0.32500000       0.27500000 </v>
   <v>      -0.37500000       0.37500000       0.27500000 </v>
   <v>      -0.32500000       0.37500000       0.27500000 </v>
   <v>      -0.42500000       0.42500000       0.27500000 </v>
   <v>      -0.37500000       0.42500000       0.27500000 </v>
   <v>      -0.47500000       0.47500000       0.27500000 </v>
   <v>      -0.42500000       0.47500000       0.27500000 </v>
   <v>      -0.37500000       0.47500000       0.27500000 </v>
   <v>      -0.47500000      -0.47500000       0.27500000 </v>
   <v>      -0.42500000      -0.47500000       0.27500000 </v>
   <v>      -0.42500000      -0.42500000       0.27500000 </v>
   <v>      -0.32500000       0.32500000       0.32500000 </v>
   <v>      -0.37500000       0.37500000       0.32500000 </v>
   <v>      -0.42500000       0.42500000       0.32500000 </v>
   <v>      -0.37500000       0.42500000       0.32500000 </v>
   <v>      -0.47500000       0.47500000       0.32500000 </v>
   <v>      -0.42500000       0.47500000       0.32500000 </v>
   <v>      -0.47500000      -0.47500000       0.32500000 </v>
   <v>      -0.42500000      -0.47500000       0.32500000 </v>
   <v>      -0.37500000       0.37500000       0.37500000 </v>
   <v>      -0.42500000       0.42500000       0.37500000 </v>
   <v>      -0.47500000       0.47500000       0.37500000 </v>
   <v>      -0.42500000       0.47500000       0.37500000 </v>
   <v>      -0.47500000      -0.47500000       0.37500000 </v>
   <v>      -0.42500000       0.42500000       0.42500000 </v>
   <v>      -0.47500000       0.47500000       0.42500000 </v>
   <v>      -0.47500000      -0.47500000       0.42500000 </v>
   <v>      -0.47500000       0.47500000       0.47500000 </v>
  </varray>
  <varray name="weights" >
   <v>       0.00100000 </v>
   <v>       0.00300000 </v>
   <v>       0.00300000 </v>
   <v>       0.00300000 </v>
   <v>       0.00300000 </v>
   <v>       0.00300000 </v>
   <v>       0.00300000 </v>
   <v>       0.00300000 </v>
   <v>       0.00300000 </v>
   <v>       0.00150000 </v>
   <v>       0.00075000 </v>
   <v>       0.00300000 </v>
   <v>       0.00600000 </v>
   <v>       0.00600000 </v>
   <v>       0.00600000 </v>
   <v>       0.00600000 </v>
   <v>       0.00600000 </v>
   <v>       0.00600000 </v>
   <v>       0.00600000 </v>
   <v>       0.00300000 </v>
   <v>       0.00300000 </v>
   <v>       0.00600000 </v>
   <v>       0.00600000 </v>
   <v>       0.00600000 </v>
   <v>       0.00600000 </v>
   <v>       0.00600000 </v>
   <v>       0.00300000 </v>
   <v>       0.00300000 </v>
   <v>       0.00300000 </v>
   <v>       0.00300000 </v>
   <v>       0.00600000 </v>
   <v>       0.00600000 </v>
   <v>       0.00600000 </v>
   <v>       0.00600000 </v>
   <v>       0.00300000 </v>
   <v>       0.00600000 </v>
   <v>       0.00300000 </v>
   <v>       0.00600000 </v>
   <v>       0.00600000 </v>
   <v>       0.00300000 </v>
   <v>       0.00300000 </v>
   <v>       0.00600000 </v>
   <v>       0.00300000 </v>
   <v>       0.00300000 </v>
   <v>       0.00600000 </v>
   <v>       0.00300000 </v>
   <v>       0.00600000 </v>
   <v>       0.00600000 </v>
   <v>       0.00100000 </v>
   <v>       0.00300000 </v>
   <v>       0.00600000 </v>
   <v>       0.00600000 </v>
   <v>       0.00300000 </v>
   <v>       0.00300000 </v>
   <v>       0.00600000 </v>
   <v>       0.00600000 </v>
   <v>       0.00600000 </v>
   <v>       0.00300000 </v>
   <v>       0.00600000 </v>
   <v>       0.00600000 </v>
   <v>       0.00600000 </v>
   <v>       0.00300000 </v>
   <v>       0.00300000 </v>
   <v>       0.00600000 </v>
   <v>       0.00600000 </v>
   <v>       0.00600000 </v>
   <v>       0.00600000 </v>
   <v>       0.00300000 </v>
   <v>       0.00600000 </v>
   <v>       0.00600000 </v>
   <v>       0.00600000 </v>
   <v>       0.00300000 </v>
   <v>       0.00300000 </v>
   <v>       0.00600000 </v>
   <v>       0.00600000 </v>
   <v>       0.00300000 </v>
   <v>       0.00300000 </v>
   <v>       0.00100000 </v>
   <v>       0.00300000 </v>
   <v>       0.00300000 </v>
   <v>       0.00300000 </v>
   <v>       0.00300000 </v>
   <v>       0.00300000 </v>
   <v>       0.00300000 </v>
   <v>       0.00150000 </v>
   <v>       0.00075000 </v>
   <v>       0.00300000 </v>
   <v>       0.00600000 </v>
   <v>       0.00600000 </v>
   <v>       0.00600000 </v>
   <v>       0.00600000 </v>
   <v>       0.00600000 </v>
   <v>       0.00300000 </v>
   <v>       0.00300000 </v>
   <v>       0.00600000 </v>
   <v>       0.00600000 </v>
   <v>       0.00600000 </v>
   <v>       0.00300000 </v>
   <v>       0.00300000 </v>
   <v>       0.00300000 </v>
   <v>       0.00300000 </v>
   <v>       0.00600000 </v>
   <v>       0.00600000 </v>
   <v>       0.00300000 </v>
   <v>       0.00600000 </v>
   <v>       0.00300000 </v>
   <v>       0.00300000 </v>
   <v>       0.00300000 </v>
   <v>       0.00600000 </v>
   <v>       0.00300000 </v>
   <v>       0.00300000 </v>
   <v>       0.00600000 </v>
   <v>       0.00600000 </v>
   <v>       0.00300000 </v>
   <v>       0.00600000 </v>
   <v>       0.00600000 </v>
   <v>       0.00300000 </v>
   <v>       0.00300000 </v>
   <v>       0.00600000 </v>
   <v>       0.00600000 </v>
   <v>       0.00600000 </v>
   <v>       0.00300000 </v>
   <v>       0.00600000 </v>
   <v>       0.00600000 </v>
   <v>       0.00600000 </v>
   <v>       0.00300000 </v>
   <v>       0.00300000 </v>
   <v>       0.00600000 </v>
   <v>       0.00600000 </v>
   <v>       0.00600000 </v>
   <v>       0.00300000 </v>
   <v>       0.00600000 </v>
   <v>       0.00300000 </v>
   <v>       0.00300000 </v>
   <v>       0.00100000 </v>
   <v>       0.00300000 </v>
   <v>       0.00300000 </v>
   <v>       0.00300000 </v>
   <v>       0.00300000 </v>
   <v>       0.00150000 </v>
   <v>       0.00075000 </v>
   <v>       0.00300000 </v>
   <v>       0.00600000 </v>
   <v>       0.00600000 </v>
   <v>       0.00600000 </v>
   <v>       0.00300000 </v>
   <v>       0.00300000 </v>
   <v>       0.00600000 </v>
   <v>       0.00300000 </v>
   <v>       0.00300000 </v>
   <v>       0.00300000 </v>
   <v>       0.00300000 </v>
   <v>       0.00300000 </v>
   <v>       0.00600000 </v>
   <v>       0.00300000 </v>
   <v>       0.00600000 </v>
   <v>       0.00300000 </v>
   <v>       0.00300000 </v>
   <v>       0.00600000 </v>
   <v>       0.00600000 </v>
   <v>       0.00300000 </v>
   <v>       0.00600000 </v>
   <v>       0.00600000 </v>
   <v>       0.00300000 </v>
   <v>       0.00300000 </v>
   <v>       0.00600000 </v>
   <v>       0.00600000 </v>
   <v>       0.00600000 </v>
   <v>       0.00300000 </v>
   <v>       0.00600000 </v>
   <v>       0.00600000 </v>
   <v>       0.00300000 </v>
   <v>       0.00300000 </v>
   <v>       0.00600000 </v>
   <v>       0.00100000 </v>
   <v>       0.00100000 </v>
   <v>       0.00300000 </v>
   <v>       0.00300000 </v>
   <v>       0.00150000 </v>
   <v>       0.00075000 </v>
   <v>       0.00300000 </v>
   <v>       0.00600000 </v>
   <v>       0.00300000 </v>
   <v>       0.00100000 </v>
   <v>       0.00300000 </v>
   <v>       0.00300000 </v>
   <v>       0.00300000 </v>
   <v>       0.00600000 </v>
   <v>       0.00300000 </v>
   <v>       0.00600000 </v>
   <v>       0.00300000 </v>
   <v>       0.00300000 </v>
   <v>       0.00600000 </v>
   <v>       0.00600000 </v>
   <v>       0.00300000 </v>
   <v>       0.00600000 </v>
   <v>       0.00600000 </v>
   <v>       0.00300000 </v>
   <v>       0.00300000 </v>
   <v>       0.00600000 </v>
   <v>       0.00600000 </v>
   <v>       0.00300000 </v>
   <v>       0.00300000 </v>
   <v>       0.00100000 </v>
   <v>       0.00150000 </v>
   <v>       0.00075000 </v>
   <v>       0.00300000 </v>
   <v>       0.00300000 </v>
   <v>       0.00300000 </v>
   <v>       0.00300000 </v>
   <v>       0.00600000 </v>
   <v>       0.00300000 </v>
   <v>       0.00600000 </v>
   <v>       0.00300000 </v>
   <v>       0.00300000 </v>
   <v>       0.00600000 </v>
   <v>       0.00600000 </v>
   <v>       0.00300000 </v>
   <v>       0.00600000 </v>
   <v>       0.00300000 </v>
   <v>       0.00300000 </v>
   <v>       0.00075000 </v>
   <v>       0.00300000 </v>
   <v>       0.00300000 </v>
   <v>       0.00300000 </v>
   <v>       0.00300000 </v>
   <v>       0.00600000 </v>
   <v>       0.00300000 </v>
   <v>       0.00600000 </v>
   <v>       0.00300000 </v>
   <v>       0.00300000 </v>
   <v>       0.00600000 </v>
   <v>       0.00100000 </v>
   <v>       0.00075000 </v>
   <v>       0.00300000 </v>
   <v>       0.00300000 </v>
   <v>       0.00300000 </v>
   <v>       0.00300000 </v>
   <v>       0.00600000 </v>
   <v>       0.00300000 </v>
   <v>       0.00300000 </v>
   <v>       0.00075000 </v>
   <v>       0.00300000 </v>
   <v>       0.00300000 </v>
   <v>       0.00300000 </v>
   <v>       0.00300000 </v>
   <v>       0.00075000 </v>
   <v>       0.00300000 </v>
   <v>       0.00100000 </v>
   <v>       0.00075000 </v>
  </varray>
 </kpoints>
 <parameters>
  <separator name="general" >
   <i type="string" name="SYSTEM">bcc Fe</i>
   <i type="logical" name="LCOMPAT"> F  </i>
  </separator>
  <separator name="electronic" >
   <i type="string" name="PREC">normal</i>
   <i name="ENMAX">    268.00000000</i>
   <i name="ENAUG">    511.36800000</i>
   <i name="EDIFF">      0.00010000</i>
   <i type="int" name="IALGO">    38</i>
   <i type="int" name="IWAVPR">    10</i>
   <i type="int" name="NBANDS">    12</i>
   <i name="NELECT">      8.00000000</i>
   <i type="int" name="TURBO">     0</i>
   <i type="int" name="IRESTART">     0</i>
   <i type="int" name="NREBOOT">     0</i>
   <i type="int" name="NMIN">     0</i>
   <i name="EREF">      0.00000000</i>
   <separator name="electronic smearing" >
    <i type="int" name="ISMEAR">     1</i>
    <i name="SIGMA">      0.20000000</i>
    <i name="KSPACING">      0.50000000</i>
    <i type="logical" name="KGAMMA"> T  </i>
   </separator>
   <separator name="electronic projectors" >
    <i type="logical" name="LREAL"> F  </i>
    <v name="ROPT">      0.00000000</v>
    <i type="int" name="LMAXPAW">  -100</i>
    <i type="int" name="LMAXMIX">     2</i>
    <i type="logical" name="NLSPLINE"> F  </i>
   </separator>
   <separator name="electronic startup" >
    <i type="int" name="ISTART">     0</i>
    <i type="int" name="ICHARG">    11</i>
    <i type="int" name="INIWAV">     1</i>
   </separator>
   <separator name="electronic spin" >
    <i type="int" name="ISPIN">     2</i>
    <i type="logical" name="LNONCOLLINEAR"> F  </i>
    <v name="MAGMOM">      3.00000000</v>
    <i name="NUPDOWN">     -1.00000000</i>
    <i type="logical" name="LSORBIT"> F  </i>
    <v name="SAXIS">      0.00000000      0.00000000      1.00000000</v>
    <i type="logical" name="LSPIRAL"> F  </i>
    <v name="QSPIRAL">      0.00000000      0.00000000      0.00000000</v>
    <i type="logical" name="LZEROZ"> F  </i>
   </separator>
   <separator name="electronic exchange-correlation" >
    <i type="logical" name="LASPH"> F  </i>
    <i type="logical" name="LMETAGGA"> F  </i>
   </separator>
   <separator name="electronic convergence" >
    <i type="int" name="NELM">    60</i>
    <i type="int" name="NELMDL">    -5</i>
    <i type="int" name="NELMIN">     2</i>
    <i name="ENINI">    268.00000000</i>
    <separator name="electronic convergence detail" >
     <i type="logical" name="LDIAG"> T  </i>
     <i type="logical" name="LSUBROT"> F  </i>
     <i name="WEIMIN">      0.00000000</i>
     <i name="EBREAK">      0.00000208</i>
     <i name="DEPER">      0.30000000</i>
     <i type="int" name="NRMM">     4</i>
     <i name="TIME">      0.40000000</i>
    </separator>
   </separator>
   <separator name="electronic mixer" >
    <i name="AMIX">      0.40000000</i>
    <i name="BMIX">      1.00000000</i>
    <i name="AMIN">      0.10000000</i>
    <i name="AMIX_MAG">      1.60000000</i>
    <i name="BMIX_MAG">      1.00000000</i>
    <separator name="electronic mixer details" >
     <i type="int" name="IMIX">     4</i>
     <i type="logical" name="MIXFIRST"> F  </i>
     <i type="int" name="MAXMIX">   -45</i>
     <i name="WC">    100.00000000</i>
     <i type="int" name="INIMIX">     1</i>
     <i type="int" name="MIXPRE">     1</i>
     <i type="int" name="MREMOVE">     5</i>
    </separator>
   </separator>
   <separator name="electronic dipolcorrection" >
    <i type="logical" name="LDIPOL"> F  </i>
    <i type="logical" name="LMONO"> F  </i>
    <i type="int" name="IDIPOL">     0</i>
    <i name="EPSILON">      1.00000000</i>
    <v name="DIPOL">   -100.00000000   -100.00000000   -100.00000000</v>
    <i name="EFIELD">      0.00000000</i>
   </separator>
  </separator>
  <separator name="grids" >
   <i type="int" name="NGX">    10</i>
   <i type="int" name="NGY">    10</i>
   <i type="int" name="NGZ">    10</i>
   <i type="int" name="NGXF">    20</i>
   <i type="int" name="NGYF">    20</i>
   <i type="int" name="NGZF">    20</i>
   <i type="logical" name="ADDGRID"> F  </i>
  </separator>
  <separator name="ionic" >
   <i type="int" name="NSW">     0</i>
   <i type="int" name="IBRION">    -1</i>
   <i type="int" name="MDALGO">     0</i>
   <i type="int" name="ISIF">     2</i>
   <i name="PSTRESS">      0.00000000</i>
   <i name="EDIFFG">      0.00100000</i>
   <i type="int" name="NFREE">     0</i>
   <i name="POTIM">      0.50000000</i>
   <i name="SMASS">     -3.00000000</i>
   <i name="SCALEE">      1.00000000</i>
  </separator>
  <separator name="ionic md" >
   <i name="TEBEG">      0.00010000</i>
   <i name="TEEND">      0.00010000</i>
   <i type="int" name="NBLOCK">     1</i>
   <i type="int" name="KBLOCK">     1</i>
   <i type="int" name="NPACO">   256</i>
   <i name="APACO">     16.00000000</i>
  </separator>
  <separator name="symmetry" >
   <i type="int" name="ISYM">     2</i>
   <i name="SYMPREC">      0.00001000</i>
  </separator>
  <separator name="dos" >
   <i type="int" name="LORBIT">     0</i>
   <v name="RWIGS">      1.30200000</v>
   <i type="int" name="NEDOS">   301</i>
   <i name="EMIN">     10.00000000</i>
   <i name="EMAX">    -10.00000000</i>
   <i name="EFERMI">      0.00000000</i>
  </separator>
  <separator name="writing" >
   <i type="int" name="NWRITE">     2</i>
   <i type="logical" name="LWAVE"> T  </i>
   <i type="logical" name="LDOWNSAMPLE"> F  </i>
   <i type="logical" name="LCHARG"> F  </i>
   <i type="logical" name="LPARD"> F  </i>
   <i type="logical" name="LVTOT"> F  </i>
   <i type="logical" name="LVHAR"> F  </i>
   <i type="logical" name="LELF"> F  </i>
   <i type="logical" name="LOPTICS"> F  </i>
   <v name="STM">      0.00000000      0.00000000      0.00000000      0.00000000      0.00000000      0.00000000      0.00000000</v>
  </separator>
  <separator name="performance" >
   <i type="int" name="NPAR">     4</i>
   <i type="int" name="NSIM">     4</i>
   <i type="int" name="NBLK">    -1</i>
   <i type="logical" name="LPLANE"> T  </i>
   <i type="logical" name="LSCALAPACK"> T  </i>
   <i type="logical" name="LSCAAWARE"> F  </i>
   <i type="logical" name="LSCALU"> F  </i>
   <i type="logical" name="LASYNC"> F  </i>
   <i type="logical" name="LORBITALREAL"> F  </i>
  </separator>
  <separator name="miscellaneous" >
   <i type="int" name="IDIOT">     3</i>
   <i type="int" name="ISPECIAL">     0</i>
   <i type="logical" name="LMUSIC"> F  </i>
   <v name="POMASS">     55.84700000</v>
   <v name="DARWINR">      0.00000000</v>
   <v name="DARWINV">      1.00000000</v>
   <i type="logical" name="LCORR"> T  </i>
  </separator>
  <i type="logical" name="GGA_COMPAT"> T  </i>
  <i type="logical" name="LBERRY"> F  </i>
  <i type="int" name="ICORELEVEL">     0</i>
  <i type="logical" name="LDAU"> F  </i>
  <i type="int" name="I_CONSTRAINED_M">     0</i>
  <separator name="electronic exchange-correlation" >
   <i type="string" name="GGA">--</i>
   <i type="int" name="VOSKOWN">     0</i>
   <i type="logical" name="LHFCALC"> F  </i>
   <i type="string" name="PRECFOCK"></i>
   <i type="logical" name="LSYMGRAD"> F  </i>
   <i type="logical" name="LHFONE"> F  </i>
   <i type="logical" name="LRHFCALC"> F  </i>
   <i type="logical" name="LTHOMAS"> F  </i>
   <i type="logical" name="LMODELHF"> F  </i>
   <i name="ENCUT4O">     -1.00000000</i>
   <i type="int" name="EXXOEP">     0</i>
   <i type="int" name="FOURORBIT">     0</i>
   <i name="AEXX">      0.00000000</i>
   <i name="HFALPHA">      0.00000000</i>
   <i name="MCALPHA">      0.00000000</i>
   <i name="ALDAX">      1.00000000</i>
   <i name="AGGAX">      1.00000000</i>
   <i name="ALDAC">      1.00000000</i>
   <i name="AGGAC">      1.00000000</i>
   <i type="int" name="NKREDX">     1</i>
   <i type="int" name="NKREDY">     1</i>
   <i type="int" name="NKREDZ">     1</i>
   <i type="logical" name="SHIFTRED"> F  </i>
   <i type="logical" name="ODDONLY"> F  </i>
   <i type="logical" name="EVENONLY"> F  </i>
   <i type="int" name="LMAXFOCK">     0</i>
   <i type="int" name="NMAXFOCKAE">     0</i>
   <i type="logical" name="LFOCKAEDFT"> F  </i>
   <i name="HFSCREEN">      0.00000000</i>
   <i name="HFSCREENC">      0.00000000</i>
   <i type="int" name="NBANDSGWLOW">     0</i>
  </separator>
  <separator name="vdW DFT" >
   <i type="logical" name="LUSE_VDW"> F  </i>
   <i name="Zab_VDW">     -0.84910000</i>
   <i name="PARAM1">      0.12340000</i>
   <i name="PARAM2">      1.00000000</i>
   <i name="PARAM3">      0.00000000</i>
  </separator>
  <separator name="model GW" >
   <i type="int" name="MODEL_GW">     0</i>
   <i name="MODEL_EPS0">      6.87189120</i>
   <i name="MODEL_ALPHA">      1.00000000</i>
  </separator>
  <separator name="linear response parameters" >
   <i type="logical" name="LEPSILON"> F  </i>
   <i type="logical" name="LRPA"> F  </i>
   <i type="logical" name="LNABLA"> F  </i>
   <i type="logical" name="LVEL"> F  </i>
   <i type="int" name="KINTER">     0</i>
   <i name="CSHIFT">      0.10000000</i>
   <i name="OMEGAMAX">     -1.00000000</i>
   <i name="DEG_THRESHOLD">      0.00200000</i>
   <i name="RTIME">     -0.10000000</i>
   <i name="WPLASMAI">      0.00000000</i>
   <v name="DFIELD">      0.00000000      0.00000000      0.00000000</v>
   <v name="WPLASMA">      0.00000000      0.00000000      0.00000000      0.00000000      0.00000000      0.00000000      0.00000000      0.00000000      0.00000000</v>
  </separator>
  <separator name="orbital magnetization" >
   <i type="logical" name="NUCIND"> F  </i>
   <v name="MAGPOS">      0.00000000      0.00000000      0.00000000</v>
   <i type="logical" name="LNICSALL"> T  </i>
   <i type="logical" name="ORBITALMAG"> F  </i>
   <i type="logical" name="LMAGBLOCH"> F  </i>
   <i type="logical" name="LCHIMAG"> F  </i>
   <i type="logical" name="LGAUGE"> T  </i>
   <i type="int" name="MAGATOM">     0</i>
   <v name="MAGDIPOL">      0.00000000      0.00000000      0.00000000</v>
   <v name="AVECCONST">      0.00000000      0.00000000      0.00000000</v>
  </separator>
  <separator name="response functions" >
   <i type="logical" name="LADDER"> F  </i>
   <i type="logical" name="LRPAFORCE"> F  </i>
   <i type="logical" name="LFXC"> F  </i>
   <i type="logical" name="LHARTREE"> T  </i>
   <i type="int" name="IBSE">     0</i>
   <v type="int" name="KPOINT">    -1     0     0     0</v>
   <i type="logical" name="LTCTE"> F  </i>
   <i type="logical" name="LTETE"> F  </i>
   <i type="logical" name="LTRIPLET"> F  </i>
   <i type="logical" name="LFXCEPS"> F  </i>
   <i type="logical" name="LFXHEG"> F  </i>
   <i type="int" name="NATURALO">     2</i>
   <i type="logical" name="L2ORDER"> F  </i>
   <i type="logical" name="LMP2LT"> F  </i>
   <i type="logical" name="LUSEW"> F  </i>
   <i name="ENCUTGW">     -2.00000000</i>
   <i name="ENCUTGWSOFT">     -2.00000000</i>
   <i name="ENCUTLF">     -1.00000000</i>
   <i type="int" name="LMAXMP2">    -1</i>
   <i name="SCISSOR">      0.00000000</i>
   <i type="int" name="NOMEGA">     0</i>
   <i type="int" name="NOMEGAR">     0</i>
   <i type="int" name="NBANDSGW">    -1</i>
   <i type="int" name="NBANDSO">    -1</i>
   <i type="int" name="NBANDSV">    -1</i>
   <i type="int" name="NELM">     1</i>
   <i type="int" name="NELMHF">     1</i>
   <i type="int" name="DIM">     3</i>
   <i type="int" name="ANTIRES">     0</i>
   <i name="OMEGAMAX">    -30.00000000</i>
   <i name="OMEGAMIN">    -30.00000000</i>
   <i name="OMEGATL">   -200.00000000</i>
   <i type="int" name="OMEGAGRID">   140</i>
   <i name="CSHIFT">     -0.10000000</i>
   <i type="logical" name="SELFENERGY"> F  </i>
   <i type="logical" name="LSPECTRAL"> F  </i>
   <i type="logical" name="LSPECTRALGW"> F  </i>
   <i type="logical" name="LSINGLES"> F  </i>
   <i type="logical" name="LFERMIGW"> F  </i>
   <i type="logical" name="ODDONLYGW"> F  </i>
   <i type="logical" name="EVENONLYGW"> F  </i>
   <i type="int" name="NKREDLFX">     1</i>
   <i type="int" name="NKREDLFY">     1</i>
   <i type="int" name="NKREDLFZ">     1</i>
   <i type="int" name="MAXMEM">  2800</i>
   <i type="int" name="TELESCOPE">     0</i>
   <i type="int" name="TAUPAR">     1</i>
   <i type="int" name="OMEGAPAR">    -1</i>
   <i name="LAMBDA">      1.00000000</i>
  </separator>
  <separator name="External order field" >
   <i name="OFIELD_KAPPA">      0.00000000</i>
   <v name="OFIELD_K">      0.00000000      0.00000000      0.00000000</v>
   <i name="OFIELD_Q6_NEAR">      0.00000000</i>
   <i name="OFIELD_Q6_FAR">      0.00000000</i>
   <i name="OFIELD_A">      0.00000000</i>
  </separator>
 </parameters>
 <atominfo>
  <atoms>       1 </atoms>
  <types>       1 </types>
  <array name="atoms" >
   <dimension dim="1">ion</dimension>
   <field type="string">element</field>
   <field type="int">atomtype</field>
   <set>
    <rc><c>Fe</c><c>   1</c></rc>
   </set>
  </array>
  <array name="atomtypes" >
   <dimension dim="1">type</dimension>
   <field type="int">atomspertype</field>
   <field type="string">element</field>
   <field>mass</field>
   <field>valence</field>
   <field type="string">pseudopotential</field>
   <set>
    <rc><c>   1</c><c>Fe</c><c>     55.84700000</c><c>      8.00000000</c><c>  PAW_PBE Fe 06Sep2000                  </c></rc>
   </set>
  </array>
 </atominfo>
 <structure name="initialpos" >
  <crystal>
   <varray name="basis" >
    <v>      -1.42000000       1.42000000       1.42000000 </v>
    <v>       1.42000000      -1.42000000       1.42000000 </v>
    <v>       1.42000000       1.42000000      -1.42000000 </v>
   </varray>
   <i name="volume">     11.45315200 </i>
   <varray name="rec_basis" >
    <v>       0.00000000       0.35211268       0.35211268 </v>
    <v>       0.35211268       0.00000000       0.35211268 </v>
    <v>       0.35211268       0.35211268       0.00000000 </v>
   </varray>
  </crystal>
  <varray name="positions" >
   <v>       0.00000000       0.00000000       0.00000000 </v>
  </varray>
 </structure>
 <calculation>
  <scstep>
   <time name="dav">    0.63    0.65</time>
   <time name="total">    0.64    0.71</time>
   <energy>
    <i name="alphaZ">     60.34476448 </i>
    <i name="ewald">   -590.46971399 </i>
    <i name="hartreedc">    -95.91358798 </i>
    <i name="XCdc">      4.41713341 </i>
    <i name="pawpsdc">    718.79586096 </i>
    <i name="pawaedc">   -727.86152773 </i>
    <i name="eentropy">     -0.00076666 </i>
    <i name="bandstr">     47.99469983 </i>
    <i name="atom">    594.28084496 </i>
    <i name="e_fr_energy">     11.58770728 </i>
    <i name="e_wo_entrp">     11.58847394 </i>
    <i name="e_0_energy">     11.58796283 </i>
   </energy>
  </scstep>
  <scstep>
   <time name="dav">    0.59    0.60</time>
   <time name="total">    0.59    0.60</time>
   <energy>
    <i name="e_fr_energy">     -7.86800400 </i>
    <i name="e_wo_entrp">     -7.86685291 </i>
    <i name="e_0_energy">     -7.86762031 </i>
   </energy>
  </scstep>
  <scstep>
   <time name="dav">    0.62    0.63</time>
   <time name="total">    0.62    0.64</time>
   <energy>
    <i name="e_fr_energy">     -8.21931916 </i>
    <i name="e_wo_entrp">     -8.21798610 </i>
    <i name="e_0_energy">     -8.21887481 </i>
   </energy>
  </scstep>
  <scstep>
   <time name="dav">    0.60    0.62</time>
   <time name="total">    0.61    0.62</time>
   <energy>
    <i name="e_fr_energy">     -8.22038223 </i>
    <i name="e_wo_entrp">     -8.21904882 </i>
    <i name="e_0_energy">     -8.21993776 </i>
   </energy>
  </scstep>
  <scstep>
   <time name="dav">    0.55    0.56</time>
   <time name="total">    0.55    0.56</time>
   <energy>
    <i name="e_fr_energy">     -8.22038773 </i>
    <i name="e_wo_entrp">     -8.21905432 </i>
    <i name="e_0_energy">     -8.21994326 </i>
   </energy>
  </scstep>
  <scstep>
   <time name="dav">    0.50    0.51</time>
   <time name="total">    0.50    0.52</time>
   <energy>
    <i name="alphaZ">     60.34476448 </i>
    <i name="ewald">   -590.46971399 </i>
    <i name="hartreedc">    -95.91358798 </i>
    <i name="XCdc">      4.41713341 </i>
    <i name="pawpsdc">    718.79586096 </i>
    <i name="pawaedc">   -727.86152773 </i>
    <i name="eentropy">     -0.00133341 </i>
    <i name="bandstr">     28.18717137 </i>
    <i name="atom">    594.28084496 </i>
    <i name="e_fr_energy">     -8.22038793 </i>
    <i name="e_wo_entrp">     -8.21905452 </i>
    <i name="e_0_energy">     -8.21994346 </i>
   </energy>
  </scstep>
  <structure>
   <crystal>
    <varray name="basis" >
     <v>      -1.42000000       1.42000000       1.42000000 </v>
     <v>       1.42000000      -1.42000000       1.42000000 </v>
     <v>       1.42000000       1.42000000      -1.42000000 </v>
    </varray>
    <i name="volume">     11.45315200 </i>
    <varray name="rec_basis" >
     <v>       0.00000000       0.35211268       0.35211268 </v>
     <v>       0.35211268       0.00000000       0.35211268 </v>
     <v>       0.35211268       0.35211268       0.00000000 </v>
    </varray>
   </crystal>
   <varray name="positions" >
    <v>       0.00000000       0.00000000       0.00000000 </v>
   </varray>
  </structure>
  <varray name="forces" >
   <v>      -0.00000000       0.00000000       0.00000000 </v>
  </varray>
  <varray name="stress" >
   <v>    -116.46893909       0.00000000      -0.00000000 </v>
   <v>      -0.00000000    -116.46893909      -0.00000000 </v>
   <v>      -0.00000000      -0.00000000    -116.46893909 </v>
  </varray>
  <energy>
   <i name="e_fr_energy">     -8.22038793 </i>
   <i name="e_wo_entrp">     -8.21994346 </i>
   <i name="e_0_energy">     -0.00133341 </i>
  </energy>
  <time name="totalsc">    3.77    3.92</time>
  <eigenvalues>
   <array>
    <dimension dim="1">band</dimension>
    <dimension dim="2">kpoint</dimension>
    <dimension dim="3">spin</dimension>
    <field>eigene</field>
    <field>occ</field>
    <set>
     <set comment="spin 1">
      <set comment="kpoint 1">
       <r>   -2.5026    1.0000 </r>
       <r>    3.3388    1.0000 </r>
       <r>    3.3388    1.0000 </r>
       <r>    3.4653    1.0000 </r>
       <r>    4.7381    1.0000 </r>
       <r>    4.7381    1.0000 </r>
       <r>   29.9311    0.0000 </r>
       <r>   29.9311    0.0000 </r>
       <r>   30.8128    0.0000 </r>
       <r>   35.4089    0.0000 </r>
       <r>   35.7093    0.0000 </r>
       <r>   35.7094    0.0000 </r>
      </set>
      <set comment="kpoint 2">
       <r>   -2.1992    1.0000 </r>
       <r>    3.2552    1.0000 </r>
       <r>    3.3156    1.0000 </r>
       <r>    3.6376    1.0000 </r>
       <r>    4.6657    1.0000 </r>
       <r>    4.7503    1.0000 </r>
       <r>   28.2735    0.0000 </r>
       <r>   29.2260    0.0000 </r>
       <r>   30.9017    0.0000 </r>
       <r>   33.5424    0.0000 </r>
       <r>   35.1471    0.0000 </r>
       <r>   35.9596    0.0000 </r>
      </set>
      <set comment="kpoint 3">
       <r>   -1.7119    1.0000 </r>
       <r>    3.1305    1.0000 </r>
       <r>    3.2792    1.0000 </r>
       <r>    3.9037    1.0000 </r>
       <r>    4.5902    1.0000 </r>
       <r>    4.7714    1.0000 </r>
       <r>   26.1634    0.0000 </r>
       <r>   28.3403    0.0000 </r>
       <r>   30.7825    0.0000 </r>
       <r>   31.9023    0.0000 </r>
       <r>   35.1130    0.0000 </r>
       <r>   35.1386    0.0000 </r>
      </set>
      <set comment="kpoint 4">
       <r>   -1.0763    1.0000 </r>
       <r>    2.9755    1.0000 </r>
       <r>    3.2279    1.0000 </r>
       <r>    4.2470    1.0000 </r>
       <r>    4.5498    1.0000 </r>
       <r>    4.7980    1.0000 </r>
       <r>   23.8549    0.0000 </r>
       <r>   27.3537    0.0000 </r>
       <r>   30.4229    0.0000 </r>
       <r>   30.5175    0.0000 </r>
       <r>   34.3743    0.0000 </r>
       <r>   35.6899    0.0000 </r>
      </set>
      <set comment="kpoint 5">
       <r>   -0.3654    1.0000 </r>
       <r>    2.8088    1.0000 </r>
       <r>    3.2199    1.0000 </r>
       <r>    4.5543    1.0000 </r>
       <r>    4.6533    1.0000 </r>
       <r>    4.8243    1.0000 </r>
       <r>   21.4966    0.0000 </r>
       <r>   26.3660    0.0000 </r>
       <r>   29.0743    0.0000 </r>
       <r>   30.2256    0.0000 </r>
       <r>   33.8621    0.0000 </r>
       <r>   36.6602    0.0000 </r>
      </set>
      <set comment="kpoint 6">
       <r>    0.2809    1.0000 </r>
       <r>    2.6486    1.0000 </r>
       <r>    3.3965    1.0000 </r>
       <r>    4.6090    1.0000 </r>
       <r>    4.8591    1.0000 </r>
       <r>    5.0899    1.0001 </r>
       <r>   19.1955    0.0000 </r>
       <r>   25.4693    0.0000 </r>
       <r>   27.8769    0.0000 </r>
       <r>   29.9928    0.0000 </r>
       <r>   33.5704    0.0000 </r>
       <r>   37.9413    0.0000 </r>
      </set>
      <set comment="kpoint 7">
       <r>    0.6904    1.0000 </r>
       <r>    2.5061    1.0000 </r>
       <r>    3.8977    1.0000 </r>
       <r>    4.6860    1.0000 </r>
       <r>    4.8943    1.0000 </r>
       <r>    5.5326    0.9963 </r>
       <r>   17.0166    0.0000 </r>
       <r>   24.7184    0.0000 </r>
       <r>   26.8580    0.0000 </r>
       <r>   29.7968    0.0000 </r>
       <r>   33.4280    0.0000 </r>
       <r>   39.4645    0.0000 </r>
      </set>
      <set comment="kpoint 8">
       <r>    0.8474    1.0000 </r>
       <r>    2.3952    1.0000 </r>
       <r>    4.5642    1.0000 </r>
       <r>    4.8428    1.0000 </r>
       <r>    4.9223    1.0000 </r>
       <r>    5.9856   -0.0302 </r>
       <r>   15.0822    0.0000 </r>
       <r>   24.1531    0.0000 </r>
       <r>   26.0775    0.0000 </r>
       <r>   29.6579    0.0000 </r>
       <r>   33.3812    0.0000 </r>
       <r>   40.2451    0.0000 </r>
      </set>
      <set comment="kpoint 9">
       <r>    0.8791    1.0000 </r>
       <r>    2.3249    1.0000 </r>
       <r>    4.7374    1.0000 </r>
       <r>    4.9395    1.0000 </r>
       <r>    5.3338    1.0137 </r>
       <r>    6.4859   -0.0000 </r>
       <r>   13.6019    0.0000 </r>
       <r>   23.8044    0.0000 </r>
       <r>   25.5838    0.0000 </r>
       <r>   29.5726    0.0000 </r>
       <r>   33.3803    0.0000 </r>
       <r>   40.1810    0.0000 </r>
      </set>
      <set comment="kpoint 10">
       <r>    0.8815    1.0000 </r>
       <r>    2.3009    1.0000 </r>
       <r>    4.7622    1.0000 </r>
       <r>    4.9491    1.0000 </r>
       <r>    5.5301    0.9992 </r>
       <r>    6.7745   -0.0000 </r>
       <r>   13.0068    0.0000 </r>
       <r>   23.6864    0.0000 </r>
       <r>   25.4156    0.0000 </r>
       <r>   29.5455    0.0000 </r>
       <r>   33.4007    0.0000 </r>
       <r>   40.1506    0.0000 </r>
      </set>
      <set comment="kpoint 11">
       <r>   -2.6054    1.0000 </r>
       <r>    3.3631    1.0000 </r>
       <r>    3.3632    1.0000 </r>
       <r>    3.3775    1.0000 </r>
       <r>    4.7306    1.0000 </r>
       <r>    4.7631    1.0000 </r>
       <r>   30.3009    0.0000 </r>
       <r>   30.6278    0.0000 </r>
       <r>   30.6278    0.0000 </r>
       <r>   35.2125    0.0000 </r>
       <r>   36.2832    0.0000 </r>
       <r>   36.8959    0.0000 </r>
      </set>
      <set comment="kpoint 12">
       <r>   -1.8065    1.0000 </r>
       <r>    3.1772    1.0000 </r>
       <r>    3.2253    1.0000 </r>
       <r>    3.8840    1.0000 </r>
       <r>    4.6178    1.0000 </r>
       <r>    4.7524    1.0000 </r>
       <r>   26.9854    0.0000 </r>
       <r>   27.7412    0.0000 </r>
       <r>   31.2778    0.0000 </r>
       <r>   31.6011    0.0000 </r>
       <r>   35.3350    0.0000 </r>
       <r>   36.4446    0.0000 </r>
      </set>
      <set comment="kpoint 13">
       <r>   -1.2465    1.0000 </r>
       <r>    3.0423    1.0000 </r>
       <r>    3.1464    1.0000 </r>
       <r>    4.2170    1.0000 </r>
       <r>    4.5607    1.0000 </r>
       <r>    4.7877    1.0000 </r>
       <r>   25.0198    0.0000 </r>
       <r>   26.5701    0.0000 </r>
       <r>   29.9621    0.0000 </r>
       <r>   31.4111    0.0000 </r>
       <r>   35.4609    0.0000 </r>
       <r>   36.1778    0.0000 </r>
      </set>
      <set comment="kpoint 14">
       <r>   -0.5680    1.0000 </r>
       <r>    2.8791    1.0000 </r>
       <r>    3.0809    1.0000 </r>
       <r>    4.5376    1.0000 </r>
       <r>    4.6236    1.0000 </r>
       <r>    4.8278    1.0000 </r>
       <r>   22.7491    0.0000 </r>
       <r>   25.5704    0.0000 </r>
       <r>   28.5704    0.0000 </r>
       <r>   31.3115    0.0000 </r>
       <r>   35.5638    0.0000 </r>
       <r>   36.0944    0.0000 </r>
      </set>
      <set comment="kpoint 15">
       <r>    0.1282    1.0000 </r>
       <r>    2.7126    1.0000 </r>
       <r>    3.1051    1.0000 </r>
       <r>    4.5652    1.0000 </r>
       <r>    4.8616    1.0000 </r>
       <r>    5.0952    1.0001 </r>
       <r>   20.4295    0.0000 </r>
       <r>   24.6752    0.0000 </r>
       <r>   27.3746    0.0000 </r>
       <r>   31.0915    0.0000 </r>
       <r>   35.1660    0.0000 </r>
       <r>   36.9738    0.0000 </r>
      </set>
      <set comment="kpoint 16">
       <r>    0.6682    1.0000 </r>
       <r>    2.5632    1.0000 </r>
       <r>    3.3630    1.0000 </r>
       <r>    4.6294    1.0000 </r>
       <r>    4.9067    1.0000 </r>
       <r>    5.6109    0.8320 </r>
       <r>   18.1826    0.0000 </r>
       <r>   23.9131    0.0000 </r>
       <r>   26.3596    0.0000 </r>
       <r>   30.8819    0.0000 </r>
       <r>   34.8940    0.0000 </r>
       <r>   38.0643    0.0000 </r>
      </set>
      <set comment="kpoint 17">
       <r>    0.9286    1.0000 </r>
       <r>    2.4400    1.0000 </r>
       <r>    3.8905    1.0000 </r>
       <r>    4.7039    1.0000 </r>
       <r>    4.9579    1.0000 </r>
       <r>    6.1872   -0.0015 </r>
       <r>   16.1016    0.0000 </r>
       <r>   23.3047    0.0000 </r>
       <r>   25.5458    0.0000 </r>
       <r>   30.6985    0.0000 </r>
       <r>   34.7471    0.0000 </r>
       <r>   39.0529    0.0000 </r>
      </set>
      <set comment="kpoint 18">
       <r>    0.9953    1.0000 </r>
       <r>    2.3536    1.0000 </r>
       <r>    4.4136    1.0000 </r>
       <r>    4.7626    1.0000 </r>
       <r>    5.0521    1.0000 </r>
       <r>    6.8426   -0.0000 </r>
       <r>   14.3331    0.0000 </r>
       <r>   22.8803    0.0000 </r>
       <r>   24.9725    0.0000 </r>
       <r>   30.5800    0.0000 </r>
       <r>   34.6906    0.0000 </r>
       <r>   39.6044    0.0000 </r>
      </set>
      <set comment="kpoint 19">
       <r>    0.9986    1.0000 </r>
       <r>    2.3084    1.0000 </r>
       <r>    4.6618    1.0000 </r>
       <r>    4.7724    1.0000 </r>
       <r>    5.1897    1.0010 </r>
       <r>    7.4083   -0.0000 </r>
       <r>   13.1933    0.0000 </r>
       <r>   22.6618    0.0000 </r>
       <r>   24.6754    0.0000 </r>
       <r>   30.5135    0.0000 </r>
       <r>   34.6776    0.0000 </r>
       <r>   39.7750    0.0000 </r>
      </set>
      <set comment="kpoint 20">
       <r>   -2.4005    1.0000 </r>
       <r>    3.3165    1.0000 </r>
       <r>    3.3661    1.0000 </r>
       <r>    3.4909    1.0000 </r>
       <r>    4.6682    1.0000 </r>
       <r>    4.7835    1.0000 </r>
       <r>   29.1442    0.0000 </r>
       <r>   30.3134    0.0000 </r>
       <r>   30.4599    0.0000 </r>
       <r>   34.4358    0.0000 </r>
       <r>   35.4898    0.0000 </r>
       <r>   35.6463    0.0000 </r>
      </set>
      <set comment="kpoint 21">
       <r>   -0.6375    1.0000 </r>
       <r>    2.9434    1.0000 </r>
       <r>    2.9872    1.0000 </r>
       <r>    4.5241    1.0000 </r>
       <r>    4.6174    1.0000 </r>
       <r>    4.8364    1.0000 </r>
       <r>   23.6920    0.0000 </r>
       <r>   24.7038    0.0000 </r>
       <r>   28.4134    0.0000 </r>
       <r>   31.7951    0.0000 </r>
       <r>   35.5343    0.0000 </r>
       <r>   37.0577    0.0000 </r>
      </set>
      <set comment="kpoint 22">
       <r>    0.0495    1.0000 </r>
       <r>    2.7903    1.0000 </r>
       <r>    2.9055    1.0000 </r>
       <r>    4.5258    1.0000 </r>
       <r>    4.8743    1.0000 </r>
       <r>    5.1226    1.0002 </r>
       <r>   21.7143    0.0000 </r>
       <r>   23.4462    0.0000 </r>
       <r>   27.1739    0.0000 </r>
       <r>   31.9025    0.0000 </r>
       <r>   35.8422    0.0000 </r>
       <r>   37.3303    0.0000 </r>
      </set>
      <set comment="kpoint 23">
       <r>    0.6813    1.0000 </r>
       <r>    2.6282    1.0000 </r>
       <r>    2.9667    1.0000 </r>
       <r>    4.5674    1.0000 </r>
       <r>    4.9282    1.0000 </r>
       <r>    5.6875    0.5435 </r>
       <r>   19.4775    0.0000 </r>
       <r>   22.5651    0.0000 </r>
       <r>   26.1517    0.0000 </r>
       <r>   31.8306    0.0000 </r>
       <r>   36.2689    0.0000 </r>
       <r>   37.4589    0.0000 </r>
      </set>
      <set comment="kpoint 24">
       <r>    1.0722    1.0000 </r>
       <r>    2.4963    1.0000 </r>
       <r>    3.2656    1.0000 </r>
       <r>    4.6398    1.0000 </r>
       <r>    4.9779    1.0000 </r>
       <r>    6.3482   -0.0000 </r>
       <r>   17.3031    0.0000 </r>
       <r>   21.8739    0.0000 </r>
       <r>   25.3267    0.0000 </r>
       <r>   31.7102    0.0000 </r>
       <r>   36.5000    0.0000 </r>
       <r>   37.8816    0.0000 </r>
      </set>
      <set comment="kpoint 25">
       <r>    1.1978    1.0000 </r>
       <r>    2.3993    1.0000 </r>
       <r>    3.7145    1.0000 </r>
       <r>    4.7119    1.0000 </r>
       <r>    5.0407    1.0000 </r>
       <r>    7.1223   -0.0000 </r>
       <r>   15.3266    0.0000 </r>
       <r>   21.3564    0.0000 </r>
       <r>   24.7107    0.0000 </r>
       <r>   31.5853    0.0000 </r>
       <r>   36.5681    0.0000 </r>
       <r>   38.4140    0.0000 </r>
      </set>
      <set comment="kpoint 26">
       <r>    1.2069    1.0000 </r>
       <r>    2.3406    1.0000 </r>
       <r>    4.0576    1.0000 </r>
       <r>    4.7567    1.0000 </r>
       <r>    5.1284    1.0002 </r>
       <r>    7.9318   -0.0000 </r>
       <r>   13.7585    0.0000 </r>
       <r>   21.0349    0.0000 </r>
       <r>   24.3291    0.0000 </r>
       <r>   31.5121    0.0000 </r>
       <r>   36.6145    0.0000 </r>
       <r>   38.7727    0.0000 </r>
      </set>
      <set comment="kpoint 27">
       <r>    1.2005    1.0000 </r>
       <r>    2.3199    1.0000 </r>
       <r>    4.1730    1.0000 </r>
       <r>    4.7669    1.0000 </r>
       <r>    5.1747    1.0007 </r>
       <r>    8.3490   -0.0000 </r>
       <r>   13.0825    0.0000 </r>
       <r>   20.9237    0.0000 </r>
       <r>   24.1989    0.0000 </r>
       <r>   31.4784    0.0000 </r>
       <r>   36.6275    0.0000 </r>
       <r>   38.8866    0.0000 </r>
      </set>
      <set comment="kpoint 28">
       <r>   -2.0013    1.0000 </r>
       <r>    3.2152    1.0000 </r>
       <r>    3.3468    1.0000 </r>
       <r>    3.6997    1.0000 </r>
       <r>    4.5806    1.0000 </r>
       <r>    4.7977    1.0000 </r>
       <r>   27.2624    0.0000 </r>
       <r>   29.5422    0.0000 </r>
       <r>   30.1685    0.0000 </r>
       <r>   33.8344    0.0000 </r>
       <r>   34.2562    0.0000 </r>
       <r>   34.5989    0.0000 </r>
      </set>
      <set comment="kpoint 29">
       <r>   -2.0993    1.0000 </r>
       <r>    3.2803    1.0000 </r>
       <r>    3.3328    1.0000 </r>
       <r>    3.6338    1.0000 </r>
       <r>    4.5704    1.0000 </r>
       <r>    4.8153    1.0000 </r>
       <r>   27.9469    0.0000 </r>
       <r>   29.2427    0.0000 </r>
       <r>   30.5403    0.0000 </r>
       <r>   33.6594    0.0000 </r>
       <r>   33.9567    0.0000 </r>
       <r>   35.6420    0.0000 </r>
      </set>
      <set comment="kpoint 30">
       <r>    0.6928    1.0000 </r>
       <r>    2.6809    1.0000 </r>
       <r>    2.7980    1.0000 </r>
       <r>    4.5424    1.0000 </r>
       <r>    4.9371    1.0000 </r>
       <r>    5.7177    0.4160 </r>
       <r>   20.5520    0.0000 </r>
       <r>   21.4344    0.0000 </r>
       <r>   26.1124    0.0000 </r>
       <r>   32.2704    0.0000 </r>
       <r>   35.9273    0.0000 </r>
       <r>   38.7312    0.0000 </r>
      </set>
      <set comment="kpoint 31">
       <r>    1.2060    1.0000 </r>
       <r>    2.5388    1.0000 </r>
       <r>    2.8789    1.0000 </r>
       <r>    4.5910    1.0000 </r>
       <r>    4.9873    1.0000 </r>
       <r>    6.4336   -0.0000 </r>
       <r>   18.6188    0.0000 </r>
       <r>   20.3484    0.0000 </r>
       <r>   25.2726    0.0000 </r>
       <r>   32.4171    0.0000 </r>
       <r>   36.2454    0.0000 </r>
       <r>   39.3439    0.0000 </r>
      </set>
      <set comment="kpoint 32">
       <r>    1.4421    1.0000 </r>
       <r>    2.4394    1.0000 </r>
       <r>    3.1587    1.0000 </r>
       <r>    4.6669    1.0000 </r>
       <r>    5.0365    1.0000 </r>
       <r>    7.2957   -0.0000 </r>
       <r>   16.5462    0.0000 </r>
       <r>   19.7070    0.0000 </r>
       <r>   24.6367    0.0000 </r>
       <r>   32.4489    0.0000 </r>
       <r>   36.7638    0.0000 </r>
       <r>   39.4014    0.0000 </r>
      </set>
      <set comment="kpoint 33">
       <r>    1.4788    1.0000 </r>
       <r>    2.3787    1.0000 </r>
       <r>    3.4778    1.0000 </r>
       <r>    4.7371    1.0000 </r>
       <r>    5.0883    1.0001 </r>
       <r>    8.2758   -0.0000 </r>
       <r>   14.6867    0.0000 </r>
       <r>   19.2759    0.0000 </r>
       <r>   24.2007    0.0000 </r>
       <r>   32.4372    0.0000 </r>
       <r>   37.3240    0.0000 </r>
       <r>   39.2355    0.0000 </r>
      </set>
      <set comment="kpoint 34">
       <r>    1.4657    1.0000 </r>
       <r>    2.3505    1.0000 </r>
       <r>    3.6644    1.0000 </r>
       <r>    4.7747    1.0000 </r>
       <r>    5.1358    1.0003 </r>
       <r>    9.1332   -0.0000 </r>
       <r>   13.3801    0.0000 </r>
       <r>   19.0567    0.0000 </r>
       <r>   23.9796    0.0000 </r>
       <r>   32.4211    0.0000 </r>
       <r>   37.7831    0.0000 </r>
       <r>   39.0108    0.0000 </r>
      </set>
      <set comment="kpoint 35">
       <r>   -1.4329    1.0000 </r>
       <r>    3.0762    1.0000 </r>
       <r>    3.3053    1.0000 </r>
       <r>    3.9989    1.0000 </r>
       <r>    4.5120    1.0000 </r>
       <r>    4.8190    1.0000 </r>
       <r>   25.0251    0.0000 </r>
       <r>   28.4975    0.0000 </r>
       <r>   29.7884    0.0000 </r>
       <r>   32.2982    0.0000 </r>
       <r>   33.8039    0.0000 </r>
       <r>   34.7384    0.0000 </r>
      </set>
      <set comment="kpoint 36">
       <r>   -1.6159    1.0000 </r>
       <r>    3.1724    1.0000 </r>
       <r>    3.2895    1.0000 </r>
       <r>    3.8914    1.0000 </r>
       <r>    4.4718    1.0000 </r>
       <r>    4.8481    1.0000 </r>
       <r>   26.1325    0.0000 </r>
       <r>   27.9987    0.0000 </r>
       <r>   30.3076    0.0000 </r>
       <r>   32.3991    0.0000 </r>
       <r>   33.7428    0.0000 </r>
       <r>   35.2960    0.0000 </r>
      </set>
      <set comment="kpoint 37">
       <r>    1.5785    1.0000 </r>
       <r>    2.4503    1.0000 </r>
       <r>    2.9209    1.0000 </r>
       <r>    4.6454    1.0000 </r>
       <r>    5.0333    1.0000 </r>
       <r>    7.3524   -0.0000 </r>
       <r>   17.6325    0.0000 </r>
       <r>   18.4607    0.0000 </r>
       <r>   24.6232    0.0000 </r>
       <r>   32.8638    0.0000 </r>
       <r>   36.2599    0.0000 </r>
       <r>   41.2512    0.0000 </r>
      </set>
      <set comment="kpoint 38">
       <r>    1.7261    1.0000 </r>
       <r>    2.4046    1.0000 </r>
       <r>    3.0720    1.0000 </r>
       <r>    4.7225    1.0000 </r>
       <r>    5.0649    1.0000 </r>
       <r>    8.4391   -0.0000 </r>
       <r>   15.8731    0.0000 </r>
       <r>   17.6672    0.0000 </r>
       <r>   24.1607    0.0000 </r>
       <r>   33.1590    0.0000 </r>
       <r>   36.4590    0.0000 </r>
       <r>   41.7347    0.0000 </r>
      </set>
      <set comment="kpoint 39">
       <r>    1.7412    1.0000 </r>
       <r>    2.3934    1.0000 </r>
       <r>    3.2196    1.0000 </r>
       <r>    4.7901    1.0000 </r>
       <r>    5.0856    1.0001 </r>
       <r>    9.6046   -0.0000 </r>
       <r>   14.1543    0.0000 </r>
       <r>   17.3137    0.0000 </r>
       <r>   23.8833    0.0000 </r>
       <r>   33.3154    0.0000 </r>
       <r>   36.7286    0.0000 </r>
       <r>   41.4895    0.0000 </r>
      </set>
      <set comment="kpoint 40">
       <r>    1.7339    1.0000 </r>
       <r>    2.3931    1.0000 </r>
       <r>    3.2764    1.0000 </r>
       <r>    4.8176    1.0000 </r>
       <r>    5.0940    1.0001 </r>
       <r>   10.2952   -0.0000 </r>
       <r>   13.2707    0.0000 </r>
       <r>   17.2014    0.0000 </r>
       <r>   23.7902    0.0000 </r>
       <r>   33.3645    0.0000 </r>
       <r>   36.8599    0.0000 </r>
       <r>   41.3413    0.0000 </r>
      </set>
      <set comment="kpoint 41">
       <r>   -0.7469    1.0000 </r>
       <r>    2.9169    1.0000 </r>
       <r>    3.2671    1.0000 </r>
       <r>    4.3667    1.0000 </r>
       <r>    4.4973    1.0000 </r>
       <r>    4.8438    1.0000 </r>
       <r>   22.6712    0.0000 </r>
       <r>   27.3905    0.0000 </r>
       <r>   29.2659    0.0000 </r>
       <r>   31.0350    0.0000 </r>
       <r>   33.3330    0.0000 </r>
       <r>   35.5558    0.0000 </r>
      </set>
      <set comment="kpoint 42">
       <r>   -0.9862    1.0000 </r>
       <r>    3.0255    1.0000 </r>
       <r>    3.2350    1.0000 </r>
       <r>    4.2332    1.0000 </r>
       <r>    4.4199    1.0000 </r>
       <r>    4.8823    1.0000 </r>
       <r>   23.9079    0.0000 </r>
       <r>   26.9013    0.0000 </r>
       <r>   29.6598    0.0000 </r>
       <r>   31.3773    0.0000 </r>
       <r>   34.0117    0.0000 </r>
       <r>   35.0021    0.0000 </r>
      </set>
      <set comment="kpoint 43">
       <r>   -1.0675    1.0000 </r>
       <r>    3.1087    1.0000 </r>
       <r>    3.1737    1.0000 </r>
       <r>    4.2040    1.0000 </r>
       <r>    4.3843    1.0000 </r>
       <r>    4.9009    1.0000 </r>
       <r>   24.7905    0.0000 </r>
       <r>   26.0689    0.0000 </r>
       <r>   30.4631    0.0000 </r>
       <r>   30.8893    0.0000 </r>
       <r>   33.6795    0.0000 </r>
       <r>   36.1348    0.0000 </r>
      </set>
      <set comment="kpoint 44">
       <r>    1.8799    1.0000 </r>
       <r>    2.4294    1.0000 </r>
       <r>    3.0029    1.0000 </r>
       <r>    4.7977    1.0000 </r>
       <r>    5.0633    1.0000 </r>
       <r>    9.7490   -0.0000 </r>
       <r>   14.9586    0.0000 </r>
       <r>   16.1967    0.0000 </r>
       <r>   23.8537    0.0000 </r>
       <r>   33.7820    0.0000 </r>
       <r>   36.1881    0.0000 </r>
       <r>   43.0444    0.0000 </r>
      </set>
      <set comment="kpoint 45">
       <r>    1.9235    1.0000 </r>
       <r>    2.4878    1.0000 </r>
       <r>    2.9512    1.0000 </r>
       <r>    4.8666    1.0000 </r>
       <r>    5.0381    1.0000 </r>
       <r>   11.0559   -0.0000 </r>
       <r>   13.5713    0.0000 </r>
       <r>   15.7253    0.0000 </r>
       <r>   23.7022    0.0000 </r>
       <r>   34.2012    0.0000 </r>
       <r>   35.9716    0.0000 </r>
       <r>   42.7029    0.0000 </r>
      </set>
      <set comment="kpoint 46">
       <r>   -0.0470    1.0000 </r>
       <r>    2.7514    1.0000 </r>
       <r>    3.3317    1.0000 </r>
       <r>    4.5423    1.0000 </r>
       <r>    4.7736    1.0000 </r>
       <r>    4.8773    1.0000 </r>
       <r>   20.3247    0.0000 </r>
       <r>   26.3564    0.0000 </r>
       <r>   28.4566    0.0000 </r>
       <r>   30.2311    0.0000 </r>
       <r>   33.0703    0.0000 </r>
       <r>   36.6230    0.0000 </r>
      </set>
      <set comment="kpoint 47">
       <r>   -0.2827    1.0000 </r>
       <r>    2.8623    1.0000 </r>
       <r>    3.2092    1.0000 </r>
       <r>    4.4332    1.0000 </r>
       <r>    4.6375    1.0000 </r>
       <r>    4.9300    1.0000 </r>
       <r>   21.5671    0.0000 </r>
       <r>   25.9103    0.0000 </r>
       <r>   28.6504    0.0000 </r>
       <r>   30.8126    0.0000 </r>
       <r>   33.9768    0.0000 </r>
       <r>   35.4095    0.0000 </r>
      </set>
      <set comment="kpoint 48">
       <r>   -0.4055    1.0000 </r>
       <r>    2.9741    1.0000 </r>
       <r>    3.0856    1.0000 </r>
       <r>    4.3545    1.0000 </r>
       <r>    4.5953    1.0000 </r>
       <r>    4.9683    1.0000 </r>
       <r>   22.8341    0.0000 </r>
       <r>   24.6748    0.0000 </r>
       <r>   29.4384    0.0000 </r>
       <r>   30.5691    0.0000 </r>
       <r>   33.9418    0.0000 </r>
       <r>   36.4536    0.0000 </r>
      </set>
      <set comment="kpoint 49">
       <r>    1.9815    1.0000 </r>
       <r>    2.6910    1.0000 </r>
       <r>    2.6910    1.0000 </r>
       <r>    4.9578    1.0000 </r>
       <r>    4.9579    1.0000 </r>
       <r>   12.5039    0.0000 </r>
       <r>   12.5040    0.0000 </r>
       <r>   15.0979    0.0000 </r>
       <r>   23.6431    0.0000 </r>
       <r>   35.1069    0.0000 </r>
       <r>   35.1069    0.0000 </r>
       <r>   42.7287    0.0000 </r>
      </set>
      <set comment="kpoint 50">
       <r>    0.4967    1.0000 </r>
       <r>    2.5970    1.0000 </r>
       <r>    3.6578    1.0000 </r>
       <r>    4.6288    1.0000 </r>
       <r>    4.9267    1.0000 </r>
       <r>    5.1854    1.0009 </r>
       <r>   18.0714    0.0000 </r>
       <r>   25.4686    0.0000 </r>
       <r>   27.4893    0.0000 </r>
       <r>   29.8167    0.0000 </r>
       <r>   32.9572    0.0000 </r>
       <r>   37.8002    0.0000 </r>
      </set>
      <set comment="kpoint 51">
       <r>    0.3563    1.0000 </r>
       <r>    2.7028    1.0000 </r>
       <r>    3.3330    1.0000 </r>
       <r>    4.5141    1.0000 </r>
       <r>    4.9493    1.0000 </r>
       <r>    5.1188    1.0002 </r>
       <r>   19.2652    0.0000 </r>
       <r>   25.0359    0.0000 </r>
       <r>   27.5848    0.0000 </r>
       <r>   30.4749    0.0000 </r>
       <r>   33.8123    0.0000 </r>
       <r>   36.2572    0.0000 </r>
      </set>
      <set comment="kpoint 52">
       <r>    0.2721    1.0000 </r>
       <r>    2.8052    1.0000 </r>
       <r>    3.0806    1.0000 </r>
       <r>    4.3970    1.0000 </r>
       <r>    4.9240    1.0000 </r>
       <r>    5.1811    1.0008 </r>
       <r>   20.5666    0.0000 </r>
       <r>   23.6949    0.0000 </r>
       <r>   28.2080    0.0000 </r>
       <r>   30.5473    0.0000 </r>
       <r>   34.3811    0.0000 </r>
       <r>   36.5048    0.0000 </r>
      </set>
      <set comment="kpoint 53">
       <r>    0.2443    1.0000 </r>
       <r>    2.8667    1.0000 </r>
       <r>    2.9697    1.0000 </r>
       <r>    4.3476    1.0000 </r>
       <r>    4.9152    1.0000 </r>
       <r>    5.2115    1.0016 </r>
       <r>   21.6146    0.0000 </r>
       <r>   22.5833    0.0000 </r>
       <r>   28.5495    0.0000 </r>
       <r>   30.4991    0.0000 </r>
       <r>   34.0226    0.0000 </r>
       <r>   37.8458    0.0000 </r>
      </set>
      <set comment="kpoint 54">
       <r>    0.7702    1.0000 </r>
       <r>    2.4682    1.0000 </r>
       <r>    4.2463    1.0000 </r>
       <r>    4.7441    1.0000 </r>
       <r>    5.0692    1.0000 </r>
       <r>    5.5532    0.9676 </r>
       <r>   16.0001    0.0000 </r>
       <r>   24.7692    0.0000 </r>
       <r>   26.6162    0.0000 </r>
       <r>   29.5881    0.0000 </r>
       <r>   32.9453    0.0000 </r>
       <r>   38.8376    0.0000 </r>
      </set>
      <set comment="kpoint 55">
       <r>    0.7604    1.0000 </r>
       <r>    2.5628    1.0000 </r>
       <r>    3.7023    1.0000 </r>
       <r>    4.6289    1.0000 </r>
       <r>    5.0715    1.0000 </r>
       <r>    5.5717    0.9331 </r>
       <r>   17.0804    0.0000 </r>
       <r>   24.3055    0.0000 </r>
       <r>   26.6395    0.0000 </r>
       <r>   30.2450    0.0000 </r>
       <r>   33.7306    0.0000 </r>
       <r>   37.1549    0.0000 </r>
      </set>
      <set comment="kpoint 56">
       <r>    0.7991    1.0000 </r>
       <r>    2.6557    1.0000 </r>
       <r>    3.2383    1.0000 </r>
       <r>    4.4966    1.0000 </r>
       <r>    5.0344    1.0000 </r>
       <r>    5.7024    0.4805 </r>
       <r>   18.3188    0.0000 </r>
       <r>   22.9040    0.0000 </r>
       <r>   27.1624    0.0000 </r>
       <r>   30.5072    0.0000 </r>
       <r>   34.8394    0.0000 </r>
       <r>   36.6107    0.0000 </r>
      </set>
      <set comment="kpoint 57">
       <r>    0.8430    1.0000 </r>
       <r>    2.6975    1.0000 </r>
       <r>    2.9929    1.0000 </r>
       <r>    4.4048    1.0000 </r>
       <r>    5.0190    1.0000 </r>
       <r>    5.7813    0.1785 </r>
       <r>   19.6518    0.0000 </r>
       <r>   21.3940    0.0000 </r>
       <r>   27.5881    0.0000 </r>
       <r>   30.6081    0.0000 </r>
       <r>   34.3277    0.0000 </r>
       <r>   38.4800    0.0000 </r>
      </set>
      <set comment="kpoint 58">
       <r>    0.8506    1.0000 </r>
       <r>    2.3756    1.0000 </r>
       <r>    4.6152    1.0000 </r>
       <r>    4.8164    1.0000 </r>
       <r>    5.6421    0.7256 </r>
       <r>    5.8317    0.0512 </r>
       <r>   14.2554    0.0000 </r>
       <r>   24.2864    0.0000 </r>
       <r>   25.9763    0.0000 </r>
       <r>   29.4526    0.0000 </r>
       <r>   32.9672    0.0000 </r>
       <r>   39.4034    0.0000 </r>
      </set>
      <set comment="kpoint 59">
       <r>    0.9132    1.0000 </r>
       <r>    2.4552    1.0000 </r>
       <r>    4.1482    1.0000 </r>
       <r>    4.7143    1.0000 </r>
       <r>    5.3310    1.0132 </r>
       <r>    6.1016   -0.0075 </r>
       <r>   15.1346    0.0000 </r>
       <r>   23.7545    0.0000 </r>
       <r>   25.9067    0.0000 </r>
       <r>   30.1028    0.0000 </r>
       <r>   33.7352    0.0000 </r>
       <r>   37.9167    0.0000 </r>
      </set>
      <set comment="kpoint 60">
       <r>    1.0535    1.0000 </r>
       <r>    2.5402    1.0000 </r>
       <r>    3.5715    1.0000 </r>
       <r>    4.6102    1.0000 </r>
       <r>    5.1662    1.0006 </r>
       <r>    6.3625   -0.0000 </r>
       <r>   16.2235    0.0000 </r>
       <r>   22.2841    0.0000 </r>
       <r>   26.3365    0.0000 </r>
       <r>   30.4634    0.0000 </r>
       <r>   35.2136    0.0000 </r>
       <r>   36.8616    0.0000 </r>
      </set>
      <set comment="kpoint 61">
       <r>    1.2272    1.0000 </r>
       <r>    2.5759    1.0000 </r>
       <r>    3.1446    1.0000 </r>
       <r>    4.5068    1.0000 </r>
       <r>    5.1004    1.0001 </r>
       <r>    6.5223   -0.0000 </r>
       <r>   17.4925    0.0000 </r>
       <r>   20.6529    0.0000 </r>
       <r>   26.7692    0.0000 </r>
       <r>   30.6947    0.0000 </r>
       <r>   34.8049    0.0000 </r>
       <r>   38.5219    0.0000 </r>
      </set>
      <set comment="kpoint 62">
       <r>    1.3194    1.0000 </r>
       <r>    2.5520    1.0000 </r>
       <r>    3.0099    1.0000 </r>
       <r>    4.4655    1.0000 </r>
       <r>    5.0822    1.0001 </r>
       <r>    6.5780   -0.0000 </r>
       <r>   18.6157    0.0000 </r>
       <r>   19.4022    0.0000 </r>
       <r>   26.9426    0.0000 </r>
       <r>   30.8319    0.0000 </r>
       <r>   34.3882    0.0000 </r>
       <r>   40.3578    0.0000 </r>
      </set>
      <set comment="kpoint 63">
       <r>    0.8612    1.0000 </r>
       <r>    2.3276    1.0000 </r>
       <r>    4.7282    1.0000 </r>
       <r>    4.8221    1.0000 </r>
       <r>    5.9838   -0.0306 </r>
       <r>    6.2939   -0.0001 </r>
       <r>   13.1544    0.0000 </r>
       <r>   24.0411    0.0000 </r>
       <r>   25.6406    0.0000 </r>
       <r>   29.3916    0.0000 </r>
       <r>   32.9990    0.0000 </r>
       <r>   39.5819    0.0000 </r>
      </set>
      <set comment="kpoint 64">
       <r>    0.9417    1.0000 </r>
       <r>    2.3864    1.0000 </r>
       <r>    4.4141    1.0000 </r>
       <r>    4.7256    1.0000 </r>
       <r>    5.6325    0.7606 </r>
       <r>    6.7270   -0.0000 </r>
       <r>   13.6322    0.0000 </r>
       <r>   23.4088    0.0000 </r>
       <r>   25.4444    0.0000 </r>
       <r>   30.0092    0.0000 </r>
       <r>   33.7607    0.0000 </r>
       <r>   38.3901    0.0000 </r>
      </set>
      <set comment="kpoint 65">
       <r>    1.1151    1.0000 </r>
       <r>    2.4608    1.0000 </r>
       <r>    3.8908    1.0000 </r>
       <r>    4.6714    1.0000 </r>
       <r>    5.3647    1.0201 </r>
       <r>    7.1441   -0.0000 </r>
       <r>   14.4232    0.0000 </r>
       <r>   21.8481    0.0000 </r>
       <r>   25.7648    0.0000 </r>
       <r>   30.4296    0.0000 </r>
       <r>   35.4623    0.0000 </r>
       <r>   37.1640    0.0000 </r>
      </set>
      <set comment="kpoint 66">
       <r>    1.3572    1.0000 </r>
       <r>    2.5071    1.0000 </r>
       <r>    3.3873    1.0000 </r>
       <r>    4.6099    1.0000 </r>
       <r>    5.2111    1.0016 </r>
       <r>    7.4216   -0.0000 </r>
       <r>   15.4927    0.0000 </r>
       <r>   20.1201    0.0000 </r>
       <r>   26.1527    0.0000 </r>
       <r>   30.7663    0.0000 </r>
       <r>   35.3993    0.0000 </r>
       <r>   38.3539    0.0000 </r>
      </set>
      <set comment="kpoint 67">
       <r>    1.5872    1.0000 </r>
       <r>    2.4644    1.0000 </r>
       <r>    3.0919    1.0000 </r>
       <r>    4.5650    1.0000 </r>
       <r>    5.1404    1.0003 </r>
       <r>    7.5558   -0.0000 </r>
       <r>   16.7589    0.0000 </r>
       <r>   18.5055    0.0000 </r>
       <r>   26.3907    0.0000 </r>
       <r>   31.0720    0.0000 </r>
       <r>   34.5895    0.0000 </r>
       <r>   40.8856    0.0000 </r>
      </set>
      <set comment="kpoint 68">
       <r>    0.9419    1.0000 </r>
       <r>    2.3629    1.0000 </r>
       <r>    4.5050    1.0000 </r>
       <r>    4.7113    1.0000 </r>
       <r>    5.7462    0.3017 </r>
       <r>    7.0696   -0.0000 </r>
       <r>   13.0152    0.0000 </r>
       <r>   23.2915    0.0000 </r>
       <r>   25.2863    0.0000 </r>
       <r>   29.9795    0.0000 </r>
       <r>   33.7776    0.0000 </r>
       <r>   38.5457    0.0000 </r>
      </set>
      <set comment="kpoint 69">
       <r>    1.1156    1.0000 </r>
       <r>    2.4210    1.0000 </r>
       <r>    4.0621    1.0000 </r>
       <r>    4.6837    1.0000 </r>
       <r>    5.5155    1.0133 </r>
       <r>    7.8208   -0.0000 </r>
       <r>   13.2388    0.0000 </r>
       <r>   21.6224    0.0000 </r>
       <r>   25.4721    0.0000 </r>
       <r>   30.4225    0.0000 </r>
       <r>   35.5984    0.0000 </r>
       <r>   37.3650    0.0000 </r>
      </set>
      <set comment="kpoint 70">
       <r>    1.3656    1.0000 </r>
       <r>    2.4684    1.0000 </r>
       <r>    3.5785    1.0000 </r>
       <r>    4.6646    1.0000 </r>
       <r>    5.3353    1.0140 </r>
       <r>    8.3691   -0.0000 </r>
       <r>   13.8640    0.0000 </r>
       <r>   19.7852    0.0000 </r>
       <r>   25.7691    0.0000 </r>
       <r>   30.8031    0.0000 </r>
       <r>   35.9695    0.0000 </r>
       <r>   38.0852    0.0000 </r>
      </set>
      <set comment="kpoint 71">
       <r>    1.6541    1.0000 </r>
       <r>    2.4591    1.0000 </r>
       <r>    3.1871    1.0000 </r>
       <r>    4.6633    1.0000 </r>
       <r>    5.2064    1.0014 </r>
       <r>    8.6780   -0.0000 </r>
       <r>   14.8733    0.0000 </r>
       <r>   18.0464    0.0000 </r>
       <r>   25.9981    0.0000 </r>
       <r>   31.2605    0.0000 </r>
       <r>   34.9065    0.0000 </r>
       <r>   40.5818    0.0000 </r>
      </set>
      <set comment="kpoint 72">
       <r>    1.8274    1.0000 </r>
       <r>    2.3962    1.0000 </r>
       <r>    3.0403    1.0000 </r>
       <r>    4.6674    1.0000 </r>
       <r>    5.1563    1.0004 </r>
       <r>    8.7747   -0.0000 </r>
       <r>   15.8315    0.0000 </r>
       <r>   16.8500    0.0000 </r>
       <r>   26.0791    0.0000 </r>
       <r>   31.5382    0.0000 </r>
       <r>   34.4133    0.0000 </r>
       <r>   42.0457    0.0000 </r>
      </set>
      <set comment="kpoint 73">
       <r>    1.3576    1.0000 </r>
       <r>    2.4561    1.0000 </r>
       <r>    3.6473    1.0000 </r>
       <r>    4.6772    1.0000 </r>
       <r>    5.3904    1.0260 </r>
       <r>    8.8717   -0.0000 </r>
       <r>   13.1305    0.0000 </r>
       <r>   19.6717    0.0000 </r>
       <r>   25.6389    0.0000 </r>
       <r>   30.8147    0.0000 </r>
       <r>   36.2560    0.0000 </r>
       <r>   37.9084    0.0000 </r>
      </set>
      <set comment="kpoint 74">
       <r>    1.6471    1.0000 </r>
       <r>    2.4732    1.0000 </r>
       <r>    3.2472    1.0000 </r>
       <r>    4.7169    1.0000 </r>
       <r>    5.2581    1.0040 </r>
       <r>    9.6908   -0.0000 </r>
       <r>   13.4669    0.0000 </r>
       <r>   17.8172    0.0000 </r>
       <r>   25.7932    0.0000 </r>
       <r>   31.3670    0.0000 </r>
       <r>   35.1609    0.0000 </r>
       <r>   40.2409    0.0000 </r>
      </set>
      <set comment="kpoint 75">
       <r>    1.9152    1.0000 </r>
       <r>    2.4342    1.0000 </r>
       <r>    2.9703    1.0000 </r>
       <r>    4.7727    1.0000 </r>
       <r>    5.1542    1.0004 </r>
       <r>   10.0964   -0.0000 </r>
       <r>   14.2657    0.0000 </r>
       <r>   16.2578    0.0000 </r>
       <r>   25.8796    0.0000 </r>
       <r>   31.9328    0.0000 </r>
       <r>   34.3049    0.0000 </r>
       <r>   41.3029    0.0000 </r>
      </set>
      <set comment="kpoint 76">
       <r>    1.9227    1.0000 </r>
       <r>    2.4813    1.0000 </r>
       <r>    2.9289    1.0000 </r>
       <r>    4.8201    1.0000 </r>
       <r>    5.1460    1.0003 </r>
       <r>   10.9520   -0.0000 </r>
       <r>   13.2681    0.0000 </r>
       <r>   16.1138    0.0000 </r>
       <r>   25.8091    0.0000 </r>
       <r>   32.1014    0.0000 </r>
       <r>   34.2413    0.0000 </r>
       <r>   41.0075    0.0000 </r>
      </set>
      <set comment="kpoint 77">
       <r>    2.0668    1.0000 </r>
       <r>    2.5057    1.0000 </r>
       <r>    2.7447    1.0000 </r>
       <r>    4.9029    1.0000 </r>
       <r>    5.0589    1.0000 </r>
       <r>   11.5845    0.0000 </r>
       <r>   13.2713    0.0000 </r>
       <r>   15.2559    0.0000 </r>
       <r>   25.8159    0.0000 </r>
       <r>   32.6506    0.0000 </r>
       <r>   33.6021    0.0000 </r>
       <r>   40.9623    0.0000 </r>
      </set>
      <set comment="kpoint 78">
       <r>   -1.3352    1.0000 </r>
       <r>    3.0773    1.0000 </r>
       <r>    3.0773    1.0000 </r>
       <r>    4.2162    1.0000 </r>
[...]
       <set comment="band 1">
        <r>  0.0000  0.0457  0.7634 </r>
       </set>
       <set comment="band 2">
        <r>  0.0000  0.0457  0.7634 </r>
       </set>
       <set comment="band 3">
        <r>  0.0242  0.0315  0.8651 </r>
       </set>
       <set comment="band 4">
        <r>  0.0000  0.0209  0.9466 </r>
       </set>
       <set comment="band 5">
        <r>  0.0000  0.0209  0.9466 </r>
       </set>
       <set comment="band 6">
        <r>  0.0000  0.4523  0.2645 </r>
       </set>
       <set comment="band 7">
        <r>  0.0000  0.4523  0.2645 </r>
       </set>
       <set comment="band 8">
        <r>  0.2888  0.2453  0.1657 </r>
       </set>
       <set comment="band 9">
        <r>  0.0000  0.0840  0.4213 </r>
       </set>
       <set comment="band 10">
        <r>  0.0000  0.0840  0.4213 </r>
       </set>
       <set comment="band 11">
        <r>  0.3705  0.3650  0.0056 </r>
       </set>
       <set comment="band 12">
        <r>  0.0683  0.0519  0.2970 </r>
       </set>
      </set>
      <set comment="kpoint 234">
       <set comment="band 1">
        <r>  0.0850  0.1566  0.4858 </r>
       </set>
       <set comment="band 2">
        <r>  0.0000  0.0000  0.8380 </r>
       </set>
       <set comment="band 3">
        <r>  0.0000  0.0416  0.8941 </r>
       </set>
       <set comment="band 4">
        <r>  0.0000  0.0416  0.8941 </r>
       </set>
       <set comment="band 5">
        <r>  0.0000  0.0000  0.9735 </r>
       </set>
       <set comment="band 6">
        <r>  0.1653  0.1716  0.4905 </r>
       </set>
       <set comment="band 7">
        <r>  0.0000  0.4917  0.1999 </r>
       </set>
       <set comment="band 8">
        <r>  0.0000  0.4917  0.1999 </r>
       </set>
       <set comment="band 9">
        <r>  0.0000  0.0000  0.5545 </r>
       </set>
       <set comment="band 10">
        <r>  0.2765  0.0483  0.1641 </r>
       </set>
       <set comment="band 11">
        <r>  0.1544  0.3056  0.1805 </r>
       </set>
       <set comment="band 12">
        <r>  0.0000  0.0000  0.3911 </r>
       </set>
      </set>
      <set comment="kpoint 235">
       <set comment="band 1">
        <r>  0.0444  0.1210  0.5923 </r>
       </set>
       <set comment="band 2">
        <r>  0.0000  0.0030  0.8283 </r>
       </set>
       <set comment="band 3">
        <r>  0.0000  0.0381  0.9014 </r>
       </set>
       <set comment="band 4">
        <r>  0.0033  0.0396  0.8950 </r>
       </set>
       <set comment="band 5">
        <r>  0.0000  0.0023  0.9739 </r>
       </set>
       <set comment="band 6">
        <r>  0.1628  0.2428  0.3797 </r>
       </set>
       <set comment="band 7">
        <r>  0.0278  0.4579  0.2023 </r>
       </set>
       <set comment="band 8">
        <r>  0.0000  0.5138  0.1687 </r>
       </set>
       <set comment="band 9">
        <r>  0.0109  0.0173  0.5401 </r>
       </set>
       <set comment="band 10">
        <r>  0.2305  0.0504  0.2288 </r>
       </set>
       <set comment="band 11">
        <r>  0.2167  0.2976  0.1502 </r>
       </set>
       <set comment="band 12">
        <r>  0.0000  0.0411  0.3246 </r>
       </set>
      </set>
      <set comment="kpoint 236">
       <set comment="band 1">
        <r>  0.0195  0.0846  0.6791 </r>
       </set>
       <set comment="band 2">
        <r>  0.0000  0.0142  0.8089 </r>
       </set>
       <set comment="band 3">
        <r>  0.0000  0.0337  0.9086 </r>
       </set>
       <set comment="band 4">
        <r>  0.0119  0.0353  0.8903 </r>
       </set>
       <set comment="band 5">
        <r>  0.0000  0.0025  0.9791 </r>
       </set>
       <set comment="band 6">
        <r>  0.1281  0.3212  0.3014 </r>
       </set>
       <set comment="band 7">
        <r>  0.0799  0.4019  0.2172 </r>
       </set>
       <set comment="band 8">
        <r>  0.0000  0.5333  0.1390 </r>
       </set>
       <set comment="band 9">
        <r>  0.0542  0.0098  0.5028 </r>
       </set>
       <set comment="band 10">
        <r>  0.1195  0.0766  0.3159 </r>
       </set>
       <set comment="band 11">
        <r>  0.2900  0.2988  0.1081 </r>
       </set>
       <set comment="band 12">
        <r>  0.0000  0.0613  0.2986 </r>
       </set>
      </set>
      <set comment="kpoint 237">
       <set comment="band 1">
        <r>  0.0198  0.0870  0.6743 </r>
       </set>
       <set comment="band 2">
        <r>  0.0000  0.0054  0.8206 </r>
       </set>
       <set comment="band 3">
        <r>  0.0055  0.0350  0.8989 </r>
       </set>
       <set comment="band 4">
        <r>  0.0000  0.0372  0.9094 </r>
       </set>
       <set comment="band 5">
        <r>  0.0011  0.0026  0.9750 </r>
       </set>
       <set comment="band 6">
        <r>  0.1427  0.3121  0.2944 </r>
       </set>
       <set comment="band 7">
        <r>  0.0000  0.4945  0.1890 </r>
       </set>
       <set comment="band 8">
        <r>  0.0534  0.4761  0.1459 </r>
       </set>
       <set comment="band 9">
        <r>  0.0000  0.0364  0.5413 </r>
       </set>
       <set comment="band 10">
        <r>  0.1894  0.0423  0.2931 </r>
       </set>
       <set comment="band 11">
        <r>  0.2993  0.2801  0.1136 </r>
       </set>
       <set comment="band 12">
        <r>  0.0077  0.0462  0.2843 </r>
       </set>
      </set>
      <set comment="kpoint 238">
       <set comment="band 1">
        <r>  0.0076  0.0424  0.7561 </r>
       </set>
       <set comment="band 2">
        <r>  0.0001  0.0429  0.7660 </r>
       </set>
       <set comment="band 3">
        <r>  0.0000  0.0317  0.9114 </r>
       </set>
       <set comment="band 4">
        <r>  0.0189  0.0328  0.8844 </r>
       </set>
       <set comment="band 5">
        <r>  0.0000  0.0004  0.9860 </r>
       </set>
       <set comment="band 6">
        <r>  0.0488  0.4220  0.2513 </r>
       </set>
       <set comment="band 7">
        <r>  0.1648  0.3166  0.2377 </r>
       </set>
       <set comment="band 8">
        <r>  0.0000  0.5450  0.1200 </r>
       </set>
       <set comment="band 9">
        <r>  0.0819  0.0011  0.4831 </r>
       </set>
       <set comment="band 10">
        <r>  0.0179  0.0844  0.3908 </r>
       </set>
       <set comment="band 11">
        <r>  0.3658  0.3074  0.0580 </r>
       </set>
       <set comment="band 12">
        <r>  0.0000  0.0684  0.2899 </r>
       </set>
      </set>
      <set comment="kpoint 239">
       <set comment="band 1">
        <r>  0.0066  0.0573  0.7345 </r>
       </set>
       <set comment="band 2">
        <r>  0.0001  0.0149  0.8047 </r>
       </set>
       <set comment="band 3">
        <r>  0.0085  0.0327  0.8977 </r>
       </set>
       <set comment="band 4">
        <r>  0.0027  0.0312  0.9182 </r>
       </set>
       <set comment="band 5">
        <r>  0.0009  0.0034  0.9776 </r>
       </set>
       <set comment="band 6">
        <r>  0.0956  0.3856  0.2405 </r>
       </set>
       <set comment="band 7">
        <r>  0.0710  0.4301  0.1902 </r>
       </set>
       <set comment="band 8">
        <r>  0.0370  0.4990  0.1333 </r>
       </set>
       <set comment="band 9">
        <r>  0.0243  0.0373  0.5108 </r>
       </set>
       <set comment="band 10">
        <r>  0.0770  0.0652  0.3816 </r>
       </set>
       <set comment="band 11">
        <r>  0.3944  0.2694  0.0619 </r>
       </set>
       <set comment="band 12">
        <r>  0.0133  0.0543  0.2647 </r>
       </set>
      </set>
      <set comment="kpoint 240">
       <set comment="band 1">
        <r>  0.0025  0.0195  0.7939 </r>
       </set>
       <set comment="band 2">
        <r>  0.0000  0.0457  0.7600 </r>
       </set>
       <set comment="band 3">
        <r>  0.0094  0.0321  0.8971 </r>
       </set>
       <set comment="band 4">
        <r>  0.0052  0.0284  0.9201 </r>
       </set>
       <set comment="band 5">
        <r>  0.0000  0.0036  0.9802 </r>
       </set>
       <set comment="band 6">
        <r>  0.0000  0.4887  0.2115 </r>
       </set>
       <set comment="band 7">
        <r>  0.1698  0.3315  0.2070 </r>
       </set>
       <set comment="band 8">
        <r>  0.0358  0.5066  0.1230 </r>
       </set>
       <set comment="band 9">
        <r>  0.0458  0.0310  0.4929 </r>
       </set>
       <set comment="band 10">
        <r>  0.0000  0.0788  0.4362 </r>
       </set>
       <set comment="band 11">
        <r>  0.4516  0.2663  0.0273 </r>
       </set>
       <set comment="band 12">
        <r>  0.0149  0.0568  0.2597 </r>
       </set>
      </set>
      <set comment="kpoint 241">
       <set comment="band 1">
        <r>  0.0009  0.0376  0.7696 </r>
       </set>
       <set comment="band 2">
        <r>  0.0000  0.0207  0.7949 </r>
       </set>
       <set comment="band 3">
        <r>  0.0120  0.0326  0.8922 </r>
       </set>
       <set comment="band 4">
        <r>  0.0000  0.0220  0.9437 </r>
       </set>
       <set comment="band 5">
        <r>  0.0006  0.0094  0.9677 </r>
       </set>
       <set comment="band 6">
        <r>  0.0428  0.4523  0.2051 </r>
       </set>
       <set comment="band 7">
        <r>  0.0000  0.4956  0.1924 </r>
       </set>
       <set comment="band 8">
        <r>  0.1657  0.3832  0.1270 </r>
       </set>
       <set comment="band 9">
        <r>  0.0000  0.0630  0.4952 </r>
       </set>
       <set comment="band 10">
        <r>  0.0184  0.0690  0.4476 </r>
       </set>
       <set comment="band 11">
        <r>  0.4839  0.2492  0.0154 </r>
       </set>
       <set comment="band 12">
        <r>  0.0235  0.0542  0.2500 </r>
       </set>
      </set>
      <set comment="kpoint 242">
       <set comment="band 1">
        <r>  0.0207  0.0861  0.6735 </r>
       </set>
       <set comment="band 2">
        <r>  0.0000  0.0000  0.8272 </r>
       </set>
       <set comment="band 3">
        <r>  0.0000  0.0383  0.9073 </r>
       </set>
       <set comment="band 4">
        <r>  0.0000  0.0383  0.9073 </r>
       </set>
       <set comment="band 5">
        <r>  0.0000  0.0000  0.9785 </r>
       </set>
       <set comment="band 6">
        <r>  0.1558  0.3067  0.2828 </r>
       </set>
       <set comment="band 7">
        <r>  0.0000  0.5351  0.1362 </r>
       </set>
       <set comment="band 8">
        <r>  0.0000  0.5351  0.1362 </r>
       </set>
       <set comment="band 9">
        <r>  0.0000  0.0000  0.5961 </r>
       </set>
       <set comment="band 10">
        <r>  0.2345  0.0043  0.2951 </r>
       </set>
       <set comment="band 11">
        <r>  0.3090  0.2604  0.1207 </r>
       </set>
       <set comment="band 12">
        <r>  0.0000  0.0000  0.2721 </r>
       </set>
      </set>
      <set comment="kpoint 243">
       <set comment="band 1">
        <r>  0.0077  0.0560  0.7329 </r>
       </set>
       <set comment="band 2">
        <r>  0.0000  0.0028  0.8201 </r>
       </set>
       <set comment="band 3">
        <r>  0.0000  0.0306  0.9221 </r>
       </set>
       <set comment="band 4">
        <r>  0.0029  0.0328  0.9153 </r>
       </set>
       <set comment="band 5">
        <r>  0.0000  0.0016  0.9799 </r>
       </set>
       <set comment="band 6">
        <r>  0.1223  0.3764  0.2153 </r>
       </set>
       <set comment="band 7">
        <r>  0.0250  0.5117  0.1312 </r>
       </set>
       <set comment="band 8">
        <r>  0.0000  0.5549  0.1037 </r>
       </set>
       <set comment="band 9">
        <r>  0.0065  0.0106  0.5847 </r>
       </set>
       <set comment="band 10">
        <r>  0.1514  0.0195  0.3770 </r>
       </set>
       <set comment="band 11">
        <r>  0.4167  0.2249  0.0777 </r>
       </set>
       <set comment="band 12">
        <r>  0.0000  0.0182  0.2248 </r>
       </set>
      </set>
      <set comment="kpoint 244">
       <set comment="band 1">
        <r>  0.0017  0.0331  0.7731 </r>
       </set>
       <set comment="band 2">
        <r>  0.0003  0.0118  0.8055 </r>
       </set>
       <set comment="band 3">
        <r>  0.0000  0.0259  0.9298 </r>
       </set>
       <set comment="band 4">
        <r>  0.0070  0.0289  0.9171 </r>
       </set>
       <set comment="band 5">
        <r>  0.0000  0.0004  0.9854 </r>
       </set>
       <set comment="band 6">
        <r>  0.0568  0.4586  0.1746 </r>
       </set>
       <set comment="band 7">
        <r>  0.0901  0.4400  0.1488 </r>
       </set>
       <set comment="band 8">
        <r>  0.0000  0.5679  0.0818 </r>
       </set>
       <set comment="band 9">
        <r>  0.0377  0.0064  0.5532 </r>
       </set>
       <set comment="band 10">
        <r>  0.0249  0.0608  0.4601 </r>
       </set>
       <set comment="band 11">
        <r>  0.5193  0.1977  0.0292 </r>
       </set>
       <set comment="band 12">
        <r>  0.0000  0.0320  0.2072 </r>
       </set>
      </set>
      <set comment="kpoint 245">
       <set comment="band 1">
        <r>  0.0020  0.0329  0.7724 </r>
       </set>
       <set comment="band 2">
        <r>  0.0000  0.0052  0.8144 </r>
       </set>
       <set comment="band 3">
        <r>  0.0033  0.0268  0.9243 </r>
       </set>
       <set comment="band 4">
        <r>  0.0000  0.0227  0.9416 </r>
       </set>
       <set comment="band 5">
        <r>  0.0004  0.0020  0.9806 </r>
       </set>
       <set comment="band 6">
        <r>  0.0808  0.4443  0.1615 </r>
       </set>
       <set comment="band 7">
        <r>  0.0000  0.5469  0.1114 </r>
       </set>
       <set comment="band 8">
        <r>  0.0491  0.5184  0.0853 </r>
       </set>
       <set comment="band 9">
        <r>  0.0000  0.0254  0.5778 </r>
       </set>
       <set comment="band 10">
        <r>  0.0684  0.0344  0.4596 </r>
       </set>
       <set comment="band 11">
        <r>  0.5389  0.1733  0.0324 </r>
       </set>
       <set comment="band 12">
        <r>  0.0026  0.0224  0.1826 </r>
       </set>
      </set>
      <set comment="kpoint 246">
       <set comment="band 1">
        <r>  0.0000  0.0206  0.7920 </r>
       </set>
       <set comment="band 2">
        <r>  0.0003  0.0105  0.8059 </r>
       </set>
       <set comment="band 3">
        <r>  0.0040  0.0255  0.9254 </r>
       </set>
       <set comment="band 4">
        <r>  0.0007  0.0164  0.9531 </r>
       </set>
       <set comment="band 5">
        <r>  0.0000  0.0035  0.9796 </r>
       </set>
       <set comment="band 6">
        <r>  0.0000  0.5344  0.1330 </r>
       </set>
       <set comment="band 7">
        <r>  0.0876  0.4605  0.1195 </r>
       </set>
       <set comment="band 8">
        <r>  0.0397  0.5302  0.0796 </r>
       </set>
       <set comment="band 9">
        <r>  0.0125  0.0296  0.5533 </r>
       </set>
       <set comment="band 10">
        <r>  0.0000  0.0564  0.5134 </r>
       </set>
       <set comment="band 11">
        <r>  0.6014  0.1487  0.0068 </r>
       </set>
       <set comment="band 12">
        <r>  0.0041  0.0272  0.1712 </r>
       </set>
      </set>
      <set comment="kpoint 247">
       <set comment="band 1">
        <r>  0.0024  0.0313  0.7732 </r>
       </set>
       <set comment="band 2">
        <r>  0.0000  0.0000  0.8210 </r>
       </set>
       <set comment="band 3">
        <r>  0.0000  0.0230  0.9409 </r>
       </set>
       <set comment="band 4">
        <r>  0.0000  0.0230  0.9409 </r>
       </set>
       <set comment="band 5">
        <r>  0.0000  0.0000  0.9829 </r>
       </set>
       <set comment="band 6">
        <r>  0.0936  0.4427  0.1444 </r>
       </set>
       <set comment="band 7">
        <r>  0.0000  0.5769  0.0663 </r>
       </set>
       <set comment="band 8">
        <r>  0.0000  0.5769  0.0663 </r>
       </set>
       <set comment="band 9">
        <r>  0.0000  0.0000  0.6235 </r>
       </set>
       <set comment="band 10">
        <r>  0.0991  0.0107  0.4645 </r>
       </set>
       <set comment="band 11">
        <r>  0.5534  0.1478  0.0408 </r>
       </set>
       <set comment="band 12">
        <r>  0.0000  0.0000  0.1393 </r>
       </set>
      </set>
      <set comment="kpoint 248">
       <set comment="band 1">
        <r>  0.0004  0.0149  0.7982 </r>
       </set>
       <set comment="band 2">
        <r>  0.0000  0.0025  0.8160 </r>
       </set>
       <set comment="band 3">
        <r>  0.0000  0.0142  0.9570 </r>
       </set>
       <set comment="band 4">
        <r>  0.0010  0.0152  0.9549 </r>
       </set>
       <set comment="band 5">
        <r>  0.0000  0.0004  0.9850 </r>
       </set>
       <set comment="band 6">
        <r>  0.0454  0.5155  0.0942 </r>
       </set>
       <set comment="band 7">
        <r>  0.0255  0.5545  0.0607 </r>
       </set>
       <set comment="band 8">
        <r>  0.0000  0.5921  0.0399 </r>
       </set>
       <set comment="band 9">
        <r>  0.0045  0.0077  0.6106 </r>
       </set>
       <set comment="band 10">
        <r>  0.0192  0.0323  0.5412 </r>
       </set>
       <set comment="band 11">
        <r>  0.6601  0.0895  0.0089 </r>
       </set>
       <set comment="band 12">
        <r>  0.0000  0.0056  0.0972 </r>
       </set>
      </set>
      <set comment="kpoint 249">
       <set comment="band 1">
        <r>  0.0000  0.0052  0.8116 </r>
       </set>
       <set comment="band 2">
        <r>  0.0000  0.0052  0.8116 </r>
       </set>
       <set comment="band 3">
        <r>  0.0007  0.0124  0.9595 </r>
       </set>
       <set comment="band 4">
        <r>  0.0000  0.0036  0.9792 </r>
       </set>
       <set comment="band 5">
        <r>  0.0000  0.0036  0.9792 </r>
       </set>
       <set comment="band 6">
        <r>  0.0000  0.5836  0.0510 </r>
       </set>
       <set comment="band 7">
        <r>  0.0000  0.5836  0.0511 </r>
       </set>
       <set comment="band 8">
        <r>  0.0510  0.5468  0.0341 </r>
       </set>
       <set comment="band 9">
        <r>  0.0000  0.0213  0.5952 </r>
       </set>
       <set comment="band 10">
        <r>  0.0000  0.0213  0.5952 </r>
       </set>
       <set comment="band 11">
        <r>  0.7082  0.0547  0.0003 </r>
       </set>
       <set comment="band 12">
        <r>  0.0003  0.0048  0.0665 </r>
       </set>
      </set>
      <set comment="kpoint 250">
       <set comment="band 1">
        <r>  0.0000  0.0035  0.8133 </r>
       </set>
       <set comment="band 2">
        <r>  0.0000  0.0000  0.8182 </r>
       </set>
       <set comment="band 3">
        <r>  0.0000  0.0036  0.9791 </r>
       </set>
       <set comment="band 4">
        <r>  0.0000  0.0036  0.9791 </r>
       </set>
       <set comment="band 5">
        <r>  0.0000  0.0000  0.9855 </r>
       </set>
       <set comment="band 6">
        <r>  0.0166  0.5820  0.0278 </r>
       </set>
       <set comment="band 7">
        <r>  0.0000  0.6097  0.0092 </r>
       </set>
       <set comment="band 8">
        <r>  0.0000  0.6097  0.0092 </r>
       </set>
       <set comment="band 9">
        <r>  0.0000  0.0000  0.6372 </r>
       </set>
       <set comment="band 10">
        <r>  0.0026  0.0123  0.6109 </r>
       </set>
       <set comment="band 11">
        <r>  0.7449  0.0192  0.0008 </r>
       </set>
       <set comment="band 12">
        <r>  0.0000  0.0000  0.0209 </r>
       </set>
      </set>
     </set>
    </set>
   </array>
  </projected>
 </calculation>
 <structure name="finalpos" >
  <crystal>
   <varray name="basis" >
    <v>      -1.42000000       1.42000000       1.42000000 </v>
    <v>       1.42000000      -1.42000000       1.42000000 </v>
    <v>       1.42000000       1.42000000      -1.42000000 </v>
   </varray>
   <i name="volume">     11.45315200 </i>
   <varray name="rec_basis" >
    <v>       0.00000000       0.35211268       0.35211268 </v>
    <v>       0.35211268       0.00000000       0.35211268 </v>
    <v>       0.35211268       0.35211268       0.00000000 </v>
   </varray>
  </crystal>
  <varray name="positions" >
   <v>       0.00000000       0.00000000       0.00000000 </v>
  </varray>
 </structure>
</modeling>
