bcc Fe                                  
           1
    -1.420000    1.420000    1.420000
     1.420000   -1.420000    1.420000
     1.420000    1.420000   -1.420000
   Fe
   1
Direct configuration=     1
   0.00000000  0.00000000  0.00000000
