BCC W                                   
   2.85000000000000     
    -0.500000    0.500000    0.500000
     0.500000   -0.500000    0.500000
     0.500000    0.500000   -0.500000
   W 
     1
Direct
  0.000000  0.000000  0.000000
 
   20   20   20
  11.204      10.765      9.8102      9.0407      8.7811      8.7369      8.4238      7.7127      6.9006      6.3490    
  6.1741      6.3490      6.9006      7.7127      8.4238      8.7369      8.7811      9.0407      9.8102      10.765    
  10.765      10.607      9.8000      8.9705      8.5921      8.5523      8.3834      7.8195      7.0385      6.4082    
  6.1260      6.1829      6.5888      7.3110      8.0705      8.5170      8.6096      8.7274      9.2723      10.150    
  9.8102      9.8000      9.1848      8.4154      7.9828      7.9341      7.9007      7.5515      6.9261      6.3268    
  5.9886      5.9481      6.2089      6.7711      7.4856      8.0443      8.2745      8.3613      8.6649      9.2723    
  9.0407      8.9705      8.4154      7.6750      7.1804      7.0753      7.1161      6.9742      6.5723      6.1022    
  5.7810      5.6822      5.8388      6.2373      6.8385      7.4548      7.8825      8.1196      8.3613      8.7274    
  8.7811      8.5921      7.9828      7.1804      6.5549      6.3042      6.3046      6.2785      6.0774      5.7762    
  5.5301      5.4208      5.5074      5.7897      6.2484      6.8322      7.4075      7.8825      8.2745      8.6096    
  8.7369      8.5523      7.9341      7.0753      6.3042      5.8539      5.7075      5.6708      5.5788      5.4177    
  5.2654      5.1839      5.2328      5.4364      5.7753      6.2487      6.8322      7.4548      8.0443      8.5170    
  8.4238      8.3834      7.9007      7.1161      6.3046      5.7075      5.3918      5.2587      5.1760      5.0889    
  5.0124      4.9770      5.0205      5.1655      5.4202      5.7753      6.2484      6.8385      7.4856      8.0705    
  7.7127      7.8195      7.5515      6.9742      6.2785      5.6708      5.2587      5.0253      4.8978      4.8250    
  4.7907      4.7995      4.8594      4.9773      5.1655      5.4364      5.7897      6.2373      6.7711      7.3110    
  6.9006      7.0385      6.9261      6.5723      6.0774      5.5788      5.1760      4.8978      4.7264      4.6374    
  4.6163      4.6536      4.7376      4.8594      5.0205      5.2328      5.5074      5.8388      6.2089      6.5888    
  6.3490      6.4082      6.3268      6.1022      5.7762      5.4177      5.0889      4.8250      4.6374      4.5304    
  4.5037      4.5497      4.6536      4.7995      4.9770      5.1839      5.4208      5.6822      5.9481      6.1829    
  6.1741      6.1260      5.9886      5.7810      5.5301      5.2654      5.0124      4.7907      4.6163      4.5037    
  4.4646      4.5037      4.6163      4.7907      5.0124      5.2654      5.5301      5.7810      5.9886      6.1260    
  6.3490      6.1829      5.9481      5.6822      5.4208      5.1839      4.9770      4.7995      4.6536      4.5497    
  4.5037      4.5304      4.6374      4.8250      5.0889      5.4177      5.7762      6.1022      6.3268      6.4082    
  6.9006      6.5888      6.2089      5.8388      5.5074      5.2328      5.0205      4.8594      4.7376      4.6536    
  4.6163      4.6374      4.7264      4.8978      5.1760      5.5788      6.0774      6.5723      6.9261      7.0385    
  7.7127      7.3110      6.7711      6.2373      5.7897      5.4364      5.1655      4.9773      4.8594      4.7995    
  4.7907      4.8250      4.8978      5.0253      5.2587      5.6708      6.2785      6.9742      7.5515      7.8195    
  8.4238      8.0705      7.4856      6.8385      6.2484      5.7753      5.4202      5.1655      5.0205      4.9770    
  5.0124      5.0889      5.1760      5.2587      5.3918      5.7075      6.3046      7.1161      7.9007      8.3834    
  8.7369      8.5170      8.0443      7.4548      6.8322      6.2487      5.7753      5.4364      5.2328      5.1839    
  5.2654      5.4177      5.5788      5.6708      5.7075      5.8539      6.3042      7.0753      7.9341      8.5523    
  8.7811      8.6096      8.2745      7.8825      7.4075      6.8322      6.2484      5.7897      5.5074      5.4208    
  5.5301      5.7762      6.0774      6.2785      6.3046      6.3042      6.5549      7.1804      7.9828      8.5921    
  9.0407      8.7274      8.3613      8.1196      7.8825      7.4548      6.8385      6.2373      5.8388      5.6822    
  5.7810      6.1022      6.5723      6.9742      7.1161      7.0753      7.1804      7.6750      8.4154      8.9705    
  9.8102      9.2723      8.6649      8.3613      8.2745      8.0443      7.4856      6.7711      6.2089      5.9481    
  5.9886      6.3268      6.9261      7.5515      7.9007      7.9341      7.9828      8.4154      9.1848      9.8000    
  10.765      10.150      9.2723      8.7274      8.6096      8.5170      8.0705      7.3110      6.5888      6.1829    
  6.1260      6.4082      7.0385      7.8195      8.3834      8.5523      8.5921      8.9705      9.8000      10.607    
  10.765      10.607      9.8000      8.9705      8.5921      8.5523      8.3834      7.8195      7.0385      6.4082    
  6.1260      6.1829      6.5888      7.3110      8.0705      8.5170      8.6096      8.7274      9.2723      10.150    
  10.607      10.764      10.149      9.2709      8.7264      8.6091      8.5170      8.0706      7.3111      6.5889    
  6.1829      6.1260      6.4082      7.0384      7.8195      8.3836      8.5529      8.5930      8.9715      9.8007    
  9.8000      10.149      9.7991      9.0452      8.4513      8.2653      8.2284      7.9417      7.3159      6.6145    
  6.1403      5.9846      6.1403      6.6144      7.3158      7.9417      8.2286      8.2660      8.4525      9.0465    
  8.9705      9.2709      9.0452      8.4152      7.8244      7.5792      7.5657      7.4383      7.0185      6.4496    
  5.9955      5.7853      5.8426      6.1642      6.7256      7.3510      7.7848      7.9593      8.0959      8.4520    
  8.5921      8.7264      8.4513      7.8244      7.1808      6.8269      6.7608      6.7244      6.5030      6.1226    
  5.7645      5.5565      5.5496      5.7655      6.1779      6.7355      7.2776      7.6732      7.9591      8.2654    
  8.5523      8.6091      8.2653      7.5792      6.8269      6.3047      6.0940      6.0368      5.9301      5.7165    
  5.4832      5.3218      5.2912      5.4348      5.7355      6.1775      6.7219      7.2775      7.7845      8.2282    
  8.3834      8.5170      8.2284      7.5657      6.7608      6.0940      5.7076      5.5417      5.4443      5.3246    
  5.1947      5.0972      5.0780      5.1744      5.3967      5.7288      6.1775      6.7355      7.3508      7.9415    
  7.8195      8.0706      7.9417      7.4383      6.7244      6.0368      5.5417      5.2586      5.1061      5.0062    
  4.9338      4.8931      4.9047      4.9845      5.1453      5.3968      5.7355      6.1779      6.7255      7.3157    
  7.0385      7.3111      7.3159      7.0185      6.5030      5.9301      5.4443      5.1061      4.8977      4.7787    
  4.7222      4.7185      4.7633      4.8514      4.9845      5.1744      5.4348      5.7655      6.1641      6.6144    
  6.4082      6.5889      6.6145      6.4496      6.1226      5.7165      5.3246      5.0062      4.7787      4.6374    
  4.5755      4.5854      4.6533      4.7633      4.9047      5.0780      5.2912      5.5496      5.8426      6.1402    
  6.1260      6.1829      6.1403      5.9955      5.7645      5.4832      5.1947      4.9338      4.7222      4.5755    
  4.5037      4.5092      4.5854      4.7185      4.8931      5.0972      5.3218      5.5565      5.7853      5.9845    
  6.1829      6.1260      5.9846      5.7853      5.5565      5.3218      5.0972      4.8931      4.7185      4.5854    
  4.5092      4.5037      4.5755      4.7222      4.9338      5.1948      5.4833      5.7645      5.9955      6.1402    
  6.5888      6.4082      6.1403      5.8426      5.5496      5.2912      5.0780      4.9047      4.7633      4.6533    
  4.5854      4.5755      4.6375      4.7787      5.0063      5.3247      5.7166      6.1225      6.4495      6.6144    
  7.3110      7.0384      6.6144      6.1642      5.7655      5.4348      5.1744      4.9845      4.8514      4.7633    
  4.7185      4.7222      4.7787      4.8978      5.1063      5.4444      5.9300      6.5029      7.0183      7.3157    
  8.0705      7.8195      7.3158      6.7256      6.1779      5.7355      5.3967      5.1453      4.9845      4.9047    
  4.8931      4.9338      5.0063      5.1063      5.2587      5.5417      6.0366      6.7241      7.4379      7.9415    
  8.5170      8.3836      7.9417      7.3510      6.7355      6.1775      5.7288      5.3968      5.1744      5.0780    
  5.0972      5.1948      5.3247      5.4444      5.5417      5.7073      6.0935      6.7602      7.5652      8.2282    
  8.6096      8.5529      8.2286      7.7848      7.2776      6.7219      6.1775      5.7355      5.4348      5.2912    
  5.3218      5.4833      5.7166      5.9300      6.0366      6.0935      6.3040      6.8263      7.5788      8.2654    
  8.7274      8.5930      8.2660      7.9593      7.6732      7.2775      6.7355      6.1779      5.7655      5.5496    
  5.5565      5.7645      6.1225      6.5029      6.7241      6.7602      6.8263      7.1804      7.8245      8.4520    
  9.2723      8.9715      8.4525      8.0959      7.9591      7.7845      7.3508      6.7255      6.1641      5.8426    
  5.7853      5.9955      6.4495      7.0183      7.4379      7.5652      7.5788      7.8245      8.4160      9.0465    
  10.150      9.8007      9.0465      8.4520      8.2654      8.2282      7.9415      7.3157      6.6144      6.1402    
  5.9845      6.1402      6.6144      7.3157      7.9415      8.2282      8.2654      8.4520      9.0465      9.8007    
  9.8102      9.8000      9.1848      8.4154      7.9828      7.9341      7.9007      7.5515      6.9261      6.3268    
  5.9886      5.9481      6.2089      6.7711      7.4856      8.0443      8.2745      8.3613      8.6649      9.2723    
  9.8000      10.149      9.7991      9.0452      8.4513      8.2653      8.2284      7.9417      7.3159      6.6145    
  6.1403      5.9846      6.1403      6.6144      7.3158      7.9417      8.2286      8.2660      8.4525      9.0465    
  9.1848      9.7991      9.8088      9.2708      8.6638      8.3609      8.2746      8.0446      7.4858      6.7712    
  6.2089      5.9481      5.9886      6.3268      6.9261      7.5516      7.9010      7.9347      7.9836      8.4160    
  8.4154      9.0452      9.2708      8.9703      8.4519      8.0960      7.9595      7.7850      7.3511      6.7257    
  6.1641      5.8426      5.7853      5.9955      6.4496      7.0184      7.4381      7.5656      7.5792      7.8245    
  7.9828      8.4513      8.6638      8.4519      7.9838      7.5798      7.3779      7.2335      6.9382      6.4705    
  5.9976      5.6797      5.5633      5.6797      5.9976      6.4705      6.9381      7.2331      7.3772      7.5788    
  7.9341      8.2653      8.3609      8.0960      7.5798      7.0762      6.7609      6.5849      6.3825      6.0753    
  5.7366      5.4774      5.3493      5.4011      5.6256      5.9878      6.4403      6.8750      7.2329      7.5652    
  7.9007      8.2284      8.2746      7.9595      7.3779      6.7609      6.3047      6.0366      5.8499      5.6489    
  5.4343      5.2573      5.1559      5.1762      5.3331      5.6056      5.9804      6.4403      6.9379      7.4379    
  7.5515      7.9417      8.0446      7.7850      7.2335      6.5849      6.0366      5.6705      5.4441      5.2801    
  5.1443      5.0401      4.9854      5.0054      5.1140      5.3170      5.6056      5.9878      6.4704      7.0183    
  6.9261      7.3159      7.4858      7.3511      6.9382      6.3825      5.8499      5.4441      5.1758      5.0061    
  4.9014      4.8447      4.8361      4.8763      4.9659      5.1140      5.3331      5.6256      5.9976      6.4495    
  6.3268      6.6145      6.7712      6.7257      6.4705      6.0753      5.6489      5.2801      5.0061      4.8250    
  4.7223      4.6878      4.7113      4.7780      4.8763      5.0054      5.1762      5.4011      5.6797      5.9955    
  5.9886      6.1403      6.2089      6.1641      5.9976      5.7366      5.4343      5.1443      4.9014      4.7223    
  4.6163      4.5854      4.6221      4.7113      4.8361      4.9854      5.1560      5.3493      5.5633      5.7853    
  5.9481      5.9846      5.9481      5.8426      5.6797      5.4774      5.2573      5.0401      4.8447      4.6878    
  4.5854      4.5497      4.5854      4.6878      4.8447      5.0402      5.2573      5.4775      5.6797      5.8426    
  6.2089      6.1403      5.9886      5.7853      5.5633      5.3493      5.1559      4.9854      4.8361      4.7113    
  4.6221      4.5854      4.6163      4.7223      4.9014      5.1444      5.4345      5.7367      5.9976      6.1641    
  6.7711      6.6144      6.3268      5.9955      5.6797      5.4011      5.1762      5.0054      4.8763      4.7780    
  4.7113      4.6878      4.7223      4.8250      5.0063      5.2803      5.6491      6.0754      6.4704      6.7255    
  7.4856      7.3158      6.9261      6.4496      5.9976      5.6256      5.3331      5.1140      4.9659      4.8763    
  4.8361      4.8447      4.9014      5.0063      5.1760      5.4444      5.8501      6.3824      6.9379      7.3508    
  8.0443      7.9417      7.5516      7.0184      6.4705      5.9878      5.6056      5.3170      5.1140      5.0054    
  4.9854      5.0402      5.1444      5.2803      5.4444      5.6706      6.0365      6.5845      7.2329      7.7845    
  8.2745      8.2286      7.9010      7.4381      6.9381      6.4403      5.9804      5.6056      5.3331      5.1762    
  5.1560      5.2573      5.4345      5.6491      5.8501      6.0365      6.3042      6.7602      7.3772      7.9591    
  8.3613      8.2660      7.9347      7.5656      7.2331      6.8750      6.4403      5.9878      5.6256      5.4011    
  5.3493      5.4775      5.7367      6.0754      6.3824      6.5845      6.7602      7.0753      7.5792      8.0959    
  8.6649      8.4525      7.9836      7.5792      7.3772      7.2329      6.9379      6.4704      5.9976      5.6797    
  5.5633      5.6797      5.9976      6.4704      6.9379      7.2329      7.3772      7.5792      7.9836      8.4525    
  9.2723      9.0465      8.4160      7.8245      7.5788      7.5652      7.4379      7.0183      6.4495      5.9955    
  5.7853      5.8426      6.1641      6.7255      7.3508      7.7845      7.9591      8.0959      8.4525      8.9715    
  9.0407      8.9705      8.4154      7.6750      7.1804      7.0753      7.1161      6.9742      6.5723      6.1022    
  5.7810      5.6822      5.8388      6.2373      6.8385      7.4548      7.8825      8.1196      8.3613      8.7274    
  8.9705      9.2709      9.0452      8.4152      7.8244      7.5792      7.5657      7.4383      7.0185      6.4496    
  5.9955      5.7853      5.8426      6.1642      6.7256      7.3510      7.7848      7.9593      8.0959      8.4520    
  8.4154      9.0452      9.2708      8.9703      8.4519      8.0960      7.9595      7.7850      7.3511      6.7257    
  6.1641      5.8426      5.7853      5.9955      6.4496      7.0184      7.4381      7.5656      7.5792      7.8245    
  7.6750      8.4152      8.9703      9.0406      8.7275      8.3616      8.1199      7.8827      7.4549      6.8385    
  6.2373      5.8387      5.6822      5.7810      6.1022      6.5722      6.9742      7.1161      7.0753      7.1804    
  7.1804      7.8244      8.4519      8.7275      8.5934      8.2665      7.9597      7.6734      7.2776      6.7354    
  6.1778      5.7654      5.5496      5.5565      5.7645      6.1225      6.5028      6.7241      6.7602      6.8263    
  7.0753      7.5792      8.0960      8.3616      8.2665      7.9352      7.5659      7.2331      6.8749      6.4401    
  5.9876      5.6256      5.4011      5.3493      5.4775      5.7366      6.0753      6.3824      6.5845      6.7602    
  7.1161      7.5657      7.9595      8.1199      7.9597      7.5659      7.1162      6.7239      6.3821      6.0431    
  5.7114      5.4365      5.2462      5.1761      5.2462      5.4365      5.7115      6.0433      6.3824      6.7241    
  6.9742      7.4383      7.7850      7.8827      7.6734      7.2331      6.7239      6.2779      5.9296      5.6488    
  5.4128      5.2254      5.0921      5.0375      5.0758      5.2092      5.4242      5.7115      6.0754      6.5029    
  6.5723      7.0185      7.3511      7.4549      7.2776      6.8749      6.3821      5.9296      5.5785      5.3245    
  5.1444      5.0200      4.9451      4.9245      4.9585      5.0505      5.2092      5.4365      5.7367      6.1225    
  6.1022      6.4496      6.7257      6.8385      6.7354      6.4401      6.0431      5.6488      5.3245      5.0890    
  4.9339      4.8447      4.8138      4.8296      4.8793      4.9585      5.0758      5.2462      5.4775      5.7645    
  5.7810      5.9955      6.1641      6.2373      6.1778      5.9876      5.7114      5.4128      5.1444      4.9339    
  4.7908      4.7185      4.7113      4.7543      4.8296      4.9245      5.0374      5.1761      5.3493      5.5565    
  5.6822      5.7853      5.8426      5.8387      5.7654      5.6256      5.4365      5.2254      5.0200      4.8447    
  4.7185      4.6536      4.6533      4.7112      4.8137      4.9450      5.0921      5.2462      5.4011      5.5496    
  5.8388      5.8426      5.7853      5.6822      5.5496      5.4011      5.2462      5.0921      4.9451      4.8138    
  4.7113      4.6533      4.6536      4.7185      4.8447      5.0200      5.2254      5.4365      5.6256      5.7655    
  6.2373      6.1642      5.9955      5.7810      5.5565      5.3493      5.1761      5.0375      4.9245      4.8296    
  4.7543      4.7112      4.7185      4.7907      4.9339      5.1444      5.4129      5.7115      5.9878      6.1779    
  6.8385      6.7256      6.4496      6.1022      5.7645      5.4775      5.2462      5.0758      4.9585      4.8793    
  4.8296      4.8137      4.8447      4.9339      5.0890      5.3246      5.6490      6.0433      6.4403      6.7355    
  7.4548      7.3510      7.0184      6.5722      6.1225      5.7366      5.4365      5.2092      5.0505      4.9585    
  4.9245      4.9450      5.0200      5.1444      5.3246      5.5787      5.9299      6.3824      6.8750      7.2775    
  7.8825      7.7848      7.4381      6.9742      6.5028      6.0753      5.7115      5.4242      5.2092      5.0758    
  5.0374      5.0921      5.2254      5.4129      5.6490      5.9299      6.2782      6.7241      7.2331      7.6732    
  8.1196      7.9593      7.5656      7.1161      6.7241      6.3824      6.0433      5.7115      5.4365      5.2462    
  5.1761      5.2462      5.4365      5.7115      6.0433      6.3824      6.7241      7.1161      7.5656      7.9593    
  8.3613      8.0959      7.5792      7.0753      6.7602      6.5845      6.3824      6.0754      5.7367      5.4775    
  5.3493      5.4011      5.6256      5.9878      6.4403      6.8750      7.2331      7.5656      7.9347      8.2660    
  8.7274      8.4520      7.8245      7.1804      6.8263      6.7602      6.7241      6.5029      6.1225      5.7645    
  5.5565      5.5496      5.7655      6.1779      6.7355      7.2775      7.6732      7.9593      8.2660      8.5930    
  8.7811      8.5921      7.9828      7.1804      6.5549      6.3042      6.3046      6.2785      6.0774      5.7762    
  5.5301      5.4208      5.5074      5.7897      6.2484      6.8322      7.4075      7.8825      8.2745      8.6096    
  8.5921      8.7264      8.4513      7.8244      7.1808      6.8269      6.7608      6.7244      6.5030      6.1226    
  5.7645      5.5565      5.5496      5.7655      6.1779      6.7355      7.2776      7.6732      7.9591      8.2654    
  7.9828      8.4513      8.6638      8.4519      7.9838      7.5798      7.3779      7.2335      6.9382      6.4705    
  5.9976      5.6797      5.5633      5.6797      5.9976      6.4705      6.9381      7.2331      7.3772      7.5788    
  7.1804      7.8244      8.4519      8.7275      8.5934      8.2665      7.9597      7.6734      7.2776      6.7354    
  6.1778      5.7654      5.5496      5.5565      5.7645      6.1225      6.5028      6.7241      6.7602      6.8263    
  6.5549      7.1808      7.9838      8.5934      8.7823      8.6104      8.2749      7.8824      7.4072      6.8318    
  6.2482      5.7896      5.5073      5.4208      5.5301      5.7762      6.0773      6.2782      6.3042      6.3040    
  6.3042      6.8269      7.5798      8.2665      8.6104      8.5533      8.2285      7.7843      7.2771      6.7215    
  6.1772      5.7354      5.4348      5.2912      5.3218      5.4832      5.7165      5.9299      6.0365      6.0935    
  6.3046      6.7608      7.3779      7.9597      8.2749      8.2285      7.9005      7.4374      6.9375      6.4399    
  5.9802      5.6056      5.3332      5.1763      5.1560      5.2573      5.4344      5.6490      5.8501      6.0366    
  6.2785      6.7244      7.2335      7.6734      7.8824      7.7843      7.4374      6.9735      6.5024      6.0752    
  5.7115      5.4243      5.2093      5.0758      5.0375      5.0921      5.2254      5.4129      5.6491      5.9300    
  6.0774      6.5030      6.9382      7.2776      7.4072      7.2771      6.9375      6.5024      6.0771      5.7165    
  5.4346      5.2256      5.0749      4.9856      4.9567      4.9856      5.0748      5.2254      5.4345      5.7166    
  5.7762      6.1226      6.4705      6.7354      6.8318      6.7215      6.4399      6.0752      5.7165      5.4178    
  5.1950      5.0403      4.9451      4.9025      4.8991      4.9257      4.9856      5.0921      5.2573      5.4833    
  5.5301      5.7645      5.9976      6.1778      6.2482      6.1772      5.9802      5.7115      5.4346      5.1950    
  5.0127      4.8932      4.8362      4.8296      4.8555      4.8990      4.9567      5.0374      5.1560      5.3218    
  5.4208      5.5565      5.6797      5.7654      5.7896      5.7354      5.6056      5.4243      5.2256      5.0403    
  4.8932      4.7995      4.7632      4.7779      4.8296      4.9024      4.9856      5.0758      5.1762      5.2912    
  5.5074      5.5496      5.5633      5.5496      5.5073      5.4348      5.3332      5.2093      5.0749      4.9451    
  4.8362      4.7632      4.7375      4.7632      4.8361      4.9450      5.0748      5.2092      5.3331      5.4348    
  5.7897      5.7655      5.6797      5.5565      5.4208      5.2912      5.1763      5.0758      4.9856      4.9025    
  4.8296      4.7779      4.7632      4.7995      4.8931      5.0402      5.2254      5.4242      5.6056      5.7355    
  6.2484      6.1779      5.9976      5.7645      5.5301      5.3218      5.1560      5.0375      4.9567      4.8991    
  4.8555      4.8296      4.8361      4.8931      5.0125      5.1948      5.4344      5.7115      5.9804      6.1775    
  6.8322      6.7355      6.4705      6.1225      5.7762      5.4832      5.2573      5.0921      4.9856      4.9257    
  4.8990      4.9024      4.9450      5.0402      5.1948      5.4177      5.7165      6.0753      6.4403      6.7219    
  7.4075      7.2776      6.9381      6.5028      6.0773      5.7165      5.4344      5.2254      5.0748      4.9856    
  4.9567      4.9856      5.0748      5.2254      5.4344      5.7165      6.0773      6.5028      6.9381      7.2776    
  7.8825      7.6732      7.2331      6.7241      6.2782      5.9299      5.6490      5.4129      5.2254      5.0921    
  5.0374      5.0758      5.2092      5.4242      5.7115      6.0753      6.5028      6.9742      7.4381      7.7848    
  8.2745      7.9591      7.3772      6.7602      6.3042      6.0365      5.8501      5.6491      5.4345      5.2573    
  5.1560      5.1762      5.3331      5.6056      5.9804      6.4403      6.9381      7.4381      7.9010      8.2286    
  8.6096      8.2654      7.5788      6.8263      6.3040      6.0935      6.0366      5.9300      5.7166      5.4833    
  5.3218      5.2912      5.4348      5.7355      6.1775      6.7219      7.2776      7.7848      8.2286      8.5529    
  8.7369      8.5523      7.9341      7.0753      6.3042      5.8539      5.7075      5.6708      5.5788      5.4177    
  5.2654      5.1839      5.2328      5.4364      5.7753      6.2487      6.8322      7.4548      8.0443      8.5170    
  8.5523      8.6091      8.2653      7.5792      6.8269      6.3047      6.0940      6.0368      5.9301      5.7165    
  5.4832      5.3218      5.2912      5.4348      5.7355      6.1775      6.7219      7.2775      7.7845      8.2282    
  7.9341      8.2653      8.3609      8.0960      7.5798      7.0762      6.7609      6.5849      6.3825      6.0753    
  5.7366      5.4774      5.3493      5.4011      5.6256      5.9878      6.4403      6.8750      7.2329      7.5652    
  7.0753      7.5792      8.0960      8.3616      8.2665      7.9352      7.5659      7.2331      6.8749      6.4401    
  5.9876      5.6256      5.4011      5.3493      5.4775      5.7366      6.0753      6.3824      6.5845      6.7602    
  6.3042      6.8269      7.5798      8.2665      8.6104      8.5533      8.2285      7.7843      7.2771      6.7215    
  6.1772      5.7354      5.4348      5.2912      5.3218      5.4832      5.7165      5.9299      6.0365      6.0935    
  5.8539      6.3047      7.0762      7.9352      8.5533      8.7373      8.5168      8.0436      7.4541      6.8317    
  6.2485      5.7753      5.4364      5.2328      5.1839      5.2654      5.4177      5.5787      5.6706      5.7073    
  5.7075      6.0940      6.7609      7.5659      8.2285      8.5168      8.3829      7.9408      7.3503      6.7352    
  6.1774      5.7289      5.3969      5.1745      5.0780      5.0972      5.1948      5.3246      5.4444      5.5417    
  5.6708      6.0368      6.5849      7.2331      7.7843      8.0436      7.9408      7.5509      7.0180      6.4704    
  5.9880      5.6058      5.3172      5.1141      5.0055      4.9854      5.0402      5.1444      5.2803      5.4444    
  5.5788      5.9301      6.3825      6.8749      7.2771      7.4541      7.3503      7.0180      6.5722      6.1228    
  5.7370      5.4368      5.2093      5.0506      4.9585      4.9245      4.9450      5.0200      5.1444      5.3247    
  5.4177      5.7165      6.0753      6.4401      6.7215      6.8317      6.7352      6.4704      6.1228      5.7766    
  5.4836      5.2575      5.0922      4.9856      4.9256      4.8990      4.9024      4.9450      5.0402      5.1948    
  5.2654      5.4832      5.7366      5.9876      6.1772      6.2485      6.1774      5.9880      5.7370      5.4836    
  5.2657      5.0973      4.9854      4.9245      4.8990      4.8928      4.8990      4.9245      4.9854      5.0972    
  5.1839      5.3218      5.4774      5.6256      5.7354      5.7753      5.7289      5.6058      5.4368      5.2575    
  5.0973      4.9770      4.9046      4.8762      4.8792      4.8990      4.9257      4.9585      5.0054      5.0780    
  5.2328      5.2912      5.3493      5.4011      5.4348      5.4364      5.3969      5.3172      5.2093      5.0922    
  4.9854      4.9046      4.8593      4.8514      4.8762      4.9245      4.9856      5.0505      5.1140      5.1744    
  5.4364      5.4348      5.4011      5.3493      5.2912      5.2328      5.1745      5.1141      5.0506      4.9856    
  4.9245      4.8762      4.8514      4.8593      4.9047      4.9854      5.0921      5.2092      5.3170      5.3968    
  5.7753      5.7355      5.6256      5.4775      5.3218      5.1839      5.0780      5.0055      4.9585      4.9256    
  4.8990      4.8792      4.8762      4.9047      4.9770      5.0972      5.2573      5.4365      5.6056      5.7288    
  6.2487      6.1775      5.9878      5.7366      5.4832      5.2654      5.0972      4.9854      4.9245      4.8990    
  4.8928      4.8990      4.9245      4.9854      5.0972      5.2654      5.4832      5.7366      5.9878      6.1775    
  6.8322      6.7219      6.4403      6.0753      5.7165      5.4177      5.1948      5.0402      4.9450      4.9024    
  4.8990      4.9257      4.9856      5.0921      5.2573      5.4832      5.7762      6.1225      6.4705      6.7355    
  7.4548      7.2775      6.8750      6.3824      5.9299      5.5787      5.3246      5.1444      5.0200      4.9450    
  4.9245      4.9585      5.0505      5.2092      5.4365      5.7366      6.1225      6.5722      7.0184      7.3510    
  8.0443      7.7845      7.2329      6.5845      6.0365      5.6706      5.4444      5.2803      5.1444      5.0402    
  4.9854      5.0054      5.1140      5.3170      5.6056      5.9878      6.4705      7.0184      7.5516      7.9417    
  8.5170      8.2282      7.5652      6.7602      6.0935      5.7073      5.5417      5.4444      5.3247      5.1948    
  5.0972      5.0780      5.1744      5.3968      5.7288      6.1775      6.7355      7.3510      7.9417      8.3836    
  8.4238      8.3834      7.9007      7.1161      6.3046      5.7075      5.3918      5.2587      5.1760      5.0889    
  5.0124      4.9770      5.0205      5.1655      5.4202      5.7753      6.2484      6.8385      7.4856      8.0705    
  8.3834      8.5170      8.2284      7.5657      6.7608      6.0940      5.7076      5.5417      5.4443      5.3246    
  5.1947      5.0972      5.0780      5.1744      5.3967      5.7288      6.1775      6.7355      7.3508      7.9415    
  7.9007      8.2284      8.2746      7.9595      7.3779      6.7609      6.3047      6.0366      5.8499      5.6489    