BCC W                                   
   2.85000000000000     
    -0.500000    0.500000    0.500000
     0.500000   -0.500000    0.500000
     0.500000    0.500000   -0.500000
   W 
     1
Direct
  0.000000  0.000000  0.000000
 
   20   20   20
 0.11203660432E+02 0.10764704057E+02 0.98102298499E+01 0.90406778273E+01 0.87810810801E+01
 0.87369029428E+01 0.84238498610E+01 0.77126949621E+01 0.69006020610E+01 0.63489688558E+01
 0.61740556594E+01 0.63489688558E+01 0.69006020610E+01 0.77126949621E+01 0.84238498610E+01
 0.87369029428E+01 0.87810810801E+01 0.90406778273E+01 0.98102298499E+01 0.10764704057E+02
 0.10764704057E+02 0.10606736306E+02 0.97999764501E+01 0.89704763081E+01 0.85921054282E+01
 0.85523410156E+01 0.83833893057E+01 0.78195073548E+01 0.70384500396E+01 0.64082399993E+01
 0.61260146083E+01 0.61829146838E+01 0.65888403969E+01 0.73110086620E+01 0.80704632364E+01
 0.85170248603E+01 0.86095521629E+01 0.87273582412E+01 0.92723327900E+01 0.10150316378E+02
 0.98102298499E+01 0.97999764501E+01 0.91848050109E+01 0.84153635606E+01 0.79827993729E+01
 0.79340809149E+01 0.79007032619E+01 0.75515486470E+01 0.69261147670E+01 0.63267954134E+01
 0.59886224562E+01 0.59480968848E+01 0.62088901335E+01 0.67710871644E+01 0.74856039315E+01
 0.80442842106E+01 0.82745385530E+01 0.83613179897E+01 0.86649242234E+01 0.92723327900E+01
 0.90406778273E+01 0.89704763081E+01 0.84153635606E+01 0.76749884233E+01 0.71803569663E+01
 0.70752847111E+01 0.71161334105E+01 0.69742425717E+01 0.65722670984E+01 0.61022038827E+01
 0.57809658345E+01 0.56821915606E+01 0.58387508442E+01 0.62373310354E+01 0.68384962391E+01
 0.74547556935E+01 0.78824611285E+01 0.81195584789E+01 0.83613179897E+01 0.87273582412E+01
 0.87810810801E+01 0.85921054282E+01 0.79827993729E+01 0.71803569663E+01 0.65548842669E+01
 0.63042478179E+01 0.63045600781E+01 0.62784898561E+01 0.60774104560E+01 0.57762301294E+01
 0.55300954505E+01 0.54208430433E+01 0.55073834854E+01 0.57896740693E+01 0.62483794291E+01
 0.68321554023E+01 0.74075014474E+01 0.78824611285E+01 0.82745385530E+01 0.86095521629E+01
 0.87369029428E+01 0.85523410156E+01 0.79340809149E+01 0.70752847111E+01 0.63042478179E+01
 0.58539127629E+01 0.57075315085E+01 0.56707825385E+01 0.55787920807E+01 0.54176932443E+01
 0.52654326626E+01 0.51839073088E+01 0.52328218248E+01 0.54363966169E+01 0.57753226577E+01
 0.62486734218E+01 0.68321554023E+01 0.74547556935E+01 0.80442842106E+01 0.85170248603E+01
 0.84238498610E+01 0.83833893057E+01 0.79007032619E+01 0.71161334105E+01 0.63045600781E+01
 0.57075315085E+01 0.53918251266E+01 0.52586745547E+01 0.51759905250E+01 0.50889446759E+01
 0.50124494107E+01 0.49770071219E+01 0.50205113869E+01 0.51654559755E+01 0.54201974471E+01
 0.57753226577E+01 0.62483794291E+01 0.68384962391E+01 0.74856039315E+01 0.80704632364E+01
 0.77126949621E+01 0.78195073548E+01 0.75515486470E+01 0.69742425717E+01 0.62784898561E+01
 0.56707825385E+01 0.52586745547E+01 0.50252875424E+01 0.48977714033E+01 0.48249596112E+01
 0.47907095991E+01 0.47994589970E+01 0.48593636460E+01 0.49772975299E+01 0.51654559755E+01
 0.54363966169E+01 0.57896740693E+01 0.62373310354E+01 0.67710871644E+01 0.73110086620E+01
 0.69006020610E+01 0.70384500396E+01 0.69261147670E+01 0.65722670984E+01 0.60774104560E+01
 0.55787920807E+01 0.51759905250E+01 0.48977714033E+01 0.47263941392E+01 0.46374361448E+01
 0.46162595540E+01 0.46535738896E+01 0.47375711477E+01 0.48593636460E+01 0.50205113869E+01
 0.52328218248E+01 0.55073834854E+01 0.58387508442E+01 0.62088901335E+01 0.65888403969E+01
 0.63489688558E+01 0.64082399993E+01 0.63267954134E+01 0.61022038827E+01 0.57762301294E+01
 0.54176932443E+01 0.50889446759E+01 0.48249596112E+01 0.46374361448E+01 0.45303576018E+01
 0.45036896799E+01 0.45496550455E+01 0.46535738896E+01 0.47994589970E+01 0.49770071219E+01
 0.51839073088E+01 0.54208430433E+01 0.56821915606E+01 0.59480968848E+01 0.61829146838E+01
 0.61740556594E+01 0.61260146083E+01 0.59886224562E+01 0.57809658345E+01 0.55300954505E+01
 0.52654326626E+01 0.50124494107E+01 0.47907095991E+01 0.46162595540E+01 0.45036896799E+01
 0.44646314581E+01 0.45036896799E+01 0.46162595540E+01 0.47907095991E+01 0.50124494107E+01
 0.52654326626E+01 0.55300954505E+01 0.57809658345E+01 0.59886224562E+01 0.61260146083E+01
 0.63489688558E+01 0.61829146838E+01 0.59480968848E+01 0.56821915606E+01 0.54208430433E+01
 0.51839073088E+01 0.49770071219E+01 0.47994589970E+01 0.46535738896E+01 0.45496550455E+01
 0.45036896799E+01 0.45303576018E+01 0.46374361448E+01 0.48249596112E+01 0.50889446759E+01
 0.54176932443E+01 0.57762301294E+01 0.61022038827E+01 0.63267954134E+01 0.64082399993E+01
 0.69006020610E+01 0.65888403969E+01 0.62088901335E+01 0.58387508442E+01 0.55073834854E+01
 0.52328218248E+01 0.50205113869E+01 0.48593636460E+01 0.47375711477E+01 0.46535738896E+01
 0.46162595540E+01 0.46374361448E+01 0.47263941392E+01 0.48977714033E+01 0.51759905250E+01
 0.55787920807E+01 0.60774104560E+01 0.65722670984E+01 0.69261147670E+01 0.70384500396E+01
 0.77126949621E+01 0.73110086620E+01 0.67710871644E+01 0.62373310354E+01 0.57896740693E+01
 0.54363966169E+01 0.51654559755E+01 0.49772975299E+01 0.48593636460E+01 0.47994589970E+01
 0.47907095991E+01 0.48249596112E+01 0.48977714033E+01 0.50252875424E+01 0.52586745547E+01
 0.56707825385E+01 0.62784898561E+01 0.69742425717E+01 0.75515486470E+01 0.78195073548E+01
 0.84238498610E+01 0.80704632364E+01 0.74856039315E+01 0.68384962391E+01 0.62483794291E+01
 0.57753226577E+01 0.54201974471E+01 0.51654559755E+01 0.50205113869E+01 0.49770071219E+01
 0.50124494107E+01 0.50889446759E+01 0.51759905250E+01 0.52586745547E+01 0.53918251266E+01
 0.57075315085E+01 0.63045600781E+01 0.71161334105E+01 0.79007032619E+01 0.83833893057E+01
 0.87369029428E+01 0.85170248603E+01 0.80442842106E+01 0.74547556935E+01 0.68321554023E+01
 0.62486734218E+01 0.57753226577E+01 0.54363966169E+01 0.52328218248E+01 0.51839073088E+01
 0.52654326626E+01 0.54176932443E+01 0.55787920807E+01 0.56707825385E+01 0.57075315085E+01
 0.58539127629E+01 0.63042478179E+01 0.70752847111E+01 0.79340809149E+01 0.85523410156E+01
 0.87810810801E+01 0.86095521629E+01 0.82745385530E+01 0.78824611285E+01 0.74075014474E+01
 0.68321554023E+01 0.62483794291E+01 0.57896740693E+01 0.55073834854E+01 0.54208430433E+01
 0.55300954505E+01 0.57762301294E+01 0.60774104560E+01 0.62784898561E+01 0.63045600781E+01
 0.63042478179E+01 0.65548842669E+01 0.71803569663E+01 0.79827993729E+01 0.85921054282E+01
 0.90406778273E+01 0.87273582412E+01 0.83613179897E+01 0.81195584789E+01 0.78824611285E+01
 0.74547556935E+01 0.68384962391E+01 0.62373310354E+01 0.58387508442E+01 0.56821915606E+01
 0.57809658345E+01 0.61022038827E+01 0.65722670984E+01 0.69742425717E+01 0.71161334105E+01
 0.70752847111E+01 0.71803569663E+01 0.76749884233E+01 0.84153635606E+01 0.89704763081E+01
 0.98102298499E+01 0.92723327900E+01 0.86649242234E+01 0.83613179897E+01 0.82745385530E+01
 0.80442842106E+01 0.74856039315E+01 0.67710871644E+01 0.62088901335E+01 0.59480968848E+01
 0.59886224562E+01 0.63267954134E+01 0.69261147670E+01 0.75515486470E+01 0.79007032619E+01
 0.79340809149E+01 0.79827993729E+01 0.84153635606E+01 0.91848050109E+01 0.97999764501E+01
 0.10764704057E+02 0.10150316378E+02 0.92723327900E+01 0.87273582412E+01 0.86095521629E+01
 0.85170248603E+01 0.80704632364E+01 0.73110086620E+01 0.65888403969E+01 0.61829146838E+01
 0.61260146083E+01 0.64082399993E+01 0.70384500396E+01 0.78195073548E+01 0.83833893057E+01
 0.85523410156E+01 0.85921054282E+01 0.89704763081E+01 0.97999764501E+01 0.10606736306E+02
 0.10764704057E+02 0.10606736306E+02 0.97999764501E+01 0.89704763081E+01 0.85921054282E+01
 0.85523410156E+01 0.83833893057E+01 0.78195073548E+01 0.70384500396E+01 0.64082399993E+01
 0.61260146083E+01 0.61829146838E+01 0.65888403969E+01 0.73110086620E+01 0.80704632364E+01
 0.85170248603E+01 0.86095521629E+01 0.87273582412E+01 0.92723327900E+01 0.10150316378E+02
 0.10606736306E+02 0.10763873302E+02 0.10148951603E+02 0.92709476211E+01 0.87263741626E+01
 0.86090976442E+01 0.85169605917E+01 0.80705586215E+01 0.73111023951E+01 0.65888859432E+01
 0.61829321374E+01 0.61260249961E+01 0.64082405498E+01 0.70384416319E+01 0.78195485345E+01
 0.83836184415E+01 0.85529104016E+01 0.85930332359E+01 0.89715264053E+01 0.98007063158E+01
 0.97999764501E+01 0.10148951603E+02 0.97991290819E+01 0.90452161043E+01 0.84513151088E+01
 0.82653094693E+01 0.82283896542E+01 0.79417354617E+01 0.73158606719E+01 0.66144659780E+01
 0.61402781363E+01 0.59845730715E+01 0.61402681739E+01 0.66144146419E+01 0.73157651615E+01
 0.79416974447E+01 0.82286229523E+01 0.82660164376E+01 0.84524812485E+01 0.90464958259E+01
 0.89704763081E+01 0.92709476211E+01 0.90452161043E+01 0.84152418287E+01 0.78244002503E+01
 0.75791537550E+01 0.75657176104E+01 0.74382532488E+01 0.70185190982E+01 0.64496008372E+01
 0.59955249356E+01 0.57852937185E+01 0.58426260687E+01 0.61641559560E+01 0.67256008500E+01
 0.73509999483E+01 0.77847588929E+01 0.79592969100E+01 0.80959220631E+01 0.84519921165E+01
 0.85921054282E+01 0.87263741626E+01 0.84513151088E+01 0.78244002503E+01 0.71808215460E+01
 0.68269319284E+01 0.67607630433E+01 0.67244488949E+01 0.65030092494E+01 0.61225650567E+01
 0.57645298050E+01 0.55565106794E+01 0.55496437031E+01 0.57654790111E+01 0.61779334076E+01
 0.67355413963E+01 0.72776036366E+01 0.76731800837E+01 0.79590568392E+01 0.82654096489E+01
 0.85523410156E+01 0.86090976442E+01 0.82653094693E+01 0.75791537550E+01 0.68269319284E+01
 0.63046617638E+01 0.60940107920E+01 0.60368073804E+01 0.59300522948E+01 0.57165357231E+01
 0.54832047735E+01 0.53217616879E+01 0.52912375048E+01 0.54347740664E+01 0.57354569006E+01
 0.61774691664E+01 0.67219157520E+01 0.72775257761E+01 0.77845116118E+01 0.82281668824E+01
 0.83833893057E+01 0.85169605917E+01 0.82283896542E+01 0.75657176104E+01 0.67607630433E+01
 0.60940107920E+01 0.57075895690E+01 0.55417039346E+01 0.54443421658E+01 0.53245691999E+01
 0.51947288387E+01 0.50972098329E+01 0.50779623670E+01 0.51743895628E+01 0.53967493554E+01
 0.57288006262E+01 0.61774572078E+01 0.67354805369E+01 0.73508487163E+01 0.79414606425E+01
 0.78195073548E+01 0.80705586215E+01 0.79417354617E+01 0.74382532488E+01 0.67244488949E+01
 0.60368073804E+01 0.55417039346E+01 0.52585524271E+01 0.51061173734E+01 0.50061506365E+01
 0.49337895896E+01 0.48931105817E+01 0.49046930220E+01 0.49845334780E+01 0.51453360414E+01
 0.53967507099E+01 0.57354525459E+01 0.61779051877E+01 0.67255338697E+01 0.73156771882E+01
 0.70384500396E+01 0.73111023951E+01 0.73158606719E+01 0.70185190982E+01 0.65030092494E+01
 0.59300522948E+01 0.54443421658E+01 0.51061173734E+01 0.48976979313E+01 0.47786680260E+01
 0.47222349594E+01 0.47184639743E+01 0.47632560485E+01 0.48514443855E+01 0.49845332848E+01
 0.51743914771E+01 0.54347731711E+01 0.57654651118E+01 0.61641243980E+01 0.66143819974E+01
 0.64082399993E+01 0.65888859432E+01 0.66144659780E+01 0.64496008372E+01 0.61225650567E+01
 0.57165357231E+01 0.53245691999E+01 0.50061506365E+01 0.47786680260E+01 0.46374398594E+01
 0.45755490138E+01 0.45853852825E+01 0.46533041908E+01 0.47632510621E+01 0.49046923420E+01
 0.50779672519E+01 0.52912400762E+01 0.55496338380E+01 0.58426015064E+01 0.61402424462E+01
 0.61260146083E+01 0.61829321374E+01 0.61402781363E+01 0.59955249356E+01 0.57645298050E+01
 0.54832047735E+01 0.51947288387E+01 0.49337895896E+01 0.47222349594E+01 0.45755490138E+01
 0.45037024834E+01 0.45091942922E+01 0.45853736574E+01 0.47184572417E+01 0.48931207520E+01
 0.50972328824E+01 0.53217810018E+01 0.55565107472E+01 0.57852730419E+01 0.59845466902E+01
 0.61829146838E+01 0.61260249961E+01 0.59845730715E+01 0.57852937185E+01 0.55565106794E+01
 0.53217616879E+01 0.50972098329E+01 0.48931105817E+01 0.47184639743E+01 0.45853852825E+01
 0.45091942922E+01 0.45036873915E+01 0.45755353749E+01 0.47222467684E+01 0.49338359135E+01
 0.51947922249E+01 0.54832523318E+01 0.57645384145E+01 0.59954983774E+01 0.61402424462E+01
 0.65888403969E+01 0.64082405498E+01 0.61402681739E+01 0.58426260687E+01 0.55496437031E+01
 0.52912375048E+01 0.50779623670E+01 0.49046930220E+01 0.47632560485E+01 0.46533041908E+01
 0.45853736574E+01 0.45755353749E+01 0.46374511480E+01 0.47787287116E+01 0.50062552619E+01
 0.53246748653E+01 0.57165883863E+01 0.61225396896E+01 0.64495203227E+01 0.66143819974E+01
 0.73110086620E+01 0.70384416319E+01 0.66144146419E+01 0.61641559560E+01 0.57654790111E+01
 0.54347740664E+01 0.51743895628E+01 0.49845334780E+01 0.48514443855E+01 0.47632510621E+01
 0.47184572417E+01 0.47222467684E+01 0.47787287116E+01 0.48978193544E+01 0.51062641654E+01
 0.54444377710E+01 0.59300271836E+01 0.65028560975E+01 0.70183040220E+01 0.73156771882E+01
 0.80704632364E+01 0.78195485345E+01 0.73157651615E+01 0.67256008500E+01 0.61779334076E+01
 0.57354569006E+01 0.53967493554E+01 0.51453360414E+01 0.49845332848E+01 0.49046923420E+01
 0.48931207520E+01 0.49338359135E+01 0.50062552619E+01 0.51062641654E+01 0.52586663605E+01
 0.55416798754E+01 0.60365844399E+01 0.67240715383E+01 0.74378569155E+01 0.79414606425E+01
 0.85170248603E+01 0.83836184415E+01 0.79416974447E+01 0.73509999483E+01 0.67355413963E+01
 0.61774691664E+01 0.57288006262E+01 0.53967507099E+01 0.51743914771E+01 0.50779672519E+01
 0.50972328824E+01 0.51947922249E+01 0.53246748653E+01 0.54444377710E+01 0.55416798754E+01
 0.57073379173E+01 0.60935195859E+01 0.67601630791E+01 0.75652234852E+01 0.82281668824E+01
 0.86095521629E+01 0.85529104016E+01 0.82286229523E+01 0.77847588929E+01 0.72776036366E+01
 0.67219157520E+01 0.61774572078E+01 0.57354525459E+01 0.54347731711E+01 0.52912400762E+01
 0.53217810018E+01 0.54832523318E+01 0.57165883863E+01 0.59300271836E+01 0.60365844399E+01
 0.60935195859E+01 0.63039771373E+01 0.68262844971E+01 0.75788126231E+01 0.82654096489E+01
 0.87273582412E+01 0.85930332359E+01 0.82660164376E+01 0.79592969100E+01 0.76731800837E+01
 0.72775257761E+01 0.67354805369E+01 0.61779051877E+01 0.57654651118E+01 0.55496338380E+01
 0.55565107472E+01 0.57645384145E+01 0.61225396896E+01 0.65028560975E+01 0.67240715383E+01
 0.67601630791E+01 0.68262844971E+01 0.71804318322E+01 0.78245289494E+01 0.84519921165E+01
 0.92723327900E+01 0.89715264053E+01 0.84524812485E+01 0.80959220631E+01 0.79590568392E+01
 0.77845116118E+01 0.73508487163E+01 0.67255338697E+01 0.61641243980E+01 0.58426015064E+01
 0.57852730419E+01 0.59954983774E+01 0.64495203227E+01 0.70183040220E+01 0.74378569155E+01
 0.75652234852E+01 0.75788126231E+01 0.78245289494E+01 0.84160129795E+01 0.90464958259E+01
 0.10150316378E+02 0.98007063158E+01 0.90464958259E+01 0.84519921165E+01 0.82654096489E+01
 0.82281668824E+01 0.79414606425E+01 0.73156771882E+01 0.66143819974E+01 0.61402424462E+01
 0.59845466902E+01 0.61402424462E+01 0.66143819974E+01 0.73156771882E+01 0.79414606425E+01
 0.82281668824E+01 0.82654096489E+01 0.84519921165E+01 0.90464958259E+01 0.98007063158E+01
 0.98102298499E+01 0.97999764501E+01 0.91848050109E+01 0.84153635606E+01 0.79827993729E+01
 0.79340809149E+01 0.79007032619E+01 0.75515486470E+01 0.69261147670E+01 0.63267954134E+01
 0.59886224562E+01 0.59480968848E+01 0.62088901335E+01 0.67710871644E+01 0.74856039315E+01
 0.80442842106E+01 0.82745385530E+01 0.83613179897E+01 0.86649242234E+01 0.92723327900E+01
 0.97999764501E+01 0.10148951603E+02 0.97991290819E+01 0.90452161043E+01 0.84513151088E+01
 0.82653094693E+01 0.82283896542E+01 0.79417354617E+01 0.73158606719E+01 0.66144659780E+01
 0.61402781363E+01 0.59845730715E+01 0.61402681739E+01 0.66144146419E+01 0.73157651615E+01
 0.79416974447E+01 0.82286229523E+01 0.82660164376E+01 0.84524812485E+01 0.90464958259E+01
 0.91848050109E+01 0.97991290819E+01 0.98087694760E+01 0.92708059613E+01 0.86638494107E+01
 0.83608948943E+01 0.82746148967E+01 0.80445521940E+01 0.74858274805E+01 0.67711947961E+01
 0.62089237096E+01 0.59481134543E+01 0.59886379251E+01 0.63267961191E+01 0.69261147909E+01
 0.75516410666E+01 0.79010385711E+01 0.79347425514E+01 0.79836493616E+01 0.84160129795E+01
 0.84153635606E+01 0.90452161043E+01 0.92708059613E+01 0.89702957890E+01 0.84519175322E+01
 0.80960238016E+01 0.79595235191E+01 0.77849923437E+01 0.73511489247E+01 0.67256505682E+01
 0.61641496366E+01 0.58426133886E+01 0.57852935669E+01 0.59955182775E+01 0.64495511421E+01
 0.70184088343E+01 0.74381160452E+01 0.75656315215E+01 0.75791834479E+01 0.78245289494E+01
 0.79827993729E+01 0.84513151088E+01 0.86638494107E+01 0.84519175322E+01 0.79837595201E+01
 0.75797855627E+01 0.73779064263E+01 0.72334717931E+01 0.69381897219E+01 0.64704605857E+01
 0.59975721060E+01 0.56796777152E+01 0.55633237464E+01 0.56797057590E+01 0.59976152752E+01
 0.64704702085E+01 0.69380639725E+01 0.72330827574E+01 0.73771837911E+01 0.75788126231E+01
 0.79340809149E+01 0.82653094693E+01 0.83608948943E+01 0.80960238016E+01 0.75797855627E+01
 0.70761657501E+01 0.67608908727E+01 0.65848738967E+01 0.63824563971E+01 0.60752777906E+01
 0.57365698326E+01 0.54774203830E+01 0.53492618146E+01 0.54010714503E+01 0.56256285855E+01
 0.59877770575E+01 0.64402952106E+01 0.68750499270E+01 0.72329365986E+01 0.75652234852E+01
 0.79007032619E+01 0.82283896542E+01 0.82746148967E+01 0.79595235191E+01 0.73779064263E+01
 0.67608908727E+01 0.63046697006E+01 0.60365740658E+01 0.58499496557E+01 0.56488884811E+01
 0.54343284134E+01 0.52572654688E+01 0.51559396710E+01 0.51762309053E+01 0.53331132400E+01
 0.56055912233E+01 0.59803729332E+01 0.64402640583E+01 0.69379390253E+01 0.74378569155E+01
 0.75515486470E+01 0.79417354617E+01 0.80445521940E+01 0.77849923437E+01 0.72334717931E+01
 0.65848738967E+01 0.60365740658E+01 0.56704596594E+01 0.54441464639E+01 0.52801008975E+01
 0.51442701796E+01 0.50401378117E+01 0.49853805168E+01 0.50054480133E+01 0.51139957786E+01
 0.53169777445E+01 0.56055930200E+01 0.59877633463E+01 0.64704129481E+01 0.70183040220E+01
 0.69261147670E+01 0.73158606719E+01 0.74858274805E+01 0.73511489247E+01 0.69381897219E+01
 0.63824563971E+01 0.58499496557E+01 0.54441464639E+01 0.51757812185E+01 0.50061301855E+01
 0.49013694444E+01 0.48446642724E+01 0.48361448737E+01 0.48762674807E+01 0.49659411703E+01
 0.51139975077E+01 0.53331183283E+01 0.56256278299E+01 0.59975964417E+01 0.64495203227E+01
 0.63267954134E+01 0.66144659780E+01 0.67711947961E+01 0.67256505682E+01 0.64704605857E+01
 0.60752777906E+01 0.56488884811E+01 0.52801008975E+01 0.50061301855E+01 0.48249661803E+01
 0.47222816590E+01 0.46878285211E+01 0.47112739389E+01 0.47779744126E+01 0.48762604157E+01
 0.50054455118E+01 0.51762340539E+01 0.54010713967E+01 0.56796933019E+01 0.59954983774E+01
 0.59886224562E+01 0.61402781363E+01 0.62089237096E+01 0.61641496366E+01 0.59975721060E+01
 0.57365698326E+01 0.54343284134E+01 0.51442701796E+01 0.49013694444E+01 0.47222816590E+01
 0.46163124130E+01 0.45854056549E+01 0.46220903156E+01 0.47112536237E+01 0.48361267719E+01
 0.49853788881E+01 0.51559513687E+01 0.53492713617E+01 0.55633173249E+01 0.57852730419E+01
 0.59480968848E+01 0.59845730715E+01 0.59481134543E+01 0.58426133886E+01 0.56796777152E+01
 0.54774203830E+01 0.52572654688E+01 0.50401378117E+01 0.48446642724E+01 0.46878285211E+01
 0.45854056549E+01 0.45496641130E+01 0.45853739104E+01 0.46877908687E+01 0.48446525826E+01
 0.50401654997E+01 0.52573176314E+01 0.54774657202E+01 0.56796933019E+01 0.58426015064E+01
 0.62088901335E+01 0.61402681739E+01 0.59886379251E+01 0.57852935669E+01 0.55633237464E+01
 0.53492618146E+01 0.51559396710E+01 0.49853805168E+01 0.48361448737E+01 0.47112739389E+01
 0.46220903156E+01 0.45853739104E+01 0.46162650865E+01 0.47222589611E+01 0.49014081998E+01
 0.51443719421E+01 0.54344517636E+01 0.57366586251E+01 0.59975964417E+01 0.61641243980E+01
 0.67710871644E+01 0.66144146419E+01 0.63267961191E+01 0.59955182775E+01 0.56797057590E+01
 0.54010714503E+01 0.51762309053E+01 0.50054480133E+01 0.48762674807E+01 0.47779744126E+01
 0.47112536237E+01 0.46877908687E+01 0.47222589611E+01 0.48250081506E+01 0.50062646831E+01
 0.52802969525E+01 0.56490633527E+01 0.60753511630E+01 0.64704129481E+01 0.67255338697E+01
 0.74856039315E+01 0.73157651615E+01 0.69261147909E+01 0.64495511421E+01 0.59976152752E+01
 0.56256285855E+01 0.53331132400E+01 0.51139957786E+01 0.49659411703E+01 0.48762604157E+01
 0.48361267719E+01 0.48446525826E+01 0.49014081998E+01 0.50062646831E+01 0.51760072452E+01
 0.54443814488E+01 0.58500679494E+01 0.63823760395E+01 0.69379390253E+01 0.73508487163E+01
 0.80442842106E+01 0.79416974447E+01 0.75516410666E+01 0.70184088343E+01 0.64704702085E+01
 0.59877770575E+01 0.56055912233E+01 0.53169777445E+01 0.51139975077E+01 0.50054455118E+01
 0.49853788881E+01 0.50401654997E+01 0.51443719421E+01 0.52802969525E+01 0.54443814488E+01
 0.56705967365E+01 0.60364701435E+01 0.65844934345E+01 0.72329365986E+01 0.77845116118E+01
 0.82745385530E+01 0.82286229523E+01 0.79010385711E+01 0.74381160452E+01 0.69380639725E+01
 0.64402952106E+01 0.59803729332E+01 0.56055930200E+01 0.53331183283E+01 0.51762340539E+01
 0.51559513687E+01 0.52573176314E+01 0.54344517636E+01 0.56490633527E+01 0.58500679494E+01
 0.60364701435E+01 0.63042351805E+01 0.67601911029E+01 0.73771837911E+01 0.79590568392E+01
 0.83613179897E+01 0.82660164376E+01 0.79347425514E+01 0.75656315215E+01 0.72330827574E+01
 0.68750499270E+01 0.64402640583E+01 0.59877633463E+01 0.56256278299E+01 0.54010713967E+01
 0.53492713617E+01 0.54774657202E+01 0.57366586251E+01 0.60753511630E+01 0.63823760395E+01
 0.65844934345E+01 0.67601911029E+01 0.70753430813E+01 0.75791834479E+01 0.80959220631E+01
 0.86649242234E+01 0.84524812485E+01 0.79836493616E+01 0.75791834479E+01 0.73771837911E+01
 0.72329365986E+01 0.69379390253E+01 0.64704129481E+01 0.59975964417E+01 0.56796933019E+01
 0.55633173249E+01 0.56796933019E+01 0.59975964417E+01 0.64704129481E+01 0.69379390253E+01
 0.72329365986E+01 0.73771837911E+01 0.75791834479E+01 0.79836493616E+01 0.84524812485E+01
 0.92723327900E+01 0.90464958259E+01 0.84160129795E+01 0.78245289494E+01 0.75788126231E+01
 0.75652234852E+01 0.74378569155E+01 0.70183040220E+01 0.64495203227E+01 0.59954983774E+01
 0.57852730419E+01 0.58426015064E+01 0.61641243980E+01 0.67255338697E+01 0.73508487163E+01
 0.77845116118E+01 0.79590568392E+01 0.80959220631E+01 0.84524812485E+01 0.89715264053E+01
 0.90406778273E+01 0.89704763081E+01 0.84153635606E+01 0.76749884233E+01 0.71803569663E+01
 0.70752847111E+01 0.71161334105E+01 0.69742425717E+01 0.65722670984E+01 0.61022038827E+01
 0.57809658345E+01 0.56821915606E+01 0.58387508442E+01 0.62373310354E+01 0.68384962391E+01
 0.74547556935E+01 0.78824611285E+01 0.81195584789E+01 0.83613179897E+01 0.87273582412E+01
 0.89704763081E+01 0.92709476211E+01 0.90452161043E+01 0.84152418287E+01 0.78244002503E+01
 0.75791537550E+01 0.75657176104E+01 0.74382532488E+01 0.70185190982E+01 0.64496008372E+01
 0.59955249356E+01 0.57852937185E+01 0.58426260687E+01 0.61641559560E+01 0.67256008500E+01
 0.73509999483E+01 0.77847588929E+01 0.79592969100E+01 0.80959220631E+01 0.84519921165E+01
 0.84153635606E+01 0.90452161043E+01 0.92708059613E+01 0.89702957890E+01 0.84519175322E+01
 0.80960238016E+01 0.79595235191E+01 0.77849923437E+01 0.73511489247E+01 0.67256505682E+01
 0.61641496366E+01 0.58426133886E+01 0.57852935669E+01 0.59955182775E+01 0.64495511421E+01
 0.70184088343E+01 0.74381160452E+01 0.75656315215E+01 0.75791834479E+01 0.78245289494E+01
 0.76749884233E+01 0.84152418287E+01 0.89702957890E+01 0.90405832322E+01 0.87274656966E+01
 0.83616189722E+01 0.81199255310E+01 0.78827459342E+01 0.74548869518E+01 0.68385017543E+01
 0.62372867254E+01 0.58387162872E+01 0.56821810838E+01 0.57809579635E+01 0.61021707455E+01
 0.65722040756E+01 0.69741819717E+01 0.71161241121E+01 0.70753430813E+01 0.71804318322E+01
 0.71803569663E+01 0.78244002503E+01 0.84519175322E+01 0.87274656966E+01 0.85933632264E+01
 0.82664720663E+01 0.79597037188E+01 0.76734050292E+01 0.72775529635E+01 0.67353922068E+01
 0.61778025188E+01 0.57654038132E+01 0.55496137965E+01 0.55565030850E+01 0.57645184307E+01
 0.61225062825E+01 0.65028315091E+01 0.67240781835E+01 0.67601911029E+01 0.68262844971E+01
 0.70752847111E+01 0.75791537550E+01 0.80960238016E+01 0.83616189722E+01 0.82664720663E+01
 0.79351988589E+01 0.75659202324E+01 0.72331311416E+01 0.68749144636E+01 0.64400700820E+01
 0.59876133280E+01 0.56255542133E+01 0.54010509900E+01 0.53492661335E+01 0.54774530628E+01
 0.57366386706E+01 0.60753374550E+01 0.63823763115E+01 0.65844934345E+01 0.67601630791E+01
 0.71161334105E+01 0.75657176104E+01 0.79595235191E+01 0.81199255310E+01 0.79597037188E+01
 0.75659202324E+01 0.71161813543E+01 0.67239115307E+01 0.63821005754E+01 0.60430532564E+01
 0.57113647735E+01 0.54364801293E+01 0.52462401208E+01 0.51760911714E+01 0.52462380464E+01
 0.54365212752E+01 0.57115056975E+01 0.60433024931E+01 0.63823760395E+01 0.67240715383E+01
 0.69742425717E+01 0.74382532488E+01 0.77849923437E+01 0.78827459342E+01 0.76734050292E+01
 0.72331311416E+01 0.67239115307E+01 0.62779342465E+01 0.59295955538E+01 0.56488153502E+01
 0.54127834323E+01 0.52253971804E+01 0.50921305865E+01 0.50374532955E+01 0.50757939017E+01
 0.52091614305E+01 0.54242066972E+01 0.57115133383E+01 0.60753511630E+01 0.65028560975E+01
 0.65722670984E+01 0.70185190982E+01 0.73511489247E+01 0.74548869518E+01 0.72775529635E+01
 0.68749144636E+01 0.63821005754E+01 0.59295955538E+01 0.55784520595E+01 0.53245271837E+01
 0.51443679109E+01 0.50200467533E+01 0.49450735499E+01 0.49245381177E+01 0.49584834957E+01
 0.50505024951E+01 0.52091657478E+01 0.54365332181E+01 0.57366586251E+01 0.61225396896E+01
 0.61022038827E+01 0.64496008372E+01 0.67256505682E+01 0.68385017543E+01 0.67353922068E+01
 0.64400700820E+01 0.60430532564E+01 0.56488153502E+01 0.53245271837E+01 0.50889829033E+01
 0.49339255415E+01 0.48447371616E+01 0.48137956817E+01 0.48296001093E+01 0.48792784782E+01
 0.49584784376E+01 0.50757928231E+01 0.52462441507E+01 0.54774657202E+01 0.57645384145E+01
 0.57809658345E+01 0.59955249356E+01 0.61641496366E+01 0.62372867254E+01 0.61778025188E+01
 0.59876133280E+01 0.57113647735E+01 0.54127834323E+01 0.51443679109E+01 0.49339255415E+01
 0.47908313505E+01 0.47185332775E+01 0.47112812697E+01 0.47542868964E+01 0.48295806273E+01
 0.49245147515E+01 0.50374378246E+01 0.51760878462E+01 0.53492713617E+01 0.55565107472E+01
 0.56821915606E+01 0.57852937185E+01 0.58426133886E+01 0.58387162872E+01 0.57654038132E+01
 0.56255542133E+01 0.54364801293E+01 0.52253971804E+01 0.50200467533E+01 0.48447371616E+01
 0.47185332775E+01 0.46536057484E+01 0.46533010340E+01 0.47112467284E+01 0.48137435548E+01
 0.49450262484E+01 0.50921066698E+01 0.52462441507E+01 0.54010713967E+01 0.55496338380E+01
 0.58387508442E+01 0.58426260687E+01 0.57852935669E+01 0.56821810838E+01 0.55496137965E+01
 0.54010509900E+01 0.52462401208E+01 0.50921305865E+01 0.49450735499E+01 0.48137956817E+01
 0.47112812697E+01 0.46533010340E+01 0.46535645552E+01 0.47184593342E+01 0.48446567387E+01
 0.50199954529E+01 0.52253999870E+01 0.54365332181E+01 0.56256278299E+01 0.57654651118E+01
 0.62373310354E+01 0.61641559560E+01 0.59955182775E+01 0.57809579635E+01 0.55565030850E+01
 0.53492661335E+01 0.51760911714E+01 0.50374532955E+01 0.49245381177E+01 0.48296001093E+01
 0.47542868964E+01 0.47112467284E+01 0.47184593342E+01 0.47907363272E+01 0.49338529470E+01
 0.51443662803E+01 0.54128714824E+01 0.57115133383E+01 0.59877633463E+01 0.61779051877E+01
 0.68384962391E+01 0.67256008500E+01 0.64495511421E+01 0.61021707455E+01 0.57645184307E+01
 0.54774530628E+01 0.52462380464E+01 0.50757939017E+01 0.49584834957E+01 0.48792784782E+01
 0.48295806273E+01 0.48137435548E+01 0.48446567387E+01 0.49338529470E+01 0.50889786243E+01
 0.53246374611E+01 0.56490304867E+01 0.60433024931E+01 0.64402640583E+01 0.67354805369E+01
 0.74547556935E+01 0.73509999483E+01 0.70184088343E+01 0.65722040756E+01 0.61225062825E+01
 0.57366386706E+01 0.54365212752E+01 0.52091614305E+01 0.50505024951E+01 0.49584784376E+01
 0.49245147515E+01 0.49450262484E+01 0.50199954529E+01 0.51443662803E+01 0.53246374611E+01
 0.55786940199E+01 0.59299115997E+01 0.63823763115E+01 0.68750499270E+01 0.72775257761E+01
 0.78824611285E+01 0.77847588929E+01 0.74381160452E+01 0.69741819717E+01 0.65028315091E+01
 0.60753374550E+01 0.57115056975E+01 0.54242066972E+01 0.52091657478E+01 0.50757928231E+01
 0.50374378246E+01 0.50921066698E+01 0.52253999870E+01 0.54128714824E+01 0.56490304867E+01
 0.59299115997E+01 0.62782431289E+01 0.67240781835E+01 0.72330827574E+01 0.76731800837E+01
 0.81195584789E+01 0.79592969100E+01 0.75656315215E+01 0.71161241121E+01 0.67240781835E+01
 0.63823763115E+01 0.60433024931E+01 0.57115133383E+01 0.54365332181E+01 0.52462441507E+01
 0.51760878462E+01 0.52462441507E+01 0.54365332181E+01 0.57115133383E+01 0.60433024931E+01
 0.63823763115E+01 0.67240781835E+01 0.71161241121E+01 0.75656315215E+01 0.79592969100E+01
 0.83613179897E+01 0.80959220631E+01 0.75791834479E+01 0.70753430813E+01 0.67601911029E+01
 0.65844934345E+01 0.63823760395E+01 0.60753511630E+01 0.57366586251E+01 0.54774657202E+01
 0.53492713617E+01 0.54010713967E+01 0.56256278299E+01 0.59877633463E+01 0.64402640583E+01
 0.68750499270E+01 0.72330827574E+01 0.75656315215E+01 0.79347425514E+01 0.82660164376E+01
 0.87273582412E+01 0.84519921165E+01 0.78245289494E+01 0.71804318322E+01 0.68262844971E+01
 0.67601630791E+01 0.67240715383E+01 0.65028560975E+01 0.61225396896E+01 0.57645384145E+01
 0.55565107472E+01 0.55496338380E+01 0.57654651118E+01 0.61779051877E+01 0.67354805369E+01
 0.72775257761E+01 0.76731800837E+01 0.79592969100E+01 0.82660164376E+01 0.85930332359E+01
 0.87810810801E+01 0.85921054282E+01 0.79827993729E+01 0.71803569663E+01 0.65548842669E+01
 0.63042478179E+01 0.63045600781E+01 0.62784898561E+01 0.60774104560E+01 0.57762301294E+01
 0.55300954505E+01 0.54208430433E+01 0.55073834854E+01 0.57896740693E+01 0.62483794291E+01
 0.68321554023E+01 0.74075014474E+01 0.78824611285E+01 0.82745385530E+01 0.86095521629E+01
 0.85921054282E+01 0.87263741626E+01 0.84513151088E+01 0.78244002503E+01 0.71808215460E+01
 0.68269319284E+01 0.67607630433E+01 0.67244488949E+01 0.65030092494E+01 0.61225650567E+01