   1   1   0   0
  0.1157456E+02  0.2468172E-09  0.2468172E-09  0.2468172E-09  0.5000000E-15
  1.000000000000000E-004
  CAR 
 BCC W                                   
     40.01530339     -0.89901811  301     11.98176364      1.00000000
     -0.899  0.0000E+00  0.0000E+00
     -0.763  0.0000E+00  0.0000E+00
     -0.626 -0.8706E-33 -0.1187E-33
     -0.490 -0.6566E-28 -0.8956E-29
     -0.353 -0.1940E-23 -0.2645E-24
     -0.217 -0.2241E-19 -0.3056E-20
     -0.081 -0.9615E-16 -0.1312E-16
      0.056 -0.1709E-12 -0.2333E-13
      0.192 -0.1149E-09 -0.1569E-10
      0.328 -0.2955E-07 -0.4045E-08
      0.465 -0.2854E-05 -0.3932E-06
      0.601 -0.9944E-04 -0.1396E-04
      0.738 -0.1110E-02 -0.1654E-03
      0.874 -0.1785E-02 -0.4088E-03
      1.010  0.1678E-01  0.1879E-02
      1.147  0.4674E-01  0.8254E-02
      1.283  0.2836E-01  0.1212E-01
      1.419 -0.1212E-02  0.1196E-01
      1.556 -0.2092E-02  0.1167E-01
      1.692  0.3298E-01  0.1617E-01
      1.829  0.6312E-01  0.2478E-01
      1.965  0.2393E-01  0.2804E-01
      2.101 -0.1076E-01  0.2657E-01
      2.238  0.4101E-01  0.3217E-01
      2.374  0.1738E+00  0.5587E-01
      2.511  0.1420E+00  0.7523E-01
      2.647  0.1531E-01  0.7732E-01
      2.783 -0.1141E-01  0.7576E-01
      2.920  0.1131E-02  0.7592E-01
      3.056  0.2733E-01  0.7965E-01
      3.192  0.9531E-01  0.9264E-01
      3.329  0.2927E+00  0.1326E+00
      3.465  0.3828E+00  0.1848E+00
      3.602  0.2949E+00  0.2250E+00
      3.738  0.5496E+00  0.3000E+00
      3.874  0.9696E+00  0.4322E+00
      4.011  0.6297E+00  0.5181E+00
      4.147  0.2676E+00  0.5546E+00
      4.283  0.5225E+00  0.6258E+00
      4.420  0.8019E+00  0.7352E+00
      4.556  0.4869E+00  0.8016E+00
      4.693  0.6954E+00  0.8964E+00
      4.829  0.1321E+01  0.1077E+01
      4.965  0.1123E+01  0.1230E+01
      5.102  0.7960E+00  0.1338E+01
      5.238  0.6462E+00  0.1426E+01
      5.375  0.8913E+00  0.1548E+01
      5.511  0.1251E+01  0.1719E+01
      5.647  0.9300E+00  0.1845E+01
      5.784  0.3914E+00  0.1899E+01
      5.920  0.2863E+00  0.1938E+01
      6.056  0.3356E+00  0.1984E+01
      6.193  0.3522E+00  0.2032E+01
      6.329  0.3181E+00  0.2075E+01
      6.466  0.4825E+00  0.2141E+01
      6.602  0.1065E+01  0.2286E+01
      6.738  0.1295E+01  0.2462E+01
      6.875  0.8684E+00  0.2581E+01
      7.011  0.9908E+00  0.2716E+01
      7.147  0.1678E+01  0.2945E+01
      7.284  0.1677E+01  0.3174E+01
      7.420  0.8201E+00  0.3285E+01
      7.557  0.2601E+00  0.3321E+01
      7.693  0.4882E+00  0.3388E+01
      7.829  0.7471E+00  0.3489E+01
      7.966  0.8268E+00  0.3602E+01
      8.102  0.1064E+01  0.3747E+01
      8.239  0.7839E+00  0.3854E+01
      8.375  0.5154E+00  0.3924E+01
      8.511  0.6762E+00  0.4017E+01
      8.648  0.5985E+00  0.4098E+01
      8.784  0.4533E+00  0.4160E+01
      8.920  0.3934E+00  0.4214E+01
      9.057  0.4011E+00  0.4269E+01
      9.193  0.6820E+00  0.4362E+01
      9.330  0.1406E+01  0.4553E+01
      9.466  0.2101E+01  0.4840E+01
      9.602  0.1625E+01  0.5061E+01
      9.739  0.5706E+00  0.5139E+01
      9.875  0.2963E+00  0.5180E+01
     10.011  0.5270E+00  0.5252E+01
     10.148  0.2633E+00  0.5287E+01
     10.284  0.3514E-01  0.5292E+01
     10.421  0.2573E+00  0.5327E+01
     10.557  0.3351E+00  0.5373E+01
     10.693  0.2474E+00  0.5407E+01
     10.830  0.5259E+00  0.5478E+01
     10.966  0.5552E+00  0.5554E+01
     11.103  0.4613E+00  0.5617E+01
     11.239  0.6202E+00  0.5702E+01
     11.375  0.6801E+00  0.5794E+01
     11.512  0.5760E+00  0.5873E+01
     11.648  0.4564E+00  0.5935E+01
     11.784  0.3049E+00  0.5977E+01
     11.921  0.1234E+00  0.5994E+01
     12.057  0.1997E+00  0.6021E+01
     12.194  0.6481E+00  0.6109E+01
     12.330  0.5495E+00  0.6184E+01
     12.466  0.1130E+00  0.6200E+01
     12.603  0.8767E-01  0.6212E+01
     12.739  0.3523E+00  0.6260E+01
     12.875  0.1127E+01  0.6413E+01
     13.012  0.1209E+01  0.6578E+01
     13.148  0.4125E+00  0.6634E+01
     13.285  0.2843E+00  0.6673E+01
     13.421  0.5535E+00  0.6749E+01
     13.557  0.5320E+00  0.6821E+01
     13.694  0.3105E+00  0.6864E+01
     13.830  0.3429E+00  0.6910E+01
     13.967  0.8527E+00  0.7027E+01
     14.103  0.1058E+01  0.7171E+01
     14.239  0.8090E+00  0.7281E+01
     14.376  0.7716E+00  0.7386E+01
     14.512  0.7311E+00  0.7486E+01
     14.648  0.7478E+00  0.7588E+01
     14.785  0.7342E+00  0.7688E+01
     14.921  0.5977E+00  0.7770E+01
     15.058  0.6213E+00  0.7855E+01
     15.194  0.9847E+00  0.7989E+01
     15.330  0.1056E+01  0.8133E+01
     15.467  0.6521E+00  0.8222E+01
     15.603  0.6056E+00  0.8304E+01
     15.739  0.7038E+00  0.8400E+01
     15.876  0.4682E+00  0.8464E+01
     16.012  0.3869E+00  0.8517E+01
     16.149  0.8094E+00  0.8627E+01
     16.285  0.1262E+01  0.8799E+01
     16.421  0.1156E+01  0.8957E+01
     16.558  0.1197E+01  0.9120E+01
     16.694  0.1324E+01  0.9301E+01
     16.831  0.9124E+00  0.9425E+01
     16.967  0.7007E+00  0.9521E+01
     17.103  0.1298E+01  0.9698E+01
     17.240  0.1403E+01  0.9889E+01
     17.376  0.8821E+00  0.1001E+02
     17.512  0.6718E+00  0.1010E+02
     17.649  0.4330E+00  0.1016E+02
     17.785  0.1961E+00  0.1019E+02
     17.922  0.2903E+00  0.1023E+02
     18.058  0.2750E+00  0.1026E+02
     18.194  0.1407E+00  0.1028E+02
     18.331  0.3933E+00  0.1034E+02
     18.467  0.5044E+00  0.1041E+02
     18.603  0.1609E+00  0.1043E+02
     18.740  0.7843E-01  0.1044E+02
     18.876  0.1787E+00  0.1046E+02
     19.013  0.1619E+00  0.1048E+02
     19.149  0.2056E+00  0.1051E+02
     19.285  0.2348E+00  0.1054E+02
     19.422  0.2403E+00  0.1058E+02
     19.558  0.1078E+00  0.1059E+02
     19.695  0.3005E-02  0.1059E+02
     19.831  0.1071E+00  0.1061E+02
     19.967  0.1726E+00  0.1063E+02
     20.104  0.4471E-01  0.1064E+02
     20.240  0.1392E+00  0.1066E+02
     20.376  0.5679E+00  0.1073E+02
     20.513  0.9262E+00  0.1086E+02
     20.649  0.7576E+00  0.1096E+02
     20.786  0.4662E+00  0.1103E+02
     20.922  0.3696E+00  0.1108E+02
     21.058  0.8493E-01  0.1109E+02
     21.195  0.8420E-01  0.1110E+02
     21.331  0.3561E+00  0.1115E+02
     21.467  0.3518E+00  0.1120E+02
     21.604  0.1986E+00  0.1122E+02
     21.740  0.1207E+00  0.1124E+02
     21.877  0.1635E+00  0.1126E+02
     22.013  0.1675E+00  0.1129E+02
     22.149  0.2528E+00  0.1132E+02
     22.286  0.2092E+00  0.1135E+02
     22.422  0.6275E-01  0.1136E+02
     22.559  0.1561E+00  0.1138E+02
     22.695  0.1879E+00  0.1140E+02
     22.831  0.7865E-01  0.1141E+02
     22.968  0.1314E-01  0.1142E+02
     23.104 -0.1857E-01  0.1141E+02
     23.240  0.1453E-01  0.1142E+02
     23.377  0.2474E+00  0.1145E+02
     23.513  0.3779E+00  0.1150E+02
     23.650  0.2468E+00  0.1153E+02
     23.786  0.1444E+00  0.1155E+02
     23.922  0.3450E-01  0.1156E+02
     24.059  0.2079E+00  0.1159E+02
     24.195  0.4784E+00  0.1165E+02
     24.331  0.3571E+00  0.1170E+02
     24.468  0.2946E+00  0.1174E+02
     24.604  0.5514E+00  0.1182E+02
     24.741  0.4729E+00  0.1188E+02
     24.877  0.7917E-01  0.1189E+02
     25.013 -0.4219E-01  0.1189E+02
     25.150  0.5467E-01  0.1189E+02
     25.286  0.2603E+00  0.1193E+02
     25.423  0.4344E+00  0.1199E+02
     25.559  0.5492E+00  0.1206E+02
     25.695  0.3900E+00  0.1212E+02
     25.832  0.2014E+00  0.1214E+02
     25.968  0.3519E-01  0.1215E+02
     26.104  0.8832E-01  0.1216E+02
     26.241  0.6034E+00  0.1224E+02
     26.377  0.9734E+00  0.1238E+02
     26.514  0.6310E+00  0.1246E+02
     26.650  0.5194E+00  0.1253E+02
     26.786  0.6584E+00  0.1262E+02
     26.923  0.5169E+00  0.1269E+02
     27.059  0.3091E+00  0.1274E+02
     27.195  0.2774E+00  0.1277E+02
     27.332  0.2990E+00  0.1281E+02
     27.468  0.3578E+00  0.1286E+02
     27.605  0.4480E+00  0.1292E+02
     27.741  0.5667E+00  0.1300E+02
     27.877  0.4257E+00  0.1306E+02
     28.014  0.2013E+00  0.1309E+02
     28.150  0.2800E+00  0.1312E+02
     28.287  0.3691E+00  0.1318E+02
     28.423  0.6423E+00  0.1326E+02
     28.559  0.9968E+00  0.1340E+02
     28.696  0.1297E+01  0.1358E+02
     28.832  0.1572E+01  0.1379E+02
     28.968  0.1187E+01  0.1395E+02
     29.105  0.4153E+00  0.1401E+02
     29.241  0.4116E-01  0.1401E+02
     29.378  0.2775E+00  0.1405E+02
     29.514  0.7202E+00  0.1415E+02
     29.650  0.7920E+00  0.1426E+02
     29.787  0.6716E+00  0.1435E+02
     29.923  0.3937E+00  0.1440E+02
     30.059  0.3338E-01  0.1441E+02
     30.196 -0.3927E-01  0.1440E+02
     30.332  0.1358E-01  0.1440E+02
     30.469  0.1504E+00  0.1442E+02
     30.605  0.4694E+00  0.1449E+02
     30.741  0.1198E+01  0.1465E+02
     30.878  0.1348E+01  0.1484E+02
     31.014  0.7877E+00  0.1494E+02
     31.151  0.6067E+00  0.1503E+02
     31.287  0.4506E+00  0.1509E+02
     31.423  0.3167E+00  0.1513E+02
     31.560  0.4870E+00  0.1520E+02
     31.696  0.5525E+00  0.1527E+02
     31.832  0.2821E+00  0.1531E+02
     31.969  0.4126E-01  0.1532E+02
     32.105  0.4690E-01  0.1532E+02
     32.242  0.1902E+00  0.1535E+02
     32.378  0.3345E+00  0.1539E+02
     32.514  0.4370E+00  0.1545E+02
     32.651  0.2306E+00  0.1549E+02
     32.787  0.4961E-01  0.1549E+02
     32.923  0.1400E+00  0.1551E+02
     33.060  0.4843E+00  0.1558E+02
     33.196  0.4815E+00  0.1564E+02
     33.333  0.8182E-01  0.1565E+02
     33.469  0.1831E-02  0.1565E+02
     33.605  0.2040E+00  0.1568E+02
     33.742  0.4207E+00  0.1574E+02
     33.878  0.3549E+00  0.1579E+02
     34.015  0.1655E+00  0.1581E+02
     34.151  0.1707E+00  0.1583E+02
     34.287  0.8133E-01  0.1585E+02
     34.424 -0.5961E-02  0.1584E+02
     34.560 -0.1440E-01  0.1584E+02
     34.696  0.1758E-01  0.1585E+02
     34.833  0.1458E+00  0.1586E+02
     34.969  0.1713E+00  0.1589E+02
     35.106  0.3870E-01  0.1589E+02
     35.242 -0.1579E-01  0.1589E+02
     35.378 -0.2525E-02  0.1589E+02
     35.515  0.1041E+00  0.1591E+02
     35.651  0.1893E+00  0.1593E+02
     35.787  0.7490E-01  0.1594E+02
     35.924 -0.1454E-01  0.1594E+02
     36.060  0.1315E-01  0.1594E+02
     36.197  0.1452E+00  0.1596E+02
     36.333  0.1714E+00  0.1598E+02
     36.469  0.3961E-01  0.1599E+02
     36.606 -0.9180E-02  0.1599E+02
     36.742 -0.2903E-02  0.1599E+02
     36.879 -0.1977E-03  0.1599E+02
     37.015 -0.4494E-05  0.1599E+02
     37.151 -0.3812E-07  0.1599E+02
     37.288 -0.1488E-06  0.1599E+02
     37.424 -0.1033E-04  0.1599E+02
     37.560 -0.2525E-03  0.1599E+02
     37.697 -0.1798E-02  0.1599E+02
     37.833  0.9016E-03  0.1599E+02
     37.970  0.2862E-01  0.1599E+02
     38.106  0.4675E-01  0.1600E+02
     38.242  0.1678E-01  0.1600E+02
     38.379 -0.1785E-02  0.1600E+02
     38.515 -0.1110E-02  0.1600E+02
     38.651 -0.9944E-04  0.1600E+02
     38.788 -0.2854E-05  0.1600E+02
     38.924 -0.2955E-07  0.1600E+02
     39.061 -0.1149E-09  0.1600E+02
     39.197 -0.1709E-12  0.1600E+02
     39.333 -0.9769E-16  0.1600E+02
     39.470  0.0000E+00  0.1600E+02
     39.606  0.0000E+00  0.1600E+02
     39.743  0.0000E+00  0.1600E+02
     39.879  0.0000E+00  0.1600E+02
     40.015  0.0000E+00  0.1600E+02
