    1    1    1    1
  0.1157456E+02  0.2468172E-09  0.2468172E-09  0.2468172E-09  0.5000000E-15
  1.000000000000000E-004
  CAR 
 BCC W                                   
      6     44      8
 
  0.5000000E-01  0.5000000E-01  0.5000000E-01  0.8000000E-02
    1        1.751618   1.000000
    2        9.327967   1.000000
    3        9.327967   1.000000
    4       11.191532   1.000000
    5       14.371395  -0.000000
    6       14.371395  -0.000000
    7       28.573385   0.000000
    8       30.417009   0.000000
 
  0.1500000E+00  0.5000000E-01  0.5000000E-01  0.2400000E-01
    1        3.321160   1.000000
    2        8.277552   1.000000
    3        8.780424   1.000000
    4       13.488918  -0.000000
    5       13.946524  -0.000000
    6       14.837975  -0.000000
    7       29.778395   0.000000
    8       32.423653   0.000000
 
  0.2500000E+00  0.5000000E-01  0.5000000E-01  0.2400000E-01
    1        4.217253   1.000000
    2        7.282457   1.000000
    3        9.517145   1.000000
    4       14.425977  -0.000000
    5       15.421007  -0.000000
    6       16.845710  -0.000000
    7       28.766060   0.000000
    8       32.499354   0.000000
 
  0.3500000E+00  0.5000000E-01  0.5000000E-01  0.2400000E-01
    1        3.828698   1.000000
    2        6.611325   1.000000
    3       12.114763   0.052945
    4       15.190229  -0.000000
    5       16.108796  -0.000000
    6       20.321880   0.000000
    7       26.338904   0.000000
    8       29.755794   0.000000
 
  0.4500000E+00  0.5000000E-01  0.5000000E-01  0.1200000E-01
    1        3.563214   1.000000
    2        6.379502   1.000000
    3       13.927913  -0.000000
    4       15.186776  -0.000000
    5       16.491318  -0.000000
    6       22.152133   0.000000
    7       25.266789   0.000000
    8       28.378594   0.000000
 
 -0.5000000E-01  0.5000000E-01  0.5000000E-01  0.6000000E-02
    1        1.100982   1.000000
    2        9.842875   1.000000
    3        9.842877   1.000000
    4       10.037161   1.000000
    5       14.120815  -0.000000
    6       14.998851  -0.000000
    7       28.610134   0.000000
    8       28.610135   0.000000
 
  0.1500000E+00  0.1500000E+00  0.5000000E-01  0.2400000E-01
    1        4.852695   1.000000
    2        7.693985   1.000000
    3        7.901154   1.000000
    4       14.065869  -0.000000
    5       15.562595  -0.000000
    6       16.844503  -0.000000
    7       31.074715   0.000000
    8       31.189994   0.000000
 
  0.2500000E+00  0.1500000E+00  0.5000000E-01  0.4800000E-01
    1        5.150721   1.000000
    2        7.034411   1.000000
    3        9.363946   1.000000
    4       14.657697  -0.000000
    5       16.247739  -0.000000
    6       20.562390   0.000000
    7       28.478295   0.000000
    8       30.780072   0.000000
 
  0.3500000E+00  0.1500000E+00  0.5000000E-01  0.4800000E-01
    1        4.740815   1.000000
    2        6.723365   1.000000
    3       11.582503   1.008091
    4       15.244198  -0.000000
    5       16.688899  -0.000000
    6       23.409723   0.000000
    7       26.662324   0.000000
    8       27.718809   0.000000
 
 -0.1500000E+00  0.1500000E+00  0.5000000E-01  0.2400000E-01
    1        2.354970   1.000000
    2        9.108240   1.000000
    3        9.592878   1.000000
    4       11.403205   1.000168
    5       13.014017  -0.000000
    6       15.329783  -0.000000
    7       29.768470   0.000000
    8       30.807136   0.000000
 
  0.2500000E+00  0.2500000E+00  0.5000000E-01  0.2400000E-01
    1        5.581336   1.000000
    2        7.509225   1.000000
    3        9.613947   1.000000
    4       15.199084  -0.000000
    5       16.558255  -0.000000
    6       24.129189   0.000000
    7       26.365341   0.000000
    8       30.488467   0.000000
 
  0.3500000E+00  0.2500000E+00  0.5000000E-01  0.2400000E-01
    1        5.570950   1.000000
    2        7.812197   1.000000
    3        9.963390   1.000000
    4       15.687789  -0.000000
    5       16.602795  -0.000000
    6       24.440274   0.000000
    7       26.316310   0.000000
    8       28.869933   0.000000
 
 -0.2500000E+00  0.2500000E+00  0.5000000E-01  0.2400000E-01
    1        3.808459   1.000000
    2        8.024220   1.000000
    3        9.331525   1.000000
    4       13.248774  -0.000000
    5       14.078227  -0.000000
    6       15.722938  -0.000000
    7       29.581718   0.000000
    8       33.581582   0.000000
 
 -0.1500000E+00  0.2500000E+00  0.5000000E-01  0.2400000E-01
    1        3.820563   1.000000
    2        8.720841   1.000000
    3        8.889434   1.000000
    4       12.199841  -0.032143
    5       13.342455  -0.000000
    6       16.130631  -0.000000
    7       31.315934   0.000000
    8       31.503799   0.000000
 
 -0.3500000E+00  0.3500000E+00  0.5000000E-01  0.2400000E-01
    1        3.854756   1.000000
    2        7.107425   1.000000
    3       10.815255   1.000000
    4       14.482349  -0.000000
    5       16.258290  -0.000000
    6       17.587145   0.000000
    7       27.272801   0.000000
    8       31.571029   0.000000
 
 -0.2500000E+00  0.3500000E+00  0.5000000E-01  0.4800000E-01
    1        4.742056   1.000000
    2        7.725736   1.000000
    3        9.106045   1.000000
    4       12.898241  -0.000000
    5       16.252329  -0.000000
    6       17.032833  -0.000000
    7       28.752501   0.000000
    8       33.055983   0.000000
 
 -0.4500000E+00  0.4500000E+00  0.5000000E-01  0.2400000E-01
    1        3.400053   1.000000
    2        6.601422   1.000000
    3       12.852460  -0.000000
    4       14.779011  -0.000000
    5       17.370200  -0.000000
    6       20.809285   0.000000
    7       25.752190   0.000000
    8       29.493249   0.000000
 
 -0.3500000E+00  0.4500000E+00  0.5000000E-01  0.4800000E-01
    1        4.344880   1.000000
    2        7.210645   1.000000
    3       10.438671   1.000000
    4       13.991435  -0.000000
    5       17.193484  -0.000000
    6       20.490009   0.000000
    7       27.484310   0.000000
    8       30.690826   0.000000
 
 -0.2500000E+00  0.4500000E+00  0.5000000E-01  0.2400000E-01
    1        5.435533   1.000000
    2        7.104827   1.000000
    3        9.486657   1.000000
    4       13.404473  -0.000000
    5       16.541920  -0.000000
    6       20.804462   0.000000
    7       28.081723   0.000000
    8       33.081823   0.000000
 
 -0.4500000E+00 -0.4500000E+00  0.5000000E-01  0.2400000E-01
    1        4.058221   1.000000
    2        7.032327   1.000000
    3       11.355492   1.000044
    4       13.821340  -0.000000
    5       18.354368   0.000000
    6       22.563824   0.000000
    7       27.133756   0.000000
    8       28.648611   0.000000
 
 -0.3500000E+00 -0.4500000E+00  0.5000000E-01  0.4800000E-01
    1        5.329858   1.000000
    2        7.294994   1.000000
    3        9.505734   1.000000
    4       14.283912  -0.000000
    5       17.085838  -0.000000
    6       24.613643   0.000000
    7       26.275519   0.000000
    8       30.772130   0.000000
 
 -0.3500000E+00 -0.3500000E+00  0.5000000E-01  0.8000000E-02
    1        5.900314   1.000000
    2        8.029080   1.000000
    3        8.029082   1.000000
    4       15.996141  -0.000000
    5       15.996166  -0.000000
    6       24.596102   0.000000
    7       28.556503   0.000000
    8       28.556529   0.000000
 
  0.1500000E+00  0.1500000E+00  0.1500000E+00  0.8000000E-02
    1        6.790188   1.000000
    2        7.118192   1.000000
    3        7.118192   1.000000
    4       15.522806  -0.000000
    5       15.522806  -0.000000
    6       20.842621   0.000000
    7       31.095979   0.000000
    8       31.095979   0.000000
 
  0.2500000E+00  0.1500000E+00  0.1500000E+00  0.2400000E-01
    1        6.397088   1.000000
    2        6.872726   1.000000
    3        9.443085   1.000000
    4       15.888945  -0.000000
    5       16.381956  -0.000000
    6       24.232725   0.000000
    7       26.828676   0.000000
    8       28.893295   0.000000
 
  0.3500000E+00  0.1500000E+00  0.1500000E+00  0.1200000E-01
    1        6.156922   1.000000
    2        6.812148   1.000000
    3       10.907045   1.000000
    4       16.079621  -0.000000
    5       16.665323  -0.000000
    6       24.609233   0.000000
    7       25.473758   0.000000
    8       28.032460   0.000000
 
 -0.1500000E+00  0.1500000E+00  0.1500000E+00  0.6000000E-02
    1        3.546756   1.000000
    2        9.929710   1.000000
    3        9.929713   1.000000
    4       10.639144   1.000000
    5       11.303621   1.000009
    6       16.506011  -0.000000
    7       32.750339   0.000000
    8       32.846388   0.000000
 
  0.2500000E+00  0.2500000E+00  0.1500000E+00  0.2400000E-01
    1        6.707322   1.000000
    2        8.026004   1.000000
    3        9.371311   1.000000
    4       16.417235  -0.000000
    5       16.662227  -0.000000
    6       23.671759   0.000000
    7       26.767138   0.000000
    8       28.987750   0.000000
 
 -0.2500000E+00  0.2500000E+00  0.1500000E+00  0.2400000E-01
    1        4.998628   1.000000
    2        8.509807   1.000000
    3        9.344126   1.000000
    4       11.303854   1.000009
    5       13.593132  -0.000000
    6       17.135754  -0.000000
    7       29.532878   0.000000
    8       34.848064   0.000000
 
 -0.3500000E+00  0.3500000E+00  0.1500000E+00  0.2400000E-01
    1        4.978120   1.000000
    2        8.477712   1.000000
    3        8.536101   1.000000
    4       12.805477  -0.000000
    5       17.112732  -0.000000
    6       17.880227   0.000000
    7       28.366021   0.000000
    8       34.079983   0.000000
 
 -0.2500000E+00  0.3500000E+00  0.1500000E+00  0.2400000E-01
    1        5.977909   1.000000
    2        6.994780   1.000000
    3        9.941256   1.000000
    4       11.787310   1.022005
    5       15.668677  -0.000000
    6       17.952655   0.000000
    7       28.950352   0.000000
    8       36.211959   0.000000
 
 -0.4500000E+00  0.4500000E+00  0.1500000E+00  0.2400000E-01
    1        4.363664   1.000000
    2        8.071412   1.000000
    3        9.491850   1.000000
    4       12.578088  -0.000103
    5       20.296285   0.000000
    6       20.434950   0.000000
    7       28.249819   0.000000
    8       30.909952   0.000000
 
 -0.3500000E+00  0.4500000E+00  0.1500000E+00  0.4800000E-01
    1        5.456046   1.000000
    2        7.195086   1.000000
    3        9.308267   1.000000
    4       12.873869  -0.000000
    5       17.374057  -0.000000
    6       21.297173   0.000000
    7       28.745345   0.000000
    8       33.757973   0.000000
 
 -0.4500000E+00 -0.4500000E+00  0.1500000E+00  0.2400000E-01
    1        5.046253   1.000000
    2        8.072222   1.000000
    3        8.401804   1.000000
    4       12.909556  -0.000000
    5       19.120047   0.000000
    6       24.093017   0.000000
    7       26.946220   0.000000
    8       31.747432   0.000000
 
 -0.3500000E+00 -0.4500000E+00  0.1500000E+00  0.2400000E-01
    1        6.158606   1.000000
    2        6.604904   1.000000
    3        8.143647   1.000000
    4       15.024218  -0.000000
    5       17.113953  -0.000000
    6       25.480646   0.000000
    7       26.542180   0.000000
    8       31.025210   0.000000
 
  0.2500000E+00  0.2500000E+00  0.2500000E+00  0.2000000E-02
    1        8.270905   1.000000
    2        8.270917   1.000000
    3        8.270917   1.000000
    4       16.781636  -0.000000
    5       16.781636  -0.000000
    6       22.485532   0.000000
    7       28.549809   0.000000
    8       28.549830   0.000000
 
 -0.2500000E+00  0.2500000E+00  0.2500000E+00  0.6000000E-02
    1        6.262230   1.000000
    2        7.032694   1.000000
    3       11.113817   1.000000
    4       11.113830   1.000000
    5       13.689393  -0.000000
    6       17.457241   0.000000
    7       29.521335   0.000000
    8       38.015303   0.000000
 
 -0.3500000E+00  0.3500000E+00  0.2500000E+00  0.2400000E-01
    1        5.586411   1.000000
    2        6.559875   1.000000
    3       11.158004   1.000000
    4       12.203698  -0.033084
    5       16.517825  -0.000000
    6       18.380490   0.000000
    7       30.667885   0.000000
    8       35.569910   0.000000
 
 -0.4500000E+00  0.4500000E+00  0.2500000E+00  0.2400000E-01
    1        4.791701   1.000000
    2        6.559695   1.000000
    3       10.848909   1.000000
    4       12.183537  -0.026023
    5       19.874820   0.000000
    6       21.835842   0.000000
    7       28.535099   0.000000
    8       31.604161   0.000000
 
 -0.3500000E+00  0.4500000E+00  0.2500000E+00  0.2400000E-01
    1        4.865277   1.000000
    2        5.805669   1.000000
    3       11.090788   1.000000
    4       14.239409  -0.000000
    5       17.547828   0.000000
    6       21.524141   0.000000
    7       29.465620   0.000000
    8       32.187211   0.000000
 
 -0.4500000E+00 -0.4500000E+00  0.2500000E+00  0.2400000E-01
    1        4.676738   1.000000
    2        5.389808   1.000000
    3       10.782295   1.000000
    4       15.120662  -0.000000
    5       18.793521   0.000000
    6       25.251589   0.000000
    7       26.159085   0.000000
    8       29.335975   0.000000
 
 -0.3500000E+00  0.3500000E+00  0.3500000E+00  0.6000000E-02
    1        4.405891   1.000000
    2        5.453997   1.000000
    3       13.944739  -0.000000
    4       13.944763  -0.000000
    5       16.749789  -0.000000
    6       18.995347   0.000000
    7       32.383896   0.000000
    8       32.383927   0.000000
 
 -0.4500000E+00  0.4500000E+00  0.3500000E+00  0.2400000E-01
    1        3.812228   1.000000
    2        4.427792   1.000000
    3       14.573501  -0.000000
    4       14.927694  -0.000000
    5       19.372454   0.000000
    6       22.133465   0.000000
    7       27.749654   0.000000
    8       28.812112   0.000000
 
 -0.4500000E+00 -0.4500000E+00  0.3500000E+00  0.8000000E-02
    1        3.651977   1.000000
    2        3.651977   1.000000
    3       14.675308  -0.000000
    4       18.381283   0.000000
    5       18.381335   0.000000
    6       25.505263   0.000000
    7       25.505284   0.000000
    8       25.632617   0.000000
 
 -0.4500000E+00  0.4500000E+00  0.4500000E+00  0.6000000E-02
    1        3.051141   1.000000
    2        3.230316   1.000000
    3       18.222550   0.000000
    4       18.222586   0.000000
    5       19.315715   0.000000
    6       22.773715   0.000000
    7       25.500915   0.000000
    8       25.500929   0.000000
