 running on    4 total cores
 distrk:  each k-point on    4 cores,    1 groups
 distr:  one band on    1 cores,    4 groups
 using from now: INCAR     
 vasp.5.4.4.18Apr17-6-g9f103f2a35 (build Jul 01 2019 03:25:34) complex          
  
 POSCAR found type information on POSCAR  W 
 POSCAR found :  1 types and       1 ions
 scaLAPACK will be used
 LDA part: xc-table for Ceperly-Alder, standard interpolation
 POSCAR, INCAR and KPOINTS ok, starting setup
 FFT: planning ...
 WAVECAR not read
 entering main loop
       N       E                     dE             d eps       ncg     rms          rms(c)
DAV:   1    -0.923673803675E+01   -0.92367E+01   -0.19995E+03   920   0.294E+02
DAV:   2    -0.132526178667E+02   -0.40159E+01   -0.39629E+01   776   0.510E+01
DAV:   3    -0.132658519078E+02   -0.13234E-01   -0.13234E-01   904   0.288E+00
DAV:   4    -0.132658561671E+02   -0.42593E-05   -0.42590E-05   880   0.384E-02
DAV:   5    -0.132658561690E+02   -0.19162E-08   -0.21608E-08   824   0.629E-04    0.328E+00
DAV:   6    -0.128623615244E+02    0.40349E+00   -0.10263E-01   752   0.205E+00    0.183E+00
DAV:   7    -0.126613789032E+02    0.20098E+00   -0.16545E-01   784   0.256E+00    0.116E-01
DAV:   8    -0.126605349773E+02    0.84393E-03   -0.15263E-03   848   0.229E-01    0.107E-02
DAV:   9    -0.126605400731E+02   -0.50958E-05   -0.12710E-05   512   0.254E-02
   1 F= -.12660540E+02 E0= -.12661334E+02  d E =0.238187E-02
 writing wavefunctions
