 vasp.5.4.4.18Apr17-6-g9f103f2a35 (build Jul 01 2019 03:25:34) complex          
  
 executed on             LinuxIFC date 2020.07.08  19:51:19
 running on    4 total cores
 distrk:  each k-point on    4 cores,    1 groups
 distr:  one band on NCORES_PER_BAND=   1 cores,    4 groups


--------------------------------------------------------------------------------------------------------


 INCAR:
 POTCAR:   PAW W 19Jan2001                        
 POTCAR:   PAW W 19Jan2001                        
   VRHFIN =W: 5p6s5d                                                            
   LEXCH  = CA                                                                  
   EATOM  =   206.5370 eV,   15.1800 Ry                                         
                                                                                
   TITEL  = PAW W 19Jan2001                                                     
   LULTRA =        F    use ultrasoft PP ?                                      
   IUNSCR =        1    unscreen: 0-lin 1-nonlin 2-no                           
   RPACOR =    2.330    partial core radius                                     
   POMASS =  183.850; ZVAL   =    6.000    mass and valenz                      
   RCORE  =    2.750    outmost cutoff radius                                   
   RWIGS  =    2.750; RWIGS  =    1.455    wigner-seitz radius (au A)           
   ENMAX  =  223.126; ENMIN  =  167.344 eV                                      
   RCLOC  =    2.147    cutoff for local pot                                    
   LCOR   =        T    correct aug charges                                     
   LPAW   =        T    paw PP                                                  
   EAUG   =  373.438                                                            
   DEXC   =    -.048                                                            
   RMAX   =    3.087    core radius for proj-oper                               
   RAUG   =    1.300    factor for augmentation sphere                          
   RDEP   =    2.886    radius for radial grids                                 
   QCUT   =   -4.050; QGAM   =    8.099    optimization parameters              
                                                                                
   Description                                                                  
     l     E      TYP  RCUT    TYP  RCUT                                        
     2   .000     23  2.500                                                     
     2   .000     23  2.500                                                     
     0   .000     23  2.500                                                     
     0   .000     23  2.500                                                     
     1   .200     23  2.750                                                     
     1  2.000     23  2.750                                                     
     3   .000      7   .000                                                     
  local pseudopotential read in
  partial core-charges read in
  atomic valenz-charges read in
  non local Contribution for L=           2  read in
    real space projection operators read in
  non local Contribution for L=           2  read in
    real space projection operators read in
  non local Contribution for L=           0  read in
    real space projection operators read in
  non local Contribution for L=           0  read in
    real space projection operators read in
  non local Contribution for L=           1  read in
    real space projection operators read in
  non local Contribution for L=           1  read in
    real space projection operators read in
    PAW grid and wavefunctions read in
 
   number of l-projection  operators is LMAX  =           6
   number of lm-projection operators is LMMAX =          18
 
 PAW W 19Jan2001                        :
 energy of atom  1       EATOM= -206.5370
 kinetic energy error for atom=    0.0291 (will be added to EATOM!!)
 
 
 POSCAR: BCC W Bulk                              
  positions in direct lattice
  No initial velocities read in
 exchange correlation table for  LEXCH =        2
   RHO(1)=    0.500       N(1)  =     2000
   RHO(2)=  100.500       N(2)  =     4000
 


--------------------------------------------------------------------------------------------------------


 ion  position               nearest neighbor table
   1  0.000  0.000  0.000-
 
  LATTYP: Found a body centered cubic cell.
 ALAT       =     2.8500000000
  
  Lattice vectors:
  
 A1 = (  -1.4250000000,   1.4250000000,   1.4250000000)
 A2 = (   1.4250000000,  -1.4250000000,   1.4250000000)
 A3 = (   1.4250000000,   1.4250000000,  -1.4250000000)


Analysis of symmetry for initial positions (statically):
=====================================================================
 Subroutine PRICEL returns:
 Original cell was already a primitive cell.
 

 Routine SETGRP: Setting up the symmetry group for a 
 body centered cubic supercell.


 Subroutine GETGRP returns: Found 48 space group operations
 (whereof 48 operations were pure point group operations)
 out of a pool of 48 trial point group operations.


The static configuration has the point symmetry O_h .


Analysis of symmetry for dynamics (positions and initial velocities):
=====================================================================
 Subroutine PRICEL returns:
 Original cell was already a primitive cell.
 

 Routine SETGRP: Setting up the symmetry group for a 
 body centered cubic supercell.


 Subroutine GETGRP returns: Found 48 space group operations
 (whereof 48 operations were pure point group operations)
 out of a pool of 48 trial point group operations.


The dynamic configuration has the point symmetry O_h .


 Subroutine INISYM returns: Found 48 space group operations
 (whereof 48 operations are pure point group operations),
 and found     1 'primitive' translations

 
 
 KPOINTS: 10x10x10                                

Automatic generation of k-mesh.
Space group operators:
 irot       det(A)        alpha          n_x          n_y          n_z        tau_x        tau_y        tau_z
    1     1.000000     0.000000     1.000000     0.000000     0.000000     0.000000     0.000000     0.000000
    2    -1.000000     0.000000     1.000000     0.000000     0.000000     0.000000     0.000000     0.000000
    3     1.000000   120.000000    -0.577350    -0.577350    -0.577350     0.000000     0.000000     0.000000
    4    -1.000000   120.000000    -0.577350    -0.577350    -0.577350     0.000000     0.000000     0.000000
    5     1.000000   120.000000     0.577350     0.577350     0.577350     0.000000     0.000000     0.000000
    6    -1.000000   120.000000     0.577350     0.577350     0.577350     0.000000     0.000000     0.000000
    7     1.000000    90.000000     0.000000     0.000000    -1.000000     0.000000     0.000000     0.000000
    8    -1.000000    90.000000     0.000000     0.000000    -1.000000     0.000000     0.000000     0.000000
    9     1.000000   180.000000     0.000000     0.707107     0.707107     0.000000     0.000000     0.000000
   10    -1.000000   180.000000     0.000000     0.707107     0.707107     0.000000     0.000000     0.000000
   11     1.000000    90.000000     0.000000     1.000000     0.000000     0.000000     0.000000     0.000000
   12    -1.000000    90.000000     0.000000     1.000000     0.000000     0.000000     0.000000     0.000000
   13     1.000000   179.999999     0.000000     0.000000     1.000000     0.000000     0.000000     0.000000
   14    -1.000000   179.999999     0.000000     0.000000     1.000000     0.000000     0.000000     0.000000
   15     1.000000   120.000000    -0.577350     0.577350     0.577350     0.000000     0.000000     0.000000
   16    -1.000000   120.000000    -0.577350     0.577350     0.577350     0.000000     0.000000     0.000000
   17     1.000000   120.000000    -0.577350     0.577350    -0.577350     0.000000     0.000000     0.000000
   18    -1.000000   120.000000    -0.577350     0.577350    -0.577350     0.000000     0.000000     0.000000
   19     1.000000    90.000000     0.000000     0.000000     1.000000     0.000000     0.000000     0.000000
   20    -1.000000    90.000000     0.000000     0.000000     1.000000     0.000000     0.000000     0.000000
   21     1.000000    90.000000    -1.000000     0.000000     0.000000     0.000000     0.000000     0.000000
   22    -1.000000    90.000000    -1.000000     0.000000     0.000000     0.000000     0.000000     0.000000
   23     1.000000   180.000000     0.707107     0.000000     0.707107     0.000000     0.000000     0.000000
   24    -1.000000   180.000000     0.707107     0.000000     0.707107     0.000000     0.000000     0.000000
   25     1.000000   120.000000     0.577350    -0.577350     0.577350     0.000000     0.000000     0.000000
   26    -1.000000   120.000000     0.577350    -0.577350     0.577350     0.000000     0.000000     0.000000
   27     1.000000   120.000000    -0.577350    -0.577350     0.577350     0.000000     0.000000     0.000000
   28    -1.000000   120.000000    -0.577350    -0.577350     0.577350     0.000000     0.000000     0.000000
   29     1.000000   180.000000     1.000000     0.000000     0.000000     0.000000     0.000000     0.000000
   30    -1.000000   180.000000     1.000000     0.000000     0.000000     0.000000     0.000000     0.000000
   31     1.000000    90.000000     0.000000    -1.000000     0.000000     0.000000     0.000000     0.000000
   32    -1.000000    90.000000     0.000000    -1.000000     0.000000     0.000000     0.000000     0.000000
   33     1.000000   180.000000     0.707107     0.707107     0.000000     0.000000     0.000000     0.000000
   34    -1.000000   180.000000     0.707107     0.707107     0.000000     0.000000     0.000000     0.000000
   35     1.000000    90.000000     1.000000     0.000000     0.000000     0.000000     0.000000     0.000000
   36    -1.000000    90.000000     1.000000     0.000000     0.000000     0.000000     0.000000     0.000000
   37     1.000000   120.000000     0.577350    -0.577350    -0.577350     0.000000     0.000000     0.000000
   38    -1.000000   120.000000     0.577350    -0.577350    -0.577350     0.000000     0.000000     0.000000
   39     1.000000   180.000000     0.000000     1.000000     0.000000     0.000000     0.000000     0.000000
   40    -1.000000   180.000000     0.000000     1.000000     0.000000     0.000000     0.000000     0.000000
   41     1.000000   120.000000     0.577350     0.577350    -0.577350     0.000000     0.000000     0.000000
   42    -1.000000   120.000000     0.577350     0.577350    -0.577350     0.000000     0.000000     0.000000
   43     1.000000   180.000000     0.000000    -0.707107     0.707107     0.000000     0.000000     0.000000
   44    -1.000000   180.000000     0.000000    -0.707107     0.707107     0.000000     0.000000     0.000000
   45     1.000000   180.000000     0.707107    -0.707107     0.000000     0.000000     0.000000     0.000000
   46    -1.000000   180.000000     0.707107    -0.707107     0.000000     0.000000     0.000000     0.000000
   47     1.000000   180.000000     0.707107     0.000000    -0.707107     0.000000     0.000000     0.000000
   48    -1.000000   180.000000     0.707107     0.000000    -0.707107     0.000000     0.000000     0.000000
 
 Subroutine IBZKPT returns following result:
 ===========================================
 
 Found     44 irreducible k-points:
 
 Following reciprocal coordinates:
            Coordinates               Weight
  0.050000  0.050000  0.050000      8.000000
  0.150000  0.050000  0.050000     24.000000
  0.250000  0.050000  0.050000     24.000000
  0.350000  0.050000  0.050000     24.000000
  0.450000  0.050000  0.050000     12.000000
 -0.050000  0.050000  0.050000      6.000000
  0.150000  0.150000  0.050000     24.000000
  0.250000  0.150000  0.050000     48.000000
  0.350000  0.150000  0.050000     48.000000
 -0.150000  0.150000  0.050000     24.000000
  0.250000  0.250000  0.050000     24.000000
  0.350000  0.250000  0.050000     24.000000
 -0.250000  0.250000  0.050000     24.000000
 -0.150000  0.250000  0.050000     24.000000
 -0.350000  0.350000  0.050000     24.000000
 -0.250000  0.350000  0.050000     48.000000
 -0.450000  0.450000  0.050000     24.000000
 -0.350000  0.450000  0.050000     48.000000
 -0.250000  0.450000  0.050000     24.000000
 -0.450000 -0.450000  0.050000     24.000000
 -0.350000 -0.450000  0.050000     48.000000
 -0.350000 -0.350000  0.050000      8.000000
  0.150000  0.150000  0.150000      8.000000
  0.250000  0.150000  0.150000     24.000000
  0.350000  0.150000  0.150000     12.000000
 -0.150000  0.150000  0.150000      6.000000
  0.250000  0.250000  0.150000     24.000000
 -0.250000  0.250000  0.150000     24.000000
 -0.350000  0.350000  0.150000     24.000000
 -0.250000  0.350000  0.150000     24.000000
 -0.450000  0.450000  0.150000     24.000000
 -0.350000  0.450000  0.150000     48.000000
 -0.450000 -0.450000  0.150000     24.000000
 -0.350000 -0.450000  0.150000     24.000000
  0.250000  0.250000  0.250000      2.000000
 -0.250000  0.250000  0.250000      6.000000
 -0.350000  0.350000  0.250000     24.000000
 -0.450000  0.450000  0.250000     24.000000
 -0.350000  0.450000  0.250000     24.000000
 -0.450000 -0.450000  0.250000     24.000000
 -0.350000  0.350000  0.350000      6.000000
 -0.450000  0.450000  0.350000     24.000000
 -0.450000 -0.450000  0.350000      8.000000
 -0.450000  0.450000  0.450000      6.000000
 
 Following cartesian coordinates:
            Coordinates               Weight
  0.100000  0.100000  0.100000      8.000000
  0.100000  0.200000  0.200000     24.000000
  0.100000  0.300000  0.300000     24.000000
  0.100000  0.400000  0.400000     24.000000
  0.100000  0.500000  0.500000     12.000000
  0.100000  0.000000  0.000000      6.000000
  0.200000  0.200000  0.300000     24.000000
  0.200000  0.300000  0.400000     48.000000
  0.200000  0.400000  0.500000     48.000000
  0.200000 -0.100000  0.000000     24.000000
  0.300000  0.300000  0.500000     24.000000
  0.300000  0.400000  0.600000     24.000000
  0.300000 -0.200000  0.000000     24.000000
  0.300000 -0.100000  0.100000     24.000000
  0.400000 -0.300000  0.000000     24.000000
  0.400000 -0.200000  0.100000     48.000000
  0.500000 -0.400000  0.000000     24.000000
  0.500000 -0.300000  0.100000     48.000000
  0.500000 -0.200000  0.200000     24.000000
 -0.400000 -0.400000 -0.900000     24.000000
 -0.400000 -0.300000 -0.800000     48.000000
 -0.300000 -0.300000 -0.700000      8.000000
  0.300000  0.300000  0.300000      8.000000
  0.300000  0.400000  0.400000     24.000000
  0.300000  0.500000  0.500000     12.000000
  0.300000  0.000000  0.000000      6.000000
  0.400000  0.400000  0.500000     24.000000
  0.400000 -0.100000  0.000000     24.000000
  0.500000 -0.200000  0.000000     24.000000
  0.500000 -0.100000  0.100000     24.000000
  0.600000 -0.300000  0.000000     24.000000
  0.600000 -0.200000  0.100000     48.000000
 -0.300000 -0.300000 -0.900000     24.000000
 -0.300000 -0.200000 -0.800000     24.000000
  0.500000  0.500000  0.500000      2.000000
  0.500000  0.000000  0.000000      6.000000
  0.600000 -0.100000  0.000000     24.000000
  0.700000 -0.200000  0.000000     24.000000
  0.700000 -0.100000  0.100000     24.000000
 -0.200000 -0.200000 -0.900000     24.000000
  0.700000  0.000000  0.000000      6.000000
  0.800000 -0.100000  0.000000     24.000000
 -0.100000 -0.100000 -0.900000      8.000000
  0.900000  0.000000  0.000000      6.000000
 


--------------------------------------------------------------------------------------------------------




 Dimension of arrays:
   k-points           NKPTS =     44   k-points in BZ     NKDIM =     44   number of bands    NBANDS=      8
   number of dos      NEDOS =    301   number of ions     NIONS =      1
   non local maximal  LDIM  =      6   non local SUM 2l+1 LMDIM =     18
   total plane-waves  NPLWV =   1000
   max r-space proj   IRMAX =      1   max aug-charges    IRDMAX=   5130
   dimension x,y,z NGX =    10 NGY =   10 NGZ =   10
   dimension x,y,z NGXF=    20 NGYF=   20 NGZF=   20
   support grid    NGXF=    20 NGYF=   20 NGZF=   20
   ions per type =               1
   NGX,Y,Z   is equivalent  to a cutoff of   6.74,  6.74,  6.74 a.u.
   NGXF,Y,Z  is equivalent  to a cutoff of  13.47, 13.47, 13.47 a.u.

 SYSTEM =  BCC W                                   
 POSCAR =  BCC W Bulk                              

 Startparameter for this run:
   NWRITE =      2    write-flag & timer
   PREC   = normal    normal or accurate (medium, high low for compatibility)
   ISTART =      0    job   : 0-new  1-cont  2-samecut
   ICHARG =      2    charge: 1-file 2-atom 10-const
   ISPIN  =      1    spin polarized calculation?
   LNONCOLLINEAR =      F non collinear calculations
   LSORBIT =      F    spin-orbit coupling
   INIWAV =      1    electr: 0-lowe 1-rand  2-diag
   LASPH  =      F    aspherical Exc in radial PAW
   METAGGA=      F    non-selfconsistent MetaGGA calc.

 Electronic Relaxation 1
   ENCUT  =  224.0 eV  16.46 Ry    4.06 a.u.   3.01  3.01  3.01*2*pi/ulx,y,z
   ENINI  =  224.0     initial cutoff
   ENAUG  =  373.4 eV  augmentation charge cutoff
   NELM   =     60;   NELMIN=  2; NELMDL= -5     # of ELM steps 
   EDIFF  = 0.1E-03   stopping-criterion for ELM
   LREAL  =      F    real-space projection
   NLSPLINE    = F    spline interpolate recip. space projectors
   LCOMPAT=      F    compatible to vasp.4.4
   GGA_COMPAT  = T    GGA compatible to vasp.4.4-vasp.4.6
   LMAXPAW     = -100 max onsite density
   LMAXMIX     =    2 max onsite mixed and CHGCAR
   VOSKOWN=      0    Vosko Wilk Nusair interpolation
   ROPT   =    0.00000
 Ionic relaxation
   EDIFFG = 0.1E-02   stopping-criterion for IOM
   NSW    =      0    number of steps for IOM
   NBLOCK =      1;   KBLOCK =      1    inner block; outer block 
   IBRION =     -1    ionic relax: 0-MD 1-quasi-New 2-CG
   NFREE  =      0    steps in history (QN), initial steepest desc. (CG)
   ISIF   =      2    stress and relaxation
   IWAVPR =     10    prediction:  0-non 1-charg 2-wave 3-comb
   ISYM   =      2    0-nonsym 1-usesym 2-fastsym
   LCORR  =      T    Harris-Foulkes like correction to forces

   POTIM  = 0.5000    time-step for ionic-motion
   TEIN   =    0.0    initial temperature
   TEBEG  =    0.0;   TEEND  =   0.0 temperature during run
   SMASS  =  -3.00    Nose mass-parameter (am)
   estimated Nose-frequenzy (Omega)   =  0.10E-29 period in steps =****** mass=  -0.139E-27a.u.
   SCALEE = 1.0000    scale energy and forces
   NPACO  =    256;   APACO  = 16.0  distance and # of slots for P.C.
   PSTRESS=    0.0 pullay stress

  Mass of Ions in am
   POMASS = 183.85
  Ionic Valenz
   ZVAL   =   6.00
  Atomic Wigner-Seitz radii
   RWIGS  =  -1.00
  virtual crystal weights 
   VCA    =   1.00
   NELECT =       6.0000    total number of electrons
   NUPDOWN=      -1.0000    fix difference up-down

 DOS related values:
   EMIN   =  10.00;   EMAX   =-10.00  energy-range for DOS
   EFERMI =   0.00
   ISMEAR =     1;   SIGMA  =   0.20  broadening in eV -4-tet -1-fermi 0-gaus

 Electronic relaxation 2 (details)
   IALGO  =     38    algorithm
   LDIAG  =      T    sub-space diagonalisation (order eigenvalues)
   LSUBROT=      F    optimize rotation matrix (better conditioning)
   TURBO    =      0    0=normal 1=particle mesh
   IRESTART =      0    0=no restart 2=restart with 2 vectors
   NREBOOT  =      0    no. of reboots
   NMIN     =      0    reboot dimension
   EREF     =   0.00    reference energy to select bands
   IMIX   =      4    mixing-type and parameters
     AMIX     =   0.40;   BMIX     =  1.00
     AMIX_MAG =   1.60;   BMIX_MAG =  1.00
     AMIN     =   0.10
     WC   =   100.;   INIMIX=   1;  MIXPRE=   1;  MAXMIX= -45

 Intra band minimization:
   WEIMIN = 0.0000     energy-eigenvalue tresh-hold
   EBREAK =  0.31E-05  absolut break condition
   DEPER  =   0.30     relativ break condition  

   TIME   =   0.40     timestep for ELM

  volume/ion in A,a.u.               =      11.57        78.11
  Fermi-wavevector in a.u.,A,eV,Ry     =   1.315095  2.485169 23.530926  1.729474
  Thomas-Fermi vector in A             =   2.445302
 
 Write flags
   LWAVE        =      T    write WAVECAR
   LDOWNSAMPLE  =      F    k-point downsampling of WAVECAR
   LCHARG       =      T    write CHGCAR
   LVTOT        =      F    write LOCPOT, total local potential
   LVHAR        =      F    write LOCPOT, Hartree potential only
   LELF         =      F    write electronic localiz. function (ELF)
   LORBIT       =      0    0 simple, 1 ext, 2 COOP (PROOUT), +10 PAW based schemes


 Dipole corrections
   LMONO  =      F    monopole corrections only (constant potential shift)
   LDIPOL =      F    correct potential (dipole corrections)
   IDIPOL =      0    1-x, 2-y, 3-z, 4-all directions 
   EPSILON=  1.0000000 bulk dielectric constant

 Exchange correlation treatment:
   GGA     =    --    GGA type
   LEXCH   =     2    internal setting for exchange type
   VOSKOWN=      0    Vosko Wilk Nusair interpolation
   LHFCALC =     F    Hartree Fock is set to
   LHFONE  =     F    Hartree Fock one center treatment
   AEXX    =    0.0000 exact exchange contribution

 Linear response parameters
   LEPSILON=     F    determine dielectric tensor
   LRPA    =     F    only Hartree local field effects (RPA)
   LNABLA  =     F    use nabla operator in PAW spheres
   LVEL    =     F    velocity operator in full k-point grid
   LINTERFAST=   F  fast interpolation
   KINTER  =     0    interpolate to denser k-point grid
   CSHIFT  =0.1000    complex shift for real part using Kramers Kronig
   OMEGAMAX=  -1.0    maximum frequency
   DEG_THRESHOLD= 0.2000000E-02 threshold for treating states as degnerate
   RTIME   =   -0.100 relaxation time in fs
  (WPLASMAI=    0.000 imaginary part of plasma frequency in eV, 0.658/RTIME)
   DFIELD  = 0.0000000 0.0000000 0.0000000 field for delta impulse in time
 
 Orbital magnetization related:
   ORBITALMAG=     F  switch on orbital magnetization
   LCHIMAG   =     F  perturbation theory with respect to B field
   DQ        =  0.001000  dq finite difference perturbation B field
   LLRAUG    =     F  two centre corrections for induced B field



--------------------------------------------------------------------------------------------------------


 Static calculation
 charge density and potential will be updated during run
 non-spin polarized calculation
 Variant of blocked Davidson
 Davidson routine will perform the subspace rotation
 perform sub-space diagonalisation
    after iterative eigenvector-optimisation
 modified Broyden-mixing scheme, WC =      100.0
 initial mixing is a Kerker type mixing with AMIX =  0.4000 and BMIX =      1.0000
 Hartree-type preconditioning will be used
 using additional bands            5
 reciprocal scheme for non local part
 use partial core corrections
 calculate Harris-corrections to forces 
   (improved forces if not selfconsistent)
 use of overlap-Matrix (Vanderbilt PP)
 Methfessel and Paxton  Order N= 1 SIGMA  =   0.20


--------------------------------------------------------------------------------------------------------


  energy-cutoff  :      224.00
  volume of cell :       11.57
      direct lattice vectors                 reciprocal lattice vectors
    -1.425000000  1.425000000  1.425000000     0.000000000  0.350877193  0.350877193
     1.425000000 -1.425000000  1.425000000     0.350877193  0.000000000  0.350877193
     1.425000000  1.425000000 -1.425000000     0.350877193  0.350877193  0.000000000

  length of vectors
     2.468172401  2.468172401  2.468172401     0.496215285  0.496215285  0.496215285


 
 k-points in units of 2pi/SCALE and weight: 10x10x10                                
   0.10000000  0.10000000  0.10000000       0.008
   0.10000000  0.20000000  0.20000000       0.024
   0.10000000  0.30000000  0.30000000       0.024
   0.10000000  0.40000000  0.40000000       0.024
   0.10000000  0.50000000  0.50000000       0.012
   0.10000000  0.00000000  0.00000000       0.006
   0.20000000  0.20000000  0.30000000       0.024
   0.20000000  0.30000000  0.40000000       0.048
   0.20000000  0.40000000  0.50000000       0.048
   0.20000000 -0.10000000  0.00000000       0.024
   0.30000000  0.30000000  0.50000000       0.024
   0.30000000  0.40000000  0.60000000       0.024
   0.30000000 -0.20000000  0.00000000       0.024
   0.30000000 -0.10000000  0.10000000       0.024
   0.40000000 -0.30000000  0.00000000       0.024
   0.40000000 -0.20000000  0.10000000       0.048
   0.50000000 -0.40000000  0.00000000       0.024
   0.50000000 -0.30000000  0.10000000       0.048
   0.50000000 -0.20000000  0.20000000       0.024
  -0.40000000 -0.40000000 -0.90000000       0.024
  -0.40000000 -0.30000000 -0.80000000       0.048
  -0.30000000 -0.30000000 -0.70000000       0.008
   0.30000000  0.30000000  0.30000000       0.008
   0.30000000  0.40000000  0.40000000       0.024
   0.30000000  0.50000000  0.50000000       0.012
   0.30000000  0.00000000  0.00000000       0.006
   0.40000000  0.40000000  0.50000000       0.024
   0.40000000 -0.10000000  0.00000000       0.024
   0.50000000 -0.20000000  0.00000000       0.024
   0.50000000 -0.10000000  0.10000000       0.024
   0.60000000 -0.30000000  0.00000000       0.024
   0.60000000 -0.20000000  0.10000000       0.048
  -0.30000000 -0.30000000 -0.90000000       0.024
  -0.30000000 -0.20000000 -0.80000000       0.024
   0.50000000  0.50000000  0.50000000       0.002
   0.50000000  0.00000000  0.00000000       0.006
   0.60000000 -0.10000000  0.00000000       0.024
   0.70000000 -0.20000000  0.00000000       0.024
   0.70000000 -0.10000000  0.10000000       0.024
  -0.20000000 -0.20000000 -0.90000000       0.024
   0.70000000  0.00000000  0.00000000       0.006
   0.80000000 -0.10000000  0.00000000       0.024
  -0.10000000 -0.10000000 -0.90000000       0.008
   0.90000000  0.00000000  0.00000000       0.006
 
 k-points in reciprocal lattice and weights: 10x10x10                                
   0.05000000  0.05000000  0.05000000       0.008
   0.15000000  0.05000000  0.05000000       0.024
   0.25000000  0.05000000  0.05000000       0.024
   0.35000000  0.05000000  0.05000000       0.024
   0.45000000  0.05000000  0.05000000       0.012
  -0.05000000  0.05000000  0.05000000       0.006
   0.15000000  0.15000000  0.05000000       0.024
   0.25000000  0.15000000  0.05000000       0.048
   0.35000000  0.15000000  0.05000000       0.048
  -0.15000000  0.15000000  0.05000000       0.024
   0.25000000  0.25000000  0.05000000       0.024
   0.35000000  0.25000000  0.05000000       0.024
  -0.25000000  0.25000000  0.05000000       0.024
  -0.15000000  0.25000000  0.05000000       0.024
  -0.35000000  0.35000000  0.05000000       0.024
  -0.25000000  0.35000000  0.05000000       0.048
  -0.45000000  0.45000000  0.05000000       0.024
  -0.35000000  0.45000000  0.05000000       0.048
  -0.25000000  0.45000000  0.05000000       0.024
  -0.45000000 -0.45000000  0.05000000       0.024
  -0.35000000 -0.45000000  0.05000000       0.048
  -0.35000000 -0.35000000  0.05000000       0.008
   0.15000000  0.15000000  0.15000000       0.008
   0.25000000  0.15000000  0.15000000       0.024
   0.35000000  0.15000000  0.15000000       0.012
  -0.15000000  0.15000000  0.15000000       0.006
   0.25000000  0.25000000  0.15000000       0.024
  -0.25000000  0.25000000  0.15000000       0.024
  -0.35000000  0.35000000  0.15000000       0.024
  -0.25000000  0.35000000  0.15000000       0.024
  -0.45000000  0.45000000  0.15000000       0.024
  -0.35000000  0.45000000  0.15000000       0.048
  -0.45000000 -0.45000000  0.15000000       0.024
  -0.35000000 -0.45000000  0.15000000       0.024
   0.25000000  0.25000000  0.25000000       0.002
  -0.25000000  0.25000000  0.25000000       0.006
  -0.35000000  0.35000000  0.25000000       0.024
  -0.45000000  0.45000000  0.25000000       0.024
  -0.35000000  0.45000000  0.25000000       0.024
  -0.45000000 -0.45000000  0.25000000       0.024
  -0.35000000  0.35000000  0.35000000       0.006
  -0.45000000  0.45000000  0.35000000       0.024
  -0.45000000 -0.45000000  0.35000000       0.008
  -0.45000000  0.45000000  0.45000000       0.006
 
 position of ions in fractional coordinates (direct lattice) 
   0.00000000  0.00000000  0.00000000
 
 position of ions in cartesian coordinates  (Angst):
   0.00000000  0.00000000  0.00000000
 


--------------------------------------------------------------------------------------------------------


 k-point  1 :   0.0500 0.0500 0.0500  plane waves:      83
 k-point  2 :   0.1500 0.0500 0.0500  plane waves:      87
 k-point  3 :   0.2500 0.0500 0.0500  plane waves:      87
 k-point  4 :   0.3500 0.0500 0.0500  plane waves:      87
 k-point  5 :   0.4500 0.0500 0.0500  plane waves:      80
 k-point  6 :  -0.0500 0.0500 0.0500  plane waves:      83
 k-point  7 :   0.1500 0.1500 0.0500  plane waves:      89
 k-point  8 :   0.2500 0.1500 0.0500  plane waves:      88
 k-point  9 :   0.3500 0.1500 0.0500  plane waves:      86
 k-point 10 :  -0.1500 0.1500 0.0500  plane waves:      83
 k-point 11 :   0.2500 0.2500 0.0500  plane waves:      87
 k-point 12 :   0.3500 0.2500 0.0500  plane waves:      84
 k-point 13 :  -0.2500 0.2500 0.0500  plane waves:      88
 k-point 14 :  -0.1500 0.2500 0.0500  plane waves:      83
 k-point 15 :  -0.3500 0.3500 0.0500  plane waves:      89
 k-point 16 :  -0.2500 0.3500 0.0500  plane waves:      88
 k-point 17 :  -0.4500 0.4500 0.0500  plane waves:      88
 k-point 18 :  -0.3500 0.4500 0.0500  plane waves:      88
 k-point 19 :  -0.2500 0.4500 0.0500  plane waves:      89
 k-point 20 :  -0.4500-0.4500 0.0500  plane waves:      86
 k-point 21 :  -0.3500-0.4500 0.0500  plane waves:      88
 k-point 22 :  -0.3500-0.3500 0.0500  plane waves:      86
 k-point 23 :   0.1500 0.1500 0.1500  plane waves:      89
 k-point 24 :   0.2500 0.1500 0.1500  plane waves:      87
 k-point 25 :   0.3500 0.1500 0.1500  plane waves:      86
 k-point 26 :  -0.1500 0.1500 0.1500  plane waves:      83
 k-point 27 :   0.2500 0.2500 0.1500  plane waves:      83
 k-point 28 :  -0.2500 0.2500 0.1500  plane waves:      87
 k-point 29 :  -0.3500 0.3500 0.1500  plane waves:      92
 k-point 30 :  -0.2500 0.3500 0.1500  plane waves:      91
 k-point 31 :  -0.4500 0.4500 0.1500  plane waves:      93
 k-point 32 :  -0.3500 0.4500 0.1500  plane waves:      92
 k-point 33 :  -0.4500-0.4500 0.1500  plane waves:      91
 k-point 34 :  -0.3500-0.4500 0.1500  plane waves:      88
 k-point 35 :   0.2500 0.2500 0.2500  plane waves:      80
 k-point 36 :  -0.2500 0.2500 0.2500  plane waves:      87
 k-point 37 :  -0.3500 0.3500 0.2500  plane waves:      91
 k-point 38 :  -0.4500 0.4500 0.2500  plane waves:      92
 k-point 39 :  -0.3500 0.4500 0.2500  plane waves:      90
 k-point 40 :  -0.4500-0.4500 0.2500  plane waves:      93
 k-point 41 :  -0.3500 0.3500 0.3500  plane waves:      96
 k-point 42 :  -0.4500 0.4500 0.3500  plane waves:      94
 k-point 43 :  -0.4500-0.4500 0.3500  plane waves:      98
 k-point 44 :  -0.4500 0.4500 0.4500  plane waves:      92

 maximum and minimum number of plane-waves per node :        98       80

 maximum number of plane-waves:        98
 maximum index in each direction: 
   IXMAX=    3   IYMAX=    3   IZMAX=    2
   IXMIN=   -3   IYMIN=   -3   IZMIN=   -3


 serial   3D FFT for wavefunctions
 parallel 3D FFT for charge:
    minimum data exchange during FFTs selected (reduces bandwidth)


 total amount of memory used by VASP MPI-rank0    31152. kBytes
=======================================================================

   base      :      30000. kBytes
   nonl-proj :        635. kBytes
   fftplans  :        142. kBytes
   grid      :        192. kBytes
   one-center:         15. kBytes
   wavefun   :        168. kBytes
 
     INWAV:  cpu time    0.0000: real time    0.0002
 Broyden mixing: mesh for mixing (old mesh)
   NGX =  7   NGY =  7   NGZ =  7
  (NGX  = 20   NGY  = 20   NGZ  = 20)
  gives a total of    343 points

 initial charge density was supplied:
 charge density of overlapping atoms calculated
 number of electron       6.0000000 magnetization 
 keeping initial charge density in first step


--------------------------------------------------------------------------------------------------------


 Maximum index for augmentation-charges         1203 (set IRDMAX)


--------------------------------------------------------------------------------------------------------


 First call to EWALD:  gamma=   0.784
 Maximum number of real-space cells 3x 3x 3
 Maximum number of reciprocal cells 3x 3x 3

    FEWALD:  cpu time    0.0012: real time    0.0012


--------------------------------------- Iteration      1(   1)  ---------------------------------------


    POTLOK:  cpu time    0.0011: real time    0.0024
    SETDIJ:  cpu time    0.0012: real time    0.0012
     EDDAV:  cpu time    0.0364: real time    0.0365
       DOS:  cpu time    0.0006: real time    0.0004
    --------------------------------------------
      LOOP:  cpu time    0.0393: real time    0.0406

 eigenvalue-minimisations  :   920
 total energy-change (2. order) :-0.9236738E+01  (-0.1999493E+03)
 number of electron       6.0000000 magnetization 
 augmentation part        6.0000000 magnetization 

 Free energy of the ion-electron system (eV)
  ---------------------------------------------------
  alpha Z        PSCENC =        60.30736972
  Ewald energy   TEWEN  =      -330.97381337
  -Hartree energ DENC   =        -2.88776482
  -exchange      EXHF   =         0.00000000
  -V(xc)+E(xc)   XCENC  =       -46.81257255
  PAW double counting   =       183.53490256     -125.80866524
  entropy T*S    EENTRO =        -0.00295185
  eigenvalues    EBANDS =        46.89889917
  atomic energy  EATOM  =       206.50785835
  Solvation  Ediel_sol  =         0.00000000
  ---------------------------------------------------
  free energy    TOTEN  =        -9.23673804 eV

  energy without entropy =       -9.23378619  energy(sigma->0) =       -9.23575409


--------------------------------------------------------------------------------------------------------




--------------------------------------- Iteration      1(   2)  ---------------------------------------


     EDDAV:  cpu time    0.0254: real time    0.0257
       DOS:  cpu time    0.0005: real time    0.0004
    --------------------------------------------
      LOOP:  cpu time    0.0259: real time    0.0260

 eigenvalue-minimisations  :   776
 total energy-change (2. order) :-0.4015880E+01  (-0.3962856E+01)
 number of electron       6.0000000 magnetization 
 augmentation part        6.0000000 magnetization 

 Free energy of the ion-electron system (eV)
  ---------------------------------------------------
  alpha Z        PSCENC =        60.30736972
  Ewald energy   TEWEN  =      -330.97381337
  -Hartree energ DENC   =        -2.88776482
  -exchange      EXHF   =         0.00000000
  -V(xc)+E(xc)   XCENC  =       -46.81257255
  PAW double counting   =       183.53490256     -125.80866524
  entropy T*S    EENTRO =        -0.00049176
  eigenvalues    EBANDS =        42.88055925
  atomic energy  EATOM  =       206.50785835
  Solvation  Ediel_sol  =         0.00000000
  ---------------------------------------------------
  free energy    TOTEN  =       -13.25261787 eV

  energy without entropy =      -13.25212611  energy(sigma->0) =      -13.25245395


--------------------------------------------------------------------------------------------------------




--------------------------------------- Iteration      1(   3)  ---------------------------------------


     EDDAV:  cpu time    0.0312: real time    0.0314
       DOS:  cpu time    0.0005: real time    0.0004
    --------------------------------------------
      LOOP:  cpu time    0.0317: real time    0.0318

 eigenvalue-minimisations  :   904
 total energy-change (2. order) :-0.1323404E-01  (-0.1323409E-01)
 number of electron       6.0000000 magnetization 
 augmentation part        6.0000000 magnetization 

 Free energy of the ion-electron system (eV)
  ---------------------------------------------------
  alpha Z        PSCENC =        60.30736972
  Ewald energy   TEWEN  =      -330.97381337
  -Hartree energ DENC   =        -2.88776482
  -exchange      EXHF   =         0.00000000
  -V(xc)+E(xc)   XCENC  =       -46.81257255
  PAW double counting   =       183.53490256     -125.80866524
  entropy T*S    EENTRO =        -0.00047455
  eigenvalues    EBANDS =        42.86730799
  atomic energy  EATOM  =       206.50785835
  Solvation  Ediel_sol  =         0.00000000
  ---------------------------------------------------
  free energy    TOTEN  =       -13.26585191 eV

  energy without entropy =      -13.26537736  energy(sigma->0) =      -13.26569373


--------------------------------------------------------------------------------------------------------




--------------------------------------- Iteration      1(   4)  ---------------------------------------


     EDDAV:  cpu time    0.0300: real time    0.0301
       DOS:  cpu time    0.0003: real time    0.0003
    --------------------------------------------
      LOOP:  cpu time    0.0302: real time    0.0305

 eigenvalue-minimisations  :   880
 total energy-change (2. order) :-0.4259294E-05  (-0.4259011E-05)
 number of electron       6.0000000 magnetization 
 augmentation part        6.0000000 magnetization 

 Free energy of the ion-electron system (eV)
  ---------------------------------------------------
  alpha Z        PSCENC =        60.30736972
  Ewald energy   TEWEN  =      -330.97381337
  -Hartree energ DENC   =        -2.88776482
  -exchange      EXHF   =         0.00000000
  -V(xc)+E(xc)   XCENC  =       -46.81257255
  PAW double counting   =       183.53490256     -125.80866524
  entropy T*S    EENTRO =        -0.00047452
  eigenvalues    EBANDS =        42.86730370
  atomic energy  EATOM  =       206.50785835
  Solvation  Ediel_sol  =         0.00000000
  ---------------------------------------------------
  free energy    TOTEN  =       -13.26585617 eV

  energy without entropy =      -13.26538165  energy(sigma->0) =      -13.26569799


--------------------------------------------------------------------------------------------------------




--------------------------------------- Iteration      1(   5)  ---------------------------------------


     EDDAV:  cpu time    0.0284: real time    0.0287
       DOS:  cpu time    0.0003: real time    0.0004
    CHARGE:  cpu time    0.0016: real time    0.0016
    MIXING:  cpu time    0.0001: real time    0.0002
    --------------------------------------------
      LOOP:  cpu time    0.0305: real time    0.0309

 eigenvalue-minimisations  :   824
 total energy-change (2. order) :-0.1916192E-08  (-0.2160837E-08)
 number of electron       5.9999985 magnetization 
 augmentation part        0.7071659 magnetization 

 Broyden mixing:
  rms(total) = 0.32820E+00    rms(broyden)= 0.32818E+00
  rms(prec ) = 0.13540E+01
  weight for this iteration     100.00

 Free energy of the ion-electron system (eV)
  ---------------------------------------------------
  alpha Z        PSCENC =        60.30736972
  Ewald energy   TEWEN  =      -330.97381337
  -Hartree energ DENC   =        -2.88776482
  -exchange      EXHF   =         0.00000000
  -V(xc)+E(xc)   XCENC  =       -46.81257255
  PAW double counting   =       183.53490256     -125.80866524
  entropy T*S    EENTRO =        -0.00047452
  eigenvalues    EBANDS =        42.86730370
  atomic energy  EATOM  =       206.50785835
  Solvation  Ediel_sol  =         0.00000000
  ---------------------------------------------------
  free energy    TOTEN  =       -13.26585617 eV

  energy without entropy =      -13.26538165  energy(sigma->0) =      -13.26569800


--------------------------------------------------------------------------------------------------------




--------------------------------------- Iteration      1(   6)  ---------------------------------------


    POTLOK:  cpu time    0.0010: real time    0.0010
    SETDIJ:  cpu time    0.0011: real time    0.0011
     EDDAV:  cpu time    0.0239: real time    0.0239
       DOS:  cpu time    0.0003: real time    0.0004
    CHARGE:  cpu time    0.0017: real time    0.0017
    MIXING:  cpu time    0.0002: real time    0.0002
    --------------------------------------------
      LOOP:  cpu time    0.0281: real time    0.0283

 eigenvalue-minimisations  :   752
 total energy-change (2. order) : 0.4034946E+00  (-0.1026348E-01)
 number of electron       5.9999984 magnetization 
 augmentation part        0.7261305 magnetization 

 Broyden mixing:
  rms(total) = 0.18259E+00    rms(broyden)= 0.18259E+00
  rms(prec ) = 0.74487E+00
  weight for this iteration     100.00

 eigenvalues of (default mixing * dielectric matrix)
  average eigenvalue GAMMA=   2.2481
  2.2481

 Free energy of the ion-electron system (eV)
  ---------------------------------------------------
  alpha Z        PSCENC =        60.30736972
  Ewald energy   TEWEN  =      -330.97381337
  -Hartree energ DENC   =        -1.89168595
  -exchange      EXHF   =         0.00000000
  -V(xc)+E(xc)   XCENC  =       -46.64358809
  PAW double counting   =       235.52297871     -178.88180388
  entropy T*S    EENTRO =        -0.00120086
  eigenvalues    EBANDS =        43.19152384
  atomic energy  EATOM  =       206.50785835
  Solvation  Ediel_sol  =         0.00000000
  ---------------------------------------------------
  free energy    TOTEN  =       -12.86236152 eV

  energy without entropy =      -12.86116066  energy(sigma->0) =      -12.86196124


--------------------------------------------------------------------------------------------------------




--------------------------------------- Iteration      1(   7)  ---------------------------------------


    POTLOK:  cpu time    0.0010: real time    0.0010
    SETDIJ:  cpu time    0.0009: real time    0.0010
     EDDAV:  cpu time    0.0251: real time    0.0252
       DOS:  cpu time    0.0004: real time    0.0003
    CHARGE:  cpu time    0.0013: real time    0.0013
    MIXING:  cpu time    0.0001: real time    0.0001
    --------------------------------------------
      LOOP:  cpu time    0.0289: real time    0.0290

 eigenvalue-minimisations  :   784
 total energy-change (2. order) : 0.2009826E+00  (-0.1654546E-01)
 number of electron       5.9999984 magnetization 
 augmentation part        0.7502621 magnetization 

 Broyden mixing:
  rms(total) = 0.11622E-01    rms(broyden)= 0.11582E-01
  rms(prec ) = 0.30443E-01
  weight for this iteration     100.00

 eigenvalues of (default mixing * dielectric matrix)
  average eigenvalue GAMMA=   2.5912
  2.2526  2.9298

 Free energy of the ion-electron system (eV)
  ---------------------------------------------------
  alpha Z        PSCENC =        60.30736972
  Ewald energy   TEWEN  =      -330.97381337
  -Hartree energ DENC   =        -0.98835478
  -exchange      EXHF   =         0.00000000
  -V(xc)+E(xc)   XCENC  =       -46.38761609
  PAW double counting   =       322.54381859     -267.29054145
  entropy T*S    EENTRO =         0.00225729
  eigenvalues    EBANDS =        43.61764284
  atomic energy  EATOM  =       206.50785835
  Solvation  Ediel_sol  =         0.00000000
  ---------------------------------------------------
  free energy    TOTEN  =       -12.66137890 eV

  energy without entropy =      -12.66363620  energy(sigma->0) =      -12.66213133


--------------------------------------------------------------------------------------------------------




--------------------------------------- Iteration      1(   8)  ---------------------------------------


    POTLOK:  cpu time    0.0010: real time    0.0010
    SETDIJ:  cpu time    0.0009: real time    0.0009
     EDDAV:  cpu time    0.0276: real time    0.0276
       DOS:  cpu time    0.0003: real time    0.0003
    CHARGE:  cpu time    0.0013: real time    0.0013
    MIXING:  cpu time    0.0003: real time    0.0001
    --------------------------------------------
      LOOP:  cpu time    0.0314: real time    0.0314

 eigenvalue-minimisations  :   848
 total energy-change (2. order) : 0.8439259E-03  (-0.1526300E-03)
 number of electron       5.9999984 magnetization 
 augmentation part        0.7514604 magnetization 

 Broyden mixing:
  rms(total) = 0.10672E-02    rms(broyden)= 0.10540E-02
  rms(prec ) = 0.23968E-02
  weight for this iteration     100.00

 eigenvalues of (default mixing * dielectric matrix)
  average eigenvalue GAMMA=   1.9031
  1.1063  2.3015  2.3015

 Free energy of the ion-electron system (eV)
  ---------------------------------------------------
  alpha Z        PSCENC =        60.30736972
  Ewald energy   TEWEN  =      -330.97381337
  -Hartree energ DENC   =        -1.00724277
  -exchange      EXHF   =         0.00000000
  -V(xc)+E(xc)   XCENC  =       -46.38761127
  PAW double counting   =       335.34378851     -280.16575030
  entropy T*S    EENTRO =         0.00237227
  eigenvalues    EBANDS =        43.71249388
  atomic energy  EATOM  =       206.50785835
  Solvation  Ediel_sol  =         0.00000000
  ---------------------------------------------------
  free energy    TOTEN  =       -12.66053498 eV

  energy without entropy =      -12.66290725  energy(sigma->0) =      -12.66132573


--------------------------------------------------------------------------------------------------------




--------------------------------------- Iteration      1(   9)  ---------------------------------------


    POTLOK:  cpu time    0.0010: real time    0.0011
    SETDIJ:  cpu time    0.0009: real time    0.0009
     EDDAV:  cpu time    0.0176: real time    0.0178
       DOS:  cpu time    0.0004: real time    0.0003
    --------------------------------------------
      LOOP:  cpu time    0.0200: real time    0.0201

 eigenvalue-minimisations  :   512
 total energy-change (2. order) :-0.5095815E-05  (-0.1270977E-05)
 number of electron       5.9999984 magnetization 
 augmentation part        0.7514604 magnetization 

 Free energy of the ion-electron system (eV)
  ---------------------------------------------------
  alpha Z        PSCENC =        60.30736972
  Ewald energy   TEWEN  =      -330.97381337
  -Hartree energ DENC   =        -1.00760484
  -exchange      EXHF   =         0.00000000
  -V(xc)+E(xc)   XCENC  =       -46.38729442
  PAW double counting   =       336.47963359     -281.30431780
  entropy T*S    EENTRO =         0.00238187
  eigenvalues    EBANDS =        43.71524682
  atomic energy  EATOM  =       206.50785835
  Solvation  Ediel_sol  =         0.00000000
  ---------------------------------------------------
  free energy    TOTEN  =       -12.66054007 eV

  energy without entropy =      -12.66292195  energy(sigma->0) =      -12.66133403


--------------------------------------------------------------------------------------------------------




 average (electrostatic) potential at core
  the test charge radii are     1.1823
  (the norm of the test charge is              1.0000)
       1 -33.2911
 
 
 
 E-fermi :  11.9818     XC(G=0): -14.8913     alpha+bet :-20.1543


 k-point     1 :       0.0500    0.0500    0.0500
  band No.  band energies     occupation 
      1       1.7516      2.00000
      2       9.3280      2.00000
      3       9.3280      2.00000
      4      11.1915      2.00000
      5      14.3714     -0.00000
      6      14.3714     -0.00000
      7      28.5734      0.00000
      8      30.4170      0.00000

 k-point     2 :       0.1500    0.0500    0.0500
  band No.  band energies     occupation 
      1       3.3212      2.00000
      2       8.2776      2.00000
      3       8.7804      2.00000
      4      13.4889     -0.00000
      5      13.9465     -0.00000
      6      14.8380     -0.00000
      7      29.7784      0.00000
      8      32.4237      0.00000

 k-point     3 :       0.2500    0.0500    0.0500
  band No.  band energies     occupation 
      1       4.2173      2.00000
      2       7.2825      2.00000
      3       9.5171      2.00000
      4      14.4260     -0.00000
      5      15.4210     -0.00000
      6      16.8457     -0.00000
      7      28.7661      0.00000
      8      32.4994      0.00000

 k-point     4 :       0.3500    0.0500    0.0500
  band No.  band energies     occupation 
      1       3.8287      2.00000
      2       6.6113      2.00000
      3      12.1148      0.10589
      4      15.1902     -0.00000
      5      16.1088     -0.00000
      6      20.3219      0.00000
      7      26.3389      0.00000
      8      29.7558      0.00000

 k-point     5 :       0.4500    0.0500    0.0500
  band No.  band energies     occupation 
      1       3.5632      2.00000
      2       6.3795      2.00000
      3      13.9279     -0.00000
      4      15.1868     -0.00000
      5      16.4913     -0.00000
      6      22.1521      0.00000
      7      25.2668      0.00000
      8      28.3786      0.00000

 k-point     6 :      -0.0500    0.0500    0.0500
  band No.  band energies     occupation 
      1       1.1010      2.00000
      2       9.8429      2.00000
      3       9.8429      2.00000
      4      10.0372      2.00000
      5      14.1208     -0.00000
      6      14.9989     -0.00000
      7      28.6101      0.00000
      8      28.6101      0.00000

 k-point     7 :       0.1500    0.1500    0.0500
  band No.  band energies     occupation 
      1       4.8527      2.00000
      2       7.6940      2.00000
      3       7.9012      2.00000
      4      14.0659     -0.00000
      5      15.5626     -0.00000
      6      16.8445     -0.00000
      7      31.0747      0.00000
      8      31.1900      0.00000

 k-point     8 :       0.2500    0.1500    0.0500
  band No.  band energies     occupation 
      1       5.1507      2.00000
      2       7.0344      2.00000
      3       9.3639      2.00000
      4      14.6577     -0.00000
      5      16.2477     -0.00000
      6      20.5624      0.00000
      7      28.4783      0.00000
      8      30.7801      0.00000

 k-point     9 :       0.3500    0.1500    0.0500
  band No.  band energies     occupation 
      1       4.7408      2.00000
      2       6.7234      2.00000
      3      11.5825      2.01618
      4      15.2442     -0.00000
      5      16.6889     -0.00000
      6      23.4097      0.00000
      7      26.6623      0.00000
      8      27.7188      0.00000

 k-point    10 :      -0.1500    0.1500    0.0500
  band No.  band energies     occupation 
      1       2.3550      2.00000
      2       9.1082      2.00000
      3       9.5929      2.00000
      4      11.4032      2.00034
      5      13.0140     -0.00000
      6      15.3298     -0.00000
      7      29.7685      0.00000
      8      30.8071      0.00000

 k-point    11 :       0.2500    0.2500    0.0500
  band No.  band energies     occupation 
      1       5.5813      2.00000
      2       7.5092      2.00000
      3       9.6139      2.00000
      4      15.1991     -0.00000
      5      16.5583     -0.00000
      6      24.1292      0.00000
      7      26.3653      0.00000
      8      30.4885      0.00000

 k-point    12 :       0.3500    0.2500    0.0500
  band No.  band energies     occupation 
      1       5.5710      2.00000
      2       7.8122      2.00000
      3       9.9634      2.00000
      4      15.6878     -0.00000
      5      16.6028     -0.00000
      6      24.4403      0.00000
      7      26.3163      0.00000
      8      28.8699      0.00000

 k-point    13 :      -0.2500    0.2500    0.0500
  band No.  band energies     occupation 
      1       3.8085      2.00000
      2       8.0242      2.00000
      3       9.3315      2.00000
      4      13.2488     -0.00000
      5      14.0782     -0.00000
      6      15.7229     -0.00000
      7      29.5817      0.00000
      8      33.5816      0.00000

 k-point    14 :      -0.1500    0.2500    0.0500
  band No.  band energies     occupation 
      1       3.8206      2.00000
      2       8.7208      2.00000
      3       8.8894      2.00000
      4      12.1998     -0.06429
      5      13.3425     -0.00000
      6      16.1306     -0.00000
      7      31.3159      0.00000
      8      31.5038      0.00000

 k-point    15 :      -0.3500    0.3500    0.0500
  band No.  band energies     occupation 
      1       3.8548      2.00000
      2       7.1074      2.00000
      3      10.8153      2.00000
      4      14.4823     -0.00000
      5      16.2583     -0.00000
      6      17.5871      0.00000
      7      27.2728      0.00000
      8      31.5710      0.00000

 k-point    16 :      -0.2500    0.3500    0.0500
  band No.  band energies     occupation 
      1       4.7421      2.00000
      2       7.7257      2.00000
      3       9.1060      2.00000
      4      12.8982     -0.00000
      5      16.2523     -0.00000
      6      17.0328     -0.00000
      7      28.7525      0.00000
      8      33.0560      0.00000

 k-point    17 :      -0.4500    0.4500    0.0500
  band No.  band energies     occupation 
      1       3.4001      2.00000
      2       6.6014      2.00000
      3      12.8525     -0.00000
      4      14.7790     -0.00000
      5      17.3702     -0.00000
      6      20.8093      0.00000
      7      25.7522      0.00000
      8      29.4932      0.00000

 k-point    18 :      -0.3500    0.4500    0.0500
  band No.  band energies     occupation 
      1       4.3449      2.00000
      2       7.2106      2.00000
      3      10.4387      2.00000
      4      13.9914     -0.00000
      5      17.1935     -0.00000
      6      20.4900      0.00000
      7      27.4843      0.00000
      8      30.6908      0.00000

 k-point    19 :      -0.2500    0.4500    0.0500
  band No.  band energies     occupation 
      1       5.4355      2.00000
      2       7.1048      2.00000
      3       9.4867      2.00000
      4      13.4045     -0.00000
      5      16.5419     -0.00000
      6      20.8045      0.00000
      7      28.0817      0.00000
      8      33.0818      0.00000

 k-point    20 :      -0.4500   -0.4500    0.0500
  band No.  band energies     occupation 
      1       4.0582      2.00000
      2       7.0323      2.00000
      3      11.3555      2.00009
      4      13.8213     -0.00000
      5      18.3544      0.00000
      6      22.5638      0.00000
      7      27.1338      0.00000
      8      28.6486      0.00000

 k-point    21 :      -0.3500   -0.4500    0.0500
  band No.  band energies     occupation 
      1       5.3299      2.00000
      2       7.2950      2.00000
      3       9.5057      2.00000
      4      14.2839     -0.00000
      5      17.0858     -0.00000
      6      24.6136      0.00000
      7      26.2755      0.00000
      8      30.7721      0.00000

 k-point    22 :      -0.3500   -0.3500    0.0500
  band No.  band energies     occupation 
      1       5.9003      2.00000
      2       8.0291      2.00000
      3       8.0291      2.00000
      4      15.9961     -0.00000
      5      15.9962     -0.00000
      6      24.5961      0.00000
      7      28.5565      0.00000
      8      28.5565      0.00000

 k-point    23 :       0.1500    0.1500    0.1500
  band No.  band energies     occupation 
      1       6.7902      2.00000
      2       7.1182      2.00000
      3       7.1182      2.00000
      4      15.5228     -0.00000
      5      15.5228     -0.00000
      6      20.8426      0.00000
      7      31.0960      0.00000
      8      31.0960      0.00000

 k-point    24 :       0.2500    0.1500    0.1500
  band No.  band energies     occupation 
      1       6.3971      2.00000
      2       6.8727      2.00000
      3       9.4431      2.00000
      4      15.8889     -0.00000
      5      16.3820     -0.00000
      6      24.2327      0.00000
      7      26.8287      0.00000
      8      28.8933      0.00000

 k-point    25 :       0.3500    0.1500    0.1500
  band No.  band energies     occupation 
      1       6.1569      2.00000
      2       6.8121      2.00000
      3      10.9070      2.00000
      4      16.0796     -0.00000
      5      16.6653     -0.00000
      6      24.6092      0.00000
      7      25.4738      0.00000
      8      28.0325      0.00000

 k-point    26 :      -0.1500    0.1500    0.1500
  band No.  band energies     occupation 
      1       3.5468      2.00000
      2       9.9297      2.00000
      3       9.9297      2.00000
      4      10.6391      2.00000
      5      11.3036      2.00002
      6      16.5060     -0.00000
      7      32.7503      0.00000
      8      32.8464      0.00000

 k-point    27 :       0.2500    0.2500    0.1500
  band No.  band energies     occupation 
      1       6.7073      2.00000
      2       8.0260      2.00000
      3       9.3713      2.00000
      4      16.4172     -0.00000
      5      16.6622     -0.00000
      6      23.6718      0.00000
      7      26.7671      0.00000
      8      28.9877      0.00000

 k-point    28 :      -0.2500    0.2500    0.1500
  band No.  band energies     occupation 
      1       4.9986      2.00000
      2       8.5098      2.00000
      3       9.3441      2.00000
      4      11.3039      2.00002
      5      13.5931     -0.00000
      6      17.1358     -0.00000
      7      29.5329      0.00000
      8      34.8481      0.00000

 k-point    29 :      -0.3500    0.3500    0.1500
  band No.  band energies     occupation 
      1       4.9781      2.00000
      2       8.4777      2.00000
      3       8.5361      2.00000
      4      12.8055     -0.00000
      5      17.1127     -0.00000
      6      17.8802      0.00000
      7      28.3660      0.00000
      8      34.0800      0.00000

 k-point    30 :      -0.2500    0.3500    0.1500
  band No.  band energies     occupation 
      1       5.9779      2.00000
      2       6.9948      2.00000
      3       9.9413      2.00000
      4      11.7873      2.04401
      5      15.6687     -0.00000
      6      17.9527      0.00000
      7      28.9504      0.00000
      8      36.2120      0.00000

 k-point    31 :      -0.4500    0.4500    0.1500
  band No.  band energies     occupation 
      1       4.3637      2.00000
      2       8.0714      2.00000
      3       9.4919      2.00000
      4      12.5781     -0.00021
      5      20.2963      0.00000
      6      20.4350      0.00000
      7      28.2498      0.00000
      8      30.9100      0.00000

 k-point    32 :      -0.3500    0.4500    0.1500
  band No.  band energies     occupation 
      1       5.4560      2.00000
      2       7.1951      2.00000
      3       9.3083      2.00000
      4      12.8739     -0.00000
      5      17.3741     -0.00000
      6      21.2972      0.00000
      7      28.7453      0.00000
      8      33.7580      0.00000

 k-point    33 :      -0.4500   -0.4500    0.1500
  band No.  band energies     occupation 
      1       5.0463      2.00000
      2       8.0722      2.00000
      3       8.4018      2.00000
      4      12.9096     -0.00000
      5      19.1200      0.00000
      6      24.0930      0.00000
      7      26.9462      0.00000
      8      31.7474      0.00000

 k-point    34 :      -0.3500   -0.4500    0.1500
  band No.  band energies     occupation 
      1       6.1586      2.00000
      2       6.6049      2.00000
      3       8.1436      2.00000
      4      15.0242     -0.00000
      5      17.1140     -0.00000
      6      25.4806      0.00000
      7      26.5422      0.00000
      8      31.0252      0.00000

 k-point    35 :       0.2500    0.2500    0.2500
  band No.  band energies     occupation 
      1       8.2709      2.00000
      2       8.2709      2.00000
      3       8.2709      2.00000
      4      16.7816     -0.00000
      5      16.7816     -0.00000
      6      22.4855      0.00000
      7      28.5498      0.00000
      8      28.5498      0.00000

 k-point    36 :      -0.2500    0.2500    0.2500
  band No.  band energies     occupation 
      1       6.2622      2.00000
      2       7.0327      2.00000
      3      11.1138      2.00000
      4      11.1138      2.00000
      5      13.6894     -0.00000
      6      17.4572      0.00000
      7      29.5213      0.00000
      8      38.0153      0.00000

 k-point    37 :      -0.3500    0.3500    0.2500
  band No.  band energies     occupation 
      1       5.5864      2.00000
      2       6.5599      2.00000
      3      11.1580      2.00000
      4      12.2037     -0.06617
      5      16.5178     -0.00000
      6      18.3805      0.00000
      7      30.6679      0.00000
      8      35.5699      0.00000

 k-point    38 :      -0.4500    0.4500    0.2500
  band No.  band energies     occupation 
      1       4.7917      2.00000
      2       6.5597      2.00000
      3      10.8489      2.00000
      4      12.1835     -0.05205
      5      19.8748      0.00000
      6      21.8358      0.00000
      7      28.5351      0.00000
      8      31.6042      0.00000

 k-point    39 :      -0.3500    0.4500    0.2500
  band No.  band energies     occupation 
      1       4.8653      2.00000
      2       5.8057      2.00000
      3      11.0908      2.00000
      4      14.2394     -0.00000
      5      17.5478      0.00000
      6      21.5241      0.00000
      7      29.4656      0.00000
      8      32.1872      0.00000

 k-point    40 :      -0.4500   -0.4500    0.2500
  band No.  band energies     occupation 
      1       4.6767      2.00000
      2       5.3898      2.00000
      3      10.7823      2.00000
      4      15.1207     -0.00000
      5      18.7935      0.00000
      6      25.2516      0.00000
      7      26.1591      0.00000
      8      29.3360      0.00000

 k-point    41 :      -0.3500    0.3500    0.3500
  band No.  band energies     occupation 
      1       4.4059      2.00000
      2       5.4540      2.00000
      3      13.9447     -0.00000
      4      13.9448     -0.00000
      5      16.7498     -0.00000
      6      18.9953      0.00000
      7      32.3839      0.00000
      8      32.3839      0.00000

 k-point    42 :      -0.4500    0.4500    0.3500
  band No.  band energies     occupation 
      1       3.8122      2.00000
      2       4.4278      2.00000
      3      14.5735     -0.00000
      4      14.9277     -0.00000
      5      19.3725      0.00000
      6      22.1335      0.00000
      7      27.7497      0.00000
      8      28.8121      0.00000

 k-point    43 :      -0.4500   -0.4500    0.3500
  band No.  band energies     occupation 
      1       3.6520      2.00000
      2       3.6520      2.00000
      3      14.6753     -0.00000
      4      18.3813      0.00000
      5      18.3813      0.00000
      6      25.5053      0.00000
      7      25.5053      0.00000
      8      25.6326      0.00000

 k-point    44 :      -0.4500    0.4500    0.4500
  band No.  band energies     occupation 
      1       3.0511      2.00000
      2       3.2303      2.00000
      3      18.2226      0.00000
      4      18.2226      0.00000
      5      19.3157      0.00000
      6      22.7737      0.00000
      7      25.5009      0.00000
      8      25.5009      0.00000


--------------------------------------------------------------------------------------------------------


 soft charge-density along one line, spin component           1
         0         1         2         3         4         5         6         7         8         9
 total charge-density along one line
 
 pseudopotential strength for first ion, spin component:           1
 -5.949   0.000   0.000   0.000   0.000   0.000   0.000   0.000   0.000   0.000   0.200   0.000   0.000   0.000   0.000   0.000
  0.000   0.000  -5.949   0.000  -0.000   0.000   0.000   0.000   0.000   0.000   0.000   0.000   0.200   0.000  -0.000   0.000
  0.000   0.000  -0.000   0.000  -5.961   0.000  -0.000   0.000  -0.000   0.000   0.000   0.000  -0.000   0.000   0.200   0.000
  0.000   0.000   0.000   0.000  -0.000   0.000  -5.949   0.000  -0.000   0.000   0.000   0.000   0.000   0.000  -0.000   0.000
  0.000   0.000   0.000   0.000  -0.000   0.000  -0.000   0.000  -5.961   0.000   0.000   0.000   0.000   0.000  -0.000   0.000
  0.200   0.000   0.000   0.000   0.000   0.000   0.000   0.000   0.000   0.000   0.090   0.000   0.000   0.000  -0.000   0.000
  0.000   0.000   0.200   0.000  -0.000   0.000   0.000   0.000   0.000   0.000   0.000   0.000   0.090   0.000   0.000   0.000
  0.000   0.000  -0.000   0.000   0.200   0.000  -0.000   0.000  -0.000   0.000  -0.000   0.000   0.000   0.000   0.090   0.000
  0.000   0.000   0.000   0.000  -0.000   0.000   0.200   0.000  -0.000   0.000   0.000   0.000   0.000   0.000   0.000   0.000
  0.000   0.000   0.000   0.000  -0.000   0.000  -0.000   0.000   0.200   0.000  -0.000   0.000  -0.000   0.000  -0.000   0.000
 -0.000   0.000  -0.000   0.000  -0.000   0.000  -0.000   0.000  -0.000   0.000  -0.000   0.000  -0.000   0.000   0.000   0.000
  0.000   0.000   0.000   0.000   0.000   0.000   0.000   0.000   0.000   0.000   0.000   0.000   0.000   0.000   0.000   0.000
  0.000   0.000   0.000   0.000  -0.000   0.000  -0.000   0.000  -0.000   0.000   0.000   0.000   0.000   0.000   0.000   0.000
 -0.000   0.000  -0.000   0.000   0.000   0.000   0.000   0.000   0.000   0.000   0.000   0.000   0.000   0.000   0.000   0.000
 -0.000   0.000  -0.000   0.000  -0.000   0.000   0.000   0.000   0.000   0.000  -0.000   0.000   0.000   0.000  -0.000   0.000
 -0.000   0.000  -0.000   0.000   0.000   0.000   0.000   0.000   0.000   0.000  -0.000   0.000  -0.000   0.000  -0.000   0.000
  0.000   0.000   0.000   0.000  -0.000   0.000  -0.000   0.000  -0.000   0.000  -0.000   0.000   0.000   0.000  -0.000   0.000
  0.000   0.000   0.000   0.000   0.000   0.000  -0.000   0.000  -0.000   0.000   0.000   0.000  -0.000   0.000   0.000   0.000
 total augmentation occupancy for first ion, spin component:           1
  1.180   0.000  -0.000  -0.000  -0.000  -1.018  -0.000  -0.000   0.000   0.000  -0.000   0.000   0.000   0.000   0.000   0.000
  0.000   1.180  -0.000  -0.000   0.000   0.000  -1.018  -0.000   0.000  -0.000   0.000  -0.000   0.000   0.000   0.000   0.000
 -0.000  -0.000   0.834  -0.000   0.000  -0.000   0.000  -1.006  -0.000   0.000   0.000  -0.000   0.000   0.000   0.000   0.000
 -0.000  -0.000  -0.000   1.180  -0.000   0.000  -0.000  -0.000  -1.018   0.000  -0.000   0.000   0.000   0.000   0.000   0.000
 -0.000   0.000   0.000  -0.000   0.834   0.000   0.000   0.000   0.000  -1.006   0.000   0.000   0.000   0.000   0.000   0.000
 -1.018  -0.000   0.000   0.000   0.000   1.153  -0.000  -0.000   0.000  -0.000   0.000  -0.000   0.000   0.000   0.000   0.000
 -0.000  -1.018   0.000  -0.000   0.000   0.000   1.153   0.000  -0.000  -0.000  -0.000  -0.000   0.000   0.000   0.000   0.000
  0.000   0.000  -1.006   0.000   0.000  -0.000   0.000   1.445   0.000   0.000   0.000   0.000   0.000   0.000   0.000   0.000
 -0.000  -0.000  -0.000  -1.018   0.000  -0.000  -0.000  -0.000   1.153  -0.000   0.000  -0.000   0.000   0.000   0.000   0.000
  0.000   0.000   0.000  -0.000  -1.006  -0.000   0.000   0.000  -0.000   1.445   0.000   0.000   0.000   0.000   0.000   0.000
 -0.000  -0.000   0.000  -0.000   0.000   0.000   0.000   0.000   0.000   0.000   1.809  -0.460   0.000   0.000   0.000   0.000
  0.000   0.000  -0.000   0.000  -0.000   0.000  -0.000   0.000   0.000   0.000  -0.460   0.149   0.000   0.000   0.000   0.000
  0.000   0.000   0.000   0.000   0.000   0.000   0.000   0.000   0.000   0.000   0.000   0.000   0.418  -0.000   0.000  -0.019
  0.000   0.000   0.000   0.000   0.000   0.000   0.000   0.000   0.000   0.000   0.000   0.000   0.000   0.418   0.000  -0.000
  0.000   0.000   0.000   0.000   0.000   0.000   0.000   0.000   0.000   0.000   0.000   0.000  -0.000  -0.000   0.418  -0.000
  0.000   0.000   0.000   0.000   0.000   0.000   0.000   0.000   0.000   0.000   0.000   0.000  -0.019   0.000  -0.000   0.001
  0.000   0.000   0.000   0.000   0.000   0.000   0.000   0.000   0.000   0.000   0.000   0.000   0.000  -0.019   0.000  -0.000
  0.000   0.000   0.000   0.000   0.000   0.000   0.000   0.000   0.000   0.000   0.000   0.000   0.000  -0.000  -0.019   0.000


------------------------ aborting loop because EDIFF is reached ----------------------------------------


    CHARGE:  cpu time    0.0013: real time    0.0013
    FORLOC:  cpu time    0.0001: real time    0.0001
    FORNL :  cpu time    0.0022: real time    0.0021
    STRESS:  cpu time    0.0127: real time    0.0127
    FORCOR:  cpu time    0.0003: real time    0.0004
    FORHAR:  cpu time    0.0004: real time    0.0003
    MIXING:  cpu time    0.0001: real time    0.0001
    OFIELD:  cpu time    0.0000: real time    0.0000

  FORCE on cell =-STRESS in cart. coord.  units (eV):
  Direction    XX          YY          ZZ          XY          YZ          ZX
  --------------------------------------------------------------------------------------
  Alpha Z    60.30737    60.30737    60.30737
  Ewald    -110.32460  -110.32460  -110.32460     0.00000    -0.00000    -0.00000
  Hartree     0.33609     0.33609     0.33609    -0.00000    -0.00000    -0.00000
  E(xc)     -30.71078   -30.71078   -30.71078    -0.00000    -0.00000    -0.00000
  Local       7.49559     7.49559     7.49559    -0.00002    -0.00002    -0.00002
  n-local    -8.34497    -6.58162    -6.51766     3.09263    -2.82160    -4.97700
  augment     5.22867     5.22867     5.22867    -0.00000    -0.00000    -0.00000
  Kinetic    84.21795    85.83898    90.41612     1.05871     2.82475     1.16687
  Fock        0.00000     0.00000     0.00000     0.00000     0.00000     0.00000
  -------------------------------------------------------------------------------------
  Total      12.00860    12.00860    12.00860     0.00000     0.00000     0.00000
  in kB    1662.25777  1662.25777  1662.25777     0.00000     0.00000     0.00000
  external pressure =     1662.26 kB  Pullay stress =        0.00 kB


 VOLUME and BASIS-vectors are now :
 -----------------------------------------------------------------------------
  energy-cutoff  :      224.00
  volume of cell :       11.57
      direct lattice vectors                 reciprocal lattice vectors
    -1.425000000  1.425000000  1.425000000     0.000000000  0.350877193  0.350877193
     1.425000000 -1.425000000  1.425000000     0.350877193  0.000000000  0.350877193
     1.425000000  1.425000000 -1.425000000     0.350877193  0.350877193  0.000000000

  length of vectors
     2.468172401  2.468172401  2.468172401     0.496215285  0.496215285  0.496215285


 FORCES acting on ions
    electron-ion (+dipol)            ewald-force                    non-local-force                 convergence-correction
 -----------------------------------------------------------------------------------------------
   0.521E-14 0.502E-14 0.438E-14   -.381E-15 -.132E-15 -.825E-15   0.662E-23 0.993E-23 -.232E-22   0.799E-15 0.118E-14 0.119E-14
 -----------------------------------------------------------------------------------------------
   0.521E-14 0.502E-14 0.438E-14   -.381E-15 -.132E-15 -.825E-15   0.662E-23 0.993E-23 -.232E-22   0.799E-15 0.118E-14 0.119E-14
 
 
 POSITION                                       TOTAL-FORCE (eV/Angst)
 -----------------------------------------------------------------------------------
      0.00000      0.00000      0.00000         0.000000      0.000000     -0.000000
 -----------------------------------------------------------------------------------
    total drift:                                0.000000      0.000000      0.000000


--------------------------------------------------------------------------------------------------------



  FREE ENERGIE OF THE ION-ELECTRON SYSTEM (eV)
  ---------------------------------------------------
  free  energy   TOTEN  =       -12.66054007 eV

  energy  without entropy=      -12.66292195  energy(sigma->0) =      -12.66133403
 


--------------------------------------------------------------------------------------------------------


    POTLOK:  cpu time    0.0019: real time    0.0020


--------------------------------------------------------------------------------------------------------


 writing wavefunctions
     LOOP+:  cpu time    0.3083: real time    0.3142
    4ORBIT:  cpu time    0.0000: real time    0.0000

 total amount of memory used by VASP MPI-rank0    31152. kBytes
=======================================================================

   base      :      30000. kBytes
   nonl-proj :        635. kBytes
   fftplans  :        142. kBytes
   grid      :        192. kBytes
   one-center:         15. kBytes
   wavefun   :        168. kBytes
 
  
  
 General timing and accounting informations for this job:
 ========================================================
  
                  Total CPU time used (sec):        0.477
                            User time (sec):        0.385
                          System time (sec):        0.092
                         Elapsed time (sec):        0.769
  
                   Maximum memory used (kb):       56540.
                   Average memory used (kb):           0.
  
                          Minor page faults:         7283
                          Major page faults:            0
                 Voluntary context switches:          646
