<?xml version="1.0" encoding="ISO-8859-1"?>
<modeling>
 <generator>
  <i name="program" type="string">vasp </i>
  <i name="version" type="string">5.4.4.18Apr17-6-g9f103f2a35  </i>
  <i name="subversion" type="string">(build Jul 01 2019 03:25:34) complex            parallel </i>
  <i name="platform" type="string">LinuxIFC </i>
  <i name="date" type="string">2020 07 08 </i>
  <i name="time" type="string">19:51:19 </i>
 </generator>
 <incar>
  <i type="string" name="SYSTEM"> BCC W</i>
  <i type="string" name="PREC">normal</i>
  <i name="EDIFF">      0.00010000</i>
  <i name="ENCUT">    224.00000000</i>
  <v type="int" name="KPOINT_BSE">    -1     0     0     0</v>
 </incar>
 <structure name="primitive_cell" >
  <crystal>
   <varray name="basis" >
    <v>      -1.42500000       1.42500000       1.42500000 </v>
    <v>       1.42500000      -1.42500000       1.42500000 </v>
    <v>       1.42500000       1.42500000      -1.42500000 </v>
   </varray>
   <i name="volume">     11.57456250 </i>
   <varray name="rec_basis" >
    <v>       0.00000000       0.35087719       0.35087719 </v>
    <v>       0.35087719       0.00000000       0.35087719 </v>
    <v>       0.35087719       0.35087719       0.00000000 </v>
   </varray>
  </crystal>
  <varray name="positions" >
   <v>       0.00000000       0.00000000       0.00000000 </v>
  </varray>
 </structure>
 <varray name="primitive_index" >
  <v type="int" >        1 </v>
 </varray>
 <kpoints>
  <generation param="Monkhorst-Pack">
   <v type="int" name="divisions">      10       10       10 </v>
   <v name="usershift">      0.00000000       0.00000000       0.00000000 </v>
   <v name="genvec1">      0.10000000       0.00000000       0.00000000 </v>
   <v name="genvec2">      0.00000000       0.10000000       0.00000000 </v>
   <v name="genvec3">      0.00000000       0.00000000       0.10000000 </v>
   <v name="shift">      0.50000000       0.50000000       0.50000000 </v>
  </generation>
  <varray name="kpointlist" >
   <v>       0.05000000       0.05000000       0.05000000 </v>
   <v>       0.15000000       0.05000000       0.05000000 </v>
   <v>       0.25000000       0.05000000       0.05000000 </v>
   <v>       0.35000000       0.05000000       0.05000000 </v>
   <v>       0.45000000       0.05000000       0.05000000 </v>
   <v>      -0.05000000       0.05000000       0.05000000 </v>
   <v>       0.15000000       0.15000000       0.05000000 </v>
   <v>       0.25000000       0.15000000       0.05000000 </v>
   <v>       0.35000000       0.15000000       0.05000000 </v>
   <v>      -0.15000000       0.15000000       0.05000000 </v>
   <v>       0.25000000       0.25000000       0.05000000 </v>
   <v>       0.35000000       0.25000000       0.05000000 </v>
   <v>      -0.25000000       0.25000000       0.05000000 </v>
   <v>      -0.15000000       0.25000000       0.05000000 </v>
   <v>      -0.35000000       0.35000000       0.05000000 </v>
   <v>      -0.25000000       0.35000000       0.05000000 </v>
   <v>      -0.45000000       0.45000000       0.05000000 </v>
   <v>      -0.35000000       0.45000000       0.05000000 </v>
   <v>      -0.25000000       0.45000000       0.05000000 </v>
   <v>      -0.45000000      -0.45000000       0.05000000 </v>
   <v>      -0.35000000      -0.45000000       0.05000000 </v>
   <v>      -0.35000000      -0.35000000       0.05000000 </v>
   <v>       0.15000000       0.15000000       0.15000000 </v>
   <v>       0.25000000       0.15000000       0.15000000 </v>
   <v>       0.35000000       0.15000000       0.15000000 </v>
   <v>      -0.15000000       0.15000000       0.15000000 </v>
   <v>       0.25000000       0.25000000       0.15000000 </v>
   <v>      -0.25000000       0.25000000       0.15000000 </v>
   <v>      -0.35000000       0.35000000       0.15000000 </v>
   <v>      -0.25000000       0.35000000       0.15000000 </v>
   <v>      -0.45000000       0.45000000       0.15000000 </v>
   <v>      -0.35000000       0.45000000       0.15000000 </v>
   <v>      -0.45000000      -0.45000000       0.15000000 </v>
   <v>      -0.35000000      -0.45000000       0.15000000 </v>
   <v>       0.25000000       0.25000000       0.25000000 </v>
   <v>      -0.25000000       0.25000000       0.25000000 </v>
   <v>      -0.35000000       0.35000000       0.25000000 </v>
   <v>      -0.45000000       0.45000000       0.25000000 </v>
   <v>      -0.35000000       0.45000000       0.25000000 </v>
   <v>      -0.45000000      -0.45000000       0.25000000 </v>
   <v>      -0.35000000       0.35000000       0.35000000 </v>
   <v>      -0.45000000       0.45000000       0.35000000 </v>
   <v>      -0.45000000      -0.45000000       0.35000000 </v>
   <v>      -0.45000000       0.45000000       0.45000000 </v>
  </varray>
  <varray name="weights" >
   <v>       0.00800000 </v>
   <v>       0.02400000 </v>
   <v>       0.02400000 </v>
   <v>       0.02400000 </v>
   <v>       0.01200000 </v>
   <v>       0.00600000 </v>
   <v>       0.02400000 </v>
   <v>       0.04800000 </v>
   <v>       0.04800000 </v>
   <v>       0.02400000 </v>
   <v>       0.02400000 </v>
   <v>       0.02400000 </v>
   <v>       0.02400000 </v>
   <v>       0.02400000 </v>
   <v>       0.02400000 </v>
   <v>       0.04800000 </v>
   <v>       0.02400000 </v>
   <v>       0.04800000 </v>
   <v>       0.02400000 </v>
   <v>       0.02400000 </v>
   <v>       0.04800000 </v>
   <v>       0.00800000 </v>
   <v>       0.00800000 </v>
   <v>       0.02400000 </v>
   <v>       0.01200000 </v>
   <v>       0.00600000 </v>
   <v>       0.02400000 </v>
   <v>       0.02400000 </v>
   <v>       0.02400000 </v>
   <v>       0.02400000 </v>
   <v>       0.02400000 </v>
   <v>       0.04800000 </v>
   <v>       0.02400000 </v>
   <v>       0.02400000 </v>
   <v>       0.00200000 </v>
   <v>       0.00600000 </v>
   <v>       0.02400000 </v>
   <v>       0.02400000 </v>
   <v>       0.02400000 </v>
   <v>       0.02400000 </v>
   <v>       0.00600000 </v>
   <v>       0.02400000 </v>
   <v>       0.00800000 </v>
   <v>       0.00600000 </v>
  </varray>
 </kpoints>
 <parameters>
  <separator name="general" >
   <i type="string" name="SYSTEM">BCC W</i>
   <i type="logical" name="LCOMPAT"> F  </i>
  </separator>
  <separator name="electronic" >
   <i type="string" name="PREC">normal</i>
   <i name="ENMAX">    224.00000000</i>
   <i name="ENAUG">    373.43800000</i>
   <i name="EDIFF">      0.00010000</i>
   <i type="int" name="IALGO">    38</i>
   <i type="int" name="IWAVPR">    10</i>
   <i type="int" name="NBANDS">     8</i>
   <i name="NELECT">      6.00000000</i>
   <i type="int" name="TURBO">     0</i>
   <i type="int" name="IRESTART">     0</i>
   <i type="int" name="NREBOOT">     0</i>
   <i type="int" name="NMIN">     0</i>
   <i name="EREF">      0.00000000</i>
   <separator name="electronic smearing" >
    <i type="int" name="ISMEAR">     1</i>
    <i name="SIGMA">      0.20000000</i>
    <i name="KSPACING">      0.50000000</i>
    <i type="logical" name="KGAMMA"> T  </i>
   </separator>
   <separator name="electronic projectors" >
    <i type="logical" name="LREAL"> F  </i>
    <v name="ROPT">      0.00000000</v>
    <i type="int" name="LMAXPAW">  -100</i>
    <i type="int" name="LMAXMIX">     2</i>
    <i type="logical" name="NLSPLINE"> F  </i>
   </separator>
   <separator name="electronic startup" >
    <i type="int" name="ISTART">     0</i>
    <i type="int" name="ICHARG">     2</i>
    <i type="int" name="INIWAV">     1</i>
   </separator>
   <separator name="electronic spin" >
    <i type="int" name="ISPIN">     1</i>
    <i type="logical" name="LNONCOLLINEAR"> F  </i>
    <v name="MAGMOM">      1.00000000</v>
    <i name="NUPDOWN">     -1.00000000</i>
    <i type="logical" name="LSORBIT"> F  </i>
    <v name="SAXIS">      0.00000000      0.00000000      1.00000000</v>
    <i type="logical" name="LSPIRAL"> F  </i>
    <v name="QSPIRAL">      0.00000000      0.00000000      0.00000000</v>
    <i type="logical" name="LZEROZ"> F  </i>
   </separator>
   <separator name="electronic exchange-correlation" >
    <i type="logical" name="LASPH"> F  </i>
    <i type="logical" name="LMETAGGA"> F  </i>
   </separator>
   <separator name="electronic convergence" >
    <i type="int" name="NELM">    60</i>
    <i type="int" name="NELMDL">    -5</i>
    <i type="int" name="NELMIN">     2</i>
    <i name="ENINI">    224.00000000</i>
    <separator name="electronic convergence detail" >
     <i type="logical" name="LDIAG"> T  </i>
     <i type="logical" name="LSUBROT"> F  </i>
     <i name="WEIMIN">      0.00000000</i>
     <i name="EBREAK">      0.00000313</i>
     <i name="DEPER">      0.30000000</i>
     <i type="int" name="NRMM">     4</i>
     <i name="TIME">      0.40000000</i>
    </separator>
   </separator>
   <separator name="electronic mixer" >
    <i name="AMIX">      0.40000000</i>
    <i name="BMIX">      1.00000000</i>
    <i name="AMIN">      0.10000000</i>
    <i name="AMIX_MAG">      1.60000000</i>
    <i name="BMIX_MAG">      1.00000000</i>
    <separator name="electronic mixer details" >
     <i type="int" name="IMIX">     4</i>
     <i type="logical" name="MIXFIRST"> F  </i>
     <i type="int" name="MAXMIX">   -45</i>
     <i name="WC">    100.00000000</i>
     <i type="int" name="INIMIX">     1</i>
     <i type="int" name="MIXPRE">     1</i>
     <i type="int" name="MREMOVE">     5</i>
    </separator>
   </separator>
   <separator name="electronic dipolcorrection" >
    <i type="logical" name="LDIPOL"> F  </i>
    <i type="logical" name="LMONO"> F  </i>
    <i type="int" name="IDIPOL">     0</i>
    <i name="EPSILON">      1.00000000</i>
    <v name="DIPOL">   -100.00000000   -100.00000000   -100.00000000</v>
    <i name="EFIELD">      0.00000000</i>
   </separator>
  </separator>
  <separator name="grids" >
   <i type="int" name="NGX">    10</i>
   <i type="int" name="NGY">    10</i>
   <i type="int" name="NGZ">    10</i>
   <i type="int" name="NGXF">    20</i>
   <i type="int" name="NGYF">    20</i>
   <i type="int" name="NGZF">    20</i>
   <i type="logical" name="ADDGRID"> F  </i>
  </separator>
  <separator name="ionic" >
   <i type="int" name="NSW">     0</i>
   <i type="int" name="IBRION">    -1</i>
   <i type="int" name="MDALGO">     0</i>
   <i type="int" name="ISIF">     2</i>
   <i name="PSTRESS">      0.00000000</i>
   <i name="EDIFFG">      0.00100000</i>
   <i type="int" name="NFREE">     0</i>
   <i name="POTIM">      0.50000000</i>
   <i name="SMASS">     -3.00000000</i>
   <i name="SCALEE">      1.00000000</i>
  </separator>
  <separator name="ionic md" >
   <i name="TEBEG">      0.00010000</i>
   <i name="TEEND">      0.00010000</i>
   <i type="int" name="NBLOCK">     1</i>
   <i type="int" name="KBLOCK">     1</i>
   <i type="int" name="NPACO">   256</i>
   <i name="APACO">     16.00000000</i>
  </separator>
  <separator name="symmetry" >
   <i type="int" name="ISYM">     2</i>
   <i name="SYMPREC">      0.00001000</i>
  </separator>
  <separator name="dos" >
   <i type="int" name="LORBIT">     0</i>
   <v name="RWIGS">     -1.00000000</v>
   <i type="int" name="NEDOS">   301</i>
   <i name="EMIN">     10.00000000</i>
   <i name="EMAX">    -10.00000000</i>
   <i name="EFERMI">      0.00000000</i>
  </separator>
  <separator name="writing" >
   <i type="int" name="NWRITE">     2</i>
   <i type="logical" name="LWAVE"> T  </i>
   <i type="logical" name="LDOWNSAMPLE"> F  </i>
   <i type="logical" name="LCHARG"> T  </i>
   <i type="logical" name="LPARD"> F  </i>
   <i type="logical" name="LVTOT"> F  </i>
   <i type="logical" name="LVHAR"> F  </i>
   <i type="logical" name="LELF"> F  </i>
   <i type="logical" name="LOPTICS"> F  </i>
   <v name="STM">      0.00000000      0.00000000      0.00000000      0.00000000      0.00000000      0.00000000      0.00000000</v>
  </separator>
  <separator name="performance" >
   <i type="int" name="NPAR">     4</i>
   <i type="int" name="NSIM">     4</i>
   <i type="int" name="NBLK">    -1</i>
   <i type="logical" name="LPLANE"> T  </i>
   <i type="logical" name="LSCALAPACK"> T  </i>
   <i type="logical" name="LSCAAWARE"> F  </i>
   <i type="logical" name="LSCALU"> F  </i>
   <i type="logical" name="LASYNC"> F  </i>
   <i type="logical" name="LORBITALREAL"> F  </i>
  </separator>
  <separator name="miscellaneous" >
   <i type="int" name="IDIOT">     3</i>
   <i type="int" name="ISPECIAL">     0</i>
   <i type="logical" name="LMUSIC"> F  </i>
   <v name="POMASS">    183.85000000</v>
   <v name="DARWINR">      0.00000000</v>
   <v name="DARWINV">      1.00000000</v>
   <i type="logical" name="LCORR"> T  </i>
  </separator>
  <i type="logical" name="GGA_COMPAT"> T  </i>
  <i type="logical" name="LBERRY"> F  </i>
  <i type="int" name="ICORELEVEL">     0</i>
  <i type="logical" name="LDAU"> F  </i>
  <i type="int" name="I_CONSTRAINED_M">     0</i>
  <separator name="electronic exchange-correlation" >
   <i type="string" name="GGA">--</i>
   <i type="int" name="VOSKOWN">     0</i>
   <i type="logical" name="LHFCALC"> F  </i>
   <i type="string" name="PRECFOCK"></i>
   <i type="logical" name="LSYMGRAD"> F  </i>
   <i type="logical" name="LHFONE"> F  </i>
   <i type="logical" name="LRHFCALC"> F  </i>
   <i type="logical" name="LTHOMAS"> F  </i>
   <i type="logical" name="LMODELHF"> F  </i>
   <i name="ENCUT4O">     -1.00000000</i>
   <i type="int" name="EXXOEP">     0</i>
   <i type="int" name="FOURORBIT">     0</i>
   <i name="AEXX">      0.00000000</i>
   <i name="HFALPHA">      0.00000000</i>
   <i name="MCALPHA">      0.00000000</i>
   <i name="ALDAX">      1.00000000</i>
   <i name="AGGAX">      1.00000000</i>
   <i name="ALDAC">      1.00000000</i>
   <i name="AGGAC">      1.00000000</i>
   <i type="int" name="NKREDX">     1</i>
   <i type="int" name="NKREDY">     1</i>
   <i type="int" name="NKREDZ">     1</i>
   <i type="logical" name="SHIFTRED"> F  </i>
   <i type="logical" name="ODDONLY"> F  </i>
   <i type="logical" name="EVENONLY"> F  </i>
   <i type="int" name="LMAXFOCK">     0</i>
   <i type="int" name="NMAXFOCKAE">     0</i>
   <i type="logical" name="LFOCKAEDFT"> F  </i>
   <i name="HFSCREEN">      0.00000000</i>
   <i name="HFSCREENC">      0.00000000</i>
   <i type="int" name="NBANDSGWLOW">     0</i>
  </separator>
  <separator name="vdW DFT" >
   <i type="logical" name="LUSE_VDW"> F  </i>
   <i name="Zab_VDW">     -0.84910000</i>
   <i name="PARAM1">      0.12340000</i>
   <i name="PARAM2">      1.00000000</i>
   <i name="PARAM3">      0.00000000</i>
  </separator>
  <separator name="model GW" >
   <i type="int" name="MODEL_GW">     0</i>
   <i name="MODEL_EPS0">      6.94473750</i>
   <i name="MODEL_ALPHA">      1.00000000</i>
  </separator>
  <separator name="linear response parameters" >
   <i type="logical" name="LEPSILON"> F  </i>
   <i type="logical" name="LRPA"> F  </i>
   <i type="logical" name="LNABLA"> F  </i>
   <i type="logical" name="LVEL"> F  </i>
   <i type="int" name="KINTER">     0</i>
   <i name="CSHIFT">      0.10000000</i>
   <i name="OMEGAMAX">     -1.00000000</i>
   <i name="DEG_THRESHOLD">      0.00200000</i>
   <i name="RTIME">     -0.10000000</i>
   <i name="WPLASMAI">      0.00000000</i>
   <v name="DFIELD">      0.00000000      0.00000000      0.00000000</v>
   <v name="WPLASMA">      0.00000000      0.00000000      0.00000000      0.00000000      0.00000000      0.00000000      0.00000000      0.00000000      0.00000000</v>
  </separator>
  <separator name="orbital magnetization" >
   <i type="logical" name="NUCIND"> F  </i>
   <v name="MAGPOS">      0.00000000      0.00000000      0.00000000</v>
   <i type="logical" name="LNICSALL"> T  </i>
   <i type="logical" name="ORBITALMAG"> F  </i>
   <i type="logical" name="LMAGBLOCH"> F  </i>
   <i type="logical" name="LCHIMAG"> F  </i>
   <i type="logical" name="LGAUGE"> T  </i>
   <i type="int" name="MAGATOM">     0</i>
   <v name="MAGDIPOL">      0.00000000      0.00000000      0.00000000</v>
   <v name="AVECCONST">      0.00000000      0.00000000      0.00000000</v>
  </separator>
  <separator name="response functions" >
   <i type="logical" name="LADDER"> F  </i>
   <i type="logical" name="LRPAFORCE"> F  </i>
   <i type="logical" name="LFXC"> F  </i>
   <i type="logical" name="LHARTREE"> T  </i>
   <i type="int" name="IBSE">     0</i>
   <v type="int" name="KPOINT">    -1     0     0     0</v>
   <i type="logical" name="LTCTE"> F  </i>
   <i type="logical" name="LTETE"> F  </i>
   <i type="logical" name="LTRIPLET"> F  </i>
   <i type="logical" name="LFXCEPS"> F  </i>
   <i type="logical" name="LFXHEG"> F  </i>
   <i type="int" name="NATURALO">     2</i>
   <i type="logical" name="L2ORDER"> F  </i>
   <i type="logical" name="LMP2LT"> F  </i>
   <i type="logical" name="LUSEW"> F  </i>
   <i name="ENCUTGW">     -2.00000000</i>
   <i name="ENCUTGWSOFT">     -2.00000000</i>
   <i name="ENCUTLF">     -1.00000000</i>
   <i type="int" name="LMAXMP2">    -1</i>
   <i name="SCISSOR">      0.00000000</i>
   <i type="int" name="NOMEGA">     0</i>
   <i type="int" name="NOMEGAR">     0</i>
   <i type="int" name="NBANDSGW">    -1</i>
   <i type="int" name="NBANDSO">    -1</i>
   <i type="int" name="NBANDSV">    -1</i>
   <i type="int" name="NELM">     1</i>
   <i type="int" name="NELMHF">     1</i>
   <i type="int" name="DIM">     3</i>
   <i type="int" name="ANTIRES">     0</i>
   <i name="OMEGAMAX">    -30.00000000</i>
   <i name="OMEGAMIN">    -30.00000000</i>
   <i name="OMEGATL">   -200.00000000</i>
   <i type="int" name="OMEGAGRID">   140</i>
   <i name="CSHIFT">     -0.10000000</i>
   <i type="logical" name="SELFENERGY"> F  </i>
   <i type="logical" name="LSPECTRAL"> F  </i>
   <i type="logical" name="LSPECTRALGW"> F  </i>
   <i type="logical" name="LSINGLES"> F  </i>
   <i type="logical" name="LFERMIGW"> F  </i>
   <i type="logical" name="ODDONLYGW"> F  </i>
   <i type="logical" name="EVENONLYGW"> F  </i>
   <i type="int" name="NKREDLFX">     1</i>
   <i type="int" name="NKREDLFY">     1</i>
   <i type="int" name="NKREDLFZ">     1</i>
   <i type="int" name="MAXMEM">  2800</i>
   <i type="int" name="TELESCOPE">     0</i>
   <i type="int" name="TAUPAR">     1</i>
   <i type="int" name="OMEGAPAR">    -1</i>
   <i name="LAMBDA">      1.00000000</i>
  </separator>
  <separator name="External order field" >
   <i name="OFIELD_KAPPA">      0.00000000</i>
   <v name="OFIELD_K">      0.00000000      0.00000000      0.00000000</v>
   <i name="OFIELD_Q6_NEAR">      0.00000000</i>
   <i name="OFIELD_Q6_FAR">      0.00000000</i>
   <i name="OFIELD_A">      0.00000000</i>
  </separator>
 </parameters>
 <atominfo>
  <atoms>       1 </atoms>
  <types>       1 </types>
  <array name="atoms" >
   <dimension dim="1">ion</dimension>
   <field type="string">element</field>
   <field type="int">atomtype</field>
   <set>
    <rc><c>W </c><c>   1</c></rc>
   </set>
  </array>
  <array name="atomtypes" >
   <dimension dim="1">type</dimension>
   <field type="int">atomspertype</field>
   <field type="string">element</field>
   <field>mass</field>
   <field>valence</field>
   <field type="string">pseudopotential</field>
   <set>
    <rc><c>   1</c><c>W </c><c>    183.85000000</c><c>      6.00000000</c><c> PAW W 19Jan2001                        </c></rc>
   </set>
  </array>
 </atominfo>
 <structure name="initialpos" >
  <crystal>
   <varray name="basis" >
    <v>      -1.42500000       1.42500000       1.42500000 </v>
    <v>       1.42500000      -1.42500000       1.42500000 </v>
    <v>       1.42500000       1.42500000      -1.42500000 </v>
   </varray>
   <i name="volume">     11.57456250 </i>
   <varray name="rec_basis" >
    <v>       0.00000000       0.35087719       0.35087719 </v>
    <v>       0.35087719       0.00000000       0.35087719 </v>
    <v>       0.35087719       0.35087719       0.00000000 </v>
   </varray>
  </crystal>
  <varray name="positions" >
   <v>       0.00000000       0.00000000       0.00000000 </v>
  </varray>
 </structure>
 <calculation>
  <scstep>
   <time name="dav">    0.04    0.04</time>
   <time name="total">    0.04    0.04</time>
   <energy>
    <i name="alphaZ">     60.30736972 </i>
    <i name="ewald">   -330.97381337 </i>
    <i name="hartreedc">     -2.88776482 </i>
    <i name="XCdc">    -46.81257255 </i>
    <i name="pawpsdc">    183.53490256 </i>
    <i name="pawaedc">   -125.80866524 </i>
    <i name="eentropy">     -0.00295185 </i>
    <i name="bandstr">     46.89889917 </i>
    <i name="atom">    206.50785835 </i>
    <i name="e_fr_energy">     -9.23673804 </i>
    <i name="e_wo_entrp">     -9.23378619 </i>
    <i name="e_0_energy">     -9.23575409 </i>
   </energy>
  </scstep>
  <scstep>
   <time name="dav">    0.03    0.03</time>
   <time name="total">    0.03    0.03</time>
   <energy>
    <i name="e_fr_energy">    -13.25261787 </i>
    <i name="e_wo_entrp">    -13.25212611 </i>
    <i name="e_0_energy">    -13.25245395 </i>
   </energy>
  </scstep>
  <scstep>
   <time name="dav">    0.03    0.03</time>
   <time name="total">    0.03    0.03</time>
   <energy>
    <i name="e_fr_energy">    -13.26585191 </i>
    <i name="e_wo_entrp">    -13.26537736 </i>
    <i name="e_0_energy">    -13.26569373 </i>
   </energy>
  </scstep>
  <scstep>
   <time name="dav">    0.03    0.03</time>
   <time name="total">    0.03    0.03</time>
   <energy>
    <i name="e_fr_energy">    -13.26585617 </i>
    <i name="e_wo_entrp">    -13.26538165 </i>
    <i name="e_0_energy">    -13.26569799 </i>
   </energy>
  </scstep>
  <scstep>
   <time name="dav">    0.03    0.03</time>
   <time name="total">    0.03    0.03</time>
   <energy>
    <i name="e_fr_energy">    -13.26585617 </i>
    <i name="e_wo_entrp">    -13.26538165 </i>
    <i name="e_0_energy">    -13.26569800 </i>
   </energy>
  </scstep>
  <scstep>
   <time name="dav">    0.02    0.02</time>
   <time name="total">    0.03    0.03</time>
   <energy>
    <i name="e_fr_energy">    -12.86236152 </i>
    <i name="e_wo_entrp">    -12.86116066 </i>
    <i name="e_0_energy">    -12.86196124 </i>
   </energy>
  </scstep>
  <scstep>
   <time name="dav">    0.03    0.03</time>
   <time name="total">    0.03    0.03</time>
   <energy>
    <i name="e_fr_energy">    -12.66137890 </i>
    <i name="e_wo_entrp">    -12.66363620 </i>
    <i name="e_0_energy">    -12.66213133 </i>
   </energy>
  </scstep>
  <scstep>
   <time name="dav">    0.03    0.03</time>
   <time name="total">    0.03    0.03</time>
   <energy>
    <i name="e_fr_energy">    -12.66053498 </i>
    <i name="e_wo_entrp">    -12.66290725 </i>
    <i name="e_0_energy">    -12.66132573 </i>
   </energy>
  </scstep>
  <scstep>
   <time name="dav">    0.02    0.02</time>
   <time name="total">    0.02    0.02</time>
   <energy>
    <i name="alphaZ">     60.30736972 </i>
    <i name="ewald">   -330.97381337 </i>
    <i name="hartreedc">     -1.00760484 </i>
    <i name="XCdc">    -46.38729442 </i>
    <i name="pawpsdc">    336.47963359 </i>
    <i name="pawaedc">   -281.30431780 </i>
    <i name="eentropy">      0.00238187 </i>
    <i name="bandstr">     43.71524682 </i>
    <i name="atom">    206.50785835 </i>
    <i name="e_fr_energy">    -12.66054007 </i>
    <i name="e_wo_entrp">    -12.66292195 </i>
    <i name="e_0_energy">    -12.66133403 </i>
   </energy>
  </scstep>
  <structure>
   <crystal>
    <varray name="basis" >
     <v>      -1.42500000       1.42500000       1.42500000 </v>
     <v>       1.42500000      -1.42500000       1.42500000 </v>
     <v>       1.42500000       1.42500000      -1.42500000 </v>
    </varray>
    <i name="volume">     11.57456250 </i>
    <varray name="rec_basis" >
     <v>       0.00000000       0.35087719       0.35087719 </v>
     <v>       0.35087719       0.00000000       0.35087719 </v>
     <v>       0.35087719       0.35087719       0.00000000 </v>
    </varray>
   </crystal>
   <varray name="positions" >
    <v>       0.00000000       0.00000000       0.00000000 </v>
   </varray>
  </structure>
  <varray name="forces" >
   <v>       0.00000000       0.00000000      -0.00000000 </v>
  </varray>
  <varray name="stress" >
   <v>    1662.25777065       0.00000000       0.00000000 </v>
   <v>       0.00000000    1662.25777065       0.00000000 </v>
   <v>       0.00000000       0.00000000    1662.25777065 </v>
  </varray>
  <energy>
   <i name="e_fr_energy">    -12.66054007 </i>
   <i name="e_wo_entrp">    -12.66133403 </i>
   <i name="e_0_energy">      0.00238187 </i>
  </energy>
  <time name="totalsc">    0.31    0.31</time>
  <eigenvalues>
   <array>
    <dimension dim="1">band</dimension>
    <dimension dim="2">kpoint</dimension>
    <dimension dim="3">spin</dimension>
    <field>eigene</field>
    <field>occ</field>
    <set>
     <set comment="spin 1">
      <set comment="kpoint 1">
       <r>    1.7516    1.0000 </r>
       <r>    9.3280    1.0000 </r>
       <r>    9.3280    1.0000 </r>
       <r>   11.1915    1.0000 </r>
       <r>   14.3714   -0.0000 </r>
       <r>   14.3714   -0.0000 </r>
       <r>   28.5734    0.0000 </r>
       <r>   30.4170    0.0000 </r>
      </set>
      <set comment="kpoint 2">
       <r>    3.3212    1.0000 </r>
       <r>    8.2776    1.0000 </r>
       <r>    8.7804    1.0000 </r>
       <r>   13.4889   -0.0000 </r>
       <r>   13.9465   -0.0000 </r>
       <r>   14.8380   -0.0000 </r>
       <r>   29.7784    0.0000 </r>
       <r>   32.4237    0.0000 </r>
      </set>
      <set comment="kpoint 3">
       <r>    4.2173    1.0000 </r>
       <r>    7.2825    1.0000 </r>
       <r>    9.5171    1.0000 </r>
       <r>   14.4260   -0.0000 </r>
       <r>   15.4210   -0.0000 </r>
       <r>   16.8457   -0.0000 </r>
       <r>   28.7661    0.0000 </r>
       <r>   32.4994    0.0000 </r>
      </set>
      <set comment="kpoint 4">
       <r>    3.8287    1.0000 </r>
       <r>    6.6113    1.0000 </r>
       <r>   12.1148    0.0529 </r>
       <r>   15.1902   -0.0000 </r>
       <r>   16.1088   -0.0000 </r>
       <r>   20.3219    0.0000 </r>
       <r>   26.3389    0.0000 </r>
       <r>   29.7558    0.0000 </r>
      </set>
      <set comment="kpoint 5">
       <r>    3.5632    1.0000 </r>
       <r>    6.3795    1.0000 </r>
       <r>   13.9279   -0.0000 </r>
       <r>   15.1868   -0.0000 </r>
       <r>   16.4913   -0.0000 </r>
       <r>   22.1521    0.0000 </r>
       <r>   25.2668    0.0000 </r>
       <r>   28.3786    0.0000 </r>
      </set>
      <set comment="kpoint 6">
       <r>    1.1010    1.0000 </r>
       <r>    9.8429    1.0000 </r>
       <r>    9.8429    1.0000 </r>
       <r>   10.0372    1.0000 </r>
       <r>   14.1208   -0.0000 </r>
       <r>   14.9989   -0.0000 </r>
       <r>   28.6101    0.0000 </r>
       <r>   28.6101    0.0000 </r>
      </set>
      <set comment="kpoint 7">
       <r>    4.8527    1.0000 </r>
       <r>    7.6940    1.0000 </r>
       <r>    7.9012    1.0000 </r>
       <r>   14.0659   -0.0000 </r>
       <r>   15.5626   -0.0000 </r>
       <r>   16.8445   -0.0000 </r>
       <r>   31.0747    0.0000 </r>
       <r>   31.1900    0.0000 </r>
      </set>
      <set comment="kpoint 8">
       <r>    5.1507    1.0000 </r>
       <r>    7.0344    1.0000 </r>
       <r>    9.3639    1.0000 </r>
       <r>   14.6577   -0.0000 </r>
       <r>   16.2477   -0.0000 </r>
       <r>   20.5624    0.0000 </r>
       <r>   28.4783    0.0000 </r>
       <r>   30.7801    0.0000 </r>
      </set>
      <set comment="kpoint 9">
       <r>    4.7408    1.0000 </r>
       <r>    6.7234    1.0000 </r>
       <r>   11.5825    1.0081 </r>
       <r>   15.2442   -0.0000 </r>
       <r>   16.6889   -0.0000 </r>
       <r>   23.4097    0.0000 </r>
       <r>   26.6623    0.0000 </r>
       <r>   27.7188    0.0000 </r>
      </set>
      <set comment="kpoint 10">
       <r>    2.3550    1.0000 </r>
       <r>    9.1082    1.0000 </r>
       <r>    9.5929    1.0000 </r>
       <r>   11.4032    1.0002 </r>
       <r>   13.0140   -0.0000 </r>
       <r>   15.3298   -0.0000 </r>
       <r>   29.7685    0.0000 </r>
       <r>   30.8071    0.0000 </r>
      </set>
      <set comment="kpoint 11">
       <r>    5.5813    1.0000 </r>
       <r>    7.5092    1.0000 </r>
       <r>    9.6139    1.0000 </r>
       <r>   15.1991   -0.0000 </r>
       <r>   16.5583   -0.0000 </r>
       <r>   24.1292    0.0000 </r>
       <r>   26.3653    0.0000 </r>
       <r>   30.4885    0.0000 </r>
      </set>
      <set comment="kpoint 12">
       <r>    5.5710    1.0000 </r>
       <r>    7.8122    1.0000 </r>
       <r>    9.9634    1.0000 </r>
       <r>   15.6878   -0.0000 </r>
       <r>   16.6028   -0.0000 </r>
       <r>   24.4403    0.0000 </r>
       <r>   26.3163    0.0000 </r>
       <r>   28.8699    0.0000 </r>
      </set>
      <set comment="kpoint 13">
       <r>    3.8085    1.0000 </r>
       <r>    8.0242    1.0000 </r>
       <r>    9.3315    1.0000 </r>
       <r>   13.2488   -0.0000 </r>
       <r>   14.0782   -0.0000 </r>
       <r>   15.7229   -0.0000 </r>
       <r>   29.5817    0.0000 </r>
       <r>   33.5816    0.0000 </r>
      </set>
      <set comment="kpoint 14">
       <r>    3.8206    1.0000 </r>
       <r>    8.7208    1.0000 </r>
       <r>    8.8894    1.0000 </r>
       <r>   12.1998   -0.0321 </r>
       <r>   13.3425   -0.0000 </r>
       <r>   16.1306   -0.0000 </r>
       <r>   31.3159    0.0000 </r>
       <r>   31.5038    0.0000 </r>
      </set>
      <set comment="kpoint 15">
       <r>    3.8548    1.0000 </r>
       <r>    7.1074    1.0000 </r>
       <r>   10.8153    1.0000 </r>
       <r>   14.4823   -0.0000 </r>
       <r>   16.2583   -0.0000 </r>
       <r>   17.5871    0.0000 </r>
       <r>   27.2728    0.0000 </r>
       <r>   31.5710    0.0000 </r>
      </set>
      <set comment="kpoint 16">
       <r>    4.7421    1.0000 </r>
       <r>    7.7257    1.0000 </r>
       <r>    9.1060    1.0000 </r>
       <r>   12.8982   -0.0000 </r>
       <r>   16.2523   -0.0000 </r>
       <r>   17.0328   -0.0000 </r>
       <r>   28.7525    0.0000 </r>
       <r>   33.0560    0.0000 </r>
      </set>
      <set comment="kpoint 17">
       <r>    3.4001    1.0000 </r>
       <r>    6.6014    1.0000 </r>
       <r>   12.8525   -0.0000 </r>
       <r>   14.7790   -0.0000 </r>
       <r>   17.3702   -0.0000 </r>
       <r>   20.8093    0.0000 </r>
       <r>   25.7522    0.0000 </r>
       <r>   29.4932    0.0000 </r>
      </set>
      <set comment="kpoint 18">
       <r>    4.3449    1.0000 </r>
       <r>    7.2106    1.0000 </r>
       <r>   10.4387    1.0000 </r>
       <r>   13.9914   -0.0000 </r>
       <r>   17.1935   -0.0000 </r>
       <r>   20.4900    0.0000 </r>
       <r>   27.4843    0.0000 </r>
       <r>   30.6908    0.0000 </r>
      </set>
      <set comment="kpoint 19">
       <r>    5.4355    1.0000 </r>
       <r>    7.1048    1.0000 </r>
       <r>    9.4867    1.0000 </r>
       <r>   13.4045   -0.0000 </r>
       <r>   16.5419   -0.0000 </r>
       <r>   20.8045    0.0000 </r>
       <r>   28.0817    0.0000 </r>
       <r>   33.0818    0.0000 </r>
      </set>
      <set comment="kpoint 20">
       <r>    4.0582    1.0000 </r>
       <r>    7.0323    1.0000 </r>
       <r>   11.3555    1.0000 </r>
       <r>   13.8213   -0.0000 </r>
       <r>   18.3544    0.0000 </r>
       <r>   22.5638    0.0000 </r>
       <r>   27.1338    0.0000 </r>
       <r>   28.6486    0.0000 </r>
      </set>
      <set comment="kpoint 21">
       <r>    5.3299    1.0000 </r>
       <r>    7.2950    1.0000 </r>
       <r>    9.5057    1.0000 </r>
       <r>   14.2839   -0.0000 </r>
       <r>   17.0858   -0.0000 </r>
       <r>   24.6136    0.0000 </r>
       <r>   26.2755    0.0000 </r>
       <r>   30.7721    0.0000 </r>
      </set>
      <set comment="kpoint 22">
       <r>    5.9003    1.0000 </r>
       <r>    8.0291    1.0000 </r>
       <r>    8.0291    1.0000 </r>
       <r>   15.9961   -0.0000 </r>
       <r>   15.9962   -0.0000 </r>
       <r>   24.5961    0.0000 </r>
       <r>   28.5565    0.0000 </r>
       <r>   28.5565    0.0000 </r>
      </set>
      <set comment="kpoint 23">
       <r>    6.7902    1.0000 </r>
       <r>    7.1182    1.0000 </r>
       <r>    7.1182    1.0000 </r>
       <r>   15.5228   -0.0000 </r>
       <r>   15.5228   -0.0000 </r>
       <r>   20.8426    0.0000 </r>
       <r>   31.0960    0.0000 </r>
       <r>   31.0960    0.0000 </r>
      </set>
      <set comment="kpoint 24">
       <r>    6.3971    1.0000 </r>
       <r>    6.8727    1.0000 </r>
       <r>    9.4431    1.0000 </r>
       <r>   15.8889   -0.0000 </r>
       <r>   16.3820   -0.0000 </r>
       <r>   24.2327    0.0000 </r>
       <r>   26.8287    0.0000 </r>
       <r>   28.8933    0.0000 </r>
      </set>
      <set comment="kpoint 25">
       <r>    6.1569    1.0000 </r>
       <r>    6.8121    1.0000 </r>
       <r>   10.9070    1.0000 </r>
       <r>   16.0796   -0.0000 </r>
       <r>   16.6653   -0.0000 </r>
       <r>   24.6092    0.0000 </r>
       <r>   25.4738    0.0000 </r>
       <r>   28.0325    0.0000 </r>
      </set>
      <set comment="kpoint 26">
       <r>    3.5468    1.0000 </r>
       <r>    9.9297    1.0000 </r>
       <r>    9.9297    1.0000 </r>
       <r>   10.6391    1.0000 </r>
       <r>   11.3036    1.0000 </r>
       <r>   16.5060   -0.0000 </r>
       <r>   32.7503    0.0000 </r>
       <r>   32.8464    0.0000 </r>
      </set>
      <set comment="kpoint 27">
       <r>    6.7073    1.0000 </r>
       <r>    8.0260    1.0000 </r>
       <r>    9.3713    1.0000 </r>
       <r>   16.4172   -0.0000 </r>
       <r>   16.6622   -0.0000 </r>
       <r>   23.6718    0.0000 </r>
       <r>   26.7671    0.0000 </r>
       <r>   28.9877    0.0000 </r>
      </set>
      <set comment="kpoint 28">
       <r>    4.9986    1.0000 </r>
       <r>    8.5098    1.0000 </r>
       <r>    9.3441    1.0000 </r>
       <r>   11.3039    1.0000 </r>
       <r>   13.5931   -0.0000 </r>
       <r>   17.1358   -0.0000 </r>
       <r>   29.5329    0.0000 </r>
       <r>   34.8481    0.0000 </r>
      </set>
      <set comment="kpoint 29">
       <r>    4.9781    1.0000 </r>
       <r>    8.4777    1.0000 </r>
       <r>    8.5361    1.0000 </r>
       <r>   12.8055   -0.0000 </r>
       <r>   17.1127   -0.0000 </r>
       <r>   17.8802    0.0000 </r>
       <r>   28.3660    0.0000 </r>
       <r>   34.0800    0.0000 </r>
      </set>
      <set comment="kpoint 30">
       <r>    5.9779    1.0000 </r>
       <r>    6.9948    1.0000 </r>
       <r>    9.9413    1.0000 </r>
       <r>   11.7873    1.0220 </r>
       <r>   15.6687   -0.0000 </r>
       <r>   17.9527    0.0000 </r>
       <r>   28.9504    0.0000 </r>
       <r>   36.2120    0.0000 </r>
      </set>
      <set comment="kpoint 31">
       <r>    4.3637    1.0000 </r>
       <r>    8.0714    1.0000 </r>
       <r>    9.4919    1.0000 </r>
       <r>   12.5781   -0.0001 </r>
       <r>   20.2963    0.0000 </r>
       <r>   20.4350    0.0000 </r>
       <r>   28.2498    0.0000 </r>
       <r>   30.9100    0.0000 </r>
      </set>
      <set comment="kpoint 32">
       <r>    5.4560    1.0000 </r>
       <r>    7.1951    1.0000 </r>
       <r>    9.3083    1.0000 </r>
       <r>   12.8739   -0.0000 </r>
       <r>   17.3741   -0.0000 </r>
       <r>   21.2972    0.0000 </r>
       <r>   28.7453    0.0000 </r>
       <r>   33.7580    0.0000 </r>
      </set>
      <set comment="kpoint 33">
       <r>    5.0463    1.0000 </r>
       <r>    8.0722    1.0000 </r>
       <r>    8.4018    1.0000 </r>
       <r>   12.9096   -0.0000 </r>
       <r>   19.1200    0.0000 </r>
       <r>   24.0930    0.0000 </r>
       <r>   26.9462    0.0000 </r>
       <r>   31.7474    0.0000 </r>
      </set>
      <set comment="kpoint 34">
       <r>    6.1586    1.0000 </r>
       <r>    6.6049    1.0000 </r>
       <r>    8.1436    1.0000 </r>
       <r>   15.0242   -0.0000 </r>
       <r>   17.1140   -0.0000 </r>
       <r>   25.4806    0.0000 </r>
       <r>   26.5422    0.0000 </r>
       <r>   31.0252    0.0000 </r>
      </set>
      <set comment="kpoint 35">
       <r>    8.2709    1.0000 </r>
       <r>    8.2709    1.0000 </r>
       <r>    8.2709    1.0000 </r>
       <r>   16.7816   -0.0000 </r>
       <r>   16.7816   -0.0000 </r>
       <r>   22.4855    0.0000 </r>
       <r>   28.5498    0.0000 </r>
       <r>   28.5498    0.0000 </r>
      </set>
      <set comment="kpoint 36">
       <r>    6.2622    1.0000 </r>
       <r>    7.0327    1.0000 </r>
       <r>   11.1138    1.0000 </r>
       <r>   11.1138    1.0000 </r>
       <r>   13.6894   -0.0000 </r>
       <r>   17.4572    0.0000 </r>
       <r>   29.5213    0.0000 </r>
       <r>   38.0153    0.0000 </r>
      </set>
      <set comment="kpoint 37">
       <r>    5.5864    1.0000 </r>
       <r>    6.5599    1.0000 </r>
       <r>   11.1580    1.0000 </r>
       <r>   12.2037   -0.0331 </r>
       <r>   16.5178   -0.0000 </r>
       <r>   18.3805    0.0000 </r>
       <r>   30.6679    0.0000 </r>
       <r>   35.5699    0.0000 </r>
      </set>
      <set comment="kpoint 38">
       <r>    4.7917    1.0000 </r>
       <r>    6.5597    1.0000 </r>
       <r>   10.8489    1.0000 </r>
       <r>   12.1835   -0.0260 </r>
       <r>   19.8748    0.0000 </r>
       <r>   21.8358    0.0000 </r>
       <r>   28.5351    0.0000 </r>
       <r>   31.6042    0.0000 </r>
      </set>
      <set comment="kpoint 39">
       <r>    4.8653    1.0000 </r>
       <r>    5.8057    1.0000 </r>
       <r>   11.0908    1.0000 </r>
       <r>   14.2394   -0.0000 </r>
       <r>   17.5478    0.0000 </r>
       <r>   21.5241    0.0000 </r>
       <r>   29.4656    0.0000 </r>
       <r>   32.1872    0.0000 </r>
      </set>
      <set comment="kpoint 40">
       <r>    4.6767    1.0000 </r>
       <r>    5.3898    1.0000 </r>
       <r>   10.7823    1.0000 </r>
       <r>   15.1207   -0.0000 </r>
       <r>   18.7935    0.0000 </r>
       <r>   25.2516    0.0000 </r>
       <r>   26.1591    0.0000 </r>
       <r>   29.3360    0.0000 </r>
      </set>
      <set comment="kpoint 41">
       <r>    4.4059    1.0000 </r>
       <r>    5.4540    1.0000 </r>
       <r>   13.9447   -0.0000 </r>
       <r>   13.9448   -0.0000 </r>
       <r>   16.7498   -0.0000 </r>
       <r>   18.9953    0.0000 </r>
       <r>   32.3839    0.0000 </r>
       <r>   32.3839    0.0000 </r>
      </set>
      <set comment="kpoint 42">
       <r>    3.8122    1.0000 </r>
       <r>    4.4278    1.0000 </r>
       <r>   14.5735   -0.0000 </r>
       <r>   14.9277   -0.0000 </r>
       <r>   19.3725    0.0000 </r>
       <r>   22.1335    0.0000 </r>
       <r>   27.7497    0.0000 </r>
       <r>   28.8121    0.0000 </r>
      </set>
      <set comment="kpoint 43">
       <r>    3.6520    1.0000 </r>
       <r>    3.6520    1.0000 </r>
       <r>   14.6753   -0.0000 </r>
       <r>   18.3813    0.0000 </r>
       <r>   18.3813    0.0000 </r>
       <r>   25.5053    0.0000 </r>
       <r>   25.5053    0.0000 </r>
       <r>   25.6326    0.0000 </r>
      </set>
      <set comment="kpoint 44">
       <r>    3.0511    1.0000 </r>
       <r>    3.2303    1.0000 </r>
       <r>   18.2226    0.0000 </r>
       <r>   18.2226    0.0000 </r>
       <r>   19.3157    0.0000 </r>
       <r>   22.7737    0.0000 </r>
       <r>   25.5009    0.0000 </r>
       <r>   25.5009    0.0000 </r>
      </set>
     </set>
    </set>
   </array>
  </eigenvalues>
  <separator name="orbital magnetization" >
   <v name="MAGDIPOLOUT">      0.00000000      0.00000000      0.00000000</v>
  </separator>
  <dos>
   <i name="efermi">     11.98176364 </i>
   <total>
    <array>
     <dimension dim="1">gridpoints</dimension>
     <dimension dim="2">spin</dimension>
     <field>energy</field>
     <field>total</field>
     <field>integrated</field>
     <set>
      <set comment="spin 1">
       <r>    -0.8990     0.0000     0.0000 </r>
       <r>    -0.7626     0.0000     0.0000 </r>
       <r>    -0.6263    -0.0000    -0.0000 </r>
       <r>    -0.4899    -0.0000    -0.0000 </r>
       <r>    -0.3535    -0.0000    -0.0000 </r>
       <r>    -0.2171    -0.0000    -0.0000 </r>
       <r>    -0.0807    -0.0000    -0.0000 </r>
       <r>     0.0556    -0.0000    -0.0000 </r>
       <r>     0.1920    -0.0000    -0.0000 </r>
       <r>     0.3284    -0.0000    -0.0000 </r>
       <r>     0.4648    -0.0000    -0.0000 </r>
       <r>     0.6012    -0.0001    -0.0000 </r>
       <r>     0.7376    -0.0011    -0.0002 </r>
       <r>     0.8739    -0.0018    -0.0004 </r>
       <r>     1.0103     0.0168     0.0019 </r>
       <r>     1.1467     0.0467     0.0083 </r>
       <r>     1.2831     0.0284     0.0121 </r>
       <r>     1.4195    -0.0012     0.0120 </r>
       <r>     1.5558    -0.0021     0.0117 </r>
       <r>     1.6922     0.0330     0.0162 </r>
       <r>     1.8286     0.0631     0.0248 </r>
       <r>     1.9650     0.0239     0.0280 </r>
       <r>     2.1014    -0.0108     0.0266 </r>
       <r>     2.2377     0.0410     0.0322 </r>
       <r>     2.3741     0.1738     0.0559 </r>
       <r>     2.5105     0.1420     0.0752 </r>
       <r>     2.6469     0.0153     0.0773 </r>
       <r>     2.7833    -0.0114     0.0758 </r>
       <r>     2.9197     0.0011     0.0759 </r>
       <r>     3.0560     0.0273     0.0796 </r>
       <r>     3.1924     0.0953     0.0926 </r>
       <r>     3.3288     0.2927     0.1326 </r>
       <r>     3.4652     0.3828     0.1848 </r>
       <r>     3.6016     0.2949     0.2250 </r>
       <r>     3.7379     0.5496     0.3000 </r>
       <r>     3.8743     0.9696     0.4322 </r>
       <r>     4.0107     0.6297     0.5181 </r>
       <r>     4.1471     0.2676     0.5546 </r>
       <r>     4.2835     0.5225     0.6258 </r>
       <r>     4.4198     0.8019     0.7352 </r>
       <r>     4.5562     0.4869     0.8016 </r>
       <r>     4.6926     0.6954     0.8964 </r>
       <r>     4.8290     1.3211     1.0766 </r>
       <r>     4.9654     1.1226     1.2297 </r>
       <r>     5.1017     0.7960     1.3382 </r>
       <r>     5.2381     0.6462     1.4264 </r>
       <r>     5.3745     0.8913     1.5479 </r>
       <r>     5.5109     1.2508     1.7185 </r>
       <r>     5.6473     0.9300     1.8453 </r>
       <r>     5.7837     0.3914     1.8987 </r>
       <r>     5.9200     0.2863     1.9378 </r>
       <r>     6.0564     0.3356     1.9835 </r>
       <r>     6.1928     0.3522     2.0316 </r>
       <r>     6.3292     0.3181     2.0750 </r>
       <r>     6.4656     0.4825     2.1408 </r>
       <r>     6.6019     1.0645     2.2859 </r>
       <r>     6.7383     1.2945     2.4625 </r>
       <r>     6.8747     0.8684     2.5809 </r>
       <r>     7.0111     0.9908     2.7161 </r>
       <r>     7.1475     1.6784     2.9450 </r>
       <r>     7.2838     1.6769     3.1737 </r>
       <r>     7.4202     0.8201     3.2855 </r>
       <r>     7.5566     0.2601     3.3210 </r>
       <r>     7.6930     0.4882     3.3875 </r>
       <r>     7.8294     0.7471     3.4894 </r>
       <r>     7.9658     0.8268     3.6022 </r>
       <r>     8.1021     1.0639     3.7473 </r>
       <r>     8.2385     0.7839     3.8542 </r>
       <r>     8.3749     0.5154     3.9245 </r>
       <r>     8.5113     0.6762     4.0167 </r>
       <r>     8.6477     0.5985     4.0983 </r>
       <r>     8.7840     0.4533     4.1602 </r>
       <r>     8.9204     0.3934     4.2138 </r>
       <r>     9.0568     0.4011     4.2685 </r>
       <r>     9.1932     0.6820     4.3615 </r>
       <r>     9.3296     1.4057     4.5533 </r>
       <r>     9.4659     2.1010     4.8398 </r>
       <r>     9.6023     1.6251     5.0614 </r>
       <r>     9.7387     0.5706     5.1392 </r>
       <r>     9.8751     0.2963     5.1797 </r>
       <r>    10.0115     0.5270     5.2515 </r>
       <r>    10.1478     0.2633     5.2874 </r>
       <r>    10.2842     0.0351     5.2922 </r>
       <r>    10.4206     0.2573     5.3273 </r>
       <r>    10.5570     0.3351     5.3730 </r>
       <r>    10.6934     0.2474     5.4068 </r>
       <r>    10.8298     0.5259     5.4785 </r>
       <r>    10.9661     0.5552     5.5542 </r>
       <r>    11.1025     0.4613     5.6171 </r>
       <r>    11.2389     0.6202     5.7017 </r>
       <r>    11.3753     0.6801     5.7944 </r>
       <r>    11.5117     0.5760     5.8730 </r>
       <r>    11.6480     0.4564     5.9352 </r>
       <r>    11.7844     0.3049     5.9768 </r>
       <r>    11.9208     0.1234     5.9936 </r>
       <r>    12.0572     0.1997     6.0209 </r>
       <r>    12.1936     0.6481     6.1093 </r>
       <r>    12.3299     0.5495     6.1842 </r>
       <r>    12.4663     0.1130     6.1996 </r>
       <r>    12.6027     0.0877     6.2116 </r>
       <r>    12.7391     0.3523     6.2596 </r>
       <r>    12.8755     1.1266     6.4133 </r>
       <r>    13.0119     1.2090     6.5782 </r>
       <r>    13.1482     0.4125     6.6344 </r>
       <r>    13.2846     0.2843     6.6732 </r>
       <r>    13.4210     0.5535     6.7487 </r>
       <r>    13.5574     0.5320     6.8212 </r>
       <r>    13.6938     0.3105     6.8636 </r>
       <r>    13.8301     0.3429     6.9103 </r>
       <r>    13.9665     0.8527     7.0266 </r>
       <r>    14.1029     1.0575     7.1709 </r>
       <r>    14.2393     0.8090     7.2812 </r>
       <r>    14.3757     0.7716     7.3864 </r>
       <r>    14.5120     0.7311     7.4861 </r>
       <r>    14.6484     0.7478     7.5881 </r>
       <r>    14.7848     0.7342     7.6882 </r>
       <r>    14.9212     0.5977     7.7698 </r>
       <r>    15.0576     0.6213     7.8545 </r>
       <r>    15.1939     0.9847     7.9888 </r>
       <r>    15.3303     1.0559     8.1328 </r>
       <r>    15.4667     0.6521     8.2217 </r>
       <r>    15.6031     0.6056     8.3043 </r>
       <r>    15.7395     0.7038     8.4003 </r>
       <r>    15.8759     0.4682     8.4642 </r>
       <r>    16.0122     0.3869     8.5169 </r>
       <r>    16.1486     0.8094     8.6273 </r>
       <r>    16.2850     1.2620     8.7994 </r>
       <r>    16.4214     1.1560     8.9571 </r>
       <r>    16.5578     1.1967     9.1203 </r>
       <r>    16.6941     1.3242     9.3009 </r>
       <r>    16.8305     0.9124     9.4253 </r>
       <r>    16.9669     0.7007     9.5209 </r>
       <r>    17.1033     1.2975     9.6978 </r>
       <r>    17.2397     1.4030     9.8892 </r>
       <r>    17.3760     0.8821    10.0095 </r>
       <r>    17.5124     0.6718    10.1011 </r>
       <r>    17.6488     0.4330    10.1601 </r>
       <r>    17.7852     0.1961    10.1869 </r>
       <r>    17.9216     0.2903    10.2265 </r>
       <r>    18.0580     0.2750    10.2640 </r>
       <r>    18.1943     0.1407    10.2832 </r>
       <r>    18.3307     0.3933    10.3368 </r>
       <r>    18.4671     0.5044    10.4056 </r>
       <r>    18.6035     0.1609    10.4276 </r>
       <r>    18.7399     0.0784    10.4382 </r>
       <r>    18.8762     0.1787    10.4626 </r>
       <r>    19.0126     0.1619    10.4847 </r>
       <r>    19.1490     0.2056    10.5127 </r>
       <r>    19.2854     0.2348    10.5448 </r>
       <r>    19.4218     0.2403    10.5775 </r>
       <r>    19.5581     0.1078    10.5923 </r>
       <r>    19.6945     0.0030    10.5927 </r>
       <r>    19.8309     0.1071    10.6073 </r>
       <r>    19.9673     0.1726    10.6308 </r>
       <r>    20.1037     0.0447    10.6369 </r>
       <r>    20.2400     0.1392    10.6559 </r>
       <r>    20.3764     0.5679    10.7333 </r>
       <r>    20.5128     0.9262    10.8596 </r>
       <r>    20.6492     0.7576    10.9630 </r>
       <r>    20.7856     0.4662    11.0265 </r>
       <r>    20.9220     0.3696    11.0769 </r>
       <r>    21.0583     0.0849    11.0885 </r>
       <r>    21.1947     0.0842    11.1000 </r>
       <r>    21.3311     0.3561    11.1486 </r>
       <r>    21.4675     0.3518    11.1966 </r>
       <r>    21.6039     0.1986    11.2237 </r>
       <r>    21.7402     0.1207    11.2401 </r>
       <r>    21.8766     0.1635    11.2624 </r>
       <r>    22.0130     0.1675    11.2853 </r>
       <r>    22.1494     0.2528    11.3197 </r>
       <r>    22.2858     0.2092    11.3483 </r>
       <r>    22.4221     0.0627    11.3568 </r>
       <r>    22.5585     0.1561    11.3781 </r>
       <r>    22.6949     0.1879    11.4037 </r>
       <r>    22.8313     0.0787    11.4145 </r>
       <r>    22.9677     0.0131    11.4163 </r>
       <r>    23.1041    -0.0186    11.4137 </r>
       <r>    23.2404     0.0145    11.4157 </r>
       <r>    23.3768     0.2474    11.4495 </r>
       <r>    23.5132     0.3779    11.5010 </r>
       <r>    23.6496     0.2468    11.5346 </r>
       <r>    23.7860     0.1444    11.5543 </r>
       <r>    23.9223     0.0345    11.5590 </r>
       <r>    24.0587     0.2079    11.5874 </r>
       <r>    24.1951     0.4784    11.6526 </r>
       <r>    24.3315     0.3571    11.7013 </r>
       <r>    24.4679     0.2946    11.7415 </r>
       <r>    24.6042     0.5514    11.8167 </r>
       <r>    24.7406     0.4729    11.8812 </r>
       <r>    24.8770     0.0792    11.8920 </r>
       <r>    25.0134    -0.0422    11.8863 </r>
       <r>    25.1498     0.0547    11.8937 </r>
       <r>    25.2861     0.2603    11.9292 </r>
       <r>    25.4225     0.4344    11.9885 </r>
       <r>    25.5589     0.5492    12.0634 </r>
       <r>    25.6953     0.3900    12.1165 </r>
       <r>    25.8317     0.2014    12.1440 </r>
       <r>    25.9681     0.0352    12.1488 </r>
       <r>    26.1044     0.0883    12.1609 </r>
       <r>    26.2408     0.6034    12.2432 </r>
       <r>    26.3772     0.9734    12.3759 </r>
       <r>    26.5136     0.6310    12.4620 </r>
       <r>    26.6500     0.5194    12.5328 </r>
       <r>    26.7863     0.6584    12.6226 </r>
       <r>    26.9227     0.5169    12.6931 </r>
       <r>    27.0591     0.3091    12.7352 </r>
       <r>    27.1955     0.2774    12.7731 </r>
       <r>    27.3319     0.2990    12.8139 </r>
       <r>    27.4682     0.3578    12.8627 </r>
       <r>    27.6046     0.4480    12.9238 </r>
       <r>    27.7410     0.5667    13.0010 </r>
       <r>    27.8774     0.4257    13.0591 </r>
       <r>    28.0138     0.2013    13.0865 </r>
       <r>    28.1502     0.2800    13.1247 </r>
       <r>    28.2865     0.3691    13.1751 </r>
       <r>    28.4229     0.6423    13.2626 </r>
       <r>    28.5593     0.9968    13.3986 </r>
       <r>    28.6957     1.2971    13.5755 </r>
       <r>    28.8321     1.5721    13.7899 </r>
       <r>    28.9684     1.1866    13.9517 </r>
       <r>    29.1048     0.4153    14.0084 </r>
       <r>    29.2412     0.0412    14.0140 </r>
       <r>    29.3776     0.2775    14.0518 </r>
       <r>    29.5140     0.7202    14.1500 </r>
       <r>    29.6503     0.7920    14.2581 </r>
       <r>    29.7867     0.6716    14.3496 </r>
       <r>    29.9231     0.3937    14.4033 </r>
       <r>    30.0595     0.0334    14.4079 </r>
       <r>    30.1959    -0.0393    14.4025 </r>
       <r>    30.3322     0.0136    14.4044 </r>
       <r>    30.4686     0.1504    14.4249 </r>
       <r>    30.6050     0.4694    14.4889 </r>
       <r>    30.7414     1.1980    14.6523 </r>
       <r>    30.8778     1.3482    14.8362 </r>
       <r>    31.0142     0.7877    14.9436 </r>
       <r>    31.1505     0.6067    15.0264 </r>
       <r>    31.2869     0.4506    15.0878 </r>
       <r>    31.4233     0.3167    15.1310 </r>
       <r>    31.5597     0.4870    15.1974 </r>
       <r>    31.6961     0.5525    15.2728 </r>
       <r>    31.8324     0.2821    15.3113 </r>
       <r>    31.9688     0.0413    15.3169 </r>
       <r>    32.1052     0.0469    15.3233 </r>
       <r>    32.2416     0.1902    15.3492 </r>
       <r>    32.3780     0.3345    15.3948 </r>
       <r>    32.5143     0.4370    15.4544 </r>
       <r>    32.6507     0.2306    15.4859 </r>
       <r>    32.7871     0.0496    15.4927 </r>
       <r>    32.9235     0.1400    15.5117 </r>
       <r>    33.0599     0.4843    15.5778 </r>
       <r>    33.1962     0.4815    15.6435 </r>
       <r>    33.3326     0.0818    15.6546 </r>
       <r>    33.4690     0.0018    15.6549 </r>
       <r>    33.6054     0.2040    15.6827 </r>
       <r>    33.7418     0.4207    15.7401 </r>
       <r>    33.8782     0.3549    15.7885 </r>
       <r>    34.0145     0.1655    15.8110 </r>
       <r>    34.1509     0.1707    15.8343 </r>
       <r>    34.2873     0.0813    15.8454 </r>
       <r>    34.4237    -0.0060    15.8446 </r>
       <r>    34.5601    -0.0144    15.8426 </r>
       <r>    34.6964     0.0176    15.8450 </r>
       <r>    34.8328     0.1458    15.8649 </r>
       <r>    34.9692     0.1713    15.8883 </r>
       <r>    35.1056     0.0387    15.8936 </r>
       <r>    35.2420    -0.0158    15.8914 </r>
       <r>    35.3783    -0.0025    15.8911 </r>
       <r>    35.5147     0.1041    15.9053 </r>
       <r>    35.6511     0.1893    15.9311 </r>
       <r>    35.7875     0.0749    15.9413 </r>
       <r>    35.9239    -0.0145    15.9393 </r>
       <r>    36.0603     0.0131    15.9411 </r>
       <r>    36.1966     0.1452    15.9609 </r>
       <r>    36.3330     0.1714    15.9843 </r>
       <r>    36.4694     0.0396    15.9897 </r>
       <r>    36.6058    -0.0092    15.9884 </r>
       <r>    36.7422    -0.0029    15.9880 </r>
       <r>    36.8785    -0.0002    15.9880 </r>
       <r>    37.0149    -0.0000    15.9880 </r>
       <r>    37.1513    -0.0000    15.9880 </r>
       <r>    37.2877    -0.0000    15.9880 </r>
       <r>    37.4241    -0.0000    15.9880 </r>
       <r>    37.5604    -0.0003    15.9880 </r>
       <r>    37.6968    -0.0018    15.9877 </r>
       <r>    37.8332     0.0009    15.9878 </r>
       <r>    37.9696     0.0286    15.9917 </r>
       <r>    38.1060     0.0468    15.9981 </r>
       <r>    38.2423     0.0168    16.0004 </r>
       <r>    38.3787    -0.0018    16.0002 </r>
       <r>    38.5151    -0.0011    16.0000 </r>
       <r>    38.6515    -0.0001    16.0000 </r>
       <r>    38.7879    -0.0000    16.0000 </r>
       <r>    38.9243    -0.0000    16.0000 </r>
       <r>    39.0606    -0.0000    16.0000 </r>
       <r>    39.1970    -0.0000    16.0000 </r>
       <r>    39.3334    -0.0000    16.0000 </r>
       <r>    39.4698     0.0000    16.0000 </r>
       <r>    39.6062     0.0000    16.0000 </r>
       <r>    39.7425     0.0000    16.0000 </r>
       <r>    39.8789     0.0000    16.0000 </r>
       <r>    40.0153     0.0000    16.0000 </r>
      </set>
     </set>
    </array>
   </total>
  </dos>
 </calculation>
 <structure name="finalpos" >
  <crystal>
   <varray name="basis" >
    <v>      -1.42500000       1.42500000       1.42500000 </v>
    <v>       1.42500000      -1.42500000       1.42500000 </v>
    <v>       1.42500000       1.42500000      -1.42500000 </v>
   </varray>
   <i name="volume">     11.57456250 </i>
   <varray name="rec_basis" >
    <v>       0.00000000       0.35087719       0.35087719 </v>
    <v>       0.35087719       0.00000000       0.35087719 </v>
    <v>       0.35087719       0.35087719       0.00000000 </v>
   </varray>
  </crystal>
  <varray name="positions" >
   <v>       0.00000000       0.00000000       0.00000000 </v>
  </varray>
 </structure>
</modeling>
