BCC W                                   
           1
    -1.425000    1.425000    1.425000
     1.425000   -1.425000    1.425000
     1.425000    1.425000   -1.425000
   W 
   1
Direct configuration=     1
   0.00000000  0.00000000  0.00000000
