BCC W                                   
   3.05000000000000     
    -0.500000    0.500000    0.500000
     0.500000   -0.500000    0.500000
     0.500000    0.500000   -0.500000
   W 
     1
Direct
  0.000000  0.000000  0.000000
 
   20   20   20
  12.664      12.120      11.002      10.233      10.082      9.9676      9.2778      8.0905      6.9781      6.3147    
  6.0914      6.3147      6.9781      8.0905      9.2778      9.9676      10.082      10.233      11.002      12.120    
  12.120      11.916      10.943      10.052      9.7659      9.7400      9.3021      8.2904      7.1612      6.3851    
  6.0350      6.1080      6.5978      7.5264      8.6964      9.5680      9.8413      9.8985      10.392      11.378    
  11.002      10.943      10.151      9.2577      8.8601      8.8637      8.6857      7.9957      7.0466      6.2854    
  5.8716      5.8182      6.1394      6.8216      7.8216      8.7770      9.2965      9.4560      9.7398      10.392    
  10.233      10.052      9.2577      8.2976      7.7357      7.6573      7.6391      7.2834      6.6335      6.0152    
  5.6206      5.4979      5.6803      6.1562      6.9184      7.8369      8.6059      9.0862      9.4560      9.8985    
  10.082      9.7659      8.8601      7.7357      6.9155      6.6081      6.5648      6.4123      6.0429      5.6243    
  5.3155      5.1874      5.2788      5.6042      6.1519      6.9191      7.7923      8.6059      9.2965      9.8413    
  9.9676      9.7400      8.8637      7.6573      6.6081      6.0115      5.7873      5.6554      5.4464      5.1975    
  4.9984      4.9118      4.9653      5.1770      5.5703      6.1449      6.9191      7.8369      8.7770      9.5680    
  9.2778      9.3021      8.6857      7.6391      6.5648      5.7873      5.3624      5.1380      4.9658      4.8135    
  4.7081      4.6804      4.7360      4.8817      5.1491      5.5703      6.1519      6.9184      7.8216      8.6964    
  8.0905      8.2904      7.9957      7.2834      6.4123      5.6554      5.1380      4.8248      4.6326      4.5169    
  4.4710      4.4923      4.5677      4.6912      4.8817      5.1770      5.6042      6.1562      6.8216      7.5264    
  6.9781      7.1612      7.0466      6.6335      6.0429      5.4464      4.9658      4.6326      4.4258      4.3204    
  4.2992      4.3452      4.4390      4.5677      4.7360      4.9653      5.2788      5.6803      6.1394      6.5978    
  6.3147      6.3851      6.2854      6.0152      5.6243      5.1975      4.8135      4.5169      4.3204      4.2174    
  4.1958      4.2428      4.3452      4.4923      4.6804      4.9118      5.1874      5.4979      5.8182      6.1080    
  6.0914      6.0350      5.8716      5.6206      5.3155      4.9984      4.7081      4.4710      4.2992      4.1958    
  4.1614      4.1958      4.2992      4.4710      4.7081      4.9984      5.3155      5.6206      5.8716      6.0350    
  6.3147      6.1080      5.8182      5.4979      5.1874      4.9118      4.6804      4.4923      4.3452      4.2428    
  4.1958      4.2174      4.3204      4.5169      4.8135      5.1975      5.6243      6.0152      6.2854      6.3851    
  6.9781      6.5978      6.1394      5.6803      5.2788      4.9653      4.7360      4.5677      4.4390      4.3452    
  4.2992      4.3204      4.4258      4.6326      4.9658      5.4464      6.0429      6.6335      7.0466      7.1612    
  8.0905      7.5264      6.8216      6.1562      5.6042      5.1770      4.8817      4.6912      4.5677      4.4923    
  4.4710      4.5169      4.6326      4.8248      5.1380      5.6554      6.4123      7.2834      7.9957      8.2904    
  9.2778      8.6964      7.8216      6.9184      6.1519      5.5703      5.1491      4.8817      4.7360      4.6804    
  4.7081      4.8135      4.9658      5.1380      5.3624      5.7873      6.5648      7.6391      8.6857      9.3021    
  9.9676      9.5680      8.7770      7.8369      6.9191      6.1449      5.5703      5.1770      4.9653      4.9118    
  4.9984      5.1975      5.4464      5.6554      5.7873      6.0115      6.6081      7.6573      8.8637      9.7400    
  10.082      9.8413      9.2965      8.6059      7.7923      6.9191      6.1519      5.6042      5.2788      5.1874    
  5.3155      5.6243      6.0429      6.4123      6.5648      6.6081      6.9155      7.7357      8.8601      9.7659    
  10.233      9.8985      9.4560      9.0862      8.6059      7.8369      6.9184      6.1562      5.6803      5.4979    
  5.6206      6.0152      6.6335      7.2834      7.6391      7.6573      7.7357      8.2976      9.2577      10.052    
  11.002      10.392      9.7398      9.4560      9.2965      8.7770      7.8216      6.8216      6.1394      5.8182    
  5.8716      6.2854      7.0466      7.9957      8.6857      8.8637      8.8601      9.2577      10.151      10.943    
  12.120      11.378      10.392      9.8985      9.8413      9.5680      8.6964      7.5264      6.5978      6.1080    
  6.0350      6.3851      7.1612      8.2904      9.3021      9.7400      9.7659      10.052      10.943      11.916    
  12.120      11.916      10.943      10.052      9.7659      9.7400      9.3021      8.2904      7.1612      6.3851    
  6.0350      6.1080      6.5978      7.5264      8.6964      9.5680      9.8413      9.8985      10.392      11.378    
  11.916      12.115      11.370      10.385      9.8946      9.8399      9.5678      8.6965      7.5269      6.5985    
  6.1081      6.0345      6.3846      7.1612      8.2908      9.3030      9.7420      9.7698      10.058      10.947    
  10.943      11.370      10.939      10.059      9.4590      9.3348      9.2050      8.5861      7.5687      6.6296    
  6.0593      5.8624      6.0593      6.6296      7.5686      8.5861      9.2057      9.3373      9.4635      10.064    
  10.052      10.385      10.059      9.2578      8.5793      8.3496      8.2975      7.9547      7.2271      6.4360    
  5.8826      5.6219      5.6891      6.0790      6.7744      7.6809      8.4562      8.8590      9.0698      9.4611    
  9.7659      9.8946      9.4590      8.5793      7.7373      7.3079      7.2002      7.0345      6.6035      6.0476    
  5.5994      5.3452      5.3350      5.5838      6.0761      6.7981      7.6211      8.3263      8.8583      9.3348    
  9.7400      9.8399      9.3348      8.3496      7.3079      6.6094      6.3092      6.1534      5.9057      5.5645    
  5.2572      5.0632      5.0325      5.1820      5.5281      6.0621      6.7854      7.6212      8.4558      9.2043    
  9.3021      9.5678      9.2050      8.2975      7.2002      6.3092      5.7876      5.5203      5.3154      5.1014    
  4.9145      4.8019      4.7921      4.8913      5.1215      5.5110      6.0624      6.7985      7.6807      8.5853    
  8.2904      8.6965      8.5861      7.9547      7.0345      6.1534      5.5203      5.1376      4.8992      4.7310    
  4.6198      4.5779      4.6053      4.6938      4.8541      5.1217      5.5285      6.0761      6.7739      7.5679    
  7.1612      7.5269      7.5687      7.2271      6.6035      5.9057      5.3154      4.8992      4.6324      4.4729    
  4.3993      4.4000      4.4582      4.5567      4.6938      4.8914      5.1819      5.5834      6.0784      6.6292    
  6.3851      6.5985      6.6296      6.4360      6.0476      5.5645      5.1014      4.7310      4.4729      4.3205    
  4.2592      4.2731      4.3449      4.4582      4.6053      4.7920      5.0323      5.3346      5.6890      6.0595    
  6.0350      6.1081      6.0593      5.8826      5.5994      5.2572      4.9145      4.6198      4.3993      4.2592    
  4.1959      4.2027      4.2730      4.3998      4.5778      4.8017      5.0632      5.3453      5.6223      5.8629    
  6.1080      6.0345      5.8624      5.6219      5.3452      5.0632      4.8019      4.5779      4.4000      4.2731    
  4.2027      4.1957      4.2590      4.3991      4.6199      4.9148      5.2576      5.5998      5.8830      6.0595    
  6.5978      6.3846      6.0593      5.6891      5.3350      5.0325      4.7921      4.6053      4.4582      4.3449    
  4.2730      4.2590      4.3204      4.4731      4.7314      5.1019      5.5649      6.0477      6.4358      6.6292    
  7.5264      7.1612      6.6296      6.0790      5.5838      5.1820      4.8913      4.6938      4.5567      4.4582    
  4.3998      4.3991      4.4731      4.6329      4.8998      5.3157      5.9057      6.6030      7.2263      7.5679    
  8.6964      8.2908      7.5686      6.7744      6.0761      5.5281      5.1215      4.8541      4.6938      4.6053    
  4.5778      4.6199      4.7314      4.8998      5.1379      5.5200      6.1526      7.0333      7.9534      8.5853    
  9.5680      9.3030      8.5861      7.6809      6.7981      6.0621      5.5110      5.1217      4.8914      4.7920    
  4.8017      4.9148      5.1019      5.3157      5.5200      5.7866      6.3076      7.1983      8.2959      9.2043    
  9.8413      9.7420      9.2057      8.4562      7.6211      6.7854      6.0624      5.5285      5.1819      5.0323    
  5.0632      5.2576      5.5649      5.9057      6.1526      6.3076      6.6073      7.3057      8.3483      9.3348    
  9.8985      9.7698      9.3373      8.8590      8.3263      7.6212      6.7985      6.0761      5.5834      5.3346    
  5.3453      5.5998      6.0477      6.6030      7.0333      7.1983      7.3057      7.7357      8.5792      9.4611    
  10.392      10.058      9.4635      9.0698      8.8583      8.4558      7.6807      6.7739      6.0784      5.6890    
  5.6223      5.8830      6.4358      7.2263      7.9534      8.2959      8.3483      8.5792      9.2603      10.064    
  11.378      10.947      10.064      9.4611      9.3348      9.2043      8.5853      7.5679      6.6292      6.0595    
  5.8629      6.0595      6.6292      7.5679      8.5853      9.2043      9.3348      9.4611      10.064      10.947    
  11.002      10.943      10.151      9.2577      8.8601      8.8637      8.6857      7.9957      7.0466      6.2854    
  5.8716      5.8182      6.1394      6.8216      7.8216      8.7770      9.2965      9.4560      9.7398      10.392    
  10.943      11.370      10.939      10.059      9.4590      9.3348      9.2050      8.5861      7.5687      6.6296    
  6.0593      5.8624      6.0593      6.6296      7.5686      8.5861      9.2057      9.3373      9.4635      10.064    
  10.151      10.939      10.996      10.385      9.7356      9.4545      9.2968      8.7777      7.8220      6.8217    
  6.1395      5.8182      5.8716      6.2854      7.0467      7.9959      8.6866      8.8658      8.8632      9.2603    
  9.2577      10.059      10.385      10.052      9.4614      9.0703      8.8599      8.4572      7.6814      6.7741    
  6.0785      5.6890      5.6223      5.8830      6.4359      7.2265      7.9540      8.2971      8.3495      8.5792    
  8.8601      9.4590      9.7356      9.4614      8.8638      8.3519      8.0501      7.7297      7.1750      6.4720    
  5.8711      5.4868      5.3530      5.4868      5.8712      6.4720      7.1745      7.7284      8.0476      8.3483    
  8.8637      9.3348      9.4545      9.0703      8.3519      7.6604      7.2009      6.8740      6.4834      5.9992    
  5.5527      5.2357      5.0946      5.1485      5.4034      5.8425      6.4422      7.1100      7.7281      8.2959    
  8.6857      9.2050      9.2968      8.8599      8.0501      7.2009      6.5654      6.1527      5.8224      5.4907    
  5.1905      4.9690      4.8659      4.8898      5.0490      5.3634      5.8267      6.4422      7.1743      7.9534    
  7.9957      8.5861      8.7777      8.4572      7.7297      6.8740      6.1527      5.6544      5.3148      5.0542    
  4.8523      4.7205      4.6734      4.7041      4.8115      5.0210      5.3634      5.8425      6.4719      7.2263    
  7.0466      7.5687      7.8220      7.6814      7.1750      6.4834      5.8224      5.3148      4.9652      4.7311    
  4.5830      4.5145      4.5163      4.5693      4.6629      4.8115      5.0490      5.4034      5.8711      6.4358    
  6.2854      6.6296      6.8217      6.7741      6.4720      5.9992      5.4907      5.0542      4.7311      4.5172    
  4.3993      4.3639      4.3932      4.4665      4.5693      4.7041      4.8898      5.1485      5.4868      5.8830    
  5.8716      6.0593      6.1395      6.0785      5.8711      5.5527      5.1905      4.8523      4.5830      4.3993    
  4.2993      4.2730      4.3086      4.3932      4.5163      4.6735      4.8659      5.0947      5.3530      5.6223    
  5.8182      5.8624      5.8182      5.6890      5.4868      5.2357      4.9690      4.7205      4.5145      4.3639    
  4.2730      4.2427      4.2730      4.3639      4.5145      4.7205      4.9691      5.2357      5.4868      5.6890    
  6.1394      6.0593      5.8716      5.6223      5.3530      5.0946      4.8659      4.6734      4.5163      4.3932    
  4.3086      4.2730      4.2992      4.3994      4.5831      4.8525      5.1907      5.5528      5.8711      6.0784    
  6.8216      6.6296      6.2854      5.8830      5.4868      5.1485      4.8898      4.7041      4.5693      4.4665    
  4.3932      4.3639      4.3994      4.5173      4.7314      5.0546      5.4911      5.9993      6.4719      6.7739    
  7.8216      7.5686      7.0467      6.4359      5.8712      5.4034      5.0490      4.8115      4.6629      4.5693    
  4.5163      4.5145      4.5831      4.7314      4.9657      5.3154      5.8227      6.4831      7.1743      7.6807    
  8.7770      8.5861      7.9959      7.2265      6.4720      5.8425      5.3634      5.0210      4.8115      4.7041    
  4.6735      4.7205      4.8525      5.0546      5.3154      5.6547      6.1524      6.8729      7.7281      8.4558    
  9.2965      9.2057      8.6866      7.9540      7.1745      6.4422      5.8267      5.3634      5.0490      4.8898    
  4.8659      4.9691      5.1907      5.4911      5.8227      6.1524      6.5640      7.1985      8.0476      8.8583    
  9.4560      9.3373      8.8658      8.2971      7.7284      7.1100      6.4422      5.8425      5.4034      5.1485    
  5.0947      5.2357      5.5528      5.9993      6.4831      6.8729      7.1985      7.6574      8.3495      9.0698    
  9.7398      9.4635      8.8632      8.3495      8.0476      7.7281      7.1743      6.4719      5.8711      5.4868    
  5.3530      5.4868      5.8711      6.4719      7.1743      7.7281      8.0476      8.3495      8.8632      9.4635    
  10.392      10.064      9.2603      8.5792      8.3483      8.2959      7.9534      7.2263      6.4358      5.8830    
  5.6223      5.6890      6.0784      6.7739      7.6807      8.4558      8.8583      9.0698      9.4635      10.058    
  10.233      10.052      9.2577      8.2976      7.7357      7.6573      7.6391      7.2834      6.6335      6.0152    
  5.6206      5.4979      5.6803      6.1562      6.9184      7.8369      8.6059      9.0862      9.4560      9.8985    
  10.052      10.385      10.059      9.2578      8.5793      8.3496      8.2975      7.9547      7.2271      6.4360    
  5.8826      5.6219      5.6891      6.0790      6.7744      7.6809      8.4562      8.8590      9.0698      9.4611    
  9.2577      10.059      10.385      10.052      9.4614      9.0703      8.8599      8.4572      7.6814      6.7741    
  6.0785      5.6890      5.6223      5.8830      6.4359      7.2265      7.9540      8.2971      8.3495      8.5792    
  8.2976      9.2578      10.052      10.233      9.8991      9.4572      9.0877      8.6070      7.8372      6.9180    
  6.1559      5.6804      5.4983      5.6208      6.0148      6.6329      7.2830      7.6391      7.6574      7.7357    
  7.7357      8.5793      9.4614      9.8991      9.7710      9.3391      8.8609      8.3273      7.6211      6.7979    
  6.0759      5.5837      5.3350      5.3452      5.5993      6.0474      6.6031      7.0336      7.1985      7.3057    
  7.6573      8.3496      9.0703      9.4572      9.3391      8.8680      8.2986      7.7286      7.1093      6.4415    
  5.8423      5.4037      5.1486      5.0944      5.2354      5.5529      5.9997      6.4834      6.8729      7.1983    
  7.6391      8.2975      8.8599      9.0877      8.8609      8.2986      7.6395      7.0328      6.4822      5.9629    
  5.5108      5.1673      4.9558      4.8876      4.9558      5.1674      5.5112      5.9637      6.4831      7.0333    
  7.2834      7.9547      8.4572      8.6070      8.3273      7.7286      7.0328      6.4104      5.9043      5.4906    
  5.1601      4.9160      4.7730      4.7273      4.7652      4.8958      5.1435      5.5109      5.9993      6.6030    
  6.6335      7.2271      7.6814      7.8372      7.6211      7.1093      6.4822      5.9043      5.4454      5.1015    
  4.8525      4.6897      4.6130      4.6042      4.6432      4.7313      4.8955      5.1671      5.5528      6.0477    
  6.0152      6.4360      6.7741      6.9180      6.7979      6.4415      5.9629      5.4906      5.1015      4.8138    
  4.6201      4.5145      4.4844      4.5077      4.5626      4.6432      4.7650      4.9559      5.2357      5.5998    
  5.6206      5.8826      6.0785      6.1559      6.0759      5.8423      5.5108      5.1601      4.8525      4.6201    
  4.4713      4.4000      4.3933      4.4345      4.5077      4.6043      4.7274      4.8879      5.0947      5.3453    
  5.4979      5.6219      5.6890      5.6804      5.5837      5.4037      5.1673      4.9160      4.6897      4.5145    
  4.4000      4.3451      4.3449      4.3933      4.4845      4.6131      4.7731      4.9559      5.1485      5.3346    
  5.6803      5.6891      5.6223      5.4983      5.3350      5.1486      4.9558      4.7730      4.6130      4.4844    
  4.3933      4.3449      4.3452      4.4000      4.5145      4.6897      4.9159      5.1671      5.4034      5.5834    
  6.1562      6.0790      5.8830      5.6208      5.3452      5.0944      4.8876      4.7273      4.6042      4.5077    
  4.4345      4.3933      4.4000      4.4712      4.6198      4.8522      5.1600      5.5109      5.8425      6.0761    
  6.9184      6.7744      6.4359      6.0148      5.5993      5.2354      4.9558      4.7652      4.6432      4.5626    
  4.5077      4.4845      4.5145      4.6198      4.8135      5.1015      5.4911      5.9637      6.4422      6.7985    
  7.8369      7.6809      7.2265      6.6329      6.0474      5.5529      5.1674      4.8958      4.7313      4.6432    
  4.6043      4.6131      4.6897      4.8522      5.1015      5.4461      5.9055      6.4834      7.1100      7.6212    
  8.6059      8.4562      7.9540      7.2830      6.6031      5.9997      5.5112      5.1435      4.8955      4.7650    
  4.7274      4.7731      4.9159      5.1600      5.4911      5.9055      6.4118      7.0336      7.7284      8.3263    
  9.0862      8.8590      8.2971      7.6391      7.0336      6.4834      5.9637      5.5109      5.1671      4.9559    
  4.8879      4.9559      5.1671      5.5109      5.9637      6.4834      7.0336      7.6391      8.2971      8.8590    
  9.4560      9.0698      8.3495      7.6574      7.1985      6.8729      6.4831      5.9993      5.5528      5.2357    
  5.0947      5.1485      5.4034      5.8425      6.4422      7.1100      7.7284      8.2971      8.8658      9.3373    
  9.8985      9.4611      8.5792      7.7357      7.3057      7.1983      7.0333      6.6030      6.0477      5.5998    
  5.3453      5.3346      5.5834      6.0761      6.7985      7.6212      8.3263      8.8590      9.3373      9.7698    
  10.082      9.7659      8.8601      7.7357      6.9155      6.6081      6.5648      6.4123      6.0429      5.6243    
  5.3155      5.1874      5.2788      5.6042      6.1519      6.9191      7.7923      8.6059      9.2965      9.8413    
  9.7659      9.8946      9.4590      8.5793      7.7373      7.3079      7.2002      7.0345      6.6035      6.0476    
  5.5994      5.3452      5.3350      5.5838      6.0761      6.7981      7.6211      8.3263      8.8583      9.3348    
  8.8601      9.4590      9.7356      9.4614      8.8638      8.3519      8.0501      7.7297      7.1750      6.4720    
  5.8711      5.4868      5.3530      5.4868      5.8712      6.4720      7.1745      7.7284      8.0476      8.3483    
  7.7357      8.5793      9.4614      9.8991      9.7710      9.3391      8.8609      8.3273      7.6211      6.7979    
  6.0759      5.5837      5.3350      5.3452      5.5993      6.0474      6.6031      7.0336      7.1985      7.3057    
  6.9155      7.7373      8.8638      9.7710      10.087      9.8450      9.2981      8.6058      7.7915      6.9183    
  6.1515      5.6041      5.2788      5.1874      5.3155      5.6242      6.0426      6.4118      6.5640      6.6073    
  6.6081      7.3079      8.3519      9.3391      9.8450      9.7438      9.2056      8.4547      7.6194      6.7842    
  6.0618      5.5283      5.1819      5.0323      5.0631      5.2575      5.5648      5.9055      6.1524      6.3076    
  6.5648      7.2002      8.0501      8.8609      9.2981      9.2056      8.6848      7.9515      7.1724      6.4410    
  5.8262      5.3633      5.0491      4.8898      4.8659      4.9691      5.1906      5.4911      5.8227      6.1526    
  6.4123      7.0345      7.7297      8.3273      8.6058      8.4547      7.9515      7.2805      6.6013      5.9989    
  5.5111      5.1437      4.8957      4.7651      4.7274      4.7731      4.9159      5.1600      5.4911      5.9057    
  6.0429      6.6035      7.1750      7.6211      7.7915      7.6194      7.1724      6.6013      6.0417      5.5647    
  5.1910      4.9162      4.7437      4.6597      4.6364      4.6597      4.7435      4.9159      5.1907      5.5649    
  5.6243      6.0476      6.4720      6.7979      6.9183      6.7842      6.4410      5.9989      5.5647      5.1981    
  4.9152      4.7206      4.6131      4.5736      4.5755      4.6022      4.6597      4.7731      4.9691      5.2576    
  5.3155      5.5994      5.8711      6.0759      6.1515      6.0618      5.8262      5.5111      5.1910      4.9152    
  4.7086      4.5780      4.5164      4.5077      4.5323      4.5755      4.6364      4.7274      4.8659      5.0632    
  5.1874      5.3452      5.4868      5.5837      5.6041      5.5283      5.3633      5.1437      4.9162      4.7206    
  4.5780      4.4924      4.4582      4.4666      4.5077      4.5736      4.6597      4.7650      4.8898      5.0323    
  5.2788      5.3350      5.3530      5.3350      5.2788      5.1819      5.0491      4.8957      4.7437      4.6131    
  4.5164      4.4582      4.4390      4.4582      4.5163      4.6129      4.7435      4.8955      5.0490      5.1819    
  5.6042      5.5838      5.4868      5.3452      5.1874      5.0323      4.8898      4.7651      4.6597      4.5736    
  4.5077      4.4666      4.4582      4.4923      4.5777      4.7202      4.9159      5.1435      5.3634      5.5285    
  6.1519      6.0761      5.8712      5.5993      5.3155      5.0631      4.8659      4.7274      4.6364      4.5755    
  4.5323      4.5077      4.5163      4.5777      4.7081      4.9146      5.1906      5.5112      5.8267      6.0624    
  6.9191      6.7981      6.4720      6.0474      5.6242      5.2575      4.9691      4.7731      4.6597      4.6022    
  4.5755      4.5736      4.6129      4.7202      4.9146      5.1977      5.5648      5.9997      6.4422      6.7854    
  7.7923      7.6211      7.1745      6.6031      6.0426      5.5648      5.1906      4.9159      4.7435      4.6597    
  4.6364      4.6597      4.7435      4.9159      5.1906      5.5648      6.0426      6.6031      7.1745      7.6211    
  8.6059      8.3263      7.7284      7.0336      6.4118      5.9055      5.4911      5.1600      4.9159      4.7731    
  4.7274      4.7650      4.8955      5.1435      5.5112      5.9997      6.6031      7.2830      7.9540      8.4562    
  9.2965      8.8583      8.0476      7.1985      6.5640      6.1524      5.8227      5.4911      5.1907      4.9691    
  4.8659      4.8898      5.0490      5.3634      5.8267      6.4422      7.1745      7.9540      8.6866      9.2057    
  9.8413      9.3348      8.3483      7.3057      6.6073      6.3076      6.1526      5.9057      5.5649      5.2576    
  5.0632      5.0323      5.1819      5.5285      6.0624      6.7854      7.6211      8.4562      9.2057      9.7420    
  9.9676      9.7400      8.8637      7.6573      6.6081      6.0115      5.7873      5.6554      5.4464      5.1975    
  4.9984      4.9118      4.9653      5.1770      5.5703      6.1449      6.9191      7.8369      8.7770      9.5680    
  9.7400      9.8399      9.3348      8.3496      7.3079      6.6094      6.3092      6.1534      5.9057      5.5645    
  5.2572      5.0632      5.0325      5.1820      5.5281      6.0621      6.7854      7.6212      8.4558      9.2043    
  8.8637      9.3348      9.4545      9.0703      8.3519      7.6604      7.2009      6.8740      6.4834      5.9992    
  5.5527      5.2357      5.0946      5.1485      5.4034      5.8425      6.4422      7.1100      7.7281      8.2959    
  7.6573      8.3496      9.0703      9.4572      9.3391      8.8680      8.2986      7.7286      7.1093      6.4415    
  5.8423      5.4037      5.1486      5.0944      5.2354      5.5529      5.9997      6.4834      6.8729      7.1983    
  6.6081      7.3079      8.3519      9.3391      9.8450      9.7438      9.2056      8.4547      7.6194      6.7842    
  6.0618      5.5283      5.1819      5.0323      5.0631      5.2575      5.5648      5.9055      6.1524      6.3076    
  6.0115      6.6094      7.6604      8.8680      9.7438      9.9692      9.5668      8.7740      7.8341      6.9178    
  6.1447      5.5704      5.1768      4.9652      4.9119      4.9987      5.1977      5.4461      5.6547      5.7866    
  5.7873      6.3092      7.2009      8.2986      9.2056      9.5668      9.2995      8.5821      7.6782      6.7973    
  6.0623      5.5112      5.1217      4.8914      4.7921      4.8019      4.9146      5.1015      5.3154      5.5200    
  5.6554      6.1534      6.8740      7.7286      8.4547      8.7740      8.5821      7.9927      7.2251      6.4722    
  5.8432      5.3638      5.0211      4.8116      4.7042      4.6734      4.7202      4.8522      5.0546      5.3157    
  5.4464      5.9057      6.4834      7.1093      7.6194      7.8341      7.6782      7.2251      6.6331      6.0485    
  5.5540      5.1679      4.8959      4.7314      4.6432      4.6042      4.6129      4.6897      4.8525      5.1019    
  5.1975      5.5645      5.9992      6.4415      6.7842      6.9178      6.7973      6.4722      6.0485      5.6255    
  5.2584      4.9695      4.7732      4.6597      4.6022      4.5755      4.5736      4.6131      4.7205      4.9148    
  4.9984      5.2572      5.5527      5.8423      6.0618      6.1447      6.0623      5.8432      5.5540      5.2584    
  4.9992      4.8020      4.6734      4.6042      4.5755      4.5685      4.5755      4.6043      4.6735      4.8017    
  4.9118      5.0632      5.2357      5.4037      5.5283      5.5704      5.5112      5.3638      5.1679      4.9695    
  4.8020      4.6804      4.6052      4.5692      4.5625      4.5755      4.6022      4.6432      4.7041      4.7920    
  4.9653      5.0325      5.0946      5.1486      5.1819      5.1768      5.1217      5.0211      4.8959      4.7732    
  4.6734      4.6052      4.5676      4.5566      4.5692      4.6042      4.6597      4.7313      4.8115      4.8914    
  5.1770      5.1820      5.1485      5.0944      5.0323      4.9652      4.8914      4.8116      4.7314      4.6597    
  4.6042      4.5692      4.5566      4.5676      4.6053      4.6734      4.7731      4.8958      5.0210      5.1217    
  5.5703      5.5281      5.4034      5.2354      5.0631      4.9119      4.7921      4.7042      4.6432      4.6022    
  4.5755      4.5625      4.5692      4.6053      4.6805      4.8019      4.9691      5.1674      5.3634      5.5110    
  6.1449      6.0621      5.8425      5.5529      5.2575      4.9987      4.8019      4.6734      4.6042      4.5755    
  4.5685      4.5755      4.6042      4.6734      4.8019      4.9987      5.2575      5.5529      5.8425      6.0621    
  6.9191      6.7854      6.4422      5.9997      5.5648      5.1977      4.9146      4.7202      4.6129      4.5736    
  4.5755      4.6022      4.6597      4.7731      4.9691      5.2575      5.6242      6.0474      6.4720      6.7981    
  7.8369      7.6212      7.1100      6.4834      5.9055      5.4461      5.1015      4.8522      4.6897      4.6131    
  4.6043      4.6432      4.7313      4.8958      5.1674      5.5529      6.0474      6.6329      7.2265      7.6809    
  8.7770      8.4558      7.7281      6.8729      6.1524      5.6547      5.3154      5.0546      4.8525      4.7205    
  4.6735      4.7041      4.8115      5.0210      5.3634      5.8425      6.4720      7.2265      7.9959      8.5861    
  9.5680      9.2043      8.2959      7.1983      6.3076      5.7866      5.5200      5.3157      5.1019      4.9148    
  4.8017      4.7920      4.8914      5.1217      5.5110      6.0621      6.7981      7.6809      8.5861      9.3030    
  9.2778      9.3021      8.6857      7.6391      6.5648      5.7873      5.3624      5.1380      4.9658      4.8135    
  4.7081      4.6804      4.7360      4.8817      5.1491      5.5703      6.1519      6.9184      7.8216      8.6964    
  9.3021      9.5678      9.2050      8.2975      7.2002      6.3092      5.7876      5.5203      5.3154      5.1014    
  4.9145      4.8019      4.7921      4.8913      5.1215      5.5110      6.0624      6.7985      7.6807      8.5853    
  8.6857      9.2050      9.2968      8.8599      8.0501      7.2009      6.5654      6.1527      5.8224      5.4907    