BCC W                                   
   3.05000000000000     
    -0.500000    0.500000    0.500000
     0.500000   -0.500000    0.500000
     0.500000    0.500000   -0.500000
   W 
     1
Direct
  0.000000  0.000000  0.000000
 
   20   20   20
 0.12663631111E+02 0.12120136030E+02 0.11002489432E+02 0.10233190374E+02 0.10081572478E+02
 0.99676132316E+01 0.92777872078E+01 0.80904527089E+01 0.69780571781E+01 0.63146748310E+01
 0.60914402176E+01 0.63146748310E+01 0.69780571781E+01 0.80904527089E+01 0.92777872078E+01
 0.99676132316E+01 0.10081572478E+02 0.10233190374E+02 0.11002489432E+02 0.12120136030E+02
 0.12120136030E+02 0.11915621658E+02 0.10942562725E+02 0.10052203124E+02 0.97658687848E+01
 0.97399697680E+01 0.93021019651E+01 0.82903729019E+01 0.71612262799E+01 0.63851475003E+01
 0.60349998644E+01 0.61079924796E+01 0.65978349180E+01 0.75263925727E+01 0.86963655119E+01
 0.95680347208E+01 0.98413133777E+01 0.98985055834E+01 0.10391955218E+02 0.11377767373E+02
 0.11002489432E+02 0.10942562725E+02 0.10151031809E+02 0.92576905595E+01 0.88600746489E+01
 0.88636531018E+01 0.86856776815E+01 0.79956633383E+01 0.70465955641E+01 0.62853752484E+01
 0.58716196451E+01 0.58182234213E+01 0.61394379711E+01 0.68215798607E+01 0.78215572630E+01
 0.87769715173E+01 0.92965071976E+01 0.94560250400E+01 0.97398400895E+01 0.10391955218E+02
 0.10233190374E+02 0.10052203124E+02 0.92576905595E+01 0.82976449096E+01 0.77356635878E+01
 0.76573151645E+01 0.76391032608E+01 0.72833623091E+01 0.66334953760E+01 0.60151533987E+01
 0.56206207937E+01 0.54978567181E+01 0.56802745340E+01 0.61562488065E+01 0.69183860594E+01
 0.78368683653E+01 0.86058580329E+01 0.90861838152E+01 0.94560250400E+01 0.98985055834E+01
 0.10081572478E+02 0.97658687848E+01 0.88600746489E+01 0.77356635878E+01 0.69154575355E+01
 0.66080586721E+01 0.65647769220E+01 0.64123010847E+01 0.60428587884E+01 0.56243108674E+01
 0.53155235863E+01 0.51874356829E+01 0.52787705903E+01 0.56042322940E+01 0.61519296909E+01
 0.69191218524E+01 0.77923035244E+01 0.86058580329E+01 0.92965071976E+01 0.98413133777E+01
 0.99676132316E+01 0.97399697680E+01 0.88636531018E+01 0.76573151645E+01 0.66080586721E+01
 0.60114779621E+01 0.57873014839E+01 0.56554457261E+01 0.54464377264E+01 0.51975374226E+01
 0.49983550589E+01 0.49118236424E+01 0.49653399347E+01 0.51769528250E+01 0.55703437297E+01
 0.61448945494E+01 0.69191218524E+01 0.78368683653E+01 0.87769715173E+01 0.95680347208E+01
 0.92777872078E+01 0.93021019651E+01 0.86856776815E+01 0.76391032608E+01 0.65647769220E+01
 0.57873014839E+01 0.53623592913E+01 0.51380287005E+01 0.49657500049E+01 0.48135101221E+01
 0.47081017470E+01 0.46804447957E+01 0.47359890894E+01 0.48817387050E+01 0.51490791684E+01
 0.55703437297E+01 0.61519296909E+01 0.69183860594E+01 0.78215572630E+01 0.86963655119E+01
 0.80904527089E+01 0.82903729019E+01 0.79956633383E+01 0.72833623091E+01 0.64123010847E+01
 0.56554457261E+01 0.51380287005E+01 0.48248230546E+01 0.46325622967E+01 0.45169102168E+01
 0.44710125885E+01 0.44923212033E+01 0.45677252018E+01 0.46911954773E+01 0.48817387050E+01
 0.51769528250E+01 0.56042322940E+01 0.61562488065E+01 0.68215798607E+01 0.75263925727E+01
 0.69780571781E+01 0.71612262799E+01 0.70465955641E+01 0.66334953760E+01 0.60428587884E+01
 0.54464377264E+01 0.49657500049E+01 0.46325622967E+01 0.44258103325E+01 0.43203800606E+01
 0.42991617944E+01 0.43451582735E+01 0.44390036345E+01 0.45677252018E+01 0.47359890894E+01
 0.49653399347E+01 0.52787705903E+01 0.56802745340E+01 0.61394379711E+01 0.65978349180E+01
 0.63146748310E+01 0.63851475003E+01 0.62853752484E+01 0.60151533987E+01 0.56243108674E+01
 0.51975374226E+01 0.48135101221E+01 0.45169102168E+01 0.43203800606E+01 0.42174130132E+01
 0.41958376170E+01 0.42427963339E+01 0.43451582735E+01 0.44923212033E+01 0.46804447957E+01
 0.49118236424E+01 0.51874356829E+01 0.54978567181E+01 0.58182234213E+01 0.61079924796E+01
 0.60914402176E+01 0.60349998644E+01 0.58716196451E+01 0.56206207937E+01 0.53155235863E+01
 0.49983550589E+01 0.47081017470E+01 0.44710125885E+01 0.42991617944E+01 0.41958376170E+01
 0.41613980814E+01 0.41958376170E+01 0.42991617944E+01 0.44710125885E+01 0.47081017470E+01
 0.49983550589E+01 0.53155235863E+01 0.56206207937E+01 0.58716196451E+01 0.60349998644E+01
 0.63146748310E+01 0.61079924796E+01 0.58182234213E+01 0.54978567181E+01 0.51874356829E+01
 0.49118236424E+01 0.46804447957E+01 0.44923212033E+01 0.43451582735E+01 0.42427963339E+01
 0.41958376170E+01 0.42174130132E+01 0.43203800606E+01 0.45169102168E+01 0.48135101221E+01
 0.51975374226E+01 0.56243108674E+01 0.60151533987E+01 0.62853752484E+01 0.63851475003E+01
 0.69780571781E+01 0.65978349180E+01 0.61394379711E+01 0.56802745340E+01 0.52787705903E+01
 0.49653399347E+01 0.47359890894E+01 0.45677252018E+01 0.44390036345E+01 0.43451582735E+01
 0.42991617944E+01 0.43203800606E+01 0.44258103325E+01 0.46325622967E+01 0.49657500049E+01
 0.54464377264E+01 0.60428587884E+01 0.66334953760E+01 0.70465955641E+01 0.71612262799E+01
 0.80904527089E+01 0.75263925727E+01 0.68215798607E+01 0.61562488065E+01 0.56042322940E+01
 0.51769528250E+01 0.48817387050E+01 0.46911954773E+01 0.45677252018E+01 0.44923212033E+01
 0.44710125885E+01 0.45169102168E+01 0.46325622967E+01 0.48248230546E+01 0.51380287005E+01
 0.56554457261E+01 0.64123010847E+01 0.72833623091E+01 0.79956633383E+01 0.82903729019E+01
 0.92777872078E+01 0.86963655119E+01 0.78215572630E+01 0.69183860594E+01 0.61519296909E+01
 0.55703437297E+01 0.51490791684E+01 0.48817387050E+01 0.47359890894E+01 0.46804447957E+01
 0.47081017470E+01 0.48135101221E+01 0.49657500049E+01 0.51380287005E+01 0.53623592913E+01
 0.57873014839E+01 0.65647769220E+01 0.76391032608E+01 0.86856776815E+01 0.93021019651E+01
 0.99676132316E+01 0.95680347208E+01 0.87769715173E+01 0.78368683653E+01 0.69191218524E+01
 0.61448945494E+01 0.55703437297E+01 0.51769528250E+01 0.49653399347E+01 0.49118236424E+01
 0.49983550589E+01 0.51975374226E+01 0.54464377264E+01 0.56554457261E+01 0.57873014839E+01
 0.60114779621E+01 0.66080586721E+01 0.76573151645E+01 0.88636531018E+01 0.97399697680E+01
 0.10081572478E+02 0.98413133777E+01 0.92965071976E+01 0.86058580329E+01 0.77923035244E+01
 0.69191218524E+01 0.61519296909E+01 0.56042322940E+01 0.52787705903E+01 0.51874356829E+01
 0.53155235863E+01 0.56243108674E+01 0.60428587884E+01 0.64123010847E+01 0.65647769220E+01
 0.66080586721E+01 0.69154575355E+01 0.77356635878E+01 0.88600746489E+01 0.97658687848E+01
 0.10233190374E+02 0.98985055834E+01 0.94560250400E+01 0.90861838152E+01 0.86058580329E+01
 0.78368683653E+01 0.69183860594E+01 0.61562488065E+01 0.56802745340E+01 0.54978567181E+01
 0.56206207937E+01 0.60151533987E+01 0.66334953760E+01 0.72833623091E+01 0.76391032608E+01
 0.76573151645E+01 0.77356635878E+01 0.82976449096E+01 0.92576905595E+01 0.10052203124E+02
 0.11002489432E+02 0.10391955218E+02 0.97398400895E+01 0.94560250400E+01 0.92965071976E+01
 0.87769715173E+01 0.78215572630E+01 0.68215798607E+01 0.61394379711E+01 0.58182234213E+01
 0.58716196451E+01 0.62853752484E+01 0.70465955641E+01 0.79956633383E+01 0.86856776815E+01
 0.88636531018E+01 0.88600746489E+01 0.92576905595E+01 0.10151031809E+02 0.10942562725E+02
 0.12120136030E+02 0.11377767373E+02 0.10391955218E+02 0.98985055834E+01 0.98413133777E+01
 0.95680347208E+01 0.86963655119E+01 0.75263925727E+01 0.65978349180E+01 0.61079924796E+01
 0.60349998644E+01 0.63851475003E+01 0.71612262799E+01 0.82903729019E+01 0.93021019651E+01
 0.97399697680E+01 0.97658687848E+01 0.10052203124E+02 0.10942562725E+02 0.11915621658E+02
 0.12120136030E+02 0.11915621658E+02 0.10942562725E+02 0.10052203124E+02 0.97658687848E+01
 0.97399697680E+01 0.93021019651E+01 0.82903729019E+01 0.71612262799E+01 0.63851475003E+01
 0.60349998644E+01 0.61079924796E+01 0.65978349180E+01 0.75263925727E+01 0.86963655119E+01
 0.95680347208E+01 0.98413133777E+01 0.98985055834E+01 0.10391955218E+02 0.11377767373E+02
 0.11915621658E+02 0.12115212821E+02 0.11370240238E+02 0.10385289664E+02 0.98946340337E+01
 0.98398714862E+01 0.95677516358E+01 0.86965452401E+01 0.75269354505E+01 0.65984609508E+01
 0.61081469521E+01 0.60345413750E+01 0.63846155606E+01 0.71611832170E+01 0.82908371792E+01
 0.93030161005E+01 0.97419571155E+01 0.97697778727E+01 0.10057521434E+02 0.10946719522E+02
 0.10942562725E+02 0.11370240238E+02 0.10938822264E+02 0.10058577552E+02 0.94589566302E+01
 0.93347872883E+01 0.92050138049E+01 0.85861447981E+01 0.75687013417E+01 0.66296207960E+01
 0.60592768282E+01 0.58624031913E+01 0.60592691468E+01 0.66295821930E+01 0.75685837346E+01
 0.85861048354E+01 0.92057328809E+01 0.93372634151E+01 0.94635260178E+01 0.10063987455E+02
 0.10052203124E+02 0.10385289664E+02 0.10058577552E+02 0.92578117205E+01 0.85793327266E+01
 0.83496243947E+01 0.82974772867E+01 0.79546541980E+01 0.72271080674E+01 0.64359877838E+01
 0.58825818735E+01 0.56219021873E+01 0.56891459373E+01 0.60789978907E+01 0.67743633708E+01
 0.76808830482E+01 0.84561882369E+01 0.88590466556E+01 0.90698352334E+01 0.94611220644E+01
 0.97658687848E+01 0.98946340337E+01 0.94589566302E+01 0.85793327266E+01 0.77373332613E+01
 0.73078671750E+01 0.72001876511E+01 0.70345474521E+01 0.66035349270E+01 0.60475696700E+01
 0.55993665555E+01 0.53451706718E+01 0.53349556249E+01 0.55838010957E+01 0.60760813943E+01
 0.67981221097E+01 0.76210500253E+01 0.83262884540E+01 0.88582971328E+01 0.93348291340E+01
 0.97399697680E+01 0.98398714862E+01 0.93347872883E+01 0.83496243947E+01 0.73078671750E+01
 0.66094333034E+01 0.63091868967E+01 0.61534096625E+01 0.59057376560E+01 0.55644579381E+01
 0.52572082305E+01 0.50632280727E+01 0.50325400251E+01 0.51819551951E+01 0.55281400276E+01
 0.60620617583E+01 0.67854415194E+01 0.76211964619E+01 0.84557661884E+01 0.92042992358E+01
 0.93021019651E+01 0.95677516358E+01 0.92050138049E+01 0.82974772867E+01 0.72001876511E+01
 0.63091868967E+01 0.57876387593E+01 0.55202600439E+01 0.53153571459E+01 0.51013890024E+01
 0.49145498438E+01 0.48018542379E+01 0.47921086219E+01 0.48913294449E+01 0.51214961633E+01
 0.55109535716E+01 0.60624127804E+01 0.67984510481E+01 0.76806758948E+01 0.85852815196E+01
 0.82903729019E+01 0.86965452401E+01 0.85861447981E+01 0.79546541980E+01 0.70345474521E+01
 0.61534096625E+01 0.55202600439E+01 0.51375978437E+01 0.48992027697E+01 0.47309758911E+01
 0.46198127487E+01 0.45779148516E+01 0.46053304570E+01 0.46937614133E+01 0.48541354761E+01
 0.51217324707E+01 0.55284639072E+01 0.60761199354E+01 0.67739140928E+01 0.75678737846E+01
 0.71612262799E+01 0.75269354505E+01 0.75687013417E+01 0.72271080674E+01 0.66035349270E+01
 0.59057376560E+01 0.53153571459E+01 0.48992027697E+01 0.46323904279E+01 0.44729489419E+01
 0.43992594696E+01 0.43999989193E+01 0.44582480977E+01 0.45566760101E+01 0.46938255771E+01
 0.48914373745E+01 0.51819019251E+01 0.55834293985E+01 0.60784275777E+01 0.66291649739E+01
 0.63851475003E+01 0.65984609508E+01 0.66296207960E+01 0.64359877838E+01 0.60475696700E+01
 0.55644579381E+01 0.51013890024E+01 0.47309758911E+01 0.44729489419E+01 0.43205464308E+01
 0.42592185338E+01 0.42730929858E+01 0.43448824860E+01 0.44581812024E+01 0.46052511637E+01
 0.47919656380E+01 0.50322659039E+01 0.53346254822E+01 0.56889858139E+01 0.60594698427E+01
 0.60349998644E+01 0.61081469521E+01 0.60592768282E+01 0.58825818735E+01 0.55993665555E+01
 0.52572082305E+01 0.49145498438E+01 0.46198127487E+01 0.43992594696E+01 0.42592185338E+01
 0.41958705766E+01 0.42027367831E+01 0.42729580605E+01 0.43998187629E+01 0.45777533411E+01
 0.48017288886E+01 0.50631805343E+01 0.53453017008E+01 0.56222811490E+01 0.58629417490E+01
 0.61079924796E+01 0.60345413750E+01 0.58624031913E+01 0.56219021873E+01 0.53451706718E+01
 0.50632280727E+01 0.48018542379E+01 0.45779148516E+01 0.43999989193E+01 0.42730929858E+01
 0.42027367831E+01 0.41957173787E+01 0.42590091699E+01 0.43991339615E+01 0.46198523512E+01
 0.49147567438E+01 0.52575522199E+01 0.55997973870E+01 0.58829847620E+01 0.60594698427E+01
 0.65978349180E+01 0.63846155606E+01 0.60592691468E+01 0.56891459373E+01 0.53349556249E+01
 0.50325400251E+01 0.47921086219E+01 0.46053304570E+01 0.44582480977E+01 0.43448824860E+01
 0.42729580605E+01 0.42590091699E+01 0.43204474265E+01 0.44731111710E+01 0.47313834742E+01
 0.51018830229E+01 0.55648541981E+01 0.60477334629E+01 0.64358410315E+01 0.66291649739E+01
 0.75263925727E+01 0.71611832170E+01 0.66295821930E+01 0.60789978907E+01 0.55838010957E+01
 0.51819551951E+01 0.48913294449E+01 0.46937614133E+01 0.45566760101E+01 0.44581812024E+01
 0.43998187629E+01 0.43991339615E+01 0.44731111710E+01 0.46328809752E+01 0.48997927718E+01
 0.53157175113E+01 0.59056600378E+01 0.66030145216E+01 0.72263024050E+01 0.75678737846E+01
 0.86963655119E+01 0.82908371792E+01 0.75685837346E+01 0.67743633708E+01 0.60760813943E+01
 0.55281400276E+01 0.51214961633E+01 0.48541354761E+01 0.46938255771E+01 0.46052511637E+01
 0.45777533411E+01 0.46198523512E+01 0.47313834742E+01 0.48997927718E+01 0.51379477046E+01
 0.55200298901E+01 0.61525517489E+01 0.70332918946E+01 0.79533876383E+01 0.85852815196E+01
 0.95680347208E+01 0.93030161005E+01 0.85861048354E+01 0.76808830482E+01 0.67981221097E+01
 0.60620617583E+01 0.55109535716E+01 0.51217324707E+01 0.48914373745E+01 0.47919656380E+01
 0.48017288886E+01 0.49147567438E+01 0.51018830229E+01 0.53157175113E+01 0.55200298901E+01
 0.57866363141E+01 0.63075640528E+01 0.71983403481E+01 0.82959427593E+01 0.92042992358E+01
 0.98413133777E+01 0.97419571155E+01 0.92057328809E+01 0.84561882369E+01 0.76210500253E+01
 0.67854415194E+01 0.60624127804E+01 0.55284639072E+01 0.51819019251E+01 0.50322659039E+01
 0.50631805343E+01 0.52575522199E+01 0.55648541981E+01 0.59056600378E+01 0.61525517489E+01
 0.63075640528E+01 0.66073037339E+01 0.73057407012E+01 0.83482543576E+01 0.93348291340E+01
 0.98985055834E+01 0.97697778727E+01 0.93372634151E+01 0.88590466556E+01 0.83262884540E+01
 0.76211964619E+01 0.67984510481E+01 0.60761199354E+01 0.55834293985E+01 0.53346254822E+01
 0.53453017008E+01 0.55997973870E+01 0.60477334629E+01 0.66030145216E+01 0.70332918946E+01
 0.71983403481E+01 0.73057407012E+01 0.77356655206E+01 0.85792311262E+01 0.94611220644E+01
 0.10391955218E+02 0.10057521434E+02 0.94635260178E+01 0.90698352334E+01 0.88582971328E+01
 0.84557661884E+01 0.76806758948E+01 0.67739140928E+01 0.60784275777E+01 0.56889858139E+01
 0.56222811490E+01 0.58829847620E+01 0.64358410315E+01 0.72263024050E+01 0.79533876383E+01
 0.82959427593E+01 0.83482543576E+01 0.85792311262E+01 0.92603314519E+01 0.10063987455E+02
 0.11377767373E+02 0.10946719522E+02 0.10063987455E+02 0.94611220644E+01 0.93348291340E+01
 0.92042992358E+01 0.85852815196E+01 0.75678737846E+01 0.66291649739E+01 0.60594698427E+01
 0.58629417490E+01 0.60594698427E+01 0.66291649739E+01 0.75678737846E+01 0.85852815196E+01
 0.92042992358E+01 0.93348291340E+01 0.94611220644E+01 0.10063987455E+02 0.10946719522E+02
 0.11002489432E+02 0.10942562725E+02 0.10151031809E+02 0.92576905595E+01 0.88600746489E+01
 0.88636531018E+01 0.86856776815E+01 0.79956633383E+01 0.70465955641E+01 0.62853752484E+01
 0.58716196451E+01 0.58182234213E+01 0.61394379711E+01 0.68215798607E+01 0.78215572630E+01
 0.87769715173E+01 0.92965071976E+01 0.94560250400E+01 0.97398400895E+01 0.10391955218E+02
 0.10942562725E+02 0.11370240238E+02 0.10938822264E+02 0.10058577552E+02 0.94589566302E+01
 0.93347872883E+01 0.92050138049E+01 0.85861447981E+01 0.75687013417E+01 0.66296207960E+01
 0.60592768282E+01 0.58624031913E+01 0.60592691468E+01 0.66295821930E+01 0.75685837346E+01
 0.85861048354E+01 0.92057328809E+01 0.93372634151E+01 0.94635260178E+01 0.10063987455E+02
 0.10151031809E+02 0.10938822264E+02 0.10996065683E+02 0.10385457252E+02 0.97355628596E+01
 0.94545291355E+01 0.92967831445E+01 0.87776836336E+01 0.78220121503E+01 0.68217487837E+01
 0.61394868260E+01 0.58182416327E+01 0.58716447711E+01 0.62854252959E+01 0.70466724481E+01
 0.79959189558E+01 0.86866038651E+01 0.88657993033E+01 0.88632254229E+01 0.92603314519E+01
 0.92576905595E+01 0.10058577552E+02 0.10385457252E+02 0.10052423104E+02 0.94613757648E+01
 0.90703346803E+01 0.88599358028E+01 0.84571744576E+01 0.76813894088E+01 0.67741454872E+01
 0.60784823199E+01 0.56890040525E+01 0.56223109126E+01 0.58830478374E+01 0.64359345083E+01
 0.72265053521E+01 0.79539666504E+01 0.82970897901E+01 0.83494964598E+01 0.85792311262E+01
 0.88600746489E+01 0.94589566302E+01 0.97355628596E+01 0.94613757648E+01 0.88638131455E+01
 0.83518626634E+01 0.80501464560E+01 0.77296953986E+01 0.71749896623E+01 0.64720349859E+01
 0.58711436436E+01 0.54868025554E+01 0.53529798250E+01 0.54868462017E+01 0.58711868973E+01
 0.64719574028E+01 0.71745173377E+01 0.77283849070E+01 0.80476174037E+01 0.83482543576E+01
 0.88636531018E+01 0.93347872883E+01 0.94545291355E+01 0.90703346803E+01 0.83518626634E+01
 0.76604405987E+01 0.72008912486E+01 0.68740455499E+01 0.64833619500E+01 0.59992110782E+01
 0.55527299096E+01 0.52356893017E+01 0.50946454968E+01 0.51484634689E+01 0.54034396770E+01
 0.58424923569E+01 0.64422189700E+01 0.71100102688E+01 0.77280653823E+01 0.82959427593E+01
 0.86856776815E+01 0.92050138049E+01 0.92967831445E+01 0.88599358028E+01 0.80501464560E+01
 0.72008912486E+01 0.65654430272E+01 0.61527138634E+01 0.58224033512E+01 0.54907460028E+01
 0.51904723924E+01 0.49690408923E+01 0.48658842904E+01 0.48898046332E+01 0.50490190220E+01
 0.53633830552E+01 0.58266790787E+01 0.64422118111E+01 0.71743365927E+01 0.79533876383E+01
 0.79956633383E+01 0.85861447981E+01 0.87776836336E+01 0.84571744576E+01 0.77296953986E+01
 0.68740455499E+01 0.61527138634E+01 0.56544180561E+01 0.53148097037E+01 0.50541721366E+01
 0.48523290990E+01 0.47204513578E+01 0.46734461454E+01 0.47040652592E+01 0.48114884473E+01
 0.50209763034E+01 0.53633938134E+01 0.58425083635E+01 0.64719037612E+01 0.72263024050E+01
 0.70465955641E+01 0.75687013417E+01 0.78220121503E+01 0.76813894088E+01 0.71749896623E+01
 0.64833619500E+01 0.58224033512E+01 0.53148097037E+01 0.49652102842E+01 0.47310673329E+01
 0.45829737205E+01 0.45145100784E+01 0.45163356417E+01 0.45692990874E+01 0.46628699217E+01
 0.48114861755E+01 0.50490184185E+01 0.54034363621E+01 0.58711492441E+01 0.64358410315E+01
 0.62853752484E+01 0.66296207960E+01 0.68217487837E+01 0.67741454872E+01 0.64720349859E+01
 0.59992110782E+01 0.54907460028E+01 0.50541721366E+01 0.47310673329E+01 0.45171559802E+01
 0.43993431964E+01 0.43639257452E+01 0.43932352558E+01 0.44665094273E+01 0.45692983243E+01
 0.47040661175E+01 0.48898031577E+01 0.51484515395E+01 0.54868098343E+01 0.58829847620E+01
 0.58716196451E+01 0.60592768282E+01 0.61394868260E+01 0.60784823199E+01 0.58711436436E+01
 0.55527299096E+01 0.51904723924E+01 0.48523290990E+01 0.45829737205E+01 0.43993431964E+01
 0.42992739710E+01 0.42730247883E+01 0.43085996487E+01 0.43932236329E+01 0.45163352434E+01
 0.46734619393E+01 0.48659040519E+01 0.50946531592E+01 0.53529665068E+01 0.56222811490E+01
 0.58182234213E+01 0.58624031913E+01 0.58182416327E+01 0.56890040525E+01 0.54868025554E+01
 0.52356893017E+01 0.49690408923E+01 0.47204513578E+01 0.45145100784E+01 0.43639257452E+01
 0.42730247883E+01 0.42426801049E+01 0.42729970068E+01 0.43639040845E+01 0.45145288702E+01
 0.47205125449E+01 0.49691129773E+01 0.52357358603E+01 0.54868098343E+01 0.56889858139E+01
 0.61394379711E+01 0.60592691468E+01 0.58716447711E+01 0.56223109126E+01 0.53529798250E+01
 0.50946454968E+01 0.48658842904E+01 0.46734461454E+01 0.45163356417E+01 0.43932352558E+01
 0.43085996487E+01 0.42729970068E+01 0.42992397130E+01 0.43993593679E+01 0.45830860217E+01
 0.48525208614E+01 0.51906649824E+01 0.55528407106E+01 0.58711492441E+01 0.60784275777E+01
 0.68215798607E+01 0.66295821930E+01 0.62854252959E+01 0.58830478374E+01 0.54868462017E+01
 0.51484634689E+01 0.48898046332E+01 0.47040652592E+01 0.45692990874E+01 0.44665094273E+01
 0.43932236329E+01 0.43639040845E+01 0.43993593679E+01 0.45172957075E+01 0.47313778026E+01
 0.50545821620E+01 0.54910807978E+01 0.59993171561E+01 0.64719037612E+01 0.67739140928E+01
 0.78215572630E+01 0.75685837346E+01 0.70466724481E+01 0.64359345083E+01 0.58711868973E+01
 0.54034396770E+01 0.50490190220E+01 0.48114884473E+01 0.46628699217E+01 0.45692983243E+01
 0.45163352434E+01 0.45145288702E+01 0.45830860217E+01 0.47313778026E+01 0.49657313705E+01
 0.53153537427E+01 0.58226532133E+01 0.64831115053E+01 0.71743365927E+01 0.76806758948E+01
 0.87769715173E+01 0.85861048354E+01 0.79959189558E+01 0.72265053521E+01 0.64719574028E+01
 0.58424923569E+01 0.53633830552E+01 0.50209763034E+01 0.48114861755E+01 0.47040661175E+01
 0.46734619393E+01 0.47205125449E+01 0.48525208614E+01 0.50545821620E+01 0.53153537427E+01
 0.56547368834E+01 0.61523576559E+01 0.68728654276E+01 0.77280653823E+01 0.84557661884E+01
 0.92965071976E+01 0.92057328809E+01 0.86866038651E+01 0.79539666504E+01 0.71745173377E+01
 0.64422189700E+01 0.58266790787E+01 0.53633938134E+01 0.50490184185E+01 0.48898031577E+01
 0.48659040519E+01 0.49691129773E+01 0.51906649824E+01 0.54910807978E+01 0.58226532133E+01
 0.61523576559E+01 0.65640131849E+01 0.71984984136E+01 0.80476174037E+01 0.88582971328E+01
 0.94560250400E+01 0.93372634151E+01 0.88657993033E+01 0.82970897901E+01 0.77283849070E+01
 0.71100102688E+01 0.64422118111E+01 0.58425083635E+01 0.54034363621E+01 0.51484515395E+01
 0.50946531592E+01 0.52357358603E+01 0.55528407106E+01 0.59993171561E+01 0.64831115053E+01
 0.68728654276E+01 0.71984984136E+01 0.76574004336E+01 0.83494964598E+01 0.90698352334E+01
 0.97398400895E+01 0.94635260178E+01 0.88632254229E+01 0.83494964598E+01 0.80476174037E+01
 0.77280653823E+01 0.71743365927E+01 0.64719037612E+01 0.58711492441E+01 0.54868098343E+01
 0.53529665068E+01 0.54868098343E+01 0.58711492441E+01 0.64719037612E+01 0.71743365927E+01
 0.77280653823E+01 0.80476174037E+01 0.83494964598E+01 0.88632254229E+01 0.94635260178E+01
 0.10391955218E+02 0.10063987455E+02 0.92603314519E+01 0.85792311262E+01 0.83482543576E+01
 0.82959427593E+01 0.79533876383E+01 0.72263024050E+01 0.64358410315E+01 0.58829847620E+01
 0.56222811490E+01 0.56889858139E+01 0.60784275777E+01 0.67739140928E+01 0.76806758948E+01
 0.84557661884E+01 0.88582971328E+01 0.90698352334E+01 0.94635260178E+01 0.10057521434E+02
 0.10233190374E+02 0.10052203124E+02 0.92576905595E+01 0.82976449096E+01 0.77356635878E+01
 0.76573151645E+01 0.76391032608E+01 0.72833623091E+01 0.66334953760E+01 0.60151533987E+01
 0.56206207937E+01 0.54978567181E+01 0.56802745340E+01 0.61562488065E+01 0.69183860594E+01
 0.78368683653E+01 0.86058580329E+01 0.90861838152E+01 0.94560250400E+01 0.98985055834E+01
 0.10052203124E+02 0.10385289664E+02 0.10058577552E+02 0.92578117205E+01 0.85793327266E+01
 0.83496243947E+01 0.82974772867E+01 0.79546541980E+01 0.72271080674E+01 0.64359877838E+01
 0.58825818735E+01 0.56219021873E+01 0.56891459373E+01 0.60789978907E+01 0.67743633708E+01
 0.76808830482E+01 0.84561882369E+01 0.88590466556E+01 0.90698352334E+01 0.94611220644E+01
 0.92576905595E+01 0.10058577552E+02 0.10385457252E+02 0.10052423104E+02 0.94613757648E+01
 0.90703346803E+01 0.88599358028E+01 0.84571744576E+01 0.76813894088E+01 0.67741454872E+01
 0.60784823199E+01 0.56890040525E+01 0.56223109126E+01 0.58830478374E+01 0.64359345083E+01
 0.72265053521E+01 0.79539666504E+01 0.82970897901E+01 0.83494964598E+01 0.85792311262E+01
 0.82976449096E+01 0.92578117205E+01 0.10052423104E+02 0.10233498924E+02 0.98991126942E+01
 0.94571676615E+01 0.90876781757E+01 0.86070421592E+01 0.78371832363E+01 0.69179822751E+01
 0.61558543100E+01 0.56804170727E+01 0.54983346790E+01 0.56208248300E+01 0.60148060724E+01
 0.66329161586E+01 0.72830201985E+01 0.76390969144E+01 0.76574004336E+01 0.77356655206E+01
 0.77356635878E+01 0.85793327266E+01 0.94613757648E+01 0.98991126942E+01 0.97710413510E+01
 0.93391486305E+01 0.88609091235E+01 0.83272926002E+01 0.76211025982E+01 0.67978672017E+01
 0.60758646364E+01 0.55837091390E+01 0.53349551367E+01 0.53451924885E+01 0.55993358889E+01
 0.60473998358E+01 0.66030743585E+01 0.70335553767E+01 0.71984984136E+01 0.73057407012E+01
 0.76573151645E+01 0.83496243947E+01 0.90703346803E+01 0.94571676615E+01 0.93391486305E+01
 0.88679534056E+01 0.82985955214E+01 0.77286304623E+01 0.71092922634E+01 0.64414517500E+01
 0.58423442383E+01 0.54036979758E+01 0.51485613932E+01 0.50943902399E+01 0.52354353966E+01
 0.55528894259E+01 0.59996657560E+01 0.64833929922E+01 0.68728654276E+01 0.71983403481E+01
 0.76391032608E+01 0.82974772867E+01 0.88599358028E+01 0.90876781757E+01 0.88609091235E+01
 0.82985955214E+01 0.76394895963E+01 0.70327601692E+01 0.64821633101E+01 0.59629028687E+01
 0.55108448400E+01 0.51673273780E+01 0.49558441142E+01 0.48876487605E+01 0.49558478692E+01
 0.51674191351E+01 0.55112098627E+01 0.59636694426E+01 0.64831115053E+01 0.70332918946E+01
 0.72833623091E+01 0.79546541980E+01 0.84571744576E+01 0.86070421592E+01 0.83272926002E+01
 0.77286304623E+01 0.70327601692E+01 0.64103809083E+01 0.59042892375E+01 0.54905856762E+01
 0.51600866432E+01 0.49160035892E+01 0.47729923828E+01 0.47272600742E+01 0.47651507537E+01
 0.48957572240E+01 0.51434936734E+01 0.55109043827E+01 0.59993171561E+01 0.66030145216E+01
 0.66334953760E+01 0.72271080674E+01 0.76813894088E+01 0.78371832363E+01 0.76211025982E+01
 0.71092922634E+01 0.64821633101E+01 0.59042892375E+01 0.54454212967E+01 0.51014523168E+01
 0.48524785881E+01 0.46897480154E+01 0.46129777213E+01 0.46042333553E+01 0.46432379736E+01
 0.47313167122E+01 0.48955461167E+01 0.51671345596E+01 0.55528407106E+01 0.60477334629E+01
 0.60151533987E+01 0.64359877838E+01 0.67741454872E+01 0.69179822751E+01 0.67978672017E+01
 0.64414517500E+01 0.59629028687E+01 0.54905856762E+01 0.51014523168E+01 0.48137888230E+01
 0.46200579943E+01 0.45145168844E+01 0.44844262675E+01 0.45076834313E+01 0.45626325598E+01
 0.46431758715E+01 0.47650417192E+01 0.49558756302E+01 0.52357358603E+01 0.55997973870E+01
 0.56206207937E+01 0.58825818735E+01 0.60784823199E+01 0.61558543100E+01 0.60758646364E+01
 0.58423442383E+01 0.55108448400E+01 0.51600866432E+01 0.48524785881E+01 0.46200579943E+01
 0.44712557483E+01 0.43999583158E+01 0.43932566440E+01 0.44345415826E+01 0.45077272065E+01
 0.46042820526E+01 0.47273592091E+01 0.48878623446E+01 0.50946531592E+01 0.53453017008E+01
 0.54978567181E+01 0.56219021873E+01 0.56890040525E+01 0.56804170727E+01 0.55837091390E+01
 0.54036979758E+01 0.51673273780E+01 0.49160035892E+01 0.46897480154E+01 0.45145168844E+01
 0.43999583158E+01 0.43451234680E+01 0.43449111980E+01 0.43933289076E+01 0.44845191151E+01
 0.46130593408E+01 0.47730650666E+01 0.49558756302E+01 0.51484515395E+01 0.53346254822E+01
 0.56802745340E+01 0.56891459373E+01 0.56223109126E+01 0.54983346790E+01 0.53349551367E+01
 0.51485613932E+01 0.49558441142E+01 0.47729923828E+01 0.46129777213E+01 0.44844262675E+01
 0.43932566440E+01 0.43449111980E+01 0.43451931526E+01 0.44000232361E+01 0.45145045287E+01
 0.46896535818E+01 0.49158595275E+01 0.51671345596E+01 0.54034363621E+01 0.55834293985E+01
 0.61562488065E+01 0.60789978907E+01 0.58830478374E+01 0.56208248300E+01 0.53451924885E+01
 0.50943902399E+01 0.48876487605E+01 0.47272600742E+01 0.46042333553E+01 0.45076834313E+01
 0.44345415826E+01 0.43933289076E+01 0.44000232361E+01 0.44711882803E+01 0.46198424427E+01
 0.48522470078E+01 0.51599860173E+01 0.55109043827E+01 0.58425083635E+01 0.60761199354E+01
 0.69183860594E+01 0.67743633708E+01 0.64359345083E+01 0.60148060724E+01 0.55993358889E+01
 0.52354353966E+01 0.49558478692E+01 0.47651507537E+01 0.46432379736E+01 0.45626325598E+01
 0.45077272065E+01 0.44845191151E+01 0.45145045287E+01 0.46198424427E+01 0.48135343079E+01
 0.51014822207E+01 0.54910621069E+01 0.59636694426E+01 0.64422118111E+01 0.67984510481E+01
 0.78368683653E+01 0.76808830482E+01 0.72265053521E+01 0.66329161586E+01 0.60473998358E+01
 0.55528894259E+01 0.51674191351E+01 0.48957572240E+01 0.47313167122E+01 0.46431758715E+01
 0.46042820526E+01 0.46130593408E+01 0.46896535818E+01 0.48522470078E+01 0.51014822207E+01
 0.54460923765E+01 0.59055105097E+01 0.64833929922E+01 0.71100102688E+01 0.76211964619E+01
 0.86058580329E+01 0.84561882369E+01 0.79539666504E+01 0.72830201985E+01 0.66030743585E+01
 0.59996657560E+01 0.55112098627E+01 0.51434936734E+01 0.48955461167E+01 0.47650417192E+01
 0.47273592091E+01 0.47730650666E+01 0.49158595275E+01 0.51599860173E+01 0.54910621069E+01
 0.59055105097E+01 0.64118080494E+01 0.70335553767E+01 0.77283849070E+01 0.83262884540E+01
 0.90861838152E+01 0.88590466556E+01 0.82970897901E+01 0.76390969144E+01 0.70335553767E+01
 0.64833929922E+01 0.59636694426E+01 0.55109043827E+01 0.51671345596E+01 0.49558756302E+01
 0.48878623446E+01 0.49558756302E+01 0.51671345596E+01 0.55109043827E+01 0.59636694426E+01
 0.64833929922E+01 0.70335553767E+01 0.76390969144E+01 0.82970897901E+01 0.88590466556E+01
 0.94560250400E+01 0.90698352334E+01 0.83494964598E+01 0.76574004336E+01 0.71984984136E+01
 0.68728654276E+01 0.64831115053E+01 0.59993171561E+01 0.55528407106E+01 0.52357358603E+01
 0.50946531592E+01 0.51484515395E+01 0.54034363621E+01 0.58425083635E+01 0.64422118111E+01
 0.71100102688E+01 0.77283849070E+01 0.82970897901E+01 0.88657993033E+01 0.93372634151E+01
 0.98985055834E+01 0.94611220644E+01 0.85792311262E+01 0.77356655206E+01 0.73057407012E+01
 0.71983403481E+01 0.70332918946E+01 0.66030145216E+01 0.60477334629E+01 0.55997973870E+01
 0.53453017008E+01 0.53346254822E+01 0.55834293985E+01 0.60761199354E+01 0.67984510481E+01
 0.76211964619E+01 0.83262884540E+01 0.88590466556E+01 0.93372634151E+01 0.97697778727E+01
 0.10081572478E+02 0.97658687848E+01 0.88600746489E+01 0.77356635878E+01 0.69154575355E+01
 0.66080586721E+01 0.65647769220E+01 0.64123010847E+01 0.60428587884E+01 0.56243108674E+01
 0.53155235863E+01 0.51874356829E+01 0.52787705903E+01 0.56042322940E+01 0.61519296909E+01
 0.69191218524E+01 0.77923035244E+01 0.86058580329E+01 0.92965071976E+01 0.98413133777E+01
 0.97658687848E+01 0.98946340337E+01 0.94589566302E+01 0.85793327266E+01 0.77373332613E+01
 0.73078671750E+01 0.72001876511E+01 0.70345474521E+01 0.66035349270E+01 0.60475696700E+01