   1   1   0   0
  0.1418631E+02  0.2641378E-09  0.2641378E-09  0.2641378E-09  0.5000000E-15
  1.000000000000000E-004
  CAR 
 BCC W                                   
     33.01823530     -2.74964418  301      8.96151707      1.00000000
     -2.750  0.0000E+00  0.0000E+00
     -2.630  0.0000E+00  0.0000E+00
     -2.511  0.0000E+00  0.0000E+00
     -2.392 -0.1210E-29 -0.1443E-30
     -2.273 -0.1405E-25 -0.1676E-26
     -2.154 -0.7966E-22 -0.9499E-23
     -2.034 -0.2202E-18 -0.2626E-19
     -1.915 -0.2853E-15 -0.3404E-16
     -1.796 -0.1869E-12 -0.2232E-13
     -1.677 -0.5865E-10 -0.7015E-11
     -1.557 -0.8833E-08 -0.1060E-08
     -1.438 -0.6314E-06 -0.7634E-07
     -1.319 -0.2098E-04 -0.2577E-05
     -1.200 -0.3088E-03 -0.3939E-04
     -1.080 -0.1741E-02 -0.2470E-03
     -0.961 -0.9629E-03 -0.3618E-03
     -0.842  0.1828E-01  0.1817E-02
     -0.723  0.4618E-01  0.7324E-02
     -0.604  0.3440E-01  0.1142E-01
     -0.484  0.3495E-02  0.1184E-01
     -0.365  0.1113E-01  0.1317E-01
     -0.246  0.5264E-01  0.1944E-01
     -0.127  0.5366E-01  0.2584E-01
     -0.007  0.8612E-02  0.2687E-01
      0.112  0.3093E-01  0.3056E-01
      0.231  0.1521E+00  0.4870E-01
      0.350  0.1797E+00  0.7012E-01
      0.469  0.6261E-01  0.7759E-01
      0.589 -0.6418E-02  0.7682E-01
      0.708 -0.1035E-01  0.7559E-01
      0.827 -0.1173E-01  0.7419E-01
      0.946  0.2664E-01  0.7736E-01
      1.066  0.1571E+00  0.9609E-01
      1.185  0.2159E+00  0.1218E+00
      1.304  0.1060E+00  0.1345E+00
      1.423  0.7748E-01  0.1437E+00
      1.543  0.2024E+00  0.1678E+00
      1.662  0.2764E+00  0.2008E+00
      1.781  0.2087E+00  0.2257E+00
      1.900  0.5996E-01  0.2328E+00
      2.019 -0.3251E-01  0.2290E+00
      2.139  0.7994E-02  0.2299E+00
      2.258  0.2896E+00  0.2644E+00
      2.377  0.6971E+00  0.3475E+00
      2.496  0.8711E+00  0.4514E+00
      2.616  0.7505E+00  0.5409E+00
      2.735  0.6567E+00  0.6192E+00
      2.854  0.7917E+00  0.7136E+00
      2.973  0.8480E+00  0.8147E+00
      3.092  0.6723E+00  0.8948E+00
      3.212  0.6210E+00  0.9689E+00
      3.331  0.9193E+00  0.1078E+01
      3.450  0.8841E+00  0.1184E+01
      3.569  0.6183E+00  0.1258E+01
      3.689  0.8997E+00  0.1365E+01
      3.808  0.1217E+01  0.1510E+01
      3.927  0.1251E+01  0.1659E+01
      4.046  0.1168E+01  0.1798E+01
      4.165  0.9789E+00  0.1915E+01
      4.285  0.6427E+00  0.1992E+01
      4.404  0.3440E+00  0.2033E+01
      4.523  0.2532E+00  0.2063E+01
      4.642  0.2785E+00  0.2096E+01
      4.762  0.5090E+00  0.2157E+01
      4.881  0.7676E+00  0.2248E+01
      5.000  0.8219E+00  0.2346E+01
      5.119  0.9580E+00  0.2461E+01
      5.239  0.1011E+01  0.2581E+01
      5.358  0.1205E+01  0.2725E+01
      5.477  0.1873E+01  0.2948E+01
      5.596  0.1997E+01  0.3186E+01
      5.715  0.1307E+01  0.3342E+01
      5.835  0.7601E+00  0.3433E+01
      5.954  0.9206E+00  0.3542E+01
      6.073  0.1016E+01  0.3664E+01
      6.192  0.7467E+00  0.3753E+01
      6.312  0.7063E+00  0.3837E+01
      6.431  0.6966E+00  0.3920E+01
      6.550  0.9305E+00  0.4031E+01
      6.669  0.1512E+01  0.4211E+01
      6.788  0.1846E+01  0.4431E+01
      6.908  0.1795E+01  0.4645E+01
      7.027  0.1614E+01  0.4838E+01
      7.146  0.1344E+01  0.4998E+01
      7.265  0.8344E+00  0.5097E+01
      7.385  0.4021E+00  0.5145E+01
      7.504  0.4971E+00  0.5204E+01
      7.623  0.8499E+00  0.5306E+01
      7.742  0.8153E+00  0.5403E+01
      7.861  0.3995E+00  0.5451E+01
      7.981  0.3097E-01  0.5454E+01
      8.100  0.2913E-01  0.5458E+01
      8.219  0.4889E+00  0.5516E+01
      8.338  0.8713E+00  0.5620E+01
      8.458  0.7910E+00  0.5714E+01
      8.577  0.7730E+00  0.5806E+01
      8.696  0.7479E+00  0.5896E+01
      8.815  0.5537E+00  0.5962E+01
      8.935  0.2901E+00  0.5996E+01
      9.054  0.1078E+00  0.6009E+01
      9.173  0.1721E+00  0.6030E+01
      9.292  0.3967E+00  0.6077E+01
      9.411  0.5758E+00  0.6146E+01
      9.531  0.3907E+00  0.6192E+01
      9.650  0.2052E+00  0.6217E+01
      9.769  0.3396E+00  0.6257E+01
      9.888  0.7003E+00  0.6341E+01
     10.008  0.1032E+01  0.6464E+01
     10.127  0.8818E+00  0.6569E+01
     10.246  0.6107E+00  0.6642E+01
     10.365  0.7599E+00  0.6732E+01
     10.484  0.7893E+00  0.6826E+01
     10.604  0.4990E+00  0.6886E+01
     10.723  0.5155E+00  0.6947E+01
     10.842  0.9178E+00  0.7057E+01
     10.961  0.1101E+01  0.7188E+01
     11.081  0.1072E+01  0.7316E+01
     11.200  0.1086E+01  0.7445E+01
     11.319  0.1064E+01  0.7572E+01
     11.438  0.1011E+01  0.7693E+01
     11.558  0.9440E+00  0.7805E+01
     11.677  0.1047E+01  0.7930E+01
     11.796  0.1020E+01  0.8052E+01
     11.915  0.7271E+00  0.8138E+01
     12.034  0.8058E+00  0.8234E+01
     12.154  0.1040E+01  0.8358E+01
     12.273  0.8635E+00  0.8461E+01
     12.392  0.8402E+00  0.8562E+01
     12.511  0.1383E+01  0.8726E+01
     12.631  0.1806E+01  0.8942E+01
     12.750  0.1909E+01  0.9169E+01
     12.869  0.1753E+01  0.9378E+01
     12.988  0.1535E+01  0.9561E+01
     13.107  0.1764E+01  0.9772E+01
     13.227  0.1591E+01  0.9961E+01
     13.346  0.9115E+00  0.1007E+02
     13.465  0.6470E+00  0.1015E+02
     13.584  0.6594E+00  0.1023E+02
     13.704  0.3739E+00  0.1027E+02
     13.823  0.2419E+00  0.1030E+02
     13.942  0.4166E+00  0.1035E+02
     14.061  0.3865E+00  0.1040E+02
     14.180  0.1898E+00  0.1042E+02
     14.300  0.1281E+00  0.1043E+02
     14.419  0.2445E+00  0.1046E+02
     14.538  0.3059E+00  0.1050E+02
     14.657  0.2178E+00  0.1052E+02
     14.777  0.1621E+00  0.1054E+02
     14.896  0.2156E+00  0.1057E+02
     15.015  0.1507E+00  0.1059E+02
     15.134  0.1032E+00  0.1060E+02
     15.254  0.2726E+00  0.1063E+02
     15.373  0.3111E+00  0.1067E+02
     15.492  0.2846E+00  0.1070E+02
     15.611  0.6766E+00  0.1078E+02
     15.730  0.1052E+01  0.1091E+02
     15.850  0.8865E+00  0.1102E+02
     15.969  0.4993E+00  0.1107E+02
     16.088  0.2968E+00  0.1111E+02
     16.207  0.3543E+00  0.1115E+02
     16.327  0.3164E+00  0.1119E+02
     16.446  0.2282E+00  0.1122E+02
     16.565  0.2232E+00  0.1124E+02
     16.684  0.2003E+00  0.1127E+02
     16.803  0.1123E+00  0.1128E+02
     16.923  0.1138E+00  0.1129E+02
     17.042  0.2426E+00  0.1132E+02
     17.161  0.3275E+00  0.1136E+02
     17.280  0.2616E+00  0.1139E+02
     17.400  0.9731E-01  0.1141E+02
     17.519 -0.4355E-02  0.1140E+02
     17.638 -0.9038E-02  0.1140E+02
     17.757  0.9205E-02  0.1140E+02
     17.876  0.8778E-01  0.1142E+02
     17.996  0.3868E+00  0.1146E+02
     18.115  0.5633E+00  0.1153E+02
     18.234  0.2934E+00  0.1156E+02
     18.353  0.1218E+00  0.1158E+02
     18.473  0.1443E+00  0.1160E+02
     18.592  0.2444E+00  0.1162E+02
     18.711  0.5934E+00  0.1170E+02
     18.830  0.8352E+00  0.1179E+02
     18.950  0.5979E+00  0.1187E+02
     19.069  0.1904E+00  0.1189E+02
     19.188 -0.6451E-02  0.1189E+02
     19.307 -0.1135E-01  0.1189E+02
     19.426  0.1764E+00  0.1191E+02
     19.546  0.3758E+00  0.1195E+02
     19.665  0.2364E+00  0.1198E+02
     19.784  0.5736E-01  0.1199E+02
     19.903  0.1936E+00  0.1201E+02
     20.023  0.3387E+00  0.1205E+02
     20.142  0.2186E+00  0.1208E+02
     20.261  0.1890E+00  0.1210E+02
     20.380  0.4866E+00  0.1216E+02
     20.499  0.7713E+00  0.1225E+02
     20.619  0.8447E+00  0.1235E+02
     20.738  0.9340E+00  0.1246E+02
     20.857  0.6868E+00  0.1254E+02
     20.976  0.2389E+00  0.1257E+02
     21.096  0.1482E+00  0.1259E+02
     21.215  0.2041E+00  0.1261E+02
     21.334  0.2020E+00  0.1264E+02
     21.453  0.1362E+00  0.1265E+02
     21.573  0.1679E+00  0.1267E+02
     21.692  0.2924E+00  0.1271E+02
     21.811  0.2542E+00  0.1274E+02
     21.930  0.2242E+00  0.1277E+02
     22.049  0.4109E+00  0.1282E+02
     22.169  0.5420E+00  0.1288E+02
     22.288  0.3387E+00  0.1292E+02
     22.407  0.2167E+00  0.1295E+02
     22.526  0.4705E+00  0.1300E+02
     22.646  0.7258E+00  0.1309E+02
     22.765  0.8106E+00  0.1319E+02
     22.884  0.6948E+00  0.1327E+02
     23.003  0.5104E+00  0.1333E+02
     23.122  0.7458E+00  0.1342E+02
     23.242  0.1287E+01  0.1357E+02
     23.361  0.1287E+01  0.1372E+02
     23.480  0.7608E+00  0.1382E+02
     23.599  0.4891E+00  0.1387E+02
     23.719  0.3314E+00  0.1391E+02
     23.838  0.5208E-01  0.1392E+02
     23.957 -0.2735E-01  0.1392E+02
     24.076  0.3169E+00  0.1395E+02
     24.195  0.8405E+00  0.1405E+02
     24.315  0.7214E+00  0.1414E+02
     24.434  0.2005E+00  0.1416E+02
     24.553  0.2621E+00  0.1420E+02
     24.672  0.8168E+00  0.1429E+02
     24.792  0.9473E+00  0.1441E+02
     24.911  0.5375E+00  0.1447E+02
     25.030  0.6423E+00  0.1455E+02
     25.149  0.1206E+01  0.1469E+02
     25.269  0.1338E+01  0.1485E+02
     25.388  0.9021E+00  0.1496E+02
     25.507  0.3861E+00  0.1500E+02
     25.626  0.1137E+00  0.1502E+02
     25.745  0.4812E-01  0.1502E+02
     25.865  0.2496E+00  0.1505E+02
     25.984  0.5651E+00  0.1512E+02
     26.103  0.5244E+00  0.1518E+02
     26.222  0.2731E+00  0.1522E+02
     26.342  0.1326E+00  0.1523E+02
     26.461  0.1323E+00  0.1525E+02
     26.580  0.1841E+00  0.1527E+02
     26.699  0.1507E+00  0.1529E+02
     26.818  0.3349E+00  0.1533E+02
     26.938  0.7874E+00  0.1542E+02
     27.057  0.7346E+00  0.1551E+02
     27.176  0.3177E+00  0.1555E+02
     27.295  0.3846E+00  0.1559E+02
     27.415  0.5723E+00  0.1566E+02
     27.534  0.4120E+00  0.1571E+02
     27.653  0.2473E+00  0.1574E+02
     27.772  0.2974E+00  0.1577E+02
     27.892  0.3204E+00  0.1581E+02
     28.011  0.1549E+00  0.1583E+02
     28.130  0.4255E-01  0.1584E+02
     28.249  0.1527E+00  0.1585E+02
     28.368  0.2270E+00  0.1588E+02
     28.488  0.1038E+00  0.1589E+02
     28.607 -0.3193E-04  0.1589E+02
     28.726 -0.1005E-01  0.1589E+02
     28.845 -0.7092E-02  0.1589E+02
     28.965 -0.8856E-02  0.1589E+02
     29.084  0.4253E-01  0.1590E+02
     29.203  0.1577E+00  0.1591E+02
     29.322  0.1913E+00  0.1594E+02
     29.441  0.1863E+00  0.1596E+02
     29.561  0.1800E+00  0.1598E+02
     29.680  0.7397E-01  0.1599E+02
     29.799 -0.3146E-02  0.1599E+02
     29.918 -0.7387E-02  0.1599E+02
     30.038 -0.1378E-02  0.1599E+02
     30.157 -0.9760E-04  0.1599E+02
     30.276 -0.3154E-05  0.1599E+02
     30.395 -0.4816E-05  0.1599E+02
     30.514 -0.1023E-03  0.1599E+02
     30.634 -0.9177E-03  0.1599E+02
     30.753 -0.2405E-02  0.1599E+02
     30.872  0.6446E-02  0.1599E+02
     30.991  0.3599E-01  0.1599E+02
     31.111  0.4639E-01  0.1600E+02
     31.230  0.1829E-01  0.1600E+02
     31.349 -0.9626E-03  0.1600E+02
     31.468 -0.1741E-02  0.1600E+02
     31.588 -0.3088E-03  0.1600E+02
     31.707 -0.2098E-04  0.1600E+02
     31.826 -0.6314E-06  0.1600E+02
     31.945 -0.8833E-08  0.1600E+02
     32.064 -0.5865E-10  0.1600E+02
     32.184 -0.1869E-12  0.1600E+02
     32.303 -0.2905E-15  0.1600E+02
     32.422  0.0000E+00  0.1600E+02
     32.541  0.0000E+00  0.1600E+02
     32.661  0.0000E+00  0.1600E+02
     32.780  0.0000E+00  0.1600E+02
     32.899  0.0000E+00  0.1600E+02
     33.018  0.0000E+00  0.1600E+02
