    1    1    1    1
  0.1418631E+02  0.2641377E-09  0.2641377E-09  0.2641377E-09  0.5000000E-15
  1.000000000000000E-004
  CAR 
 BCC W                                   
      6     44      8
 
  0.5000000E-01  0.5000000E-01  0.5000000E-01  0.8000000E-02
    1       -0.238443   1.000000
    2        7.258221   1.000000
    3        7.258221   1.000000
    4        8.641600   1.023085
    5       11.303031  -0.000000
    6       11.303031  -0.000000
    7       25.219520   0.000000
    8       26.411327   0.000000
 
  0.1500000E+00  0.5000000E-01  0.5000000E-01  0.2400000E-01
    1        1.087883   1.000000
    2        6.458187   1.000000
    3        6.781496   1.000000
    4       10.369544  -0.000000
    5       10.926192  -0.000000
    6       11.631295  -0.000000
    7       25.966070   0.000000
    8       27.851314   0.000000
 
  0.2500000E+00  0.5000000E-01  0.5000000E-01  0.2400000E-01
    1        2.337034   1.000000
    2        5.676771   1.000000
    3        6.889051   1.000000
    4       11.208224  -0.000000
    5       12.030112  -0.000000
    6       12.881279  -0.000000
    7       24.549798   0.000000
    8       26.185743   0.000000
 
  0.3500000E+00  0.5000000E-01  0.5000000E-01  0.2400000E-01
    1        2.505144   1.000000
    2        5.142817   1.000000
    3        8.579756   1.010613
    4       11.675311  -0.000000
    5       12.473079  -0.000000
    6       15.542234   0.000000
    7       22.595533   0.000000
    8       23.085094   0.000000
 
  0.4500000E+00  0.5000000E-01  0.5000000E-01  0.1200000E-01
    1        2.396033   1.000000
    2        4.955158   1.000000
    3        9.940500  -0.000000
    4       11.669486  -0.000000
    5       12.691055  -0.000000
    6       16.916466   0.000000
    7       21.603842   0.000000
    8       21.792548   0.000000
 
 -0.5000000E-01  0.5000000E-01  0.5000000E-01  0.6000000E-02
    1       -0.749644   1.000000
    2        7.635146   1.000000
    3        7.635194   1.000000
    4        7.790982   1.000000
    5       11.132504  -0.000000
    6       11.735974  -0.000000
    7       25.206270   0.000000
    8       25.206277   0.000000
 
  0.1500000E+00  0.1500000E+00  0.5000000E-01  0.2400000E-01
    1        2.509537   1.000000
    2        5.936670   1.000000
    3        6.010838   1.000000
    4       11.014514  -0.000000
    5       12.089997  -0.000000
    6       12.849983  -0.000000
    7       25.979539   0.000000
    8       26.922684   0.000000
 
  0.2500000E+00  0.1500000E+00  0.5000000E-01  0.4800000E-01
    1        3.379852   1.000000
    2        5.378195   1.000000
    3        6.631601   1.000000
    4       11.404738  -0.000000
    5       12.527487  -0.000000
    6       15.721722   0.000000
    7       23.347424   0.000000
    8       25.040714   0.000000
 
  0.3500000E+00  0.1500000E+00  0.5000000E-01  0.4800000E-01
    1        3.286996   1.000000
    2        5.115098   1.000000
    3        8.250925   1.000003
    4       11.768545  -0.000000
    5       12.805616  -0.000000
    6       18.037557   0.000000
    7       20.702176   0.000000
    8       23.235140   0.000000
 
 -0.1500000E+00  0.1500000E+00  0.5000000E-01  0.2400000E-01
    1        0.247516   1.000000
    2        7.092627   1.000000
    3        7.432795   1.000000
    4        8.818162   0.965594
    5       10.311739  -0.000000
    6       11.967158  -0.000000
    7       25.941956   0.000000
    8       26.965587   0.000000
 
  0.2500000E+00  0.2500000E+00  0.5000000E-01  0.2400000E-01
    1        4.027158   1.000000
    2        5.532701   1.000000
    3        6.794541   1.000000
    4       11.796841  -0.000000
    5       12.706444  -0.000000
    6       18.668875   0.000000
    7       20.425851   0.000000
    8       24.647571   0.000000
 
  0.3500000E+00  0.2500000E+00  0.5000000E-01  0.2400000E-01
    1        4.078751   1.000000
    2        5.689257   1.000000
    3        7.137019   1.000000
    4       12.123457  -0.000000
    5       12.749661  -0.000000
    6       18.763180   0.000000
    7       20.525363   0.000000
    8       23.233243   0.000000
 
 -0.2500000E+00  0.2500000E+00  0.5000000E-01  0.2400000E-01
    1        1.692391   1.000000
    2        6.267323   1.000000
    3        7.018576   1.000000
    4       10.378545  -0.000000
    5       10.847305  -0.000000
    6       12.219493  -0.000000
    7       25.285492   0.000000
    8       27.705803   0.000000
 
 -0.1500000E+00  0.2500000E+00  0.5000000E-01  0.2400000E-01
    1        1.510804   1.000000
    2        6.800369   1.000000
    3        6.858658   1.000000
    4        9.648051  -0.000007
    5       10.261614  -0.000000
    6       12.475747  -0.000000
    7       26.558582   0.000000
    8       27.262051   0.000000
 
 -0.3500000E+00  0.3500000E+00  0.5000000E-01  0.2400000E-01
    1        2.367569   1.000000
    2        5.553286   1.000000
    3        7.757485   1.000000
    4       11.139422  -0.000000
    5       12.542072  -0.000000
    6       13.502395  -0.000000
    7       23.204880   0.000000
    8       25.159771   0.000000
 
 -0.2500000E+00  0.3500000E+00  0.5000000E-01  0.4800000E-01
    1        2.750407   1.000000
    2        5.996376   1.000000
    3        6.737109   1.000000
    4       10.073111  -0.000000
    5       12.491448  -0.000000
    6       13.029266  -0.000000
    7       24.202798   0.000000
    8       27.348814   0.000000
 
 -0.4500000E+00  0.4500000E+00  0.5000000E-01  0.2400000E-01
    1        2.265706   1.000000
    2        5.155661   1.000000
    3        9.351429  -0.009378
    4       11.357223  -0.000000
    5       13.200346  -0.000000
    6       15.878032   0.000000
    7       21.972121   0.000000
    8       22.669394   0.000000
 
 -0.3500000E+00  0.4500000E+00  0.5000000E-01  0.4800000E-01
    1        2.935901   1.000000
    2        5.581815   1.000000
    3        7.579377   1.000000
    4       10.820976  -0.000000
    5       13.106703  -0.000000
    6       15.657676   0.000000
    7       22.484794   0.000000
    8       24.733576   0.000000
 
 -0.2500000E+00  0.4500000E+00  0.5000000E-01  0.2400000E-01
    1        3.696928   1.000000
    2        5.417626   1.000000
    3        6.903478   1.000000
    4       10.455313  -0.000000
    5       12.674796  -0.000000
    6       15.873669   0.000000
    7       22.703304   0.000000
    8       26.832638   0.000000
 
 -0.4500000E+00 -0.4500000E+00  0.5000000E-01  0.2400000E-01
    1        2.813378   1.000000
    2        5.438876   1.000000
    3        8.303294   1.000017
    4       10.749636  -0.000000
    5       13.910283  -0.000000
    6       17.218634   0.000000
    7       21.302000   0.000000
    8       23.574651   0.000000
 
 -0.3500000E+00 -0.4500000E+00  0.5000000E-01  0.4800000E-01
    1        3.856473   1.000000
    2        5.511571   1.000000
    3        6.939636   1.000000
    4       11.085105  -0.000000
    5       13.048168  -0.000000
    6       18.850453   0.000000
    7       20.445827   0.000000
    8       24.699997   0.000000
 
 -0.3500000E+00 -0.3500000E+00  0.5000000E-01  0.8000000E-02
    1        4.438484   1.000000
    2        5.901584   1.000000
    3        5.901601   1.000000
    4       12.303150  -0.000000
    5       12.303192  -0.000000
    6       19.017252   0.000000
    7       22.191935   0.000000
    8       22.192025   0.000000
 
  0.1500000E+00  0.1500000E+00  0.1500000E+00  0.8000000E-02
    1        4.098497   1.000000
    2        5.407390   1.000000
    3        5.407390   1.000000
    4       12.049994  -0.000000
    5       12.049994  -0.000000
    6       15.892618   0.000000
    7       24.829576   0.000000
    8       25.785229   0.000000
 
  0.2500000E+00  0.1500000E+00  0.1500000E+00  0.2400000E-01
    1        4.488726   1.000000
    2        5.153087   1.000000
    3        6.579859   1.000000
    4       12.267462  -0.000000
    5       12.622967  -0.000000
    6       18.667041   0.000000
    7       20.670406   0.000000
    8       24.174524   0.000000
 
  0.3500000E+00  0.1500000E+00  0.1500000E+00  0.1200000E-01
    1        4.327148   1.000000
    2        5.081017   1.000000
    3        7.727182   1.000000
    4       12.376304  -0.000000
    5       12.811566  -0.000000
    6       18.800820   0.000000
    7       19.908910   0.000000
    8       23.547912   0.000000
 
 -0.1500000E+00  0.1500000E+00  0.1500000E+00  0.6000000E-02
    1        1.193384   1.000000
    2        7.672599   1.000000
    3        7.672648   1.000000
    4        8.561625   1.008009
    5        8.789280   1.004087
    6       12.726758  -0.000000
    7       27.860934   0.000000
    8       28.233263   0.000000
 
  0.2500000E+00  0.2500000E+00  0.1500000E+00  0.2400000E-01
    1        4.876929   1.000000
    2        5.787187   1.000000
    3        6.605957   1.000000
    4       12.639997  -0.000000
    5       12.800564  -0.000000
    6       18.045759   0.000000
    7       21.075868   0.000000
    8       23.348846   0.000000
 
 -0.2500000E+00  0.2500000E+00  0.1500000E+00  0.2400000E-01
    1        2.583106   1.000000
    2        6.707655   1.000000
    3        7.242581   1.000000
    4        8.764601   1.023452
    5       10.520258  -0.000000
    6       13.079899  -0.000000
    7       25.097615   0.000000
    8       29.204351   0.000000
 
 -0.3500000E+00  0.3500000E+00  0.1500000E+00  0.2400000E-01
    1        3.269423   1.000000
    2        6.315261   1.000000
    3        6.626697   1.000000
    4        9.857947  -0.000000
    5       13.179903  -0.000000
    6       13.512410  -0.000000
    7       23.618511   0.000000
    8       27.496219   0.000000
 
 -0.2500000E+00  0.3500000E+00  0.1500000E+00  0.2400000E-01
    1        3.708162   1.000000
    2        5.554611   1.000000
    3        7.564644   1.000000
    4        9.136204  -0.006523
    5       12.098998  -0.000000
    6       13.586011  -0.000000
    7       24.208387   0.000000
    8       29.474125   0.000000
 
 -0.4500000E+00  0.4500000E+00  0.1500000E+00  0.2400000E-01
    1        3.075975   1.000000
    2        6.264282   1.000000
    3        7.016192   1.000000
    4        9.796057  -0.000000
    5       15.298946   0.000000
    6       15.623803   0.000000
    7       22.134425   0.000000
    8       25.420805   0.000000
 
 -0.3500000E+00  0.4500000E+00  0.1500000E+00  0.4800000E-01
    1        3.933283   1.000000
    2        5.377620   1.000000
    3        7.103290   1.000000
    4        9.966430  -0.000000
    5       13.279103  -0.000000
    6       16.168635   0.000000
    7       22.860343   0.000000
    8       26.953341   0.000000
 
 -0.4500000E+00 -0.4500000E+00  0.1500000E+00  0.2400000E-01
    1        3.707695   1.000000
    2        6.000245   1.000000
    3        6.487379   1.000000
    4       10.000342  -0.000000
    5       14.569643   0.000000
    6       18.385763   0.000000
    7       20.798478   0.000000
    8       25.191671   0.000000
 
 -0.3500000E+00 -0.4500000E+00  0.1500000E+00  0.2400000E-01
    1        4.697919   1.000000
    2        4.855746   1.000000
    3        6.222550   1.000000
    4       11.552511  -0.000000
    5       13.091868  -0.000000
    6       19.493259   0.000000
    7       20.730304   0.000000
    8       24.102572   0.000000
 
  0.2500000E+00  0.2500000E+00  0.2500000E+00  0.2000000E-02
    1        5.920704   1.000000
    2        5.920704   1.000000
    3        5.920750   1.000000
    4       12.883474  -0.000000
    5       12.883474  -0.000000
    6       17.053131   0.000000
    7       22.950016   0.000000
    8       22.950074   0.000000
 
 -0.2500000E+00  0.2500000E+00  0.2500000E+00  0.6000000E-02
    1        3.737131   1.000000
    2        5.714259   1.000000
    3        8.531886   1.004812
    4        8.531935   1.004816
    5       10.652969  -0.000000
    6       13.229644  -0.000000
    7       24.948232   0.000000
    8       31.018235   0.000000
 
 -0.3500000E+00  0.3500000E+00  0.2500000E+00  0.2400000E-01
    1        4.172028   1.000000
    2        4.758333   1.000000
    3        8.591684   1.012614
    4        9.385734  -0.005302
    5       12.766778  -0.000000
    6       13.865697  -0.000000
    7       25.075856   0.000000
    8       28.297009   0.000000
 
 -0.4500000E+00  0.4500000E+00  0.2500000E+00  0.2400000E-01
    1        3.654228   1.000000
    2        4.895661   1.000000
    3        8.369712   1.000117
    4        9.362578  -0.007858
    5       15.235226   0.000000
    6       16.624606   0.000000
    7       22.098192   0.000000
    8       25.290807   0.000000
 
 -0.3500000E+00  0.4500000E+00  0.2500000E+00  0.2400000E-01
    1        3.873557   1.000000
    2        4.223542   1.000000
    3        8.515168   1.003525
    4       10.922484  -0.000000
    5       13.464069  -0.000000
    6       16.412291   0.000000
    7       23.197767   0.000000
    8       25.256906   0.000000
 
 -0.4500000E+00 -0.4500000E+00  0.2500000E+00  0.2400000E-01
    1        3.632862   1.000000
    2        4.109250   1.000000
    3        8.246137   1.000003
    4       11.599983  -0.000000
    5       14.393285  -0.000000
    6       19.510626   0.000000
    7       20.276606   0.000000
    8       23.069239   0.000000
 
 -0.3500000E+00  0.3500000E+00  0.3500000E+00  0.6000000E-02
    1        3.583139   1.000000
    2        3.948399   1.000000
    3       10.685338  -0.000000
    4       10.685398  -0.000000
    5       12.980140  -0.000000
    6       14.398207  -0.000000
    7       25.547725   0.000000
    8       25.547783   0.000000
 
 -0.4500000E+00  0.4500000E+00  0.3500000E+00  0.2400000E-01
    1        3.054217   1.000000
    2        3.387690   1.000000
    3       11.209629  -0.000000
    4       11.416292  -0.000000
    5       14.872343   0.000000
    6       17.063844   0.000000
    7       21.652733   0.000000
    8       22.770394   0.000000
 
 -0.4500000E+00 -0.4500000E+00  0.3500000E+00  0.8000000E-02
    1        2.890606   1.000000
    2        2.890606   1.000000
    3       11.258937  -0.000000
    4       14.111559  -0.000000
    5       14.111671  -0.000000
    6       19.944180   0.000000
    7       19.944224   0.000000
    8       19.998079   0.000000
 
 -0.4500000E+00  0.4500000E+00  0.4500000E+00  0.6000000E-02
    1        2.470692   1.000000
    2        2.567605   1.000000
    3       13.990069  -0.000000
    4       13.990155  -0.000000
    5       14.833950   0.000000
    6       17.768253   0.000000
    7       20.017948   0.000000
    8       20.017976   0.000000
