       N       E                     dE             d eps       ncg     rms          rms(c)
DAV:   1    -0.110355558226E+02   -0.11036E+02   -0.18946E+03   952   0.295E+02
DAV:   2    -0.147374933605E+02   -0.37019E+01   -0.36378E+01   848   0.496E+01
DAV:   3    -0.147481533893E+02   -0.10660E-01   -0.10663E-01   936   0.268E+00
DAV:   4    -0.147481572014E+02   -0.38121E-05   -0.38121E-05   896   0.384E-02
DAV:   5    -0.147481572066E+02   -0.51682E-08   -0.42829E-08   664   0.958E-04    0.389E+00
DAV:   6    -0.143011077392E+02    0.44705E+00   -0.28884E-01   760   0.339E+00    0.204E+00
DAV:   7    -0.141202581258E+02    0.18085E+00   -0.32549E-01   816   0.356E+00    0.196E-01
DAV:   8    -0.141176083434E+02    0.26498E-02   -0.18929E-03   776   0.299E-01    0.494E-02
DAV:   9    -0.141175287479E+02    0.79596E-04   -0.21973E-04   832   0.949E-02
   1 F= -.14117529E+02 E0= -.14118268E+02  d E =0.221760E-02
