 vasp.5.4.4.18Apr17-6-g9f103f2a35 (build Jul 01 2019 03:25:34) complex          
  
 executed on             LinuxIFC date 2020.07.08  19:51:27
 running on    4 total cores
 distrk:  each k-point on    4 cores,    1 groups
 distr:  one band on NCORES_PER_BAND=   1 cores,    4 groups


--------------------------------------------------------------------------------------------------------


 INCAR:
 POTCAR:   PAW W 19Jan2001                        
 POTCAR:   PAW W 19Jan2001                        
   VRHFIN =W: 5p6s5d                                                            
   LEXCH  = CA                                                                  
   EATOM  =   206.5370 eV,   15.1800 Ry                                         
                                                                                
   TITEL  = PAW W 19Jan2001                                                     
   LULTRA =        F    use ultrasoft PP ?                                      
   IUNSCR =        1    unscreen: 0-lin 1-nonlin 2-no                           
   RPACOR =    2.330    partial core radius                                     
   POMASS =  183.850; ZVAL   =    6.000    mass and valenz                      
   RCORE  =    2.750    outmost cutoff radius                                   
   RWIGS  =    2.750; RWIGS  =    1.455    wigner-seitz radius (au A)           
   ENMAX  =  223.126; ENMIN  =  167.344 eV                                      
   RCLOC  =    2.147    cutoff for local pot                                    
   LCOR   =        T    correct aug charges                                     
   LPAW   =        T    paw PP                                                  
   EAUG   =  373.438                                                            
   DEXC   =    -.048                                                            
   RMAX   =    3.087    core radius for proj-oper                               
   RAUG   =    1.300    factor for augmentation sphere                          
   RDEP   =    2.886    radius for radial grids                                 
   QCUT   =   -4.050; QGAM   =    8.099    optimization parameters              
                                                                                
   Description                                                                  
     l     E      TYP  RCUT    TYP  RCUT                                        
     2   .000     23  2.500                                                     
     2   .000     23  2.500                                                     
     0   .000     23  2.500                                                     
     0   .000     23  2.500                                                     
     1   .200     23  2.750                                                     
     1  2.000     23  2.750                                                     
     3   .000      7   .000                                                     
  local pseudopotential read in
  partial core-charges read in
  atomic valenz-charges read in
  non local Contribution for L=           2  read in
    real space projection operators read in
  non local Contribution for L=           2  read in
    real space projection operators read in
  non local Contribution for L=           0  read in
    real space projection operators read in
  non local Contribution for L=           0  read in
    real space projection operators read in
  non local Contribution for L=           1  read in
    real space projection operators read in
  non local Contribution for L=           1  read in
    real space projection operators read in
    PAW grid and wavefunctions read in
 
   number of l-projection  operators is LMAX  =           6
   number of lm-projection operators is LMMAX =          18
 
 PAW W 19Jan2001                        :
 energy of atom  1       EATOM= -206.5370
 kinetic energy error for atom=    0.0291 (will be added to EATOM!!)
 
 
 POSCAR: BCC W Bulk                              
  positions in direct lattice
  No initial velocities read in
 exchange correlation table for  LEXCH =        2
   RHO(1)=    0.500       N(1)  =     2000
   RHO(2)=  100.500       N(2)  =     4000
 


--------------------------------------------------------------------------------------------------------


 ion  position               nearest neighbor table
   1  0.000  0.000  0.000-
 
  LATTYP: Found a body centered cubic cell.
 ALAT       =     3.0500000000
  
  Lattice vectors:
  
 A1 = (  -1.5250000000,   1.5250000000,   1.5250000000)
 A2 = (   1.5250000000,  -1.5250000000,   1.5250000000)
 A3 = (   1.5250000000,   1.5250000000,  -1.5250000000)


Analysis of symmetry for initial positions (statically):
=====================================================================
 Subroutine PRICEL returns:
 Original cell was already a primitive cell.
 

 Routine SETGRP: Setting up the symmetry group for a 
 body centered cubic supercell.


 Subroutine GETGRP returns: Found 48 space group operations
 (whereof 48 operations were pure point group operations)
 out of a pool of 48 trial point group operations.


The static configuration has the point symmetry O_h .


Analysis of symmetry for dynamics (positions and initial velocities):
=====================================================================
 Subroutine PRICEL returns:
 Original cell was already a primitive cell.
 

 Routine SETGRP: Setting up the symmetry group for a 
 body centered cubic supercell.


 Subroutine GETGRP returns: Found 48 space group operations
 (whereof 48 operations were pure point group operations)
 out of a pool of 48 trial point group operations.


The dynamic configuration has the point symmetry O_h .


 Subroutine INISYM returns: Found 48 space group operations
 (whereof 48 operations are pure point group operations),
 and found     1 'primitive' translations

 
 
 KPOINTS: 10x10x10                                

Automatic generation of k-mesh.
Space group operators:
 irot       det(A)        alpha          n_x          n_y          n_z        tau_x        tau_y        tau_z
    1     1.000000     0.000000     1.000000     0.000000     0.000000     0.000000     0.000000     0.000000
    2    -1.000000     0.000000     1.000000     0.000000     0.000000     0.000000     0.000000     0.000000
    3     1.000000   120.000000    -0.577350    -0.577350    -0.577350     0.000000     0.000000     0.000000
    4    -1.000000   120.000000    -0.577350    -0.577350    -0.577350     0.000000     0.000000     0.000000
    5     1.000000   120.000000     0.577350     0.577350     0.577350     0.000000     0.000000     0.000000
    6    -1.000000   120.000000     0.577350     0.577350     0.577350     0.000000     0.000000     0.000000
    7     1.000000    90.000000     0.000000     0.000000    -1.000000     0.000000     0.000000     0.000000
    8    -1.000000    90.000000     0.000000     0.000000    -1.000000     0.000000     0.000000     0.000000
    9     1.000000   180.000000     0.000000     0.707107     0.707107     0.000000     0.000000     0.000000
   10    -1.000000   180.000000     0.000000     0.707107     0.707107     0.000000     0.000000     0.000000
   11     1.000000    90.000000     0.000000     1.000000     0.000000     0.000000     0.000000     0.000000
   12    -1.000000    90.000000     0.000000     1.000000     0.000000     0.000000     0.000000     0.000000
   13     1.000000   180.000000     0.000000     0.000000     1.000000     0.000000     0.000000     0.000000
   14    -1.000000   180.000000     0.000000     0.000000     1.000000     0.000000     0.000000     0.000000
   15     1.000000   120.000000    -0.577350     0.577350     0.577350     0.000000     0.000000     0.000000
   16    -1.000000   120.000000    -0.577350     0.577350     0.577350     0.000000     0.000000     0.000000
   17     1.000000   120.000000    -0.577350     0.577350    -0.577350     0.000000     0.000000     0.000000
   18    -1.000000   120.000000    -0.577350     0.577350    -0.577350     0.000000     0.000000     0.000000
   19     1.000000    90.000000     0.000000     0.000000     1.000000     0.000000     0.000000     0.000000
   20    -1.000000    90.000000     0.000000     0.000000     1.000000     0.000000     0.000000     0.000000
   21     1.000000    90.000000    -1.000000     0.000000     0.000000     0.000000     0.000000     0.000000
   22    -1.000000    90.000000    -1.000000     0.000000     0.000000     0.000000     0.000000     0.000000
   23     1.000000   180.000000     0.707107     0.000000     0.707107     0.000000     0.000000     0.000000
   24    -1.000000   180.000000     0.707107     0.000000     0.707107     0.000000     0.000000     0.000000
   25     1.000000   120.000000     0.577350    -0.577350     0.577350     0.000000     0.000000     0.000000
   26    -1.000000   120.000000     0.577350    -0.577350     0.577350     0.000000     0.000000     0.000000
   27     1.000000   120.000000    -0.577350    -0.577350     0.577350     0.000000     0.000000     0.000000
   28    -1.000000   120.000000    -0.577350    -0.577350     0.577350     0.000000     0.000000     0.000000
   29     1.000000   180.000000     1.000000     0.000000     0.000000     0.000000     0.000000     0.000000
   30    -1.000000   180.000000     1.000000     0.000000     0.000000     0.000000     0.000000     0.000000
   31     1.000000    90.000000     0.000000    -1.000000     0.000000     0.000000     0.000000     0.000000
   32    -1.000000    90.000000     0.000000    -1.000000     0.000000     0.000000     0.000000     0.000000
   33     1.000000   180.000000     0.707107     0.707107     0.000000     0.000000     0.000000     0.000000
   34    -1.000000   180.000000     0.707107     0.707107     0.000000     0.000000     0.000000     0.000000
   35     1.000000    90.000000     1.000000     0.000000     0.000000     0.000000     0.000000     0.000000
   36    -1.000000    90.000000     1.000000     0.000000     0.000000     0.000000     0.000000     0.000000
   37     1.000000   120.000000     0.577350    -0.577350    -0.577350     0.000000     0.000000     0.000000
   38    -1.000000   120.000000     0.577350    -0.577350    -0.577350     0.000000     0.000000     0.000000
   39     1.000000   180.000000     0.000000     1.000000     0.000000     0.000000     0.000000     0.000000
   40    -1.000000   180.000000     0.000000     1.000000     0.000000     0.000000     0.000000     0.000000
   41     1.000000   120.000000     0.577350     0.577350    -0.577350     0.000000     0.000000     0.000000
   42    -1.000000   120.000000     0.577350     0.577350    -0.577350     0.000000     0.000000     0.000000
   43     1.000000   180.000000     0.000000    -0.707107     0.707107     0.000000     0.000000     0.000000
   44    -1.000000   180.000000     0.000000    -0.707107     0.707107     0.000000     0.000000     0.000000
   45     1.000000   180.000000     0.707107    -0.707107     0.000000     0.000000     0.000000     0.000000
   46    -1.000000   180.000000     0.707107    -0.707107     0.000000     0.000000     0.000000     0.000000
   47     1.000000   180.000000     0.707107     0.000000    -0.707107     0.000000     0.000000     0.000000
   48    -1.000000   180.000000     0.707107     0.000000    -0.707107     0.000000     0.000000     0.000000
 
 Subroutine IBZKPT returns following result:
 ===========================================
 
 Found     44 irreducible k-points:
 
 Following reciprocal coordinates:
            Coordinates               Weight
  0.050000  0.050000  0.050000      8.000000
  0.150000  0.050000  0.050000     24.000000
  0.250000  0.050000  0.050000     24.000000
  0.350000  0.050000  0.050000     24.000000
  0.450000  0.050000  0.050000     12.000000
 -0.050000  0.050000  0.050000      6.000000
  0.150000  0.150000  0.050000     24.000000
  0.250000  0.150000  0.050000     48.000000
  0.350000  0.150000  0.050000     48.000000
 -0.150000  0.150000  0.050000     24.000000
  0.250000  0.250000  0.050000     24.000000
  0.350000  0.250000  0.050000     24.000000
 -0.250000  0.250000  0.050000     24.000000
 -0.150000  0.250000  0.050000     24.000000
 -0.350000  0.350000  0.050000     24.000000
 -0.250000  0.350000  0.050000     48.000000
 -0.450000  0.450000  0.050000     24.000000
 -0.350000  0.450000  0.050000     48.000000
 -0.250000  0.450000  0.050000     24.000000
 -0.450000 -0.450000  0.050000     24.000000
 -0.350000 -0.450000  0.050000     48.000000
 -0.350000 -0.350000  0.050000      8.000000
  0.150000  0.150000  0.150000      8.000000
  0.250000  0.150000  0.150000     24.000000
  0.350000  0.150000  0.150000     12.000000
 -0.150000  0.150000  0.150000      6.000000
  0.250000  0.250000  0.150000     24.000000
 -0.250000  0.250000  0.150000     24.000000
 -0.350000  0.350000  0.150000     24.000000
 -0.250000  0.350000  0.150000     24.000000
 -0.450000  0.450000  0.150000     24.000000
 -0.350000  0.450000  0.150000     48.000000
 -0.450000 -0.450000  0.150000     24.000000
 -0.350000 -0.450000  0.150000     24.000000
  0.250000  0.250000  0.250000      2.000000
 -0.250000  0.250000  0.250000      6.000000
 -0.350000  0.350000  0.250000     24.000000
 -0.450000  0.450000  0.250000     24.000000
 -0.350000  0.450000  0.250000     24.000000
 -0.450000 -0.450000  0.250000     24.000000
 -0.350000  0.350000  0.350000      6.000000
 -0.450000  0.450000  0.350000     24.000000
 -0.450000 -0.450000  0.350000      8.000000
 -0.450000  0.450000  0.450000      6.000000
 
 Following cartesian coordinates:
            Coordinates               Weight
  0.100000  0.100000  0.100000      8.000000
  0.100000  0.200000  0.200000     24.000000
  0.100000  0.300000  0.300000     24.000000
  0.100000  0.400000  0.400000     24.000000
  0.100000  0.500000  0.500000     12.000000
  0.100000  0.000000  0.000000      6.000000
  0.200000  0.200000  0.300000     24.000000
  0.200000  0.300000  0.400000     48.000000
  0.200000  0.400000  0.500000     48.000000
  0.200000 -0.100000  0.000000     24.000000
  0.300000  0.300000  0.500000     24.000000
  0.300000  0.400000  0.600000     24.000000
  0.300000 -0.200000  0.000000     24.000000
  0.300000 -0.100000  0.100000     24.000000
  0.400000 -0.300000  0.000000     24.000000
  0.400000 -0.200000  0.100000     48.000000
  0.500000 -0.400000  0.000000     24.000000
  0.500000 -0.300000  0.100000     48.000000
  0.500000 -0.200000  0.200000     24.000000
 -0.400000 -0.400000 -0.900000     24.000000
 -0.400000 -0.300000 -0.800000     48.000000
 -0.300000 -0.300000 -0.700000      8.000000
  0.300000  0.300000  0.300000      8.000000
  0.300000  0.400000  0.400000     24.000000
  0.300000  0.500000  0.500000     12.000000
  0.300000  0.000000  0.000000      6.000000
  0.400000  0.400000  0.500000     24.000000
  0.400000 -0.100000  0.000000     24.000000
  0.500000 -0.200000  0.000000     24.000000
  0.500000 -0.100000  0.100000     24.000000
  0.600000 -0.300000  0.000000     24.000000
  0.600000 -0.200000  0.100000     48.000000
 -0.300000 -0.300000 -0.900000     24.000000
 -0.300000 -0.200000 -0.800000     24.000000
  0.500000  0.500000  0.500000      2.000000
  0.500000  0.000000  0.000000      6.000000
  0.600000 -0.100000  0.000000     24.000000
  0.700000 -0.200000  0.000000     24.000000
  0.700000 -0.100000  0.100000     24.000000
 -0.200000 -0.200000 -0.900000     24.000000
  0.700000  0.000000  0.000000      6.000000
  0.800000 -0.100000  0.000000     24.000000
 -0.100000 -0.100000 -0.900000      8.000000
  0.900000  0.000000  0.000000      6.000000
 


--------------------------------------------------------------------------------------------------------




 Dimension of arrays:
   k-points           NKPTS =     44   k-points in BZ     NKDIM =     44   number of bands    NBANDS=      8
   number of dos      NEDOS =    301   number of ions     NIONS =      1
   non local maximal  LDIM  =      6   non local SUM 2l+1 LMDIM =     18
   total plane-waves  NPLWV =   1000
   max r-space proj   IRMAX =      1   max aug-charges    IRDMAX=   4223
   dimension x,y,z NGX =    10 NGY =   10 NGZ =   10
   dimension x,y,z NGXF=    20 NGYF=   20 NGZF=   20
   support grid    NGXF=    20 NGYF=   20 NGZF=   20
   ions per type =               1
   NGX,Y,Z   is equivalent  to a cutoff of   6.29,  6.29,  6.29 a.u.
   NGXF,Y,Z  is equivalent  to a cutoff of  12.59, 12.59, 12.59 a.u.

 SYSTEM =  BCC W                                   
 POSCAR =  BCC W Bulk                              

 Startparameter for this run:
   NWRITE =      2    write-flag & timer
   PREC   = normal    normal or accurate (medium, high low for compatibility)
   ISTART =      0    job   : 0-new  1-cont  2-samecut
   ICHARG =      2    charge: 1-file 2-atom 10-const
   ISPIN  =      1    spin polarized calculation?
   LNONCOLLINEAR =      F non collinear calculations
   LSORBIT =      F    spin-orbit coupling
   INIWAV =      1    electr: 0-lowe 1-rand  2-diag
   LASPH  =      F    aspherical Exc in radial PAW
   METAGGA=      F    non-selfconsistent MetaGGA calc.

 Electronic Relaxation 1
   ENCUT  =  224.0 eV  16.46 Ry    4.06 a.u.   3.22  3.22  3.22*2*pi/ulx,y,z
   ENINI  =  224.0     initial cutoff
   ENAUG  =  373.4 eV  augmentation charge cutoff
   NELM   =     60;   NELMIN=  2; NELMDL= -5     # of ELM steps 
   EDIFF  = 0.1E-03   stopping-criterion for ELM
   LREAL  =      F    real-space projection
   NLSPLINE    = F    spline interpolate recip. space projectors
   LCOMPAT=      F    compatible to vasp.4.4
   GGA_COMPAT  = T    GGA compatible to vasp.4.4-vasp.4.6
   LMAXPAW     = -100 max onsite density
   LMAXMIX     =    2 max onsite mixed and CHGCAR
   VOSKOWN=      0    Vosko Wilk Nusair interpolation
   ROPT   =    0.00000
 Ionic relaxation
   EDIFFG = 0.1E-02   stopping-criterion for IOM
   NSW    =      0    number of steps for IOM
   NBLOCK =      1;   KBLOCK =      1    inner block; outer block 
   IBRION =     -1    ionic relax: 0-MD 1-quasi-New 2-CG
   NFREE  =      0    steps in history (QN), initial steepest desc. (CG)
   ISIF   =      2    stress and relaxation
   IWAVPR =     10    prediction:  0-non 1-charg 2-wave 3-comb
   ISYM   =      2    0-nonsym 1-usesym 2-fastsym
   LCORR  =      T    Harris-Foulkes like correction to forces

   POTIM  = 0.5000    time-step for ionic-motion
   TEIN   =    0.0    initial temperature
   TEBEG  =    0.0;   TEEND  =   0.0 temperature during run
   SMASS  =  -3.00    Nose mass-parameter (am)
   estimated Nose-frequenzy (Omega)   =  0.10E-29 period in steps =****** mass=  -0.159E-27a.u.
   SCALEE = 1.0000    scale energy and forces
   NPACO  =    256;   APACO  = 16.0  distance and # of slots for P.C.
   PSTRESS=    0.0 pullay stress

  Mass of Ions in am
   POMASS = 183.85
  Ionic Valenz
   ZVAL   =   6.00
  Atomic Wigner-Seitz radii
   RWIGS  =  -1.00
  virtual crystal weights 
   VCA    =   1.00
   NELECT =       6.0000    total number of electrons
   NUPDOWN=      -1.0000    fix difference up-down

 DOS related values:
   EMIN   =  10.00;   EMAX   =-10.00  energy-range for DOS
   EFERMI =   0.00
   ISMEAR =     1;   SIGMA  =   0.20  broadening in eV -4-tet -1-fermi 0-gaus

 Electronic relaxation 2 (details)
   IALGO  =     38    algorithm
   LDIAG  =      T    sub-space diagonalisation (order eigenvalues)
   LSUBROT=      F    optimize rotation matrix (better conditioning)
   TURBO    =      0    0=normal 1=particle mesh
   IRESTART =      0    0=no restart 2=restart with 2 vectors
   NREBOOT  =      0    no. of reboots
   NMIN     =      0    reboot dimension
   EREF     =   0.00    reference energy to select bands
   IMIX   =      4    mixing-type and parameters
     AMIX     =   0.40;   BMIX     =  1.00
     AMIX_MAG =   1.60;   BMIX_MAG =  1.00
     AMIN     =   0.10
     WC   =   100.;   INIMIX=   1;  MIXPRE=   1;  MAXMIX= -45

 Intra band minimization:
   WEIMIN = 0.0000     energy-eigenvalue tresh-hold
   EBREAK =  0.31E-05  absolut break condition
   DEPER  =   0.30     relativ break condition  

   TIME   =   0.40     timestep for ELM

  volume/ion in A,a.u.               =      14.19        95.73
  Fermi-wavevector in a.u.,A,eV,Ry     =   1.228859  2.322207 20.546084  1.510095
  Thomas-Fermi vector in A             =   2.363768
 
 Write flags
   LWAVE        =      T    write WAVECAR
   LDOWNSAMPLE  =      F    k-point downsampling of WAVECAR
   LCHARG       =      T    write CHGCAR
   LVTOT        =      F    write LOCPOT, total local potential
   LVHAR        =      F    write LOCPOT, Hartree potential only
   LELF         =      F    write electronic localiz. function (ELF)
   LORBIT       =      0    0 simple, 1 ext, 2 COOP (PROOUT), +10 PAW based schemes


 Dipole corrections
   LMONO  =      F    monopole corrections only (constant potential shift)
   LDIPOL =      F    correct potential (dipole corrections)
   IDIPOL =      0    1-x, 2-y, 3-z, 4-all directions 
   EPSILON=  1.0000000 bulk dielectric constant

 Exchange correlation treatment:
   GGA     =    --    GGA type
   LEXCH   =     2    internal setting for exchange type
   VOSKOWN=      0    Vosko Wilk Nusair interpolation
   LHFCALC =     F    Hartree Fock is set to
   LHFONE  =     F    Hartree Fock one center treatment
   AEXX    =    0.0000 exact exchange contribution

 Linear response parameters
   LEPSILON=     F    determine dielectric tensor
   LRPA    =     F    only Hartree local field effects (RPA)
   LNABLA  =     F    use nabla operator in PAW spheres
   LVEL    =     F    velocity operator in full k-point grid
   LINTERFAST=   F  fast interpolation
   KINTER  =     0    interpolate to denser k-point grid
   CSHIFT  =0.1000    complex shift for real part using Kramers Kronig
   OMEGAMAX=  -1.0    maximum frequency
   DEG_THRESHOLD= 0.2000000E-02 threshold for treating states as degnerate
   RTIME   =   -0.100 relaxation time in fs
  (WPLASMAI=    0.000 imaginary part of plasma frequency in eV, 0.658/RTIME)
   DFIELD  = 0.0000000 0.0000000 0.0000000 field for delta impulse in time
 
 Orbital magnetization related:
   ORBITALMAG=     F  switch on orbital magnetization
   LCHIMAG   =     F  perturbation theory with respect to B field
   DQ        =  0.001000  dq finite difference perturbation B field
   LLRAUG    =     F  two centre corrections for induced B field



--------------------------------------------------------------------------------------------------------


 Static calculation
 charge density and potential will be updated during run
 non-spin polarized calculation
 Variant of blocked Davidson
 Davidson routine will perform the subspace rotation
 perform sub-space diagonalisation
    after iterative eigenvector-optimisation
 modified Broyden-mixing scheme, WC =      100.0
 initial mixing is a Kerker type mixing with AMIX =  0.4000 and BMIX =      1.0000
 Hartree-type preconditioning will be used
 using additional bands            5
 reciprocal scheme for non local part
 use partial core corrections
 calculate Harris-corrections to forces 
   (improved forces if not selfconsistent)
 use of overlap-Matrix (Vanderbilt PP)
 Methfessel and Paxton  Order N= 1 SIGMA  =   0.20


--------------------------------------------------------------------------------------------------------


  energy-cutoff  :      224.00
  volume of cell :       14.19
      direct lattice vectors                 reciprocal lattice vectors
    -1.525000000  1.525000000  1.525000000     0.000000000  0.327868852  0.327868852
     1.525000000 -1.525000000  1.525000000     0.327868852  0.000000000  0.327868852
     1.525000000  1.525000000 -1.525000000     0.327868852  0.327868852  0.000000000

  length of vectors
     2.641377482  2.641377482  2.641377482     0.463676578  0.463676578  0.463676578


 
 k-points in units of 2pi/SCALE and weight: 10x10x10                                
   0.10000000  0.10000000  0.10000000       0.008
   0.10000000  0.20000000  0.20000000       0.024
   0.10000000  0.30000000  0.30000000       0.024
   0.10000000  0.40000000  0.40000000       0.024
   0.10000000  0.50000000  0.50000000       0.012
   0.10000000  0.00000000  0.00000000       0.006
   0.20000000  0.20000000  0.30000000       0.024
   0.20000000  0.30000000  0.40000000       0.048
   0.20000000  0.40000000  0.50000000       0.048
   0.20000000 -0.10000000  0.00000000       0.024
   0.30000000  0.30000000  0.50000000       0.024
   0.30000000  0.40000000  0.60000000       0.024
   0.30000000 -0.20000000  0.00000000       0.024
   0.30000000 -0.10000000  0.10000000       0.024
   0.40000000 -0.30000000  0.00000000       0.024
   0.40000000 -0.20000000  0.10000000       0.048
   0.50000000 -0.40000000  0.00000000       0.024
   0.50000000 -0.30000000  0.10000000       0.048
   0.50000000 -0.20000000  0.20000000       0.024
  -0.40000000 -0.40000000 -0.90000000       0.024
  -0.40000000 -0.30000000 -0.80000000       0.048
  -0.30000000 -0.30000000 -0.70000000       0.008
   0.30000000  0.30000000  0.30000000       0.008
   0.30000000  0.40000000  0.40000000       0.024
   0.30000000  0.50000000  0.50000000       0.012
   0.30000000  0.00000000  0.00000000       0.006
   0.40000000  0.40000000  0.50000000       0.024
   0.40000000 -0.10000000  0.00000000       0.024
   0.50000000 -0.20000000  0.00000000       0.024
   0.50000000 -0.10000000  0.10000000       0.024
   0.60000000 -0.30000000  0.00000000       0.024
   0.60000000 -0.20000000  0.10000000       0.048
  -0.30000000 -0.30000000 -0.90000000       0.024
  -0.30000000 -0.20000000 -0.80000000       0.024
   0.50000000  0.50000000  0.50000000       0.002
   0.50000000  0.00000000  0.00000000       0.006
   0.60000000 -0.10000000  0.00000000       0.024
   0.70000000 -0.20000000  0.00000000       0.024
   0.70000000 -0.10000000  0.10000000       0.024
  -0.20000000 -0.20000000 -0.90000000       0.024
   0.70000000  0.00000000  0.00000000       0.006
   0.80000000 -0.10000000  0.00000000       0.024
  -0.10000000 -0.10000000 -0.90000000       0.008
   0.90000000  0.00000000  0.00000000       0.006
 
 k-points in reciprocal lattice and weights: 10x10x10                                
   0.05000000  0.05000000  0.05000000       0.008
   0.15000000  0.05000000  0.05000000       0.024
   0.25000000  0.05000000  0.05000000       0.024
   0.35000000  0.05000000  0.05000000       0.024
   0.45000000  0.05000000  0.05000000       0.012
  -0.05000000  0.05000000  0.05000000       0.006
   0.15000000  0.15000000  0.05000000       0.024
   0.25000000  0.15000000  0.05000000       0.048
   0.35000000  0.15000000  0.05000000       0.048
  -0.15000000  0.15000000  0.05000000       0.024
   0.25000000  0.25000000  0.05000000       0.024
   0.35000000  0.25000000  0.05000000       0.024
  -0.25000000  0.25000000  0.05000000       0.024
  -0.15000000  0.25000000  0.05000000       0.024
  -0.35000000  0.35000000  0.05000000       0.024
  -0.25000000  0.35000000  0.05000000       0.048
  -0.45000000  0.45000000  0.05000000       0.024
  -0.35000000  0.45000000  0.05000000       0.048
  -0.25000000  0.45000000  0.05000000       0.024
  -0.45000000 -0.45000000  0.05000000       0.024
  -0.35000000 -0.45000000  0.05000000       0.048
  -0.35000000 -0.35000000  0.05000000       0.008
   0.15000000  0.15000000  0.15000000       0.008
   0.25000000  0.15000000  0.15000000       0.024
   0.35000000  0.15000000  0.15000000       0.012
  -0.15000000  0.15000000  0.15000000       0.006
   0.25000000  0.25000000  0.15000000       0.024
  -0.25000000  0.25000000  0.15000000       0.024
  -0.35000000  0.35000000  0.15000000       0.024
  -0.25000000  0.35000000  0.15000000       0.024
  -0.45000000  0.45000000  0.15000000       0.024
  -0.35000000  0.45000000  0.15000000       0.048
  -0.45000000 -0.45000000  0.15000000       0.024
  -0.35000000 -0.45000000  0.15000000       0.024
   0.25000000  0.25000000  0.25000000       0.002
  -0.25000000  0.25000000  0.25000000       0.006
  -0.35000000  0.35000000  0.25000000       0.024
  -0.45000000  0.45000000  0.25000000       0.024
  -0.35000000  0.45000000  0.25000000       0.024
  -0.45000000 -0.45000000  0.25000000       0.024
  -0.35000000  0.35000000  0.35000000       0.006
  -0.45000000  0.45000000  0.35000000       0.024
  -0.45000000 -0.45000000  0.35000000       0.008
  -0.45000000  0.45000000  0.45000000       0.006
 
 position of ions in fractional coordinates (direct lattice) 
   0.00000000  0.00000000  0.00000000
 
 position of ions in cartesian coordinates  (Angst):
   0.00000000  0.00000000  0.00000000
 


--------------------------------------------------------------------------------------------------------


 k-point  1 :   0.0500 0.0500 0.0500  plane waves:     105
 k-point  2 :   0.1500 0.0500 0.0500  plane waves:     106
 k-point  3 :   0.2500 0.0500 0.0500  plane waves:     109
 k-point  4 :   0.3500 0.0500 0.0500  plane waves:     110
 k-point  5 :   0.4500 0.0500 0.0500  plane waves:     112
 k-point  6 :  -0.0500 0.0500 0.0500  plane waves:     111
 k-point  7 :   0.1500 0.1500 0.0500  plane waves:     109
 k-point  8 :   0.2500 0.1500 0.0500  plane waves:     107
 k-point  9 :   0.3500 0.1500 0.0500  plane waves:     111
 k-point 10 :  -0.1500 0.1500 0.0500  plane waves:     109
 k-point 11 :   0.2500 0.2500 0.0500  plane waves:     106
 k-point 12 :   0.3500 0.2500 0.0500  plane waves:     108
 k-point 13 :  -0.2500 0.2500 0.0500  plane waves:     106
 k-point 14 :  -0.1500 0.2500 0.0500  plane waves:     111
 k-point 15 :  -0.3500 0.3500 0.0500  plane waves:     109
 k-point 16 :  -0.2500 0.3500 0.0500  plane waves:     108
 k-point 17 :  -0.4500 0.4500 0.0500  plane waves:     111
 k-point 18 :  -0.3500 0.4500 0.0500  plane waves:     107
 k-point 19 :  -0.2500 0.4500 0.0500  plane waves:     108
 k-point 20 :  -0.4500-0.4500 0.0500  plane waves:     107
 k-point 21 :  -0.3500-0.4500 0.0500  plane waves:     108
 k-point 22 :  -0.3500-0.3500 0.0500  plane waves:     104
 k-point 23 :   0.1500 0.1500 0.1500  plane waves:     104
 k-point 24 :   0.2500 0.1500 0.1500  plane waves:     110
 k-point 25 :   0.3500 0.1500 0.1500  plane waves:     110
 k-point 26 :  -0.1500 0.1500 0.1500  plane waves:     112
 k-point 27 :   0.2500 0.2500 0.1500  plane waves:     107
 k-point 28 :  -0.2500 0.2500 0.1500  plane waves:     108
 k-point 29 :  -0.3500 0.3500 0.1500  plane waves:     106
 k-point 30 :  -0.2500 0.3500 0.1500  plane waves:     107
 k-point 31 :  -0.4500 0.4500 0.1500  plane waves:     108
 k-point 32 :  -0.3500 0.4500 0.1500  plane waves:     108
 k-point 33 :  -0.4500-0.4500 0.1500  plane waves:     110
 k-point 34 :  -0.3500-0.4500 0.1500  plane waves:     109
 k-point 35 :   0.2500 0.2500 0.2500  plane waves:     104
 k-point 36 :  -0.2500 0.2500 0.2500  plane waves:     108
 k-point 37 :  -0.3500 0.3500 0.2500  plane waves:     109
 k-point 38 :  -0.4500 0.4500 0.2500  plane waves:     105
 k-point 39 :  -0.3500 0.4500 0.2500  plane waves:     108
 k-point 40 :  -0.4500-0.4500 0.2500  plane waves:     108
 k-point 41 :  -0.3500 0.3500 0.3500  plane waves:     108
 k-point 42 :  -0.4500 0.4500 0.3500  plane waves:     112
 k-point 43 :  -0.4500-0.4500 0.3500  plane waves:     110
 k-point 44 :  -0.4500 0.4500 0.4500  plane waves:     116

 maximum and minimum number of plane-waves per node :       116      104

 maximum number of plane-waves:       116
 maximum index in each direction: 
   IXMAX=    3   IYMAX=    3   IZMAX=    3
   IXMIN=   -3   IYMIN=   -3   IZMIN=   -3


 serial   3D FFT for wavefunctions
 parallel 3D FFT for charge:
    minimum data exchange during FFTs selected (reduces bandwidth)


 total amount of memory used by VASP MPI-rank0    31276. kBytes
=======================================================================

   base      :      30000. kBytes
   nonl-proj :        736. kBytes
   fftplans  :        142. kBytes
   grid      :        192. kBytes
   one-center:         15. kBytes
   wavefun   :        191. kBytes
 
     INWAV:  cpu time    0.0000: real time    0.0002
 Broyden mixing: mesh for mixing (old mesh)
   NGX =  7   NGY =  7   NGZ =  7
  (NGX  = 20   NGY  = 20   NGZ  = 20)
  gives a total of    343 points

 initial charge density was supplied:
 charge density of overlapping atoms calculated
 number of electron       6.0000000 magnetization 
 keeping initial charge density in first step


--------------------------------------------------------------------------------------------------------


 Maximum index for augmentation-charges          981 (set IRDMAX)


--------------------------------------------------------------------------------------------------------


 First call to EWALD:  gamma=   0.732
 Maximum number of real-space cells 3x 3x 3
 Maximum number of reciprocal cells 3x 3x 3

    FEWALD:  cpu time    0.0010: real time    0.0010


--------------------------------------- Iteration      1(   1)  ---------------------------------------


    POTLOK:  cpu time    0.0011: real time    0.0021
    SETDIJ:  cpu time    0.0013: real time    0.0013
     EDDAV:  cpu time    0.0377: real time    0.0380
       DOS:  cpu time    0.0004: real time    0.0004
    --------------------------------------------
      LOOP:  cpu time    0.0405: real time    0.0418

 eigenvalue-minimisations  :   952
 total energy-change (2. order) :-0.1103556E+02  (-0.1894568E+03)
 number of electron       6.0000000 magnetization 
 augmentation part        6.0000000 magnetization 

 Free energy of the ion-electron system (eV)
  ---------------------------------------------------
  alpha Z        PSCENC =        49.20457096
  Ewald energy   TEWEN  =      -309.27061249
  -Hartree energ DENC   =        -4.65237730
  -exchange      EXHF   =         0.00000000
  -V(xc)+E(xc)   XCENC  =       -47.13317332
  PAW double counting   =       183.53490256     -125.80866524
  entropy T*S    EENTRO =        -0.00308495
  eigenvalues    EBANDS =        36.58502562
  atomic energy  EATOM  =       206.50785835
  Solvation  Ediel_sol  =         0.00000000
  ---------------------------------------------------
  free energy    TOTEN  =       -11.03555582 eV

  energy without entropy =      -11.03247087  energy(sigma->0) =      -11.03452751


--------------------------------------------------------------------------------------------------------




--------------------------------------- Iteration      1(   2)  ---------------------------------------


     EDDAV:  cpu time    0.0458: real time    0.0464
       DOS:  cpu time    0.0004: real time    0.0004
    --------------------------------------------
      LOOP:  cpu time    0.0462: real time    0.0468

 eigenvalue-minimisations  :   848
 total energy-change (2. order) :-0.3701938E+01  (-0.3637775E+01)
 number of electron       6.0000000 magnetization 
 augmentation part        6.0000000 magnetization 

 Free energy of the ion-electron system (eV)
  ---------------------------------------------------
  alpha Z        PSCENC =        49.20457096
  Ewald energy   TEWEN  =      -309.27061249
  -Hartree energ DENC   =        -4.65237730
  -exchange      EXHF   =         0.00000000
  -V(xc)+E(xc)   XCENC  =       -47.13317332
  PAW double counting   =       183.53490256     -125.80866524
  entropy T*S    EENTRO =        -0.00020455
  eigenvalues    EBANDS =        32.88020768
  atomic energy  EATOM  =       206.50785835
  Solvation  Ediel_sol  =         0.00000000
  ---------------------------------------------------
  free energy    TOTEN  =       -14.73749336 eV

  energy without entropy =      -14.73728881  energy(sigma->0) =      -14.73742518


--------------------------------------------------------------------------------------------------------




--------------------------------------- Iteration      1(   3)  ---------------------------------------


     EDDAV:  cpu time    0.0344: real time    0.0347
       DOS:  cpu time    0.0004: real time    0.0004
    --------------------------------------------
      LOOP:  cpu time    0.0348: real time    0.0351

 eigenvalue-minimisations  :   936
 total energy-change (2. order) :-0.1066003E-01  (-0.1066333E-01)
 number of electron       6.0000000 magnetization 
 augmentation part        6.0000000 magnetization 

 Free energy of the ion-electron system (eV)
  ---------------------------------------------------
  alpha Z        PSCENC =        49.20457096
  Ewald energy   TEWEN  =      -309.27061249
  -Hartree energ DENC   =        -4.65237730
  -exchange      EXHF   =         0.00000000
  -V(xc)+E(xc)   XCENC  =       -47.13317332
  PAW double counting   =       183.53490256     -125.80866524
  entropy T*S    EENTRO =        -0.00022535
  eigenvalues    EBANDS =        32.86956845
  atomic energy  EATOM  =       206.50785835
  Solvation  Ediel_sol  =         0.00000000
  ---------------------------------------------------
  free energy    TOTEN  =       -14.74815339 eV

  energy without entropy =      -14.74792804  energy(sigma->0) =      -14.74807827


--------------------------------------------------------------------------------------------------------




--------------------------------------- Iteration      1(   4)  ---------------------------------------


     EDDAV:  cpu time    0.0334: real time    0.0336
       DOS:  cpu time    0.0004: real time    0.0004
    --------------------------------------------
      LOOP:  cpu time    0.0338: real time    0.0340

 eigenvalue-minimisations  :   896
 total energy-change (2. order) :-0.3812120E-05  (-0.3812119E-05)
 number of electron       6.0000000 magnetization 
 augmentation part        6.0000000 magnetization 

 Free energy of the ion-electron system (eV)
  ---------------------------------------------------
  alpha Z        PSCENC =        49.20457096
  Ewald energy   TEWEN  =      -309.27061249
  -Hartree energ DENC   =        -4.65237730
  -exchange      EXHF   =         0.00000000
  -V(xc)+E(xc)   XCENC  =       -47.13317332
  PAW double counting   =       183.53490256     -125.80866524
  entropy T*S    EENTRO =        -0.00022530
  eigenvalues    EBANDS =        32.86956459
  atomic energy  EATOM  =       206.50785835
  Solvation  Ediel_sol  =         0.00000000
  ---------------------------------------------------
  free energy    TOTEN  =       -14.74815720 eV

  energy without entropy =      -14.74793190  energy(sigma->0) =      -14.74808210


--------------------------------------------------------------------------------------------------------




--------------------------------------- Iteration      1(   5)  ---------------------------------------


     EDDAV:  cpu time    0.0234: real time    0.0235
       DOS:  cpu time    0.0004: real time    0.0004
    CHARGE:  cpu time    0.0013: real time    0.0013
    MIXING:  cpu time    0.0004: real time    0.0002
    --------------------------------------------
      LOOP:  cpu time    0.0253: real time    0.0254

 eigenvalue-minimisations  :   664
 total energy-change (2. order) :-0.5168204E-08  (-0.4282950E-08)
 number of electron       5.9999995 magnetization 
 augmentation part        0.6333414 magnetization 

 Broyden mixing:
  rms(total) = 0.38867E+00    rms(broyden)= 0.38860E+00
  rms(prec ) = 0.16398E+01
  weight for this iteration     100.00

 Free energy of the ion-electron system (eV)
  ---------------------------------------------------
  alpha Z        PSCENC =        49.20457096
  Ewald energy   TEWEN  =      -309.27061249
  -Hartree energ DENC   =        -4.65237730
  -exchange      EXHF   =         0.00000000
  -V(xc)+E(xc)   XCENC  =       -47.13317332
  PAW double counting   =       183.53490256     -125.80866524
  entropy T*S    EENTRO =        -0.00022530
  eigenvalues    EBANDS =        32.86956459
  atomic energy  EATOM  =       206.50785835
  Solvation  Ediel_sol  =         0.00000000
  ---------------------------------------------------
  free energy    TOTEN  =       -14.74815721 eV

  energy without entropy =      -14.74793190  energy(sigma->0) =      -14.74808211


--------------------------------------------------------------------------------------------------------




--------------------------------------- Iteration      1(   6)  ---------------------------------------


    POTLOK:  cpu time    0.0010: real time    0.0010
    SETDIJ:  cpu time    0.0010: real time    0.0011
     EDDAV:  cpu time    0.0248: real time    0.0249
       DOS:  cpu time    0.0003: real time    0.0004
    CHARGE:  cpu time    0.0009: real time    0.0010
    MIXING:  cpu time    0.0002: real time    0.0002
    --------------------------------------------
      LOOP:  cpu time    0.0283: real time    0.0286

 eigenvalue-minimisations  :   760
 total energy-change (2. order) : 0.4470495E+00  (-0.2888440E-01)
 number of electron       5.9999994 magnetization 
 augmentation part        0.6646586 magnetization 

 Broyden mixing:
  rms(total) = 0.20353E+00    rms(broyden)= 0.20351E+00
  rms(prec ) = 0.83938E+00
  weight for this iteration     100.00

 eigenvalues of (default mixing * dielectric matrix)
  average eigenvalue GAMMA=   2.0741
  2.0741

 Free energy of the ion-electron system (eV)
  ---------------------------------------------------
  alpha Z        PSCENC =        49.20457096
  Ewald energy   TEWEN  =      -309.27061249
  -Hartree energ DENC   =        -3.02356111
  -exchange      EXHF   =         0.00000000
  -V(xc)+E(xc)   XCENC  =       -46.94450927
  PAW double counting   =       211.60445344     -154.72773747
  entropy T*S    EENTRO =         0.00044116
  eigenvalues    EBANDS =        32.34798870
  atomic energy  EATOM  =       206.50785835
  Solvation  Ediel_sol  =         0.00000000
  ---------------------------------------------------
  free energy    TOTEN  =       -14.30110774 eV

  energy without entropy =      -14.30154890  energy(sigma->0) =      -14.30125479


--------------------------------------------------------------------------------------------------------




--------------------------------------- Iteration      1(   7)  ---------------------------------------


    POTLOK:  cpu time    0.0010: real time    0.0011
    SETDIJ:  cpu time    0.0010: real time    0.0010
     EDDAV:  cpu time    0.0273: real time    0.0273
       DOS:  cpu time    0.0003: real time    0.0004
    CHARGE:  cpu time    0.0011: real time    0.0011
    MIXING:  cpu time    0.0001: real time    0.0002
    --------------------------------------------
      LOOP:  cpu time    0.0309: real time    0.0311

 eigenvalue-minimisations  :   816
 total energy-change (2. order) : 0.1808496E+00  (-0.3254923E-01)
 number of electron       5.9999994 magnetization 
 augmentation part        0.6953687 magnetization 

 Broyden mixing:
  rms(total) = 0.19601E-01    rms(broyden)= 0.19508E-01
  rms(prec ) = 0.50743E-01
  weight for this iteration     100.00

 eigenvalues of (default mixing * dielectric matrix)
  average eigenvalue GAMMA=   1.9777
  1.6675  2.2880

 Free energy of the ion-electron system (eV)
  ---------------------------------------------------
  alpha Z        PSCENC =        49.20457096
  Ewald energy   TEWEN  =      -309.27061249
  -Hartree energ DENC   =        -1.74137751
  -exchange      EXHF   =         0.00000000
  -V(xc)+E(xc)   XCENC  =       -46.68713297
  PAW double counting   =       253.84741434     -197.84912041
  entropy T*S    EENTRO =         0.00224331
  eigenvalues    EBANDS =        31.86589830
  atomic energy  EATOM  =       206.50785835
  Solvation  Ediel_sol  =         0.00000000
  ---------------------------------------------------
  free energy    TOTEN  =       -14.12025813 eV

  energy without entropy =      -14.12250143  energy(sigma->0) =      -14.12100590


--------------------------------------------------------------------------------------------------------




--------------------------------------- Iteration      1(   8)  ---------------------------------------


    POTLOK:  cpu time    0.0010: real time    0.0011
    SETDIJ:  cpu time    0.0010: real time    0.0010
     EDDAV:  cpu time    0.0258: real time    0.0259
       DOS:  cpu time    0.0005: real time    0.0004
    CHARGE:  cpu time    0.0011: real time    0.0011
    MIXING:  cpu time    0.0001: real time    0.0001
    --------------------------------------------
      LOOP:  cpu time    0.0294: real time    0.0296

 eigenvalue-minimisations  :   776
 total energy-change (2. order) : 0.2649782E-02  (-0.1892894E-03)
 number of electron       5.9999994 magnetization 
 augmentation part        0.6968014 magnetization 

 Broyden mixing:
  rms(total) = 0.49427E-02    rms(broyden)= 0.49272E-02
  rms(prec ) = 0.16345E-01
  weight for this iteration     100.00

 eigenvalues of (default mixing * dielectric matrix)
  average eigenvalue GAMMA=   1.8932
  1.0767  2.0918  2.5111

 Free energy of the ion-electron system (eV)
  ---------------------------------------------------
  alpha Z        PSCENC =        49.20457096
  Ewald energy   TEWEN  =      -309.27061249
  -Hartree energ DENC   =        -1.71252582
  -exchange      EXHF   =         0.00000000
  -V(xc)+E(xc)   XCENC  =       -46.67105381
  PAW double counting   =       264.62082933     -208.74326520
  entropy T*S    EENTRO =         0.00222307
  eigenvalues    EBANDS =        31.94436728
  atomic energy  EATOM  =       206.50785835
  Solvation  Ediel_sol  =         0.00000000
  ---------------------------------------------------
  free energy    TOTEN  =       -14.11760834 eV

  energy without entropy =      -14.11983142  energy(sigma->0) =      -14.11834937


--------------------------------------------------------------------------------------------------------




--------------------------------------- Iteration      1(   9)  ---------------------------------------


    POTLOK:  cpu time    0.0010: real time    0.0012
    SETDIJ:  cpu time    0.0010: real time    0.0011
     EDDAV:  cpu time    0.0315: real time    0.0317
       DOS:  cpu time    0.0003: real time    0.0004
    --------------------------------------------
      LOOP:  cpu time    0.0338: real time    0.0344

 eigenvalue-minimisations  :   832
 total energy-change (2. order) : 0.7959551E-04  (-0.2197332E-04)
 number of electron       5.9999994 magnetization 
 augmentation part        0.6968014 magnetization 

 Free energy of the ion-electron system (eV)
  ---------------------------------------------------
  alpha Z        PSCENC =        49.20457096
  Ewald energy   TEWEN  =      -309.27061249
  -Hartree energ DENC   =        -1.73400814
  -exchange      EXHF   =         0.00000000
  -V(xc)+E(xc)   XCENC  =       -46.67361912
  PAW double counting   =       267.69806072     -211.83876016
  entropy T*S    EENTRO =         0.00221760
  eigenvalues    EBANDS =        31.98676355
  atomic energy  EATOM  =       206.50785835
  Solvation  Ediel_sol  =         0.00000000
  ---------------------------------------------------
  free energy    TOTEN  =       -14.11752875 eV

  energy without entropy =      -14.11974635  energy(sigma->0) =      -14.11826795


--------------------------------------------------------------------------------------------------------




 average (electrostatic) potential at core
  the test charge radii are     1.1823
  (the norm of the test charge is              1.0000)
       1 -36.5711
 
 
 
 E-fermi :   8.9615     XC(G=0): -13.8124     alpha+bet :-16.4438


 k-point     1 :       0.0500    0.0500    0.0500
  band No.  band energies     occupation 
      1      -0.2384      2.00000
      2       7.2582      2.00000
      3       7.2582      2.00000
      4       8.6416      2.04617
      5      11.3030     -0.00000
      6      11.3030     -0.00000
      7      25.2195      0.00000
      8      26.4113      0.00000

 k-point     2 :       0.1500    0.0500    0.0500
  band No.  band energies     occupation 
      1       1.0879      2.00000
      2       6.4582      2.00000
      3       6.7815      2.00000
      4      10.3695     -0.00000
      5      10.9262     -0.00000
      6      11.6313     -0.00000
      7      25.9661      0.00000
      8      27.8513      0.00000

 k-point     3 :       0.2500    0.0500    0.0500
  band No.  band energies     occupation 
      1       2.3370      2.00000
      2       5.6768      2.00000
      3       6.8891      2.00000
      4      11.2082     -0.00000
      5      12.0301     -0.00000
      6      12.8813     -0.00000
      7      24.5498      0.00000
      8      26.1857      0.00000

 k-point     4 :       0.3500    0.0500    0.0500
  band No.  band energies     occupation 
      1       2.5051      2.00000
      2       5.1428      2.00000
      3       8.5798      2.02123
      4      11.6753     -0.00000
      5      12.4731     -0.00000
      6      15.5422      0.00000
      7      22.5955      0.00000
      8      23.0851      0.00000

 k-point     5 :       0.4500    0.0500    0.0500
  band No.  band energies     occupation 
      1       2.3960      2.00000
      2       4.9552      2.00000
      3       9.9405     -0.00000
      4      11.6695     -0.00000
      5      12.6911     -0.00000
      6      16.9165      0.00000
      7      21.6038      0.00000
      8      21.7925      0.00000

 k-point     6 :      -0.0500    0.0500    0.0500
  band No.  band energies     occupation 
      1      -0.7496      2.00000
      2       7.6351      2.00000
      3       7.6352      2.00000
      4       7.7910      2.00000
      5      11.1325     -0.00000
      6      11.7360     -0.00000
      7      25.2063      0.00000
      8      25.2063      0.00000

 k-point     7 :       0.1500    0.1500    0.0500
  band No.  band energies     occupation 
      1       2.5095      2.00000
      2       5.9367      2.00000
      3       6.0108      2.00000
      4      11.0145     -0.00000
      5      12.0900     -0.00000
      6      12.8500     -0.00000
      7      25.9795      0.00000
      8      26.9227      0.00000

 k-point     8 :       0.2500    0.1500    0.0500
  band No.  band energies     occupation 
      1       3.3799      2.00000
      2       5.3782      2.00000
      3       6.6316      2.00000
      4      11.4047     -0.00000
      5      12.5275     -0.00000
      6      15.7217      0.00000
      7      23.3474      0.00000
      8      25.0407      0.00000

 k-point     9 :       0.3500    0.1500    0.0500
  band No.  band energies     occupation 
      1       3.2870      2.00000
      2       5.1151      2.00000
      3       8.2509      2.00001
      4      11.7685     -0.00000
      5      12.8056     -0.00000
      6      18.0376      0.00000
      7      20.7022      0.00000
      8      23.2351      0.00000

 k-point    10 :      -0.1500    0.1500    0.0500
  band No.  band energies     occupation 
      1       0.2475      2.00000
      2       7.0926      2.00000
      3       7.4328      2.00000
      4       8.8182      1.93119
      5      10.3117     -0.00000
      6      11.9672     -0.00000
      7      25.9420      0.00000
      8      26.9656      0.00000

 k-point    11 :       0.2500    0.2500    0.0500
  band No.  band energies     occupation 
      1       4.0272      2.00000
      2       5.5327      2.00000
      3       6.7945      2.00000
      4      11.7968     -0.00000
      5      12.7064     -0.00000
      6      18.6689      0.00000
      7      20.4259      0.00000
      8      24.6476      0.00000

 k-point    12 :       0.3500    0.2500    0.0500
  band No.  band energies     occupation 
      1       4.0788      2.00000
      2       5.6893      2.00000
      3       7.1370      2.00000
      4      12.1235     -0.00000
      5      12.7497     -0.00000
      6      18.7632      0.00000
      7      20.5254      0.00000
      8      23.2332      0.00000

 k-point    13 :      -0.2500    0.2500    0.0500
  band No.  band energies     occupation 
      1       1.6924      2.00000
      2       6.2673      2.00000
      3       7.0186      2.00000
      4      10.3785     -0.00000
      5      10.8473     -0.00000
      6      12.2195     -0.00000
      7      25.2855      0.00000
      8      27.7058      0.00000

 k-point    14 :      -0.1500    0.2500    0.0500
  band No.  band energies     occupation 
      1       1.5108      2.00000
      2       6.8004      2.00000
      3       6.8587      2.00000
      4       9.6481     -0.00001
      5      10.2616     -0.00000
      6      12.4757     -0.00000
      7      26.5586      0.00000
      8      27.2621      0.00000

 k-point    15 :      -0.3500    0.3500    0.0500
  band No.  band energies     occupation 
      1       2.3676      2.00000
      2       5.5533      2.00000
      3       7.7575      2.00000
      4      11.1394     -0.00000
      5      12.5421     -0.00000
      6      13.5024     -0.00000
      7      23.2049      0.00000
      8      25.1598      0.00000

 k-point    16 :      -0.2500    0.3500    0.0500
  band No.  band energies     occupation 
      1       2.7504      2.00000
      2       5.9964      2.00000
      3       6.7371      2.00000
      4      10.0731     -0.00000
      5      12.4914     -0.00000
      6      13.0293     -0.00000
      7      24.2028      0.00000
      8      27.3488      0.00000

 k-point    17 :      -0.4500    0.4500    0.0500
  band No.  band energies     occupation 
      1       2.2657      2.00000
      2       5.1557      2.00000
      3       9.3514     -0.01876
      4      11.3572     -0.00000
      5      13.2003     -0.00000
      6      15.8780      0.00000
      7      21.9721      0.00000
      8      22.6694      0.00000

 k-point    18 :      -0.3500    0.4500    0.0500
  band No.  band energies     occupation 
      1       2.9359      2.00000
      2       5.5818      2.00000
      3       7.5794      2.00000
      4      10.8210     -0.00000
      5      13.1067     -0.00000
      6      15.6577      0.00000
      7      22.4848      0.00000
      8      24.7336      0.00000

 k-point    19 :      -0.2500    0.4500    0.0500
  band No.  band energies     occupation 
      1       3.6969      2.00000
      2       5.4176      2.00000
      3       6.9035      2.00000
      4      10.4553     -0.00000
      5      12.6748     -0.00000
      6      15.8737      0.00000
      7      22.7033      0.00000
      8      26.8326      0.00000

 k-point    20 :      -0.4500   -0.4500    0.0500
  band No.  band energies     occupation 
      1       2.8134      2.00000
      2       5.4389      2.00000
      3       8.3033      2.00003
      4      10.7496     -0.00000
      5      13.9103     -0.00000
      6      17.2186      0.00000
      7      21.3020      0.00000
      8      23.5747      0.00000

 k-point    21 :      -0.3500   -0.4500    0.0500
  band No.  band energies     occupation 
      1       3.8565      2.00000
      2       5.5116      2.00000
      3       6.9396      2.00000
      4      11.0851     -0.00000
      5      13.0482     -0.00000
      6      18.8505      0.00000
      7      20.4458      0.00000
      8      24.7000      0.00000

 k-point    22 :      -0.3500   -0.3500    0.0500
  band No.  band energies     occupation 
      1       4.4385      2.00000
      2       5.9016      2.00000
      3       5.9016      2.00000
      4      12.3032     -0.00000
      5      12.3032     -0.00000
      6      19.0173      0.00000
      7      22.1919      0.00000
      8      22.1920      0.00000

 k-point    23 :       0.1500    0.1500    0.1500
  band No.  band energies     occupation 
      1       4.0985      2.00000
      2       5.4074      2.00000
      3       5.4074      2.00000
      4      12.0500     -0.00000
      5      12.0500     -0.00000
      6      15.8926      0.00000
      7      24.8296      0.00000
      8      25.7852      0.00000

 k-point    24 :       0.2500    0.1500    0.1500
  band No.  band energies     occupation 
      1       4.4887      2.00000
      2       5.1531      2.00000
      3       6.5799      2.00000
      4      12.2675     -0.00000
      5      12.6230     -0.00000
      6      18.6670      0.00000
      7      20.6704      0.00000
      8      24.1745      0.00000

 k-point    25 :       0.3500    0.1500    0.1500
  band No.  band energies     occupation 
      1       4.3271      2.00000
      2       5.0810      2.00000
      3       7.7272      2.00000
      4      12.3763     -0.00000
      5      12.8116     -0.00000
      6      18.8008      0.00000
      7      19.9089      0.00000
      8      23.5479      0.00000

 k-point    26 :      -0.1500    0.1500    0.1500
  band No.  band energies     occupation 
      1       1.1934      2.00000
      2       7.6726      2.00000
      3       7.6726      2.00000
      4       8.5616      2.01602
      5       8.7893      2.00817
      6      12.7268     -0.00000
      7      27.8609      0.00000
      8      28.2333      0.00000

 k-point    27 :       0.2500    0.2500    0.1500
  band No.  band energies     occupation 
      1       4.8769      2.00000
      2       5.7872      2.00000
      3       6.6060      2.00000
      4      12.6400     -0.00000
      5      12.8006     -0.00000
      6      18.0458      0.00000
      7      21.0759      0.00000
      8      23.3488      0.00000

 k-point    28 :      -0.2500    0.2500    0.1500
  band No.  band energies     occupation 
      1       2.5831      2.00000
      2       6.7077      2.00000
      3       7.2426      2.00000
      4       8.7646      2.04690
      5      10.5203     -0.00000
      6      13.0799     -0.00000
      7      25.0976      0.00000
      8      29.2044      0.00000

 k-point    29 :      -0.3500    0.3500    0.1500
  band No.  band energies     occupation 
      1       3.2694      2.00000
      2       6.3153      2.00000
      3       6.6267      2.00000
      4       9.8579     -0.00000
      5      13.1799     -0.00000
      6      13.5124     -0.00000
      7      23.6185      0.00000
      8      27.4962      0.00000

 k-point    30 :      -0.2500    0.3500    0.1500
  band No.  band energies     occupation 
      1       3.7082      2.00000
      2       5.5546      2.00000
      3       7.5646      2.00000
      4       9.1362     -0.01305
      5      12.0990     -0.00000
      6      13.5860     -0.00000
      7      24.2084      0.00000
      8      29.4741      0.00000

 k-point    31 :      -0.4500    0.4500    0.1500
  band No.  band energies     occupation 
      1       3.0760      2.00000
      2       6.2643      2.00000
      3       7.0162      2.00000
      4       9.7961     -0.00000
      5      15.2989      0.00000
      6      15.6238      0.00000
      7      22.1344      0.00000
      8      25.4208      0.00000

 k-point    32 :      -0.3500    0.4500    0.1500
  band No.  band energies     occupation 
      1       3.9333      2.00000
      2       5.3776      2.00000
      3       7.1033      2.00000
      4       9.9664     -0.00000
      5      13.2791     -0.00000
      6      16.1686      0.00000
      7      22.8603      0.00000
      8      26.9533      0.00000

 k-point    33 :      -0.4500   -0.4500    0.1500
  band No.  band energies     occupation 
      1       3.7077      2.00000
      2       6.0002      2.00000
      3       6.4874      2.00000
      4      10.0003     -0.00000
      5      14.5696      0.00000
      6      18.3858      0.00000
      7      20.7985      0.00000
      8      25.1917      0.00000

 k-point    34 :      -0.3500   -0.4500    0.1500
  band No.  band energies     occupation 
      1       4.6979      2.00000
      2       4.8557      2.00000
      3       6.2226      2.00000
      4      11.5525     -0.00000
      5      13.0919     -0.00000
      6      19.4933      0.00000
      7      20.7303      0.00000
      8      24.1026      0.00000

 k-point    35 :       0.2500    0.2500    0.2500
  band No.  band energies     occupation 
      1       5.9207      2.00000
      2       5.9207      2.00000
      3       5.9207      2.00000
      4      12.8835     -0.00000
      5      12.8835     -0.00000
      6      17.0531      0.00000
      7      22.9500      0.00000
      8      22.9501      0.00000

 k-point    36 :      -0.2500    0.2500    0.2500
  band No.  band energies     occupation 
      1       3.7371      2.00000
      2       5.7143      2.00000
      3       8.5319      2.00962
      4       8.5319      2.00963
      5      10.6530     -0.00000
      6      13.2296     -0.00000
      7      24.9482      0.00000
      8      31.0182      0.00000

 k-point    37 :      -0.3500    0.3500    0.2500
  band No.  band energies     occupation 
      1       4.1720      2.00000
      2       4.7583      2.00000
      3       8.5917      2.02523
      4       9.3857     -0.01060
      5      12.7668     -0.00000
      6      13.8657     -0.00000
      7      25.0759      0.00000
      8      28.2970      0.00000

 k-point    38 :      -0.4500    0.4500    0.2500
  band No.  band energies     occupation 
      1       3.6542      2.00000
      2       4.8957      2.00000
      3       8.3697      2.00023
      4       9.3626     -0.01572
      5      15.2352      0.00000
      6      16.6246      0.00000
      7      22.0982      0.00000
      8      25.2908      0.00000

 k-point    39 :      -0.3500    0.4500    0.2500
  band No.  band energies     occupation 
      1       3.8736      2.00000
      2       4.2235      2.00000
      3       8.5152      2.00705
      4      10.9225     -0.00000
      5      13.4641     -0.00000
      6      16.4123      0.00000
      7      23.1978      0.00000
      8      25.2569      0.00000

 k-point    40 :      -0.4500   -0.4500    0.2500
  band No.  band energies     occupation 
      1       3.6329      2.00000
      2       4.1092      2.00000
      3       8.2461      2.00001
      4      11.6000     -0.00000
      5      14.3933     -0.00000
      6      19.5106      0.00000
      7      20.2766      0.00000
      8      23.0692      0.00000

 k-point    41 :      -0.3500    0.3500    0.3500
  band No.  band energies     occupation 
      1       3.5831      2.00000
      2       3.9484      2.00000
      3      10.6853     -0.00000
      4      10.6854     -0.00000
      5      12.9801     -0.00000
      6      14.3982     -0.00000
      7      25.5477      0.00000
      8      25.5478      0.00000

 k-point    42 :      -0.4500    0.4500    0.3500
  band No.  band energies     occupation 
      1       3.0542      2.00000
      2       3.3877      2.00000
      3      11.2096     -0.00000
      4      11.4163     -0.00000
      5      14.8723      0.00000
      6      17.0638      0.00000
      7      21.6527      0.00000
      8      22.7704      0.00000

 k-point    43 :      -0.4500   -0.4500    0.3500
  band No.  band energies     occupation 
      1       2.8906      2.00000
      2       2.8906      2.00000
      3      11.2589     -0.00000
      4      14.1116     -0.00000
      5      14.1117     -0.00000
      6      19.9442      0.00000
      7      19.9442      0.00000
      8      19.9981      0.00000

 k-point    44 :      -0.4500    0.4500    0.4500
  band No.  band energies     occupation 
      1       2.4707      2.00000
      2       2.5676      2.00000
      3      13.9901     -0.00000
      4      13.9902     -0.00000
      5      14.8340      0.00000
      6      17.7683      0.00000
      7      20.0179      0.00000
      8      20.0180      0.00000


--------------------------------------------------------------------------------------------------------


 soft charge-density along one line, spin component           1
         0         1         2         3         4         5         6         7         8         9
 total charge-density along one line
 
 pseudopotential strength for first ion, spin component:           1
 -6.538   0.000   0.000   0.000   0.000   0.000   0.000   0.000  -0.000   0.000   0.150   0.000   0.000   0.000   0.000   0.000
  0.000   0.000  -6.538   0.000  -0.000   0.000   0.000   0.000   0.000   0.000   0.000   0.000   0.150   0.000  -0.000   0.000
  0.000   0.000  -0.000   0.000  -6.561   0.000  -0.000   0.000  -0.000   0.000   0.000   0.000  -0.000   0.000   0.149   0.000
  0.000   0.000   0.000   0.000  -0.000   0.000  -6.538   0.000  -0.000   0.000   0.000   0.000   0.000   0.000  -0.000   0.000
 -0.000   0.000   0.000   0.000  -0.000   0.000  -0.000   0.000  -6.561   0.000  -0.000   0.000   0.000   0.000  -0.000   0.000
  0.150   0.000   0.000   0.000   0.000   0.000   0.000   0.000  -0.000   0.000   0.086   0.000  -0.000   0.000  -0.000   0.000
  0.000   0.000   0.150   0.000  -0.000   0.000   0.000   0.000   0.000   0.000  -0.000   0.000   0.086   0.000   0.000   0.000
  0.000   0.000  -0.000   0.000   0.149   0.000  -0.000   0.000  -0.000   0.000  -0.000   0.000   0.000   0.000   0.086   0.000
  0.000   0.000   0.000   0.000  -0.000   0.000   0.150   0.000  -0.000   0.000  -0.000   0.000  -0.000   0.000   0.000   0.000
 -0.000   0.000   0.000   0.000  -0.000   0.000  -0.000   0.000   0.149   0.000   0.000   0.000  -0.000   0.000  -0.000   0.000
 -0.000   0.000  -0.000   0.000   0.000   0.000  -0.000   0.000  -0.000   0.000  -0.000   0.000  -0.000   0.000   0.000   0.000
  0.000   0.000   0.000   0.000  -0.000   0.000   0.000   0.000   0.000   0.000   0.000   0.000   0.000   0.000  -0.000   0.000
  0.000   0.000   0.000   0.000   0.000   0.000  -0.000   0.000  -0.000   0.000   0.000   0.000   0.000   0.000  -0.000   0.000
 -0.000   0.000   0.000   0.000   0.000   0.000   0.000   0.000   0.000   0.000   0.000   0.000   0.000   0.000   0.000   0.000
 -0.000   0.000  -0.000   0.000  -0.000   0.000   0.000   0.000   0.000   0.000   0.000   0.000   0.000   0.000  -0.000   0.000
 -0.000   0.000  -0.000   0.000  -0.000   0.000   0.000   0.000   0.000   0.000  -0.000   0.000  -0.000   0.000   0.000   0.000
  0.000   0.000  -0.000   0.000  -0.000   0.000  -0.000   0.000  -0.000   0.000  -0.000   0.000  -0.000   0.000  -0.000   0.000
  0.000   0.000   0.000   0.000   0.000   0.000  -0.000   0.000  -0.000   0.000  -0.000   0.000  -0.000   0.000   0.000   0.000
 total augmentation occupancy for first ion, spin component:           1
  1.098   0.000  -0.000   0.000  -0.000  -0.845   0.000  -0.000   0.000   0.000   0.000   0.000   0.000   0.000   0.000   0.000
  0.000   1.098   0.000   0.000   0.000   0.000  -0.845   0.000   0.000   0.000   0.000   0.000   0.000   0.000   0.000   0.000
 -0.000  -0.000   0.721  -0.000   0.000   0.000   0.000  -0.759   0.000   0.000   0.000   0.000   0.000   0.000   0.000   0.000
  0.000   0.000  -0.000   1.098   0.000  -0.000   0.000   0.000  -0.845   0.000  -0.000   0.000   0.000   0.000   0.000   0.000
  0.000   0.000   0.000   0.000   0.721  -0.000  -0.000   0.000  -0.000  -0.759   0.000   0.000   0.000   0.000   0.000   0.000
 -0.845  -0.000  -0.000  -0.000  -0.000   0.817   0.000   0.000  -0.000  -0.000   0.000   0.000   0.000   0.000   0.000   0.000
  0.000  -0.845   0.000  -0.000   0.000   0.000   0.817   0.000   0.000   0.000   0.000   0.000   0.000   0.000   0.000   0.000
  0.000  -0.000  -0.759  -0.000   0.000   0.000   0.000   0.917  -0.000   0.000  -0.000   0.000   0.000   0.000   0.000   0.000
 -0.000   0.000  -0.000  -0.845  -0.000   0.000   0.000   0.000   0.817   0.000  -0.000   0.000   0.000   0.000   0.000   0.000
  0.000   0.000   0.000  -0.000  -0.759   0.000   0.000   0.000  -0.000   0.917   0.000   0.000   0.000   0.000   0.000   0.000
  0.000   0.000   0.000  -0.000   0.000   0.000   0.000  -0.000  -0.000   0.000   1.556  -0.327   0.000   0.000   0.000   0.000
  0.000   0.000   0.000   0.000   0.000   0.000   0.000   0.000   0.000   0.000  -0.327   0.089   0.000   0.000   0.000   0.000
  0.000   0.000   0.000   0.000   0.000   0.000   0.000   0.000   0.000   0.000   0.000   0.000   0.324  -0.000   0.000  -0.019
  0.000   0.000   0.000   0.000   0.000   0.000   0.000   0.000   0.000   0.000   0.000   0.000  -0.000   0.324   0.000   0.000
  0.000   0.000   0.000   0.000   0.000   0.000   0.000   0.000   0.000   0.000   0.000   0.000   0.000   0.000   0.324  -0.000
  0.000   0.000   0.000   0.000   0.000   0.000   0.000   0.000   0.000   0.000   0.000   0.000  -0.019   0.000  -0.000   0.001
  0.000   0.000   0.000   0.000   0.000   0.000   0.000   0.000   0.000   0.000   0.000   0.000  -0.000  -0.019  -0.000  -0.000
  0.000   0.000   0.000   0.000   0.000   0.000   0.000   0.000   0.000   0.000   0.000   0.000   0.000   0.000  -0.019   0.000


------------------------ aborting loop because EDIFF is reached ----------------------------------------


    CHARGE:  cpu time    0.0013: real time    0.0013
    FORLOC:  cpu time    0.0001: real time    0.0001
    FORNL :  cpu time    0.0020: real time    0.0020
    STRESS:  cpu time    0.0154: real time    0.0156
    FORCOR:  cpu time    0.0003: real time    0.0004
    FORHAR:  cpu time    0.0004: real time    0.0003
    MIXING:  cpu time    0.0001: real time    0.0001
    OFIELD:  cpu time    0.0000: real time    0.0000

  FORCE on cell =-STRESS in cart. coord.  units (eV):
  Direction    XX          YY          ZZ          XY          YZ          ZX
  --------------------------------------------------------------------------------------
  Alpha Z    49.20457    49.20457    49.20457
  Ewald    -103.09020  -103.09020  -103.09020    -0.00000    -0.00000     0.00000
  Hartree     0.57804     0.57804     0.57804    -0.00000    -0.00000    -0.00000
  E(xc)     -28.39917   -28.39917   -28.39917    -0.00000    -0.00000    -0.00000
  Local       8.56899     8.56899     8.56899    -0.00010    -0.00010    -0.00010
  n-local   -11.46479    -9.61008    -9.20010     1.87677    -2.05071    -3.82418
  augment     5.16154     5.16154     5.16154     0.00001     0.00001     0.00001
  Kinetic    78.49746    79.66290    83.66294    -0.73074     3.26046     1.86002
  Fock        0.00000     0.00000     0.00000     0.00000     0.00000     0.00000
  -------------------------------------------------------------------------------------
  Total       2.53988     2.53988     2.53988    -0.00000     0.00000     0.00000
  in kB     286.84947   286.84947   286.84947    -0.00000     0.00000     0.00000
  external pressure =      286.85 kB  Pullay stress =        0.00 kB


 VOLUME and BASIS-vectors are now :
 -----------------------------------------------------------------------------
  energy-cutoff  :      224.00
  volume of cell :       14.19
      direct lattice vectors                 reciprocal lattice vectors
    -1.525000000  1.525000000  1.525000000     0.000000000  0.327868852  0.327868852
     1.525000000 -1.525000000  1.525000000     0.327868852  0.000000000  0.327868852
     1.525000000  1.525000000 -1.525000000     0.327868852  0.327868852  0.000000000

  length of vectors
     2.641377482  2.641377482  2.641377482     0.463676578  0.463676578  0.463676578


 FORCES acting on ions
    electron-ion (+dipol)            ewald-force                    non-local-force                 convergence-correction
 -----------------------------------------------------------------------------------------------
   0.411E-14 0.387E-14 0.319E-14   0.366E-15 -.506E-15 -.150E-14   0.132E-22 0.132E-22 -.132E-22   0.138E-14 0.117E-14 0.124E-14
 -----------------------------------------------------------------------------------------------
   0.411E-14 0.387E-14 0.319E-14   0.366E-15 -.506E-15 -.150E-14   0.132E-22 0.132E-22 -.132E-22   0.138E-14 0.117E-14 0.124E-14
 
 
 POSITION                                       TOTAL-FORCE (eV/Angst)
 -----------------------------------------------------------------------------------
      0.00000      0.00000      0.00000         0.000000      0.000000      0.000000
 -----------------------------------------------------------------------------------
    total drift:                                0.000000      0.000000      0.000000


--------------------------------------------------------------------------------------------------------



  FREE ENERGIE OF THE ION-ELECTRON SYSTEM (eV)
  ---------------------------------------------------
  free  energy   TOTEN  =       -14.11752875 eV

  energy  without entropy=      -14.11974635  energy(sigma->0) =      -14.11826795
 


--------------------------------------------------------------------------------------------------------


    POTLOK:  cpu time    0.0022: real time    0.0023


--------------------------------------------------------------------------------------------------------


 writing wavefunctions
     LOOP+:  cpu time    0.3516: real time    0.3588
    4ORBIT:  cpu time    0.0000: real time    0.0000

 total amount of memory used by VASP MPI-rank0    31276. kBytes
=======================================================================

   base      :      30000. kBytes
   nonl-proj :        736. kBytes
   fftplans  :        142. kBytes
   grid      :        192. kBytes
   one-center:         15. kBytes
   wavefun   :        191. kBytes
 
  
  
 General timing and accounting informations for this job:
 ========================================================
  
                  Total CPU time used (sec):        0.526
                            User time (sec):        0.418
                          System time (sec):        0.108
                         Elapsed time (sec):        0.599
  
                   Maximum memory used (kb):       56336.
                   Average memory used (kb):           0.
  
                          Minor page faults:         7286
                          Major page faults:            0
                 Voluntary context switches:          620
