bcc Fe                                  
   3.00000000000000     
    -0.500000    0.500000    0.500000
     0.500000   -0.500000    0.500000
     0.500000    0.500000   -0.500000
   Fe
     1
Direct
  0.000000  0.000000  0.000000
 
   20   20   20
 0.11486968083E+03 0.10747768733E+03 0.88097791337E+02 0.63289738343E+02 0.39705848727E+02
 0.21651855087E+02 0.10666408449E+02 0.58507770598E+01 0.43802494359E+01 0.37641094512E+01
 0.36082415237E+01 0.37641094512E+01 0.43802494359E+01 0.58507770598E+01 0.10666408449E+02
 0.21651855087E+02 0.39705848727E+02 0.63289738343E+02 0.88097791337E+02 0.10747768733E+03
 0.10747768733E+03 0.10506676573E+03 0.89895324502E+02 0.67369748832E+02 0.44135584892E+02
 0.25151404758E+02 0.12711487746E+02 0.66276484525E+01 0.46319458740E+01 0.38527788076E+01
 0.35770587106E+01 0.36224003316E+01 0.40452944964E+01 0.50483287754E+01 0.80643415358E+01
 0.16117772282E+02 0.30859454460E+02 0.51687011893E+02 0.75386371392E+02 0.96196594607E+02
 0.88097791337E+02 0.89895324502E+02 0.80114735148E+02 0.62402057563E+02 0.42451175236E+02
 0.25166231966E+02 0.13225755022E+02 0.69727799673E+01 0.47359906873E+01 0.38691548412E+01
 0.34903062154E+01 0.34455948221E+01 0.36955851156E+01 0.44035592745E+01 0.59456210147E+01
 0.10648461559E+02 0.20760564501E+02 0.36645243299E+02 0.56315823280E+02 0.75386371392E+02
 0.63289738343E+02 0.67369748832E+02 0.62402057563E+02 0.50350673775E+02 0.35416957072E+02
 0.21766188220E+02 0.11978232235E+02 0.66612650761E+01 0.46466627472E+01 0.37957311759E+01
 0.33630427430E+01 0.32537483091E+01 0.33770957592E+01 0.38284060898E+01 0.47117314378E+01
 0.68084853340E+01 0.12358141590E+02 0.22564077989E+02 0.36645243299E+02 0.51687011893E+02
 0.39705848727E+02 0.44135584892E+02 0.42451175236E+02 0.35416957072E+02 0.25723801566E+02
 0.16424719509E+02 0.96001693758E+01 0.58542876805E+01 0.43773512686E+01 0.36304009494E+01
 0.32098597695E+01 0.30680944126E+01 0.31124090989E+01 0.33672631229E+01 0.39453875926E+01
 0.48953835369E+01 0.71632181609E+01 0.12358141590E+02 0.20760564501E+02 0.30859454460E+02
 0.21651855087E+02 0.25151404758E+02 0.25166231966E+02 0.21766188220E+02 0.16424719509E+02
 0.11068994601E+02 0.71032987586E+01 0.49449926867E+01 0.40051373702E+01 0.33982837524E+01
 0.30436810163E+01 0.29046883353E+01 0.29089253559E+01 0.30435698891E+01 0.33771617955E+01
 0.39885741402E+01 0.48953835369E+01 0.68084853340E+01 0.10648461559E+02 0.16117772282E+02
 0.10666408449E+02 0.12711487746E+02 0.13225755022E+02 0.11978232235E+02 0.96001693758E+01
 0.71032987586E+01 0.52560264275E+01 0.42296004103E+01 0.36041595164E+01 0.31462195942E+01
 0.28807565304E+01 0.27709326669E+01 0.27642188673E+01 0.28396726266E+01 0.30242396973E+01
 0.33771617955E+01 0.39453875926E+01 0.47117314378E+01 0.59456210147E+01 0.80643415358E+01
 0.58507770598E+01 0.66276484525E+01 0.69727799673E+01 0.66612650761E+01 0.58542876805E+01
 0.49449926867E+01 0.42296004103E+01 0.36884205140E+01 0.32388751990E+01 0.29212699173E+01
 0.27410734016E+01 0.26690893795E+01 0.26692675117E+01 0.27236441014E+01 0.28396726266E+01
 0.30435698891E+01 0.33672631229E+01 0.38284060898E+01 0.44035592745E+01 0.50483287754E+01
 0.43802494359E+01 0.46319458740E+01 0.47359906873E+01 0.46466627472E+01 0.43773512686E+01
 0.40051373702E+01 0.36041595164E+01 0.32388751990E+01 0.29493374205E+01 0.27510734148E+01
 0.26404568336E+01 0.26014919064E+01 0.26151029539E+01 0.26692675117E+01 0.27642188673E+01
 0.29089253559E+01 0.31124090989E+01 0.33770957592E+01 0.36955851156E+01 0.40452944964E+01
 0.37641094512E+01 0.38527788076E+01 0.38691548412E+01 0.37957311759E+01 0.36304009494E+01
 0.33982837524E+01 0.31462195942E+01 0.29212699173E+01 0.27510734148E+01 0.26406822380E+01
 0.25833200821E+01 0.25717198940E+01 0.26014919064E+01 0.26690893795E+01 0.27709326669E+01
 0.29046883353E+01 0.30680944126E+01 0.32537483091E+01 0.34455948221E+01 0.36224003316E+01
 0.36082415237E+01 0.35770587106E+01 0.34903062154E+01 0.33630427430E+01 0.32098597695E+01
 0.30436810163E+01 0.28807565304E+01 0.27410734016E+01 0.26404568336E+01 0.25833200821E+01
 0.25653516857E+01 0.25833200821E+01 0.26404568336E+01 0.27410734016E+01 0.28807565304E+01
 0.30436810163E+01 0.32098597695E+01 0.33630427430E+01 0.34903062154E+01 0.35770587106E+01
 0.37641094512E+01 0.36224003316E+01 0.34455948221E+01 0.32537483091E+01 0.30680944126E+01
 0.29046883353E+01 0.27709326669E+01 0.26690893795E+01 0.26014919064E+01 0.25717198940E+01
 0.25833200821E+01 0.26406822380E+01 0.27510734148E+01 0.29212699173E+01 0.31462195942E+01
 0.33982837524E+01 0.36304009494E+01 0.37957311759E+01 0.38691548412E+01 0.38527788076E+01
 0.43802494359E+01 0.40452944964E+01 0.36955851156E+01 0.33770957592E+01 0.31124090989E+01
 0.29089253559E+01 0.27642188673E+01 0.26692675117E+01 0.26151029539E+01 0.26014919064E+01
 0.26404568336E+01 0.27510734148E+01 0.29493374205E+01 0.32388751990E+01 0.36041595164E+01
 0.40051373702E+01 0.43773512686E+01 0.46466627472E+01 0.47359906873E+01 0.46319458740E+01
 0.58507770598E+01 0.50483287754E+01 0.44035592745E+01 0.38284060898E+01 0.33672631229E+01
 0.30435698891E+01 0.28396726266E+01 0.27236441014E+01 0.26692675117E+01 0.26690893795E+01
 0.27410734016E+01 0.29212699173E+01 0.32388751990E+01 0.36884205140E+01 0.42296004103E+01
 0.49449926867E+01 0.58542876805E+01 0.66612650761E+01 0.69727799673E+01 0.66276484525E+01
 0.10666408449E+02 0.80643415358E+01 0.59456210147E+01 0.47117314378E+01 0.39453875926E+01
 0.33771617955E+01 0.30242396973E+01 0.28396726266E+01 0.27642188673E+01 0.27709326669E+01
 0.28807565304E+01 0.31462195942E+01 0.36041595164E+01 0.42296004103E+01 0.52560264275E+01
 0.71032987586E+01 0.96001693758E+01 0.11978232235E+02 0.13225755022E+02 0.12711487746E+02
 0.21651855087E+02 0.16117772282E+02 0.10648461559E+02 0.68084853340E+01 0.48953835369E+01
 0.39885741402E+01 0.33771617955E+01 0.30435698891E+01 0.29089253559E+01 0.29046883353E+01
 0.30436810163E+01 0.33982837524E+01 0.40051373702E+01 0.49449926867E+01 0.71032987586E+01
 0.11068994601E+02 0.16424719509E+02 0.21766188220E+02 0.25166231966E+02 0.25151404758E+02
 0.39705848727E+02 0.30859454460E+02 0.20760564501E+02 0.12358141590E+02 0.71632181609E+01
 0.48953835369E+01 0.39453875926E+01 0.33672631229E+01 0.31124090989E+01 0.30680944126E+01
 0.32098597695E+01 0.36304009494E+01 0.43773512686E+01 0.58542876805E+01 0.96001693758E+01
 0.16424719509E+02 0.25723801566E+02 0.35416957072E+02 0.42451175236E+02 0.44135584892E+02
 0.63289738343E+02 0.51687011893E+02 0.36645243299E+02 0.22564077989E+02 0.12358141590E+02
 0.68084853340E+01 0.47117314378E+01 0.38284060898E+01 0.33770957592E+01 0.32537483091E+01
 0.33630427430E+01 0.37957311759E+01 0.46466627472E+01 0.66612650761E+01 0.11978232235E+02
 0.21766188220E+02 0.35416957072E+02 0.50350673775E+02 0.62402057563E+02 0.67369748832E+02
 0.88097791337E+02 0.75386371392E+02 0.56315823280E+02 0.36645243299E+02 0.20760564501E+02
 0.10648461559E+02 0.59456210147E+01 0.44035592745E+01 0.36955851156E+01 0.34455948221E+01
 0.34903062154E+01 0.38691548412E+01 0.47359906873E+01 0.69727799673E+01 0.13225755022E+02
 0.25166231966E+02 0.42451175236E+02 0.62402057563E+02 0.80114735148E+02 0.89895324502E+02
 0.10747768733E+03 0.96196594607E+02 0.75386371392E+02 0.51687011893E+02 0.30859454460E+02
 0.16117772282E+02 0.80643415358E+01 0.50483287754E+01 0.40452944964E+01 0.36224003316E+01
 0.35770587106E+01 0.38527788076E+01 0.46319458740E+01 0.66276484525E+01 0.12711487746E+02
 0.25151404758E+02 0.44135584892E+02 0.67369748832E+02 0.89895324502E+02 0.10506676573E+03
 0.10747768733E+03 0.10506676573E+03 0.89895324502E+02 0.67369748832E+02 0.44135584892E+02
 0.25151404758E+02 0.12711487746E+02 0.66276484525E+01 0.46319458740E+01 0.38527788076E+01
 0.35770587106E+01 0.36224003316E+01 0.40452944964E+01 0.50483287754E+01 0.80643415358E+01
 0.16117772282E+02 0.30859454460E+02 0.51687011893E+02 0.75386371392E+02 0.96196594607E+02
 0.10506676573E+03 0.10744907831E+03 0.96157336549E+02 0.75359597628E+02 0.51679109297E+02
 0.30859483245E+02 0.16115304849E+02 0.80611052625E+01 0.50507255680E+01 0.40517350240E+01
 0.36244746709E+01 0.35718938293E+01 0.38475794121E+01 0.46337201606E+01 0.66334122868E+01
 0.12714023530E+02 0.25152564440E+02 0.44146404782E+02 0.67394090628E+02 0.89918418133E+02
 0.89895324502E+02 0.96157336549E+02 0.89883923846E+02 0.73452815668E+02 0.52464374627E+02
 0.32653288742E+02 0.17750738662E+02 0.89924920121E+01 0.53553892782E+01 0.41724128809E+01
 0.36151615814E+01 0.34704870694E+01 0.36149616542E+01 0.41725114633E+01 0.53555323562E+01
 0.89919001208E+01 0.17750430348E+02 0.32656995434E+02 0.52475123969E+02 0.73468033396E+02
 0.67369748832E+02 0.75359597628E+02 0.73452815668E+02 0.62408911378E+02 0.46234234555E+02
 0.29844339693E+02 0.16892336294E+02 0.89154462628E+01 0.53845286356E+01 0.41744600280E+01
 0.35503643074E+01 0.33316984643E+01 0.33764340462E+01 0.37199858779E+01 0.45029361633E+01
 0.62160082064E+01 0.11134608284E+02 0.20970726378E+02 0.35545298884E+02 0.52464082032E+02
 0.44135584892E+02 0.51679109297E+02 0.52464374627E+02 0.46234234555E+02 0.35420867803E+02
 0.23659582519E+02 0.13986945359E+02 0.78730959286E+01 0.50887806296E+01 0.40406061393E+01
 0.34315917244E+01 0.31744944388E+01 0.31528252821E+01 0.33378839305E+01 0.38437220867E+01
 0.47378951401E+01 0.68239567504E+01 0.11989284376E+02 0.20969813763E+02 0.32650414539E+02
 0.25151404758E+02 0.30859483245E+02 0.32653288742E+02 0.29844339693E+02 0.23659582519E+02
 0.16426979896E+02 0.10296896024E+02 0.63956678875E+01 0.46039239147E+01 0.37929531018E+01
 0.32659787686E+01 0.30159831637E+01 0.29603743158E+01 0.30493966670E+01 0.33389115921E+01
 0.39249769773E+01 0.48311388106E+01 0.68270658857E+01 0.11137848322E+02 0.17751104870E+02
 0.12711487746E+02 0.16115304849E+02 0.17750738662E+02 0.16892336294E+02 0.13986945359E+02
 0.10296896024E+02 0.71039299902E+01 0.50871684542E+01 0.41072838976E+01 0.34867756507E+01
 0.30744971312E+01 0.28683500468E+01 0.28084677194E+01 0.28503955263E+01 0.30083911977E+01
 0.33475247202E+01 0.39277034960E+01 0.47422959368E+01 0.62191952658E+01 0.89918669011E+01
 0.66276484525E+01 0.80611052625E+01 0.89924920121E+01 0.89154462628E+01 0.78730959286E+01
 0.63956678875E+01 0.50871684542E+01 0.42288765258E+01 0.36436069812E+01 0.31850422465E+01
 0.28894593371E+01 0.27416348791E+01 0.26975997486E+01 0.27240203208E+01 0.28186692316E+01
 0.30096425125E+01 0.33410783993E+01 0.38448435318E+01 0.45009472146E+01 0.53504044495E+01
 0.46319458740E+01 0.50507255680E+01 0.53553892782E+01 0.53845286356E+01 0.50887806296E+01
 0.46039239147E+01 0.41072838976E+01 0.36436069812E+01 0.32390350472E+01 0.29333868828E+01
 0.27399528931E+01 0.26456321934E+01 0.26236358989E+01 0.26518470424E+01 0.27243484262E+01
 0.28508204389E+01 0.30487914441E+01 0.33350125314E+01 0.37150393719E+01 0.41677177819E+01
 0.38527788076E+01 0.40517350240E+01 0.41724128809E+01 0.41744600280E+01 0.40406061393E+01
 0.37929531018E+01 0.34867756507E+01 0.31850422465E+01 0.29333868828E+01 0.27513292985E+01
 0.26388503817E+01 0.25870865068E+01 0.25851801263E+01 0.26236663701E+01 0.26974585677E+01
 0.28075981604E+01 0.29583351875E+01 0.31501982145E+01 0.33750694245E+01 0.36167850983E+01
 0.35770587106E+01 0.36244746709E+01 0.36151615814E+01 0.35503643074E+01 0.34315917244E+01
 0.32659787686E+01 0.30744971312E+01 0.28894593371E+01 0.27399528931E+01 0.26388503817E+01
 0.25834855735E+01 0.25669552229E+01 0.25870967572E+01 0.26455054306E+01 0.27411175486E+01
 0.28674354746E+01 0.30154183801E+01 0.31756753159E+01 0.33355604450E+01 0.34762418353E+01
 0.36224003316E+01 0.35718938293E+01 0.34704870694E+01 0.33316984643E+01 0.31744944388E+01
 0.30159831637E+01 0.28683500468E+01 0.27416348791E+01 0.26456321934E+01 0.25870865068E+01
 0.25669552229E+01 0.25835139304E+01 0.26388293526E+01 0.27397565574E+01 0.28891804579E+01
 0.30747634510E+01 0.32677017987E+01 0.34349719553E+01 0.35540569235E+01 0.36167850983E+01
 0.40452944964E+01 0.38475794121E+01 0.36149616542E+01 0.33764340462E+01 0.31528252821E+01
 0.29603743158E+01 0.28084677194E+01 0.26975997486E+01 0.26236358989E+01 0.25851801263E+01
 0.25870967572E+01 0.26388293526E+01 0.27512469750E+01 0.29333325621E+01 0.31854133534E+01
 0.34880626284E+01 0.37949560046E+01 0.40418973757E+01 0.41731092083E+01 0.41677177819E+01
 0.50483287754E+01 0.46337201606E+01 0.41725114633E+01 0.37199858779E+01 0.33378839305E+01
 0.30493966670E+01 0.28503955263E+01 0.27240203208E+01 0.26518470424E+01 0.26236663701E+01
 0.26455054306E+01 0.27397565574E+01 0.29333325621E+01 0.32393797629E+01 0.36445170062E+01
 0.41083961388E+01 0.46040531124E+01 0.50865754181E+01 0.53799260835E+01 0.53504044495E+01
 0.80643415358E+01 0.66334122868E+01 0.53555323562E+01 0.45029361633E+01 0.38437220867E+01
 0.33389115921E+01 0.30083911977E+01 0.28186692316E+01 0.27243484262E+01 0.26974585677E+01
 0.27411175486E+01 0.28891804579E+01 0.31854133534E+01 0.36445170062E+01 0.42297406746E+01
 0.50870858609E+01 0.63938562018E+01 0.78697324055E+01 0.89122252111E+01 0.89918669011E+01
 0.16117772282E+02 0.12714023530E+02 0.89919001208E+01 0.62160082064E+01 0.47378951401E+01
 0.39249769773E+01 0.33475247202E+01 0.30096425125E+01 0.28508204389E+01 0.28075981604E+01
 0.28674354746E+01 0.30747634510E+01 0.34880626284E+01 0.41083961388E+01 0.50870858609E+01
 0.71024095069E+01 0.10294293797E+02 0.13984069721E+02 0.16890476550E+02 0.17751104870E+02
 0.30859454460E+02 0.25152564440E+02 0.17750430348E+02 0.11134608284E+02 0.68239567504E+01
 0.48311388106E+01 0.39277034960E+01 0.33410783993E+01 0.30487914441E+01 0.29583351875E+01
 0.30154183801E+01 0.32677017987E+01 0.37949560046E+01 0.46040531124E+01 0.63938562018E+01
 0.10294293797E+02 0.16423893515E+02 0.23655506126E+02 0.29839837515E+02 0.32650414539E+02
 0.51687011893E+02 0.44146404782E+02 0.32656995434E+02 0.20970726378E+02 0.11989284376E+02
 0.68270658857E+01 0.47422959368E+01 0.38448435318E+01 0.33350125314E+01 0.31501982145E+01
 0.31756753159E+01 0.34349719553E+01 0.40418973757E+01 0.50865754181E+01 0.78697324055E+01
 0.13984069721E+02 0.23655506126E+02 0.35414017077E+02 0.46227681548E+02 0.52464082032E+02
 0.75386371392E+02 0.67394090628E+02 0.52475123969E+02 0.35545298884E+02 0.20969813763E+02
 0.11137848322E+02 0.62191952658E+01 0.45009472146E+01 0.37150393719E+01 0.33750694245E+01
 0.33355604450E+01 0.35540569235E+01 0.41731092083E+01 0.53799260835E+01 0.89122252111E+01
 0.16890476550E+02 0.29839837515E+02 0.46227681548E+02 0.62409103112E+02 0.73468033396E+02
 0.96196594607E+02 0.89918418133E+02 0.73468033396E+02 0.52464082032E+02 0.32650414539E+02
 0.17751104870E+02 0.89918669011E+01 0.53504044495E+01 0.41677177819E+01 0.36167850983E+01
 0.34762418353E+01 0.36167850983E+01 0.41677177819E+01 0.53504044495E+01 0.89918669011E+01
 0.17751104870E+02 0.32650414539E+02 0.52464082032E+02 0.73468033396E+02 0.89918418133E+02
 0.88097791337E+02 0.89895324502E+02 0.80114735148E+02 0.62402057563E+02 0.42451175236E+02
 0.25166231966E+02 0.13225755022E+02 0.69727799673E+01 0.47359906873E+01 0.38691548412E+01
 0.34903062154E+01 0.34455948221E+01 0.36955851156E+01 0.44035592745E+01 0.59456210147E+01
 0.10648461559E+02 0.20760564501E+02 0.36645243299E+02 0.56315823280E+02 0.75386371392E+02
 0.89895324502E+02 0.96157336549E+02 0.89883923846E+02 0.73452815668E+02 0.52464374627E+02
 0.32653288742E+02 0.17750738662E+02 0.89924920121E+01 0.53553892782E+01 0.41724128809E+01
 0.36151615814E+01 0.34704870694E+01 0.36149616542E+01 0.41725114633E+01 0.53555323562E+01
 0.89919001208E+01 0.17750430348E+02 0.32656995434E+02 0.52475123969E+02 0.73468033396E+02
 0.80114735148E+02 0.89883923846E+02 0.88078472281E+02 0.75368204436E+02 0.56305950708E+02
 0.36643804763E+02 0.20762668143E+02 0.10649871080E+02 0.59456815376E+01 0.44034778458E+01
 0.36957864734E+01 0.34455943001E+01 0.34900815896E+01 0.38692094260E+01 0.47361975901E+01
 0.69725416614E+01 0.13225840975E+02 0.25169147300E+02 0.42458031695E+02 0.62409103112E+02
 0.62402057563E+02 0.73452815668E+02 0.75368204436E+02 0.67381003292E+02 0.52471369383E+02
 0.35548475275E+02 0.20974256882E+02 0.11140015237E+02 0.62194003099E+01 0.45008990536E+01
 0.37152611304E+01 0.33750726677E+01 0.33353098135E+01 0.35540478862E+01 0.41732887639E+01
 0.53797297411E+01 0.89119574014E+01 0.16891461562E+02 0.29842046526E+02 0.46227681548E+02
 0.42451175236E+02 0.52464374627E+02 0.56305950708E+02 0.52471369383E+02 0.42461506206E+02
 0.29848964840E+02 0.18326504115E+02 0.10220540283E+02 0.59968891866E+01 0.44306057770E+01
 0.36565217242E+01 0.32683835744E+01 0.31667713626E+01 0.32683394923E+01 0.36564765834E+01
 0.44305769066E+01 0.59964592668E+01 0.10218422938E+02 0.18321044740E+02 0.29839837515E+02
 0.25166231966E+02 0.32653288742E+02 0.36643804763E+02 0.35548475275E+02 0.29848964840E+02
 0.21772485955E+02 0.13988760578E+02 0.83640653258E+01 0.53891494046E+01 0.42046381454E+01
 0.35155119663E+01 0.31358985058E+01 0.30026740176E+01 0.30327549807E+01 0.32491112865E+01
 0.37524086601E+01 0.45715165171E+01 0.62532604273E+01 0.10218476317E+02 0.16890476550E+02
 0.13225755022E+02 0.17750738662E+02 0.20762668143E+02 0.20974256882E+02 0.18326504115E+02
 0.13988760578E+02 0.96014834485E+01 0.63936830937E+01 0.46902736805E+01 0.38766463434E+01
 0.33131391817E+01 0.29894505647E+01 0.28578567135E+01 0.28535176395E+01 0.29667170148E+01
 0.32552955088E+01 0.37901676735E+01 0.45716572345E+01 0.59968504206E+01 0.89122252111E+01
 0.69727799673E+01 0.89924920121E+01 0.10649871080E+02 0.11140015237E+02 0.10220540283E+02
 0.83640653258E+01 0.63936830937E+01 0.49427155788E+01 0.41069512070E+01 0.35166371867E+01
 0.30909978028E+01 0.28454712648E+01 0.27399987972E+01 0.27275008655E+01 0.27901042477E+01
 0.29493858507E+01 0.32551559742E+01 0.37523137281E+01 0.44306722065E+01 0.53799260835E+01
 0.47359906873E+01 0.53553892782E+01 0.59456815376E+01 0.62194003099E+01 0.59968891866E+01
 0.53891494046E+01 0.46902736805E+01 0.41069512070E+01 0.36042646059E+01 0.31856858438E+01
 0.28916481987E+01 0.27230541782E+01 0.26518565640E+01 0.26462718167E+01 0.26905414079E+01
 0.27900287606E+01 0.29665138090E+01 0.32488704870E+01 0.36562822088E+01 0.41731092083E+01
 0.38691548412E+01 0.41724128809E+01 0.44034778458E+01 0.45008990536E+01 0.44306057770E+01
 0.42046381454E+01 0.38766463434E+01 0.35166371867E+01 0.31856858438E+01 0.29220596344E+01
 0.27401289895E+01 0.26360225136E+01 0.25954534290E+01 0.26022668541E+01 0.26463268179E+01
 0.27275447942E+01 0.28535267956E+01 0.30327639940E+01 0.32683679637E+01 0.35540569235E+01
 0.34903062154E+01 0.36151615814E+01 0.36957864734E+01 0.37152611304E+01 0.36565217242E+01
 0.35155119663E+01 0.33131391817E+01 0.30909978028E+01 0.28916481987E+01 0.27401289895E+01
 0.26407748041E+01 0.25872465925E+01 0.25732206016E+01 0.25955186731E+01 0.26519687740E+01
 0.27401338436E+01 0.28580179841E+01 0.30028792818E+01 0.31670163493E+01 0.33355604450E+01
 0.34455948221E+01 0.34704870694E+01 0.34455943001E+01 0.33750726677E+01 0.32683835744E+01
 0.31358985058E+01 0.29894505647E+01 0.28454712648E+01 0.27230541782E+01 0.26360225136E+01
 0.25872465925E+01 0.25720539079E+01 0.25872840438E+01 0.26360641432E+01 0.27230650490E+01
 0.28454446835E+01 0.29894078469E+01 0.31358647551E+01 0.32683679637E+01 0.33750694245E+01
 0.36955851156E+01 0.36149616542E+01 0.34900815896E+01 0.33353098135E+01 0.31667713626E+01
 0.30026740176E+01 0.28578567135E+01 0.27399987972E+01 0.26518565640E+01 0.25954534290E+01
 0.25732206016E+01 0.25872840438E+01 0.26407821869E+01 0.27400500585E+01 0.28914780610E+01
 0.30907722428E+01 0.33128948130E+01 0.35152657880E+01 0.36562822088E+01 0.37150393719E+01
 0.44035592745E+01 0.41725114633E+01 0.38692094260E+01 0.35540478862E+01 0.32683394923E+01
 0.30327549807E+01 0.28535176395E+01 0.27275008655E+01 0.26462718167E+01 0.26022668541E+01
 0.25955186731E+01 0.26360641432E+01 0.27400500585E+01 0.29218792818E+01 0.31855366064E+01
 0.35166282255E+01 0.38767551745E+01 0.42047567870E+01 0.44306722065E+01 0.45009472146E+01
 0.59456210147E+01 0.53555323562E+01 0.47361975901E+01 0.41732887639E+01 0.36564765834E+01
 0.32491112865E+01 0.29667170148E+01 0.27901042477E+01 0.26905414079E+01 0.26463268179E+01
 0.26519687740E+01 0.27230650490E+01 0.28914780610E+01 0.31855366064E+01 0.36044645999E+01
 0.41075738814E+01 0.46909935231E+01 0.53895433228E+01 0.59968504206E+01 0.62191952658E+01
 0.10648461559E+02 0.89919001208E+01 0.69725416614E+01 0.53797297411E+01 0.44305769066E+01
 0.37524086601E+01 0.32552955088E+01 0.29493858507E+01 0.27900287606E+01 0.27275447942E+01
 0.27401338436E+01 0.28454446835E+01 0.30907722428E+01 0.35166282255E+01 0.41075738814E+01
 0.49437004031E+01 0.63940839420E+01 0.83631222952E+01 0.10218476317E+02 0.11137848322E+02
 0.20760564501E+02 0.17750430348E+02 0.13225840975E+02 0.89119574014E+01 0.59964592668E+01
 0.45715165171E+01 0.37901676735E+01 0.32551559742E+01 0.29665138090E+01 0.28535267956E+01
 0.28580179841E+01 0.29894078469E+01 0.33128948130E+01 0.38767551745E+01 0.46909935231E+01
 0.63940839420E+01 0.95999334841E+01 0.13984599310E+02 0.18321044740E+02 0.20969813763E+02
 0.36645243299E+02 0.32656995434E+02 0.25169147300E+02 0.16891461562E+02 0.10218422938E+02
 0.62532604273E+01 0.45716572345E+01 0.37523137281E+01 0.32488704870E+01 0.30327639940E+01
 0.30028792818E+01 0.31358647551E+01 0.35152657880E+01 0.42047567870E+01 0.53895433228E+01
 0.83631222952E+01 0.13984599310E+02 0.21765388532E+02 0.29842046526E+02 0.35545298884E+02
 0.56315823280E+02 0.52475123969E+02 0.42458031695E+02 0.29842046526E+02 0.18321044740E+02
 0.10218476317E+02 0.59968504206E+01 0.44306722065E+01 0.36562822088E+01 0.32683679637E+01
 0.31670163493E+01 0.32683679637E+01 0.36562822088E+01 0.44306722065E+01 0.59968504206E+01
 0.10218476317E+02 0.18321044740E+02 0.29842046526E+02 0.42458031695E+02 0.52475123969E+02
 0.75386371392E+02 0.73468033396E+02 0.62409103112E+02 0.46227681548E+02 0.29839837515E+02
 0.16890476550E+02 0.89122252111E+01 0.53799260835E+01 0.41731092083E+01 0.35540569235E+01
 0.33355604450E+01 0.33750694245E+01 0.37150393719E+01 0.45009472146E+01 0.62191952658E+01
 0.11137848322E+02 0.20969813763E+02 0.35545298884E+02 0.52475123969E+02 0.67394090628E+02
 0.63289738343E+02 0.67369748832E+02 0.62402057563E+02 0.50350673775E+02 0.35416957072E+02
 0.21766188220E+02 0.11978232235E+02 0.66612650761E+01 0.46466627472E+01 0.37957311759E+01
 0.33630427430E+01 0.32537483091E+01 0.33770957592E+01 0.38284060898E+01 0.47117314378E+01
 0.68084853340E+01 0.12358141590E+02 0.22564077989E+02 0.36645243299E+02 0.51687011893E+02
 0.67369748832E+02 0.75359597628E+02 0.73452815668E+02 0.62408911378E+02 0.46234234555E+02
 0.29844339693E+02 0.16892336294E+02 0.89154462628E+01 0.53845286356E+01 0.41744600280E+01
 0.35503643074E+01 0.33316984643E+01 0.33764340462E+01 0.37199858779E+01 0.45029361633E+01
 0.62160082064E+01 0.11134608284E+02 0.20970726378E+02 0.35545298884E+02 0.52464082032E+02
 0.62402057563E+02 0.73452815668E+02 0.75368204436E+02 0.67381003292E+02 0.52471369383E+02
 0.35548475275E+02 0.20974256882E+02 0.11140015237E+02 0.62194003099E+01 0.45008990536E+01
 0.37152611304E+01 0.33750726677E+01 0.33353098135E+01 0.35540478862E+01 0.41732887639E+01
 0.53797297411E+01 0.89119574014E+01 0.16891461562E+02 0.29842046526E+02 0.46227681548E+02
 0.50350673775E+02 0.62408911378E+02 0.67381003292E+02 0.63299426551E+02 0.51692663177E+02
 0.36649657355E+02 0.22569889827E+02 0.12363179414E+02 0.68086300408E+01 0.47072830131E+01
 0.38247953464E+01 0.33784480672E+01 0.32577794294E+01 0.33642002147E+01 0.37924049695E+01
 0.46428540556E+01 0.66607676455E+01 0.11979585004E+02 0.21765388532E+02 0.35414017077E+02
 0.35416957072E+02 0.46234234555E+02 0.52471369383E+02 0.51692663177E+02 0.44151417266E+02
 0.32663247650E+02 0.20976874947E+02 0.11991400040E+02 0.68237746977E+01 0.47374673131E+01
 0.38436312327E+01 0.33379302932E+01 0.31528466628E+01 0.31744978176E+01 0.34315824880E+01
 0.40405764158E+01 0.50886294477E+01 0.78722970645E+01 0.13984599310E+02 0.23655506126E+02
 0.21766188220E+02 0.29844339693E+02 0.35548475275E+02 0.36649657355E+02 0.32663247650E+02
 0.25175728703E+02 0.16894769801E+02 0.10216325074E+02 0.62480816754E+01 0.45683172857E+01
 0.37532340700E+01 0.32516568278E+01 0.30334764843E+01 0.30008027796E+01 0.31339755489E+01
 0.35162086279E+01 0.42076869349E+01 0.53916009753E+01 0.83631222952E+01 0.13984069721E+02
 0.11978232235E+02 0.16892336294E+02 0.20974256882E+02 0.22569889827E+02 0.20976874947E+02
 0.16894769801E+02 0.11977982892E+02 0.78671234089E+01 0.53868902113E+01 0.42581756023E+01
 0.35674958507E+01 0.31256091023E+01 0.29123053092E+01 0.28537733117E+01 0.29125555725E+01
 0.31256456559E+01 0.35675317889E+01 0.42593109609E+01 0.53895433228E+01 0.78697324055E+01
 0.66612650761E+01 0.89154462628E+01 0.11140015237E+02 0.12363179414E+02 0.11991400040E+02
 0.10216325074E+02 0.78671234089E+01 0.58492711029E+01 0.46018686589E+01 0.38774150710E+01
 0.33295571479E+01 0.29783928844E+01 0.27995832783E+01 0.27389326432E+01 0.27613205255E+01
 0.28742369614E+01 0.31243052198E+01 0.35656533533E+01 0.42047567870E+01 0.50865754181E+01
 0.46466627472E+01 0.53845286356E+01 0.62194003099E+01 0.68086300408E+01 0.68237746977E+01
 0.62480816754E+01 0.53868902113E+01 0.46018686589E+01 0.40043347263E+01 0.34881058121E+01
 0.30909492145E+01 0.28366745350E+01 0.27043836165E+01 0.26566541713E+01 0.26671110144E+01
 0.27326428078E+01 0.28732335423E+01 0.31239466669E+01 0.35152657880E+01 0.40418973757E+01
 0.37957311759E+01 0.41744600280E+01 0.45008990536E+01 0.47072830131E+01 0.47374673131E+01
 0.45683172857E+01 0.42581756023E+01 0.38774150710E+01 0.34881058121E+01 0.31473949202E+01
 0.28895576226E+01 0.27227901463E+01 0.26348145475E+01 0.26050314462E+01 0.26172230869E+01
 0.26668512700E+01 0.27609111156E+01 0.29128338404E+01 0.31358647551E+01 0.34349719553E+01
 0.33630427430E+01 0.35503643074E+01 0.37152611304E+01 0.38247953464E+01 0.38436312327E+01
 0.37532340700E+01 0.35674958507E+01 0.33295571479E+01 0.30909492145E+01 0.28895576226E+01
 0.27412223132E+01 0.26454517877E+01 0.25953458903E+01 0.25837129408E+01 0.26051003849E+01
 0.26568651356E+01 0.27396715955E+01 0.28553859628E+01 0.30028792818E+01 0.31756753159E+01
 0.32537483091E+01 0.33316984643E+01 0.33750726677E+01 0.33784480672E+01 0.33379302932E+01
 0.32516568278E+01 0.31256091023E+01 0.29783928844E+01 0.28366745350E+01 0.27227901463E+01
 0.26454517877E+01 0.26014823699E+01 0.25851821047E+01 0.25954650202E+01 0.26350734139E+01
 0.27048969066E+01 0.28003565339E+01 0.29128338404E+01 0.30327639940E+01 0.31501982145E+01
 0.33770957592E+01 0.33764340462E+01 0.33353098135E+01 0.32577794294E+01 0.31528466628E+01
 0.30334764843E+01 0.29123053092E+01 0.27995832783E+01 0.27043836165E+01 0.26348145475E+01
 0.25953458903E+01 0.25851821047E+01 0.26015901848E+01 0.26456034678E+01 0.27229170466E+01
 0.28366386765E+01 0.29778064630E+01 0.31239466669E+01 0.32488704870E+01 0.33350125314E+01
 0.38284060898E+01 0.37199858779E+01 0.35540478862E+01 0.33642002147E+01 0.31744978176E+01
 0.30008027796E+01 0.28537733117E+01 0.27389326432E+01 0.26566541713E+01 0.26050314462E+01
 0.25837129408E+01 0.25954650202E+01 0.26456034678E+01 0.27411879366E+01 0.28891094660E+01
 0.30899016956E+01 0.33278856198E+01 0.35656533533E+01 0.37523137281E+01 0.38448435318E+01
 0.47117314378E+01 0.45029361633E+01 0.41732887639E+01 0.37924049695E+01 0.34315824880E+01
 0.31339755489E+01 0.29125555725E+01 0.27613205255E+01 0.26671110144E+01 0.26172230869E+01
 0.26051003849E+01 0.26350734139E+01 0.27229170466E+01 0.28891094660E+01 0.31462706797E+01
 0.34867702384E+01 0.38768045794E+01 0.42593109609E+01 0.45716572345E+01 0.47422959368E+01
 0.68084853340E+01 0.62160082064E+01 0.53797297411E+01 0.46428540556E+01 0.40405764158E+01
 0.35162086279E+01 0.31256456559E+01 0.28742369614E+01 0.27326428078E+01 0.26668512700E+01
 0.26568651356E+01 0.27048969066E+01 0.28366386765E+01 0.30899016956E+01 0.34867702384E+01
 0.40042897535E+01 0.46043244168E+01 0.53916009753E+01 0.62532604273E+01 0.68270658857E+01
 0.12358141590E+02 0.11134608284E+02 0.89119574014E+01 0.66607676455E+01 0.50886294477E+01
 0.42076869349E+01 0.35675317889E+01 0.31243052198E+01 0.28732335423E+01 0.27609111156E+01
 0.27396715955E+01 0.28003565339E+01 0.29778064630E+01 0.33278856198E+01 0.38768045794E+01
 0.46043244168E+01 0.58544606707E+01 0.78722970645E+01 0.10218422938E+02 0.11989284376E+02
 0.22564077989E+02 0.20970726378E+02 0.16891461562E+02 0.11979585004E+02 0.78722970645E+01
 0.53916009753E+01 0.42593109609E+01 0.35656533533E+01 0.31239466669E+01 0.29128338404E+01
 0.28553859628E+01 0.29128338404E+01 0.31239466669E+01 0.35656533533E+01 0.42593109609E+01
 0.53916009753E+01 0.78722970645E+01 0.11979585004E+02 0.16891461562E+02 0.20970726378E+02
 0.36645243299E+02 0.35545298884E+02 0.29842046526E+02 0.21765388532E+02 0.13984599310E+02
 0.83631222952E+01 0.53895433228E+01 0.42047567870E+01 0.35152657880E+01 0.31358647551E+01
 0.30028792818E+01 0.30327639940E+01 0.32488704870E+01 0.37523137281E+01 0.45716572345E+01
 0.62532604273E+01 0.10218422938E+02 0.16891461562E+02 0.25169147300E+02 0.32656995434E+02
 0.51687011893E+02 0.52464082032E+02 0.46227681548E+02 0.35414017077E+02 0.23655506126E+02
 0.13984069721E+02 0.78697324055E+01 0.50865754181E+01 0.40418973757E+01 0.34349719553E+01
 0.31756753159E+01 0.31501982145E+01 0.33350125314E+01 0.38448435318E+01 0.47422959368E+01
 0.68270658857E+01 0.11989284376E+02 0.20970726378E+02 0.32656995434E+02 0.44146404782E+02
 0.39705848727E+02 0.44135584892E+02 0.42451175236E+02 0.35416957072E+02 0.25723801566E+02
 0.16424719509E+02 0.96001693758E+01 0.58542876805E+01 0.43773512686E+01 0.36304009494E+01
 0.32098597695E+01 0.30680944126E+01 0.31124090989E+01 0.33672631229E+01 0.39453875926E+01
 0.48953835369E+01 0.71632181609E+01 0.12358141590E+02 0.20760564501E+02 0.30859454460E+02
 0.44135584892E+02 0.51679109297E+02 0.52464374627E+02 0.46234234555E+02 0.35420867803E+02
 0.23659582519E+02 0.13986945359E+02 0.78730959286E+01 0.50887806296E+01 0.40406061393E+01