    1    1    1    2
  0.1350000E+02  0.2598076E-09  0.2598076E-09  0.2598076E-09  0.5000000E-15
  1.000000000000000E-004
  CAR 
 bcc Fe                                  
      8     44     12
 
  0.5000000E-01  0.5000000E-01  0.5000000E-01  0.8000000E-02
    1       -2.708143     -2.573649   1.000000   1.000000
    2        1.982194      4.331069   1.000000   0.360212
    3        1.982194      4.331069   1.000000   0.360212
    4        2.374043      4.794722   1.000000  -0.001232
    5        3.032466      6.000902   1.000000  -0.000000
    6        3.032466      6.000902   1.000000  -0.000000
    7       24.790965     24.864493   0.000000   0.000000
    8       24.790965     24.864493   0.000000   0.000000
    9       27.511458     27.698737   0.000000   0.000000
   10       28.070813     28.463334   0.000000   0.000000
   11       31.473793     31.907095   0.000000   0.000000
   12       31.473794     31.907096   0.000000   0.000000
 
  0.1500000E+00  0.5000000E-01  0.5000000E-01  0.2400000E-01
    1       -1.712986     -1.548994   1.000000   1.000000
    2        1.759832      4.040548   1.000000   1.034946
    3        1.883161      4.149582   1.000000   0.972963
    4        2.897685      5.368962   1.000000  -0.000000
    5        2.950453      5.858523   1.000000  -0.000000
    6        3.087969      6.075960   1.000000  -0.000000
    7       20.564735     21.041684   0.000000   0.000000
    8       22.891700     23.119963   0.000000   0.000000
    9       24.574238     25.409598   0.000000   0.000000
   10       28.102215     27.934211   0.000000   0.000000
   11       30.978851     31.614179   0.000000   0.000000
   12       31.743283     32.018276   0.000000   0.000000
 
  0.2500000E+00  0.5000000E-01  0.5000000E-01  0.2400000E-01
    1       -0.449513     -0.060837   1.000000   1.000000
    2        1.509081      3.714796   1.000000   1.000150
    3        1.970148      3.923670   1.000000   1.011916
    4        2.991003      5.860975   1.000000  -0.000000
    5        3.144442      6.135927   1.000000  -0.000000
    6        3.634288      6.161406   1.000014  -0.000000
    7       16.127443     16.917729   0.000000   0.000000
    8       21.302325     21.550140   0.000000   0.000000
    9       22.497843     23.252568   0.000000   0.000000
   10       27.427085     27.542264   0.000000   0.000000
   11       30.175587     30.756484   0.000000   0.000000
   12       33.587231     33.808169   0.000000   0.000000
 
  0.3500000E+00  0.5000000E-01  0.5000000E-01  0.2400000E-01
    1        0.130545      1.276752   1.000000   1.000000
    2        1.321578      3.472012   1.000000   1.000000
    3        2.854122      4.095389   1.000000   1.026196
    4        3.107216      5.945444   1.000000  -0.000000
    5        3.189201      6.234561   1.000000  -0.000000
    6        4.635961      6.906002  -0.018887  -0.000000
    7       12.217212     13.367871   0.000000   0.000000
    8       20.253191     20.470319   0.000000   0.000000
    9       21.094255     21.778592   0.000000   0.000000
   10       26.929766     27.196736   0.000000   0.000000
   11       29.831154     30.425623   0.000000   0.000000
   12       35.940502     35.997584   0.000000   0.000000
 
  0.4500000E+00  0.5000000E-01  0.5000000E-01  0.1200000E-01
    1        0.176038      1.694024   1.000000   1.000000
    2        1.254351      3.384272   1.000000   1.000000
    3        3.105239      4.549164   1.000000  -0.035293
    4        3.208635      5.978656   1.000000  -0.000000
    5        3.466141      6.266025   1.000000  -0.000000
    6        5.661659      7.340200  -0.000000  -0.000000
    7       10.131316     11.681051   0.000000   0.000000
    8       19.889182     20.088261   0.000000   0.000000
    9       20.584090     21.231996   0.000000   0.000000
   10       26.773593     27.085797   0.000000   0.000000
   11       29.760350     30.371885   0.000000   0.000000
   12       35.993497     35.951227   0.000000   0.000000
 
 -0.5000000E-01  0.5000000E-01  0.5000000E-01  0.6000000E-02
    1       -3.063103     -2.931697   1.000000   1.000000
    2        2.075384      4.452056   1.000000   0.017269
    3        2.075522      4.452231   1.000000   0.017024
    4        2.118546      4.510751   1.000000  -0.030702
    5        3.004144      5.966464   1.000000  -0.000000
    6        3.099476      6.096938   1.000000  -0.000000
    7       26.329418     26.100217   0.000000   0.000000
    8       27.203496     26.999698   0.000000   0.000000
    9       27.203523     26.999793   0.000000   0.000000
   10       29.657942     30.074724   0.000000   0.000000
   11       30.850535     31.725996   0.000000   0.000000
   12       30.850612     31.725999   0.000000   0.000000
 
  0.1500000E+00  0.1500000E+00  0.5000000E-01  0.2400000E-01
    1       -0.572698     -0.305041   1.000000   1.000000
    2        1.603899      3.782096   1.000000   1.000815
    3        1.615438      3.789646   1.000000   1.000970
    4        2.962148      5.858642   1.000000  -0.000000
    5        3.148687      6.113032   1.000000  -0.000000
    6        3.681988      6.180046   1.000060  -0.000000
    7       18.471052     19.038394   0.000000   0.000000
    8       19.065464     19.669904   0.000000   0.000000
    9       21.929917     22.583047   0.000000   0.000000
   10       29.269068     29.108280   0.000000   0.000000
   11       32.176484     32.553309   0.000000   0.000000
   12       33.465908     33.881948   0.000000   0.000000
 
  0.2500000E+00  0.1500000E+00  0.5000000E-01  0.4800000E-01
    1        0.394285      1.169131   1.000000   1.000000
    2        1.380664      3.475662   1.000000   1.000000
    3        1.820551      3.629769   1.000000   1.000012
    4        3.033048      5.918801   1.000000  -0.000000
    5        3.224930      6.234937   1.000000  -0.000000
    6        4.852967      7.112501  -0.000307  -0.000000
    7       14.486938     15.356332   0.000000   0.000000
    8       17.429756     18.049291   0.000000   0.000000
    9       20.452930     21.027007   0.000000   0.000000
   10       29.264906     29.292785   0.000000   0.000000
   11       32.980630     33.306177   0.000000   0.000000
   12       34.056947     34.438753   0.000000   0.000000
 
  0.3500000E+00  0.1500000E+00  0.5000000E-01  0.4800000E-01
    1        0.527764      2.029900   1.000000   1.000000
    2        1.272688      3.339942   1.000000   1.000000
    3        2.430190      3.867182   1.000000   1.004751
    4        3.116392      6.007430   1.000000  -0.000000
    5        3.302790      6.280743   1.000000  -0.000000
    6        6.552671      8.192030  -0.000000  -0.000000
    7       11.036451     12.306829   0.000000   0.000000
    8       16.679731     17.291614   0.000000   0.000000
    9       19.690195     20.227371   0.000000   0.000000
   10       29.041859     29.173093   0.000000   0.000000
   11       33.373784     33.839893   0.000000   0.000000
   12       34.733016     34.802903   0.000000   0.000000
 
 -0.1500000E+00  0.1500000E+00  0.5000000E-01  0.2400000E-01
    1       -2.363641     -2.223158   1.000000   1.000000
    2        1.938617      4.272255   1.000000   0.605948
    3        2.059445      4.393241   1.000000   0.141865
    4        2.434909      4.868902   1.000000  -0.000203
    5        2.859649      5.752297   1.000000  -0.000000
    6        3.147870      6.155189   1.000000  -0.000000
    7       22.820622     23.107369   0.000000   0.000000
    8       25.445947     25.484322   0.000000   0.000000
    9       25.867129     26.149008   0.000000   0.000000
   10       28.905406     29.365929   0.000000   0.000000
   11       28.935146     29.534508   0.000000   0.000000
   12       29.944458     30.371136   0.000000   0.000000
 
  0.2500000E+00  0.2500000E+00  0.5000000E-01  0.2400000E-01
    1        0.873726      2.308476   1.000000   1.000000
    2        1.337516      3.244388   1.000000   1.000000
    3        1.806496      3.508218   1.000000   1.000000
    4        3.110329      6.009010   1.000000  -0.000000
    5        3.286057      6.261679   1.000000  -0.000000
    6        6.793867      8.542411  -0.000000  -0.000000
    7       13.122547     14.049041   0.000000   0.000000
    8       13.739616     14.582436   0.000000   0.000000
    9       19.508630     20.074453   0.000000   0.000000
   10       30.531522     30.530039   0.000000   0.000000
   11       32.914984     33.095140   0.000000   0.000000
   12       38.137355     38.402545   0.000000   0.000000
 
  0.3500000E+00  0.2500000E+00  0.5000000E-01  0.2400000E-01
    1        0.918651      2.682027   1.000000   1.000000
    2        1.367369      3.255356   1.000000   1.000000
    3        1.870240      3.483944   1.000000   1.000000
    4        3.179332      6.093254   1.000000  -0.000000
    5        3.291120      6.236723   1.000000  -0.000000
    6        8.816367     10.051067  -0.000000   0.000000
    7       10.613829     11.850804   0.000000   0.000000
    8       13.147015     14.014308   0.000000   0.000000
    9       19.199372     19.771925   0.000000   0.000000
   10       30.963255     31.004860   0.000000   0.000000
   11       33.111293     33.110460   0.000000   0.000000
   12       37.578905     38.149953   0.000000   0.000000
 
 -0.2500000E+00  0.2500000E+00  0.5000000E-01  0.2400000E-01
    1       -1.146272     -0.920296   1.000000   1.000000
    2        1.702242      3.966392   1.000000   1.020519
    3        2.009591      4.173074   1.000000   0.929731
    4        2.849003      5.528563   1.000000  -0.000000
    5        3.007896      5.669651   1.000000  -0.000000
    6        3.202245      6.211098   1.000000  -0.000000
    7       18.275502     18.933774   0.000000   0.000000
    8       23.446288     23.520575   0.000000   0.000000
    9       24.095128     24.733703   0.000000   0.000000
   10       27.280289     27.747573   0.000000   0.000000
   11       28.665228     29.186786   0.000000   0.000000
   12       30.873234     31.112570   0.000000   0.000000
 
 -0.1500000E+00  0.2500000E+00  0.5000000E-01  0.2400000E-01
    1       -1.405688     -1.223044   1.000000   1.000000
    2        1.890955      4.163790   1.000000   0.948439
    3        1.905367      4.195522   1.000000   0.875523
    4        2.710262      5.345129   1.000000  -0.000000
    5        2.871263      5.509786   1.000000  -0.000000
    6        3.255638      6.265391   1.000000  -0.000000
    7       20.535654     20.982440   0.000000   0.000000
    8       21.344182     21.901371   0.000000   0.000000
    9       26.098920     26.253462   0.000000   0.000000
   10       26.270904     26.852260   0.000000   0.000000
   11       28.965673     29.332824   0.000000   0.000000
   12       31.945462     32.274252   0.000000   0.000000
 
 -0.3500000E+00  0.3500000E+00  0.5000000E-01  0.2400000E-01
    1       -0.118196      0.611395   1.000000   1.000000
    2        1.472351      3.672808   1.000000   1.000046
    3        2.417689      4.044718   1.000000   1.035233
    4        3.032155      5.791823   1.000000  -0.000000
    5        3.421099      6.275673   1.000000  -0.000000
    6        3.643361      6.290440   1.000019  -0.000000
    7       14.015624     14.986410   0.000000   0.000000
    8       21.926556     21.978780   0.000000   0.000000
    9       22.401564     23.091125   0.000000   0.000000
   10       26.416447     26.900543   0.000000   0.000000
   11       28.532000     29.080534   0.000000   0.000000
   12       32.598973     32.827830   0.000000   0.000000
 
 -0.2500000E+00  0.3500000E+00  0.5000000E-01  0.4800000E-01
    1       -0.210125      0.221760   1.000000   1.000000
    2        1.632323      3.831920   1.000000   1.002412
    3        1.886240      3.971639   1.000000   1.021713
    4        2.799471      5.535666   1.000000  -0.000000
    5        3.297230      6.057628   1.000000  -0.000000
    6        3.742018      6.413495   1.000307  -0.000000
    7       16.389729     17.162954   0.000000   0.000000
    8       19.325146     19.895133   0.000000   0.000000
    9       24.082235     24.484787   0.000000   0.000000
   10       26.440155     26.770082   0.000000   0.000000
   11       29.446685     29.842529   0.000000   0.000000
   12       32.409424     32.782944   0.000000   0.000000
 
 -0.4500000E+00  0.4500000E+00  0.5000000E-01  0.2400000E-01
    1        0.107280      1.532078   1.000000   1.000000
    2        1.332540      3.496574   1.000000   1.000000
    3        2.886232      4.471444   1.000000  -0.005782
    4        3.074045      5.887344   1.000000  -0.000000
    5        4.067194      6.485829   1.034549  -0.000000
    6        4.736596      6.789324  -0.004045  -0.000000
    7       10.720539     12.140300   0.000000   0.000000
    8       21.113683     21.138075   0.000000   0.000000
    9       21.372259     22.012917   0.000000   0.000000
   10       26.037349     26.571512   0.000000   0.000000
   11       28.560214     29.161538   0.000000   0.000000
   12       34.044106     34.094120   0.000000   0.000000
 
 -0.3500000E+00  0.4500000E+00  0.5000000E-01  0.4800000E-01
    1        0.330800      1.527247   1.000000   1.000000
    2        1.474085      3.616364   1.000000   1.000008
    3        2.199057      3.902406   1.000000   1.008645
    4        2.976353      5.724481   1.000000  -0.000000
    5        3.597993      6.367502   1.000004  -0.000000
    6        5.038345      7.132350  -0.000001  -0.000000
    7       12.435981     13.540232   0.000000   0.000000
    8       18.195802     18.766687   0.000000   0.000000
    9       22.690376     23.027405   0.000000   0.000000
   10       26.493955     26.933898   0.000000   0.000000
   11       30.594549     30.909568   0.000000   0.000000
   12       32.211637     32.585459   0.000000   0.000000
 
 -0.2500000E+00  0.4500000E+00  0.5000000E-01  0.2400000E-01
    1        0.604663      1.559431   1.000000   1.000000
    2        1.390582      3.460522   1.000000   1.000000
    3        1.884760      3.876006   1.000000   1.005562
    4        2.893868      5.617381   1.000000  -0.000000
    5        3.415063      6.265152   1.000000  -0.000000
    6        5.196706      7.337985  -0.000000  -0.000000
    7       14.796671     15.653434   0.000000   0.000000
    8       15.256159     16.028843   0.000000   0.000000
    9       23.601431     24.069532   0.000000   0.000000
   10       26.456033     26.629920   0.000000   0.000000
   11       29.396263     29.780511   0.000000   0.000000
   12       36.387944     36.705523   0.000000   0.000000
 
 -0.4500000E+00 -0.4500000E+00  0.5000000E-01  0.2400000E-01
    1        0.361901      1.943718   1.000000   1.000000
    2        1.422665      3.569213   1.000000   1.000002
    3        2.392742      4.058429   1.000000   1.035320
    4        2.997585      5.781978   1.000000  -0.000000
    5        3.836907      6.527303   1.002667  -0.000000
    6        6.370008      7.806760  -0.000000  -0.000000
    7       10.213086     11.707458   0.000000   0.000000
    8       17.789334     18.350578   0.000000   0.000000
    9       22.207311     22.513233   0.000000   0.000000
   10       26.489457     26.975861   0.000000   0.000000
   11       31.507017     32.021917   0.000000   0.000000
   12       31.992348     32.028491   0.000000   0.000000
 
 -0.3500000E+00 -0.4500000E+00  0.5000000E-01  0.4800000E-01
    1        0.817978      2.437626   1.000000   1.000000
    2        1.405895      3.376945   1.000000   1.000000
    3        1.842572      3.684166   1.000000   1.000064
    4        3.061200      5.807881   1.000000  -0.000000
    5        3.535040      6.303053   1.000000  -0.000000
    6        7.360194      8.869292  -0.000000  -0.000000
    7       11.377427     12.537556   0.000000   0.000000
    8       14.295997     15.090872   0.000000   0.000000
    9       23.012622     23.466019   0.000000   0.000000
   10       26.970809     27.213938   0.000000   0.000000
   11       29.844491     29.998553   0.000000   0.000000
   12       35.017435     35.791226   0.000000   0.000000
 
 -0.3500000E+00 -0.3500000E+00  0.5000000E-01  0.8000000E-02
    1        1.166549      3.108933   1.000000   1.000000
    2        1.441464      3.259082   1.000000   1.000000
    3        1.441535      3.259105   1.000000   1.000000
    4        3.324126      6.079260   1.000000  -0.000000
    5        3.324248      6.079458   1.000000  -0.000000
    6       10.061333     11.212597   0.000000   0.000000
    7       10.061410     11.212604   0.000000   0.000000
    8       12.000878     13.038969   0.000000   0.000000
    9       23.051173     23.576353   0.000000   0.000000
   10       28.402340     28.517416   0.000000   0.000000
   11       28.402350     28.517699   0.000000   0.000000
   12       34.224913     35.194531   0.000000   0.000000
 
  0.1500000E+00  0.1500000E+00  0.1500000E+00  0.8000000E-02
    1        0.538430      1.033430   1.000000   1.000000
    2        1.378585      3.450985   1.000000   1.000000
    3        1.378585      3.450985   1.000000   1.000000
    4        3.123080      6.107834   1.000000  -0.000000
    5        3.123080      6.107834   1.000000  -0.000000
    6        4.850780      7.143905  -0.000325  -0.000000
    7       16.921969     17.548345   0.000000   0.000000
    8       16.921969     17.548345   0.000000   0.000000
    9       17.771898     18.565240   0.000000   0.000000
   10       32.060889     31.696854   0.000000   0.000000
   11       35.034576     35.263378   0.000000   0.000000
   12       35.034576     35.263378   0.000000   0.000000
 
  0.2500000E+00  0.1500000E+00  0.1500000E+00  0.2400000E-01
    1        0.956049      2.245077   1.000000   1.000000
    2        1.251326      3.251476   1.000000   1.000000
    3        1.744168      3.355082   1.000000   1.000000
    4        3.161098      6.138106   1.000000  -0.000000
    5        3.199123      6.242626   1.000000  -0.000000
    6        6.599865      8.420778  -0.000000  -0.000000
    7       13.152257     14.075046   0.000000   0.000000
    8       15.960892     16.610707   0.000000   0.000000
    9       16.395374     17.115392   0.000000   0.000000
   10       32.805616     32.645183   0.000000   0.000000
   11       35.739128     36.042800   0.000000   0.000000
   12       37.234818     37.264423   0.000000   0.000000
 
  0.3500000E+00  0.1500000E+00  0.1500000E+00  0.1200000E-01
    1        0.894473      2.538187   1.000000   1.000000
    2        1.213400      3.187008   1.000000   1.000000
    3        2.108386      3.598962   1.000000   1.000005
    4        3.190676      6.165915   1.000000  -0.000000
    5        3.220090      6.284435   1.000000  -0.000000
    6        8.365816      9.627167  -0.000000  -0.000000
    7       10.596538     11.891529   0.000000   0.000000
    8       15.639204     16.293667   0.000000   0.000000
    9       15.993563     16.696698   0.000000   0.000000
   10       32.749567     32.672308   0.000000   0.000000
   11       36.069769     36.523624   0.000000   0.000000
   12       37.454742     37.433044   0.000000   0.000000
 
 -0.1500000E+00  0.1500000E+00  0.1500000E+00  0.6000000E-02
    1       -1.703727     -1.543562   1.000000   1.000000
    2        2.132889      4.461531   1.000000   0.004992
    3        2.133028      4.461700   1.000000   0.004791
    4        2.447098      4.891931   1.000000  -0.000109
    5        2.504425      5.270160   1.000000  -0.000000
    6        3.302766      6.323005   1.000000  -0.000000
    7       22.723204     22.824034   0.000000   0.000000
    8       23.514745     24.089213   0.000000   0.000000
    9       23.514823     24.089325   0.000000   0.000000
   10       25.047508     25.484427   0.000000   0.000000
   11       31.419738     31.692447   0.000000   0.000000
   12       31.419840     31.692473   0.000000   0.000000
 
  0.2500000E+00  0.2500000E+00  0.1500000E+00  0.2400000E-01
    1        1.121062      2.896514   1.000000   1.000000
    2        1.372139      3.162506   1.000000   1.000000
    3        1.667255      3.271652   1.000000   1.000000
    4        3.206746      6.228718   1.000000  -0.000000
    5        3.226972      6.275998   1.000000  -0.000000
    6        9.004537     10.310116  -0.000000   0.000000
    7       12.074941     13.038532   0.000000   0.000000
    8       12.837142     13.731182   0.000000   0.000000
    9       15.545384     16.244756   0.000000   0.000000
   10       35.126280     34.981640   0.000000   0.000000
   11       36.636977     36.610903   0.000000   0.000000
   12       39.604561     39.761459   0.000000   0.000000
 
 -0.2500000E+00  0.2500000E+00  0.1500000E+00  0.2400000E-01
    1       -0.590622     -0.307734   1.000000   1.000000
    2        1.942120      4.266047   1.000000   0.631344
    3        2.021364      4.311803   1.000000   0.439714
    4        2.502489      5.076257   1.000000  -0.000000
    5        2.941170      5.451346   1.000000  -0.000000
    6        3.529120      6.454620   1.000000  -0.000000
    7       18.814695     19.456740   0.000000   0.000000
    8       21.445608     22.123233   0.000000   0.000000
    9       22.120486     22.414322   0.000000   0.000000
   10       25.100713     25.540490   0.000000   0.000000
   11       30.801418     31.222578   0.000000   0.000000
   12       32.004744     32.306024   0.000000   0.000000
 
 -0.3500000E+00  0.3500000E+00  0.1500000E+00  0.2400000E-01
    1        0.300930      1.123941   1.000000   1.000000
    2        1.757600      3.815824   1.000000   1.001726
    3        1.833441      4.073711   1.000000   1.033478
    4        2.796113      5.371100   1.000000  -0.000000
    5        3.586949      6.206965   1.000003  -0.000000
    6        4.323609      6.740967   0.390623  -0.000000
    7       14.518356     15.429531   0.000000   0.000000
    8       19.807835     20.485321   0.000000   0.000000
    9       21.009112     21.314982   0.000000   0.000000
   10       26.646180     27.016854   0.000000   0.000000
   11       29.794838     30.273774   0.000000   0.000000
   12       31.782770     32.163878   0.000000   0.000000
 
 -0.2500000E+00  0.3500000E+00  0.1500000E+00  0.2400000E-01
    1        0.326968      0.966245   1.000000   1.000000
    2        1.545634      3.823944   1.000000   1.002047
    3        2.131695      4.362639   1.000000   0.239966
    4        2.604487      5.108810   1.000000  -0.000000
    5        3.339117      5.964308   1.000000  -0.000000
    6        4.284286      6.767448   0.555843  -0.000000
    7       16.991528     17.741738   0.000000   0.000000
    8       17.370078     18.074946   0.000000   0.000000
    9       22.894191     23.259060   0.000000   0.000000
   10       23.882800     24.344281   0.000000   0.000000
   11       30.338196     30.780525   0.000000   0.000000
   12       35.176022     35.474182   0.000000   0.000000
 
 -0.4500000E+00  0.4500000E+00  0.1500000E+00  0.2400000E-01
    1        0.455143      2.004589   1.000000   1.000000
    2        1.715747      3.716518   1.000000   1.000157
    3        1.918198      3.924922   1.000000   1.012131
    4        2.847921      5.501932   1.000000  -0.000000
    5        4.030402      6.744245   1.033838  -0.000000
    6        6.153257      7.645678  -0.000000  -0.000000
    7       11.022857     12.317864   0.000000   0.000000
    8       18.864201     19.499327   0.000000   0.000000
    9       20.406899     20.715940   0.000000   0.000000
   10       28.673712     28.926340   0.000000   0.000000
   11       29.275564     29.778184   0.000000   0.000000
   12       30.821876     31.260741   0.000000   0.000000
 
 -0.3500000E+00  0.4500000E+00  0.1500000E+00  0.4800000E-01
    1        0.746912      2.104864   1.000000   1.000000
    2        1.366419      3.398781   1.000000   1.000000
    3        1.985160      4.187941   1.000000   0.895249
    4        2.863820      5.420091   1.000000  -0.000000
    5        3.706502      6.378025   1.000120  -0.000000
    6        6.098492      7.852983  -0.000000  -0.000000
    7       13.117311     14.093035   0.000000   0.000000
    8       16.042028     16.762880   0.000000   0.000000
    9       22.300391     22.686995   0.000000   0.000000
   10       25.401923     25.768375   0.000000   0.000000
   11       29.422299     29.861279   0.000000   0.000000
   12       33.253173     33.952237   0.000000   0.000000
 
 -0.4500000E+00 -0.4500000E+00  0.1500000E+00  0.2400000E-01
    1        0.728569      2.515243   1.000000   1.000000
    2        1.500290      3.334346   1.000000   1.000000
    3        1.838297      4.032910   1.000000   1.034160
    4        2.935717      5.514110   1.000000  -0.000000
    5        3.908980      6.596969   1.009579  -0.000000
    6        7.984294      9.169367  -0.000000  -0.000000
    7       10.523139     11.838527   0.000000   0.000000
    8       15.615634     16.319045   0.000000   0.000000
    9       21.969105     22.354083   0.000000   0.000000
   10       27.298643     27.460559   0.000000   0.000000
   11       28.107008     28.669684   0.000000   0.000000
   12       31.899431     32.695773   0.000000   0.000000
 
 -0.3500000E+00 -0.4500000E+00  0.1500000E+00  0.2400000E-01
    1        1.089797      2.871411   1.000000   1.000000
    2        1.113607      3.092162   1.000000   1.000000
    3        1.778091      3.894355   1.000000   1.007594
    4        3.243060      5.832408   1.000000  -0.000000
    5        3.640859      6.292752   1.000018  -0.000000
    6        8.673163      9.940536  -0.000000   0.000000
    7       11.881406     12.889374   0.000000   0.000000
    8       12.767733     13.665095   0.000000   0.000000
    9       24.287939     24.576682   0.000000   0.000000
   10       24.945613     25.322908   0.000000   0.000000
   11       27.475754     27.957656   0.000000   0.000000
   12       31.737212     32.554075   0.000000   0.000000
 
  0.2500000E+00  0.2500000E+00  0.2500000E+00  0.2000000E-02
    1        1.401991      3.147659   1.000000   1.000000
    2        1.401991      3.147659   1.000000   1.000000
    3        1.402155      3.147735   1.000000   1.000000
    4        3.228025      6.296331   1.000000  -0.000000
    5        3.228025      6.296331   1.000000  -0.000000
    6       11.716180     12.691716   0.000000   0.000000
    7       11.716180     12.691716   0.000000   0.000000
    8       11.716333     12.691910   0.000000   0.000000
    9       13.063515     13.899397   0.000000   0.000000
   10       40.027319     39.685115   0.000000   0.000000
   11       40.027413     39.685117   0.000000   0.000000
   12       40.031531     39.685268   0.000000   0.000000
 
 -0.2500000E+00  0.2500000E+00  0.2500000E+00  0.6000000E-02
    1        0.204614      0.745890   1.000000   1.000000
    2        1.665959      4.131704   1.000000   0.997112
    3        2.440447      4.750215   1.000000  -0.003118
    4        2.440585      4.750376   1.000000  -0.003108
    5        2.987994      5.522312   1.000000  -0.000000
    6        4.106332      6.711505   1.019927  -0.000000
    7       19.193393     19.888995   0.000000   0.000000
    8       19.193455     19.889206   0.000000   0.000000
    9       20.277110     20.725806   0.000000   0.000000
   10       21.812494     22.291179   0.000000   0.000000
   11       34.753518     35.035782   0.000000   0.000000
   12       34.753609     35.035894   0.000000   0.000000
 
 -0.3500000E+00  0.3500000E+00  0.2500000E+00  0.2400000E-01
    1        0.688748      1.838804   1.000000   1.000000
    2        1.234587      3.490814   1.000000   1.000000
    3        2.467374      4.785703   1.000000  -0.001501
    4        2.732514      5.130728   1.000000  -0.000000
    5        3.504631      6.112912   1.000000  -0.000000
    6        5.471147      7.369545  -0.000000  -0.000000
    7       15.432306     16.223156   0.000000   0.000000
    8       17.439208     18.097672   0.000000   0.000000
    9       20.024615     20.565799   0.000000   0.000000
   10       22.403605     22.898033   0.000000   0.000000
   11       32.168668     32.826397   0.000000   0.000000
   12       33.735432     34.184318   0.000000   0.000000
 
 -0.4500000E+00  0.4500000E+00  0.2500000E+00  0.2400000E-01
    1        0.714311      2.511377   1.000000   1.000000
    2        1.111778      3.074891   1.000000   1.000000
    3        2.403719      4.711927   1.000000  -0.006290
    4        2.861472      5.292757   1.000000  -0.000000
    5        3.964903      6.666544   1.020183  -0.000000
    6        7.808024      9.032241  -0.000000  -0.000000
    7       11.740309     12.780967   0.000000   0.000000
    8       16.439861     17.036474   0.000000   0.000000
    9       19.671791     20.256292   0.000000   0.000000
   10       24.449955     24.801764   0.000000   0.000000
   11       28.792850     29.602246   0.000000   0.000000
   12       33.140928     33.594919   0.000000   0.000000
 
 -0.3500000E+00  0.4500000E+00  0.2500000E+00  0.2400000E-01
    1        0.788536      2.457534   1.000000   1.000000
    2        0.885245      3.028863   1.000000   1.000000
    3        2.528528      4.827464   1.000000  -0.000578
    4        3.140192      5.601733   1.000000  -0.000000
    5        3.751242      6.398213   1.000387  -0.000000
    6        7.591196      8.887138  -0.000000  -0.000000
    7       14.037414     14.838324   0.000000   0.000000
    8       14.358625     15.070613   0.000000   0.000000
    9       20.859262     21.375961   0.000000   0.000000
   10       22.029203     22.565025   0.000000   0.000000
   11       28.392471     29.158042   0.000000   0.000000
   12       33.834118     34.288144   0.000000   0.000000
 
 -0.4500000E+00 -0.4500000E+00  0.2500000E+00  0.2400000E-01
    1        0.718485      2.730223   1.000000   1.000000
    2        0.833692      2.784886   1.000000   1.000000