 running on    4 total cores
 distrk:  each k-point on    4 cores,    1 groups
 distr:  one band on    1 cores,    4 groups
 using from now: INCAR     
 vasp.5.4.4.18Apr17-6-g9f103f2a35 (build Jul 01 2019 03:25:34) complex          
  
 POSCAR found type information on POSCAR  Fe
 POSCAR found :  1 types and       1 ions
 scaLAPACK will be used
 LDA part: xc-table for Pade appr. of Perdew
 POSCAR, INCAR and KPOINTS ok, starting setup
 FFT: planning ...
 WAVECAR not read
 entering main loop
       N       E                     dE             d eps       ncg     rms          rms(c)
DAV:   1     0.107992209781E+02    0.10799E+02   -0.26291E+03  2344   0.447E+02
DAV:   2    -0.867170211045E+01   -0.19471E+02   -0.17722E+02  2212   0.902E+01
DAV:   3    -0.901025095418E+01   -0.33855E+00   -0.33778E+00  2496   0.139E+01
DAV:   4    -0.901125760674E+01   -0.10067E-02   -0.10066E-02  2312   0.723E-01
DAV:   5    -0.901126301292E+01   -0.54062E-05   -0.54062E-05  2024   0.554E-02    0.967E+00
DAV:   6    -0.826366074648E+01    0.74760E+00   -0.13948E+01  2360   0.401E+01    0.781E+00
DAV:   7    -0.809471984635E+01    0.16894E+00   -0.15288E+00  2400   0.124E+01    0.345E+00
DAV:   8    -0.809612685540E+01   -0.14070E-02   -0.17209E-02  2308   0.775E-01    0.143E+00
DAV:   9    -0.808949259266E+01    0.66343E-02   -0.13925E-02  2432   0.607E-01    0.467E-01
DAV:  10    -0.809001220335E+01   -0.51961E-03   -0.71462E-03  2248   0.455E-01    0.243E-01
DAV:  11    -0.809041754013E+01   -0.40534E-03   -0.49478E-04  2208   0.118E-01    0.652E-02
DAV:  12    -0.809042021411E+01   -0.26740E-05   -0.18682E-05  1144   0.316E-02
   1 F= -.80904202E+01 E0= -.80904468E+01  d E =0.798826E-04  mag=     2.5839
 writing wavefunctions
