   1   1   1   0
  0.1145315E+02  0.2459512E-09  0.2459512E-09  0.2459512E-09  0.5000000E-15
  1.000000000000000E-004
  CAR 
 bcc Fe                                  
     47.73280104     -5.05663636  301      5.81036159      1.00000000
     -5.057  0.0000E+00  0.0000E+00  0.0000E+00  0.0000E+00
     -4.881  0.0000E+00  0.0000E+00  0.0000E+00  0.0000E+00
     -4.705  0.0000E+00  0.0000E+00  0.0000E+00  0.0000E+00
     -4.529  0.0000E+00  0.0000E+00  0.0000E+00  0.0000E+00
     -4.353 -0.2569E-31  0.0000E+00 -0.4520E-32  0.0000E+00
     -4.177 -0.3243E-25 -0.5022E-32 -0.5707E-26 -0.8837E-33
     -4.001 -0.8633E-20 -0.7516E-26 -0.1519E-20 -0.1323E-26
     -3.825 -0.4740E-15 -0.2372E-20 -0.8341E-16 -0.4174E-21
     -3.649 -0.5457E-11 -0.1576E-15 -0.9604E-12 -0.2773E-16
     -3.473 -0.1314E-07 -0.2113E-11 -0.2313E-08 -0.3719E-12
     -3.297 -0.6426E-05 -0.6046E-08 -0.1133E-05 -0.1064E-08
     -3.121 -0.6055E-03 -0.3526E-05 -0.1077E-03 -0.6216E-06
     -2.945 -0.8722E-02 -0.3999E-03 -0.1642E-02 -0.7098E-04
     -2.769  0.2370E-01 -0.7295E-02  0.2528E-02 -0.1355E-02
     -2.593  0.2348E+00  0.1152E-01  0.4385E-01  0.6725E-03
     -2.417  0.2525E+00  0.2113E+00  0.8828E-01  0.3786E-01
     -2.241  0.1352E+00  0.2654E+00  0.1121E+00  0.8456E-01
     -2.065  0.1091E+00  0.1417E+00  0.1313E+00  0.1095E+00
     -1.889  0.9077E-01  0.1100E+00  0.1472E+00  0.1289E+00
     -1.713  0.8739E-01  0.9250E-01  0.1626E+00  0.1451E+00
     -1.537  0.8417E-01  0.8263E-01  0.1774E+00  0.1597E+00
     -1.361  0.5524E-01  0.9058E-01  0.1871E+00  0.1756E+00
     -1.185  0.9700E-01  0.4818E-01  0.2042E+00  0.1841E+00
     -1.009  0.5318E-01  0.9348E-01  0.2136E+00  0.2005E+00
     -0.833  0.5144E-01  0.6178E-01  0.2226E+00  0.2114E+00
     -0.658  0.9435E-01  0.4133E-01  0.2392E+00  0.2187E+00
     -0.482  0.5481E-01  0.7872E-01  0.2489E+00  0.2325E+00
     -0.306  0.3119E-01  0.7737E-01  0.2544E+00  0.2461E+00
     -0.130  0.1081E+00  0.1980E-01  0.2734E+00  0.2496E+00
      0.046  0.5264E-01  0.6031E-01  0.2826E+00  0.2602E+00
      0.222  0.4231E-01  0.1015E+00  0.2901E+00  0.2781E+00
      0.398  0.9779E-01  0.1507E-01  0.3073E+00  0.2807E+00
      0.574  0.7190E-01  0.4677E-01  0.3199E+00  0.2890E+00
      0.750  0.1511E+00  0.8327E-01  0.3465E+00  0.3036E+00
      0.926  0.6438E+00  0.5918E-01  0.4598E+00  0.3140E+00
      1.102  0.8841E+00  0.3351E-01  0.6154E+00  0.3199E+00
      1.278  0.6720E+00  0.5860E-01  0.7337E+00  0.3303E+00
      1.454  0.5744E+00  0.8885E-01  0.8347E+00  0.3459E+00
      1.630  0.5631E+00  0.4874E-01  0.9338E+00  0.3545E+00
      1.806  0.3260E+00  0.5765E-01  0.9912E+00  0.3646E+00
      1.982  0.1308E+00  0.9693E-01  0.1014E+01  0.3817E+00
      2.158  0.3078E+00  0.2263E+00  0.1068E+01  0.4215E+00
      2.334  0.1463E+01  0.4076E+00  0.1326E+01  0.4932E+00
      2.510  0.1711E+01  0.2876E+00  0.1627E+01  0.5438E+00
      2.686  0.8991E+00  0.2153E+00  0.1785E+01  0.5817E+00
      2.862  0.5414E+00  0.6173E+00  0.1880E+01  0.6903E+00
      3.038  0.4259E+00  0.7845E+00  0.1955E+01  0.8284E+00
      3.214  0.6805E+00  0.5217E+00  0.2075E+01  0.9202E+00
      3.390  0.1835E+01  0.3946E+00  0.2398E+01  0.9896E+00
      3.566  0.1507E+01  0.2259E+00  0.2663E+01  0.1029E+01
      3.742  0.5673E+00  0.1358E+00  0.2763E+01  0.1053E+01
      3.918  0.4645E+00  0.5075E+00  0.2845E+01  0.1143E+01
      4.094  0.4136E+00  0.1457E+01  0.2917E+01  0.1399E+01
      4.269  0.4549E+00  0.1293E+01  0.2998E+01  0.1626E+01
      4.445  0.5697E+00  0.7166E+00  0.3098E+01  0.1752E+01
      4.621  0.1228E+01  0.4557E+00  0.3314E+01  0.1833E+01
      4.797  0.3024E+01  0.4010E+00  0.3846E+01  0.1903E+01
      4.973  0.3481E+01  0.3967E+00  0.4458E+01  0.1973E+01
      5.149  0.1724E+01  0.4993E+00  0.4762E+01  0.2061E+01
      5.325  0.3600E+00  0.6993E+00  0.4825E+01  0.2184E+01
      5.501  0.4309E+00  0.1530E+01  0.4901E+01  0.2453E+01
      5.677  0.7192E+00  0.1631E+01  0.5028E+01  0.2740E+01
      5.853  0.1078E+01  0.6072E+00  0.5217E+01  0.2847E+01
      6.029  0.7981E+00  0.4449E+00  0.5358E+01  0.2925E+01
      6.205  0.3159E+00  0.4440E+00  0.5413E+01  0.3003E+01
      6.381  0.1669E+00  0.5204E+00  0.5443E+01  0.3095E+01
      6.557  0.1190E+00  0.4735E+00  0.5464E+01  0.3178E+01
      6.733  0.6806E-01  0.4237E+00  0.5476E+01  0.3253E+01
      6.909  0.7417E-01  0.3479E+00  0.5489E+01  0.3314E+01
      7.085  0.7263E-01  0.4196E+00  0.5501E+01  0.3388E+01
      7.261  0.1169E+00  0.1073E+01  0.5522E+01  0.3577E+01
      7.437  0.5961E-01  0.2384E+01  0.5532E+01  0.3996E+01
      7.613  0.3586E-01  0.2473E+01  0.5539E+01  0.4431E+01
      7.789  0.5684E-01  0.2315E+01  0.5549E+01  0.4839E+01
      7.965  0.1135E+00  0.9433E+00  0.5569E+01  0.5005E+01
      8.141  0.7457E-01  0.5821E+00  0.5582E+01  0.5107E+01
      8.317  0.6756E-01  0.9546E+00  0.5594E+01  0.5275E+01
      8.493  0.3589E-01  0.7513E+00  0.5600E+01  0.5407E+01
      8.669  0.2639E-01  0.4555E+00  0.5605E+01  0.5488E+01
      8.845  0.9233E-01  0.1114E+00  0.5621E+01  0.5507E+01
      9.021  0.9246E-01  0.9169E-01  0.5637E+01  0.5523E+01
      9.197  0.6484E-01  0.9000E-01  0.5649E+01  0.5539E+01
      9.372  0.3697E-01  0.7657E-01  0.5655E+01  0.5553E+01
      9.548  0.6158E-01  0.1083E+00  0.5666E+01  0.5572E+01
      9.724  0.3510E-01  0.6846E-01  0.5672E+01  0.5584E+01
      9.900  0.6813E-01  0.7221E-01  0.5684E+01  0.5597E+01
     10.076  0.7980E-01  0.7825E-01  0.5698E+01  0.5610E+01
     10.252  0.4429E-01  0.6487E-01  0.5706E+01  0.5622E+01
     10.428  0.6278E-01  0.6807E-01  0.5717E+01  0.5634E+01
     10.604  0.5059E-01  0.1121E+00  0.5726E+01  0.5653E+01
     10.780  0.5391E-01  0.5057E-01  0.5735E+01  0.5662E+01
     10.956  0.7033E-01  0.3705E-01  0.5748E+01  0.5669E+01
     11.132  0.3144E-01  0.5315E-01  0.5753E+01  0.5678E+01
     11.308  0.6139E-01  0.1028E+00  0.5764E+01  0.5696E+01
     11.484  0.4641E-01  0.8161E-01  0.5772E+01  0.5711E+01
     11.660  0.4481E-01  0.6346E-01  0.5780E+01  0.5722E+01
     11.836  0.8203E-01  0.4476E-01  0.5795E+01  0.5730E+01
     12.012  0.7011E-01  0.1367E-01  0.5807E+01  0.5732E+01
     12.188  0.2981E-01  0.8853E-01  0.5812E+01  0.5748E+01
     12.364  0.5322E-01  0.9229E-01  0.5822E+01  0.5764E+01
     12.540  0.4131E-01  0.6833E-01  0.5829E+01  0.5776E+01
     12.716  0.5270E-02  0.5375E-01  0.5830E+01  0.5785E+01
     12.892  0.1221E+00  0.3815E-01  0.5851E+01  0.5792E+01
     13.068  0.5950E+00  0.3977E-01  0.5956E+01  0.5799E+01
     13.244  0.6168E+00  0.6845E-01  0.6064E+01  0.5811E+01
     13.420  0.2721E+00  0.8327E-01  0.6112E+01  0.5826E+01
     13.596  0.1900E+00  0.6002E-01  0.6146E+01  0.5836E+01
     13.772  0.2250E+00  0.5289E-01  0.6185E+01  0.5846E+01
     13.948  0.1470E+00  0.6598E-01  0.6211E+01  0.5857E+01
     14.124  0.1499E+00  0.7558E-02  0.6238E+01  0.5859E+01
     14.299  0.3722E+00  0.4738E-01  0.6303E+01  0.5867E+01
     14.475  0.2782E+00  0.4819E+00  0.6352E+01  0.5952E+01
     14.651  0.5008E-01  0.8765E+00  0.6361E+01  0.6106E+01
     14.827  0.1356E+00  0.4637E+00  0.6385E+01  0.6188E+01
     15.003  0.1415E+00  0.2360E+00  0.6410E+01  0.6229E+01
     15.179  0.1076E+00  0.2288E+00  0.6429E+01  0.6269E+01
     15.355  0.1646E+00  0.3789E+00  0.6458E+01  0.6336E+01
     15.531  0.2957E+00  0.2413E+00  0.6510E+01  0.6379E+01
     15.707  0.4073E+00  0.1720E+00  0.6581E+01  0.6409E+01
     15.883  0.1881E+00  0.3833E+00  0.6614E+01  0.6476E+01
     16.059  0.1525E+00  0.4116E+00  0.6641E+01  0.6549E+01
     16.235  0.1671E+00  0.1290E+00  0.6671E+01  0.6571E+01
     16.411  0.1429E+00  0.2004E+00  0.6696E+01  0.6607E+01
     16.587  0.2563E+00  0.1843E+00  0.6741E+01  0.6639E+01
     16.763  0.1614E+00  0.3016E-01  0.6769E+01  0.6644E+01
     16.939  0.1625E+00  0.1212E+00  0.6798E+01  0.6666E+01
     17.115  0.1664E+00  0.1615E+00  0.6827E+01  0.6694E+01
     17.291  0.1509E+00  0.1854E+00  0.6854E+01  0.6727E+01
     17.467  0.1257E+00  0.2172E+00  0.6876E+01  0.6765E+01
     17.643  0.1660E+00  0.1238E+00  0.6905E+01  0.6787E+01
     17.819  0.1015E+00  0.2502E+00  0.6923E+01  0.6831E+01
     17.995  0.1228E+00  0.1612E+00  0.6944E+01  0.6859E+01
     18.171  0.1378E+00  0.1804E-01  0.6969E+01  0.6862E+01
     18.347  0.8197E-01  0.1476E+00  0.6983E+01  0.6888E+01
     18.523  0.1750E+00  0.2291E+00  0.7014E+01  0.6929E+01
     18.699  0.1152E+00  0.1388E+00  0.7034E+01  0.6953E+01
     18.875  0.7561E-01  0.7174E-01  0.7048E+01  0.6966E+01
     19.051  0.1406E+00  0.9202E-01  0.7072E+01  0.6982E+01
     19.227  0.1113E+00  0.1255E+00  0.7092E+01  0.7004E+01
     19.402  0.1117E+00  0.1547E+00  0.7111E+01  0.7031E+01
     19.578  0.6938E-01  0.1252E+00  0.7124E+01  0.7053E+01
     19.754  0.9893E-01  0.1245E+00  0.7141E+01  0.7075E+01
     19.930  0.1836E+00  0.1079E+00  0.7173E+01  0.7094E+01
     20.106  0.9716E-01  0.9796E-01  0.7191E+01  0.7111E+01
     20.282  0.7029E-01  0.5806E-01  0.7203E+01  0.7121E+01
     20.458  0.1330E+00  0.1253E+00  0.7226E+01  0.7144E+01
     20.634  0.6906E-01  0.1895E+00  0.7238E+01  0.7177E+01
     20.810  0.3220E-01  0.7782E-01  0.7244E+01  0.7191E+01
     20.986  0.1612E+00  0.1084E+00  0.7272E+01  0.7210E+01
     21.162  0.1562E+00  0.1464E+00  0.7300E+01  0.7235E+01
     21.338  0.2052E+00  0.2357E-01  0.7336E+01  0.7240E+01
     21.514  0.3633E+00  0.2829E-01  0.7400E+01  0.7245E+01
     21.690  0.3036E+00  0.1871E+00  0.7453E+01  0.7277E+01
     21.866  0.1979E+00  0.1987E+00  0.7488E+01  0.7312E+01
     22.042  0.2283E+00  0.1057E+00  0.7528E+01  0.7331E+01
     22.218  0.3138E+00  0.6762E-01  0.7584E+01  0.7343E+01
     22.394  0.2978E+00  0.3147E+00  0.7636E+01  0.7398E+01
     22.570  0.1873E+00  0.3807E+00  0.7669E+01  0.7465E+01
     22.746  0.1609E+00  0.3296E+00  0.7697E+01  0.7523E+01
     22.922  0.1588E+00  0.3906E+00  0.7725E+01  0.7592E+01
     23.098  0.1784E+00  0.2731E+00  0.7757E+01  0.7640E+01
     23.274  0.2697E+00  0.2051E+00  0.7804E+01  0.7676E+01
     23.450  0.3692E+00  0.2237E+00  0.7869E+01  0.7716E+01
     23.626  0.2613E+00  0.2078E+00  0.7915E+01  0.7752E+01
     23.802  0.1860E+00  0.2885E+00  0.7948E+01  0.7803E+01
     23.978  0.2582E+00  0.4605E+00  0.7993E+01  0.7884E+01
     24.154  0.3575E+00  0.5627E+00  0.8056E+01  0.7983E+01
     24.329  0.2059E+00  0.2702E+00  0.8092E+01  0.8030E+01
     24.505  0.2312E+00  0.1372E+00  0.8133E+01  0.8055E+01
     24.681  0.2580E+00  0.1359E+00  0.8178E+01  0.8079E+01
     24.857  0.1733E+00  0.1372E+00  0.8209E+01  0.8103E+01
     25.033  0.1430E+00  0.2589E+00  0.8234E+01  0.8148E+01
     25.209  0.7365E-01  0.1868E+00  0.8247E+01  0.8181E+01
     25.385  0.9240E-01  0.1626E+00  0.8263E+01  0.8210E+01
     25.561  0.1270E+00  0.1463E+00  0.8286E+01  0.8235E+01
     25.737  0.2934E+00  0.1526E+00  0.8337E+01  0.8262E+01
     25.913  0.3779E+00  0.1322E+00  0.8404E+01  0.8286E+01
     26.089  0.2061E+00  0.1273E+00  0.8440E+01  0.8308E+01
     26.265  0.1379E+00  0.1649E+00  0.8464E+01  0.8337E+01
     26.441  0.1848E+00  0.3252E+00  0.8497E+01  0.8394E+01
     26.617  0.1583E+00  0.2761E+00  0.8525E+01  0.8443E+01
     26.793  0.1855E+00  0.9393E-01  0.8557E+01  0.8459E+01
     26.969  0.1988E+00  0.1119E+00  0.8592E+01  0.8479E+01
     27.145  0.2449E+00  0.1461E+00  0.8635E+01  0.8505E+01
     27.321  0.1175E+00  0.1981E+00  0.8656E+01  0.8540E+01
     27.497  0.7902E-01  0.2251E+00  0.8670E+01  0.8579E+01
     27.673  0.1066E+00  0.2132E+00  0.8689E+01  0.8617E+01
     27.849  0.1267E+00  0.1404E+00  0.8711E+01  0.8641E+01
     28.025  0.1508E+00  0.9718E-01  0.8738E+01  0.8658E+01
     28.201  0.2173E+00  0.2077E+00  0.8776E+01  0.8695E+01
     28.377  0.1622E+00  0.2580E+00  0.8804E+01  0.8740E+01
     28.553  0.7635E-01  0.1308E+00  0.8818E+01  0.8763E+01
     28.729  0.6252E-01  0.8559E-01  0.8829E+01  0.8778E+01
     28.905  0.1047E+00  0.1361E+00  0.8847E+01  0.8802E+01
     29.081  0.2629E+00  0.1729E+00  0.8893E+01  0.8833E+01
     29.256  0.4910E+00  0.1415E+00  0.8980E+01  0.8858E+01
     29.432  0.4331E+00  0.1536E+00  0.9056E+01  0.8885E+01
     29.608  0.2430E+00  0.2123E+00  0.9099E+01  0.8922E+01
     29.784  0.1732E+00  0.4199E+00  0.9129E+01  0.8996E+01
     29.960  0.3351E+00  0.5774E+00  0.9188E+01  0.9098E+01
     30.136  0.3361E+00  0.4581E+00  0.9247E+01  0.9178E+01
     30.312  0.2299E+00  0.6185E+00  0.9288E+01  0.9287E+01
     30.488  0.4210E+00  0.8854E+00  0.9362E+01  0.9443E+01
     30.664  0.6902E+00  0.4369E+00  0.9483E+01  0.9520E+01
     30.840  0.5037E+00  0.1075E+00  0.9572E+01  0.9539E+01
     31.016  0.1282E+00  0.8238E-01  0.9595E+01  0.9553E+01
     31.192  0.5746E-01  0.8388E-01  0.9605E+01  0.9568E+01
     31.368  0.1053E+00  0.6254E-01  0.9623E+01  0.9579E+01
     31.544  0.1107E+00  0.1418E+00  0.9643E+01  0.9604E+01
     31.720  0.1541E+00  0.1383E+00  0.9670E+01  0.9628E+01
     31.896  0.1018E+00  0.1501E+00  0.9688E+01  0.9655E+01
     32.072  0.8500E-01  0.3175E-01  0.9703E+01  0.9660E+01
     32.248  0.8952E-01  0.1087E-01  0.9718E+01  0.9662E+01
     32.424  0.1462E-01  0.1401E+00  0.9721E+01  0.9687E+01
     32.600  0.1064E+00  0.1445E+00  0.9740E+01  0.9712E+01
     32.776  0.1658E+00  0.4308E-01  0.9769E+01  0.9720E+01
     32.952  0.4896E+00  0.6066E-01  0.9855E+01  0.9730E+01
     33.128  0.4361E+00  0.1537E+00  0.9932E+01  0.9758E+01
     33.304  0.1464E+00  0.6309E-01  0.9958E+01  0.9769E+01
     33.480  0.1188E+00  0.2502E+00  0.9978E+01  0.9813E+01
     33.656  0.2136E+00  0.5711E+00  0.1002E+02  0.9913E+01
     33.832  0.2426E+00  0.2864E+00  0.1006E+02  0.9964E+01
     34.008  0.1718E+00  0.1138E+00  0.1009E+02  0.9984E+01
     34.184  0.1199E+00  0.9737E-01  0.1011E+02  0.1000E+02
     34.359  0.8562E-01  0.2021E+00  0.1013E+02  0.1004E+02
     34.535  0.1746E+00  0.2635E+00  0.1016E+02  0.1008E+02
     34.711  0.1899E+00  0.2309E+00  0.1019E+02  0.1012E+02
     34.887  0.1844E+00  0.9623E-01  0.1022E+02  0.1014E+02
     35.063  0.2320E+00  0.8415E-01  0.1026E+02  0.1016E+02
     35.239  0.2944E+00  0.2487E+00  0.1031E+02  0.1020E+02
     35.415  0.3527E+00  0.2686E+00  0.1038E+02  0.1025E+02
     35.591  0.2760E+00  0.2240E+00  0.1042E+02  0.1029E+02
     35.767  0.4459E+00  0.2692E+00  0.1050E+02  0.1033E+02
     35.943  0.5412E+00  0.5963E+00  0.1060E+02  0.1044E+02
     36.119  0.2990E+00  0.5646E+00  0.1065E+02  0.1054E+02
     36.295  0.2779E+00  0.2639E+00  0.1070E+02  0.1058E+02
     36.471  0.1620E+00  0.3126E+00  0.1073E+02  0.1064E+02
     36.647  0.6206E-01  0.2504E+00  0.1074E+02  0.1068E+02
     36.823  0.1753E+00  0.1202E+00  0.1077E+02  0.1070E+02
     36.999  0.1800E+00  0.1634E+00  0.1080E+02  0.1073E+02
     37.175  0.1826E+00  0.2446E+00  0.1083E+02  0.1078E+02
     37.351  0.2143E+00  0.1675E+00  0.1087E+02  0.1081E+02
     37.527  0.6571E-01  0.4718E-01  0.1088E+02  0.1081E+02
     37.703  0.4469E-01  0.1728E+00  0.1089E+02  0.1084E+02
     37.879  0.1803E+00  0.1804E+00  0.1092E+02  0.1088E+02
     38.055  0.2078E+00  0.1009E+00  0.1096E+02  0.1089E+02
     38.231  0.2363E+00  0.2103E+00  0.1100E+02  0.1093E+02
     38.407  0.2461E+00  0.1302E+00  0.1104E+02  0.1095E+02
     38.583  0.1061E+00  0.1324E+00  0.1106E+02  0.1098E+02
     38.759  0.3641E-01  0.2382E+00  0.1107E+02  0.1102E+02
     38.935  0.1128E+00  0.2149E+00  0.1109E+02  0.1106E+02
     39.111  0.1715E+00  0.1054E+00  0.1112E+02  0.1107E+02
     39.286  0.1170E+00  0.1670E+00  0.1114E+02  0.1110E+02
     39.462  0.1936E+00  0.1932E+00  0.1117E+02  0.1114E+02
     39.638  0.8074E-01  0.1155E+00  0.1119E+02  0.1116E+02
     39.814  0.1730E-01  0.1222E+00  0.1119E+02  0.1118E+02
     39.990  0.1887E+00  0.4207E-01  0.1122E+02  0.1119E+02
     40.166  0.4583E+00  0.2451E+00  0.1131E+02  0.1123E+02
     40.342  0.3385E+00  0.5091E+00  0.1137E+02  0.1132E+02
     40.518  0.2584E+00  0.2915E+00  0.1141E+02  0.1137E+02
     40.694  0.1732E+00  0.1823E+00  0.1144E+02  0.1140E+02
     40.870  0.8132E-01  0.1328E+00  0.1146E+02  0.1143E+02
     41.046  0.1087E+00  0.1026E+00  0.1147E+02  0.1144E+02
     41.222  0.1471E+00  0.1206E+00  0.1150E+02  0.1147E+02
     41.398  0.8140E-01  0.1898E+00  0.1151E+02  0.1150E+02
     41.574  0.1058E+00  0.1376E+00  0.1153E+02  0.1152E+02
     41.750  0.1907E+00  0.8458E-01  0.1157E+02  0.1154E+02
     41.926  0.1731E+00  0.8664E-01  0.1160E+02  0.1155E+02
     42.102  0.3628E-01  0.1760E+00  0.1160E+02  0.1158E+02
     42.278  0.3215E-01  0.1304E+00  0.1161E+02  0.1161E+02
     42.454  0.1372E+00  0.6294E-01  0.1163E+02  0.1162E+02
     42.630  0.2268E+00  0.8504E-01  0.1167E+02  0.1163E+02
     42.806  0.5936E-01  0.1317E+00  0.1168E+02  0.1166E+02
     42.982  0.3427E-01  0.1630E+00  0.1169E+02  0.1169E+02
     43.158  0.8924E-01  0.7967E-01  0.1171E+02  0.1170E+02
     43.334  0.1808E+00  0.6548E-01  0.1174E+02  0.1171E+02
     43.510  0.1296E+00  0.1797E+00  0.1176E+02  0.1174E+02
     43.686  0.8997E-01  0.9717E-01  0.1178E+02  0.1176E+02
     43.862  0.7443E-01  0.8096E-01  0.1179E+02  0.1177E+02
     44.038  0.8753E-01  0.5203E-01  0.1180E+02  0.1178E+02
     44.214  0.1519E+00  0.1664E+00  0.1183E+02  0.1181E+02
     44.389  0.7104E-01  0.3865E+00  0.1184E+02  0.1188E+02
     44.565  0.2406E+00  0.3101E+00  0.1189E+02  0.1194E+02
     44.741  0.3522E+00  0.6728E-01  0.1195E+02  0.1195E+02
     44.917  0.1421E+00  0.3051E-01  0.1197E+02  0.1195E+02
     45.093  0.1152E+00  0.4808E-01  0.1199E+02  0.1196E+02
     45.269  0.4372E-01  0.1084E+00  0.1200E+02  0.1198E+02
     45.445 -0.4445E-02  0.1067E+00  0.1200E+02  0.1200E+02
     45.621 -0.1140E-02  0.1218E-01  0.1200E+02  0.1200E+02
     45.797 -0.2720E-04 -0.3984E-02  0.1200E+02  0.1200E+02
     45.973 -0.1165E-06 -0.3026E-03  0.1200E+02  0.1200E+02
     46.149 -0.9842E-10 -0.3435E-05  0.1200E+02  0.1200E+02
     46.325 -0.1691E-13 -0.7410E-08  0.1200E+02  0.1200E+02
     46.501  0.0000E+00 -0.3209E-11  0.1200E+02  0.1200E+02
     46.677  0.0000E+00 -0.3028E-15  0.1200E+02  0.1200E+02
     46.853  0.0000E+00  0.0000E+00  0.1200E+02  0.1200E+02
     47.029  0.0000E+00  0.0000E+00  0.1200E+02  0.1200E+02
     47.205  0.0000E+00  0.0000E+00  0.1200E+02  0.1200E+02
     47.381  0.0000E+00  0.0000E+00  0.1200E+02  0.1200E+02
     47.557  0.0000E+00  0.0000E+00  0.1200E+02  0.1200E+02
     47.733  0.0000E+00  0.0000E+00  0.1200E+02  0.1200E+02
     47.73280104     -5.05663636  301      5.81036159      1.00000000
     -5.057  0.0000E+00  0.0000E+00  0.0000E+00  0.0000E+00  0.0000E+00  0.0000E+00
     -4.881  0.0000E+00  0.0000E+00  0.0000E+00  0.0000E+00  0.0000E+00  0.0000E+00
     -4.705  0.0000E+00  0.0000E+00  0.0000E+00  0.0000E+00  0.0000E+00  0.0000E+00
     -4.529  0.0000E+00  0.0000E+00  0.0000E+00  0.0000E+00  0.0000E+00  0.0000E+00
     -4.353 -0.1567E-31  0.0000E+00 -0.1782E-35  0.0000E+00 -0.7912E-38  0.0000E+00
     -4.177 -0.1979E-25 -0.3003E-32 -0.3079E-29 -0.3335E-36 -0.1394E-31 -0.1011E-38
     -4.001 -0.5266E-20 -0.4495E-26 -0.1127E-23 -0.6835E-30 -0.5198E-26 -0.2111E-32
     -3.825 -0.2891E-15 -0.1418E-20 -0.8724E-19 -0.2966E-24 -0.4127E-21 -0.9338E-27
     -3.649 -0.3328E-11 -0.9421E-16 -0.1375E-14 -0.2725E-19 -0.6743E-17 -0.8791E-22
     -3.473 -0.8011E-08 -0.1263E-11 -0.4667E-11 -0.5103E-15 -0.2426E-13 -0.1704E-17
     -3.297 -0.3918E-05 -0.3614E-08 -0.3293E-08 -0.2058E-11 -0.1898E-10 -0.7258E-14
     -3.121 -0.3690E-03 -0.2107E-05 -0.4749E-06 -0.1727E-08 -0.3330E-08 -0.6696E-11
     -2.945 -0.5309E-02 -0.2389E-03 -0.1315E-04 -0.2968E-06 -0.1364E-06 -0.1377E-08
     -2.769  0.1450E-01 -0.4354E-02 -0.3835E-04 -0.9921E-05 -0.1164E-05 -0.6578E-07
     -2.593  0.1429E+00  0.6931E-02  0.3997E-03 -0.4218E-04  0.2207E-05 -0.6789E-06
     -2.417  0.1526E+00  0.1261E+00  0.1571E-02  0.3026E-03  0.3143E-04  0.7054E-06
     -2.241  0.8000E-01  0.1573E+00  0.2492E-02  0.1438E-02  0.1016E-03  0.1784E-04
     -2.065  0.6335E-01  0.8241E-01  0.3188E-02  0.2382E-02  0.2036E-03  0.6088E-04
     -1.889  0.5183E-01  0.6270E-01  0.3445E-02  0.3105E-02  0.3141E-03  0.1239E-03
     -1.713  0.4870E-01  0.5187E-01  0.4366E-02  0.3422E-02  0.5417E-03  0.1962E-03
     -1.537  0.4640E-01  0.4531E-01  0.4616E-02  0.4006E-02  0.6846E-03  0.3028E-03
     -1.361  0.2940E-01  0.4899E-01  0.3837E-02  0.5000E-02  0.8221E-03  0.4593E-03
     -1.185  0.5086E-01  0.2546E-01  0.7371E-02  0.3169E-02  0.1637E-02  0.3860E-03
     -1.009  0.2742E-01  0.4820E-01  0.4242E-02  0.7195E-02  0.1295E-02  0.9784E-03
     -0.833  0.2537E-01  0.3162E-01  0.4852E-02  0.4918E-02  0.1821E-02  0.7582E-03
     -0.658  0.4555E-01  0.2036E-01  0.9642E-02  0.3836E-02  0.3704E-02  0.8611E-03
     -0.482  0.2613E-01  0.3787E-01  0.5445E-02  0.8184E-02  0.2873E-02  0.1662E-02
     -0.306  0.1359E-01  0.3674E-01  0.3593E-02  0.8221E-02  0.2785E-02  0.2098E-02
     -0.130  0.4700E-01  0.9320E-02  0.1313E-01  0.2063E-02  0.8732E-02  0.7202E-03
      0.046  0.2216E-01  0.2640E-01  0.6196E-02  0.7854E-02  0.5583E-02  0.2734E-02
      0.222  0.1580E-01  0.4443E-01  0.4684E-02  0.1316E-01  0.7921E-02  0.4649E-02
      0.398  0.3637E-01  0.6495E-02  0.1297E-01  0.1889E-02  0.1523E-01  0.9267E-03
      0.574  0.2778E-01  0.1863E-01  0.1010E-01  0.6450E-02  0.8850E-02  0.4290E-02
      0.750  0.3087E-01  0.3293E-01  0.5919E-02  0.1268E-01  0.8197E-01  0.6106E-02
      0.926  0.8211E-01  0.2214E-01  0.1428E-01  0.8930E-02  0.4305E+00  0.6159E-02
      1.102  0.4844E-01  0.1206E-01  0.9620E-02  0.4482E-02  0.6862E+00  0.5096E-02
      1.278  0.2219E-01  0.2006E-01  0.1164E-01  0.9193E-02  0.5348E+00  0.8469E-02
      1.454  0.3171E-01  0.2886E-01  0.2457E-01  0.1410E-01  0.4213E+00  0.1447E-01
      1.630  0.2271E-01  0.1428E-01  0.2678E-01  0.6611E-02  0.4220E+00  0.1174E-01
      1.806  0.1613E-01  0.1619E-01  0.1971E-01  0.7399E-02  0.2356E+00  0.1586E-01
      1.982  0.9027E-02  0.2555E-01  0.1017E-01  0.1388E-01  0.8732E-01  0.2661E-01
      2.158  0.6887E-02  0.3991E-01  0.1546E-01  0.9658E-02  0.2486E+00  0.1237E+00
      2.334  0.7442E-02  0.6159E-01  0.5645E-01  0.4846E-02  0.1267E+01  0.2570E+00
      2.510  0.6018E-02  0.4654E-01  0.8365E-01  0.1511E-01  0.1461E+01  0.1604E+00
      2.686  0.5893E-02  0.2432E-01  0.5516E-01  0.1069E-01  0.7466E+00  0.1338E+00
      2.862  0.2090E-02  0.1933E-01  0.2559E-01  0.1376E-01  0.4653E+00  0.4652E+00
      3.038 -0.3184E-03  0.2422E-01  0.1436E-01  0.3034E-01  0.3796E+00  0.5736E+00
      3.214  0.7748E-03  0.1535E-01  0.1747E-01  0.2384E-01  0.6205E+00  0.3801E+00
      3.390  0.3759E-02  0.1276E-01  0.2481E-01  0.2118E-01  0.1723E+01  0.2843E+00
      3.566  0.3874E-02  0.8420E-02  0.2681E-01  0.1753E-01  0.1404E+01  0.1550E+00
      3.742  0.2866E-02  0.5310E-02  0.2281E-01  0.1474E-01  0.5036E+00  0.8658E-01
      3.918  0.3279E-02  0.5194E-02  0.2476E-01  0.5274E-01  0.4009E+00  0.3671E+00
      4.094  0.2341E-02  0.3220E-02  0.2123E-01  0.1320E+00  0.3600E+00  0.1117E+01
      4.269  0.4288E-02  0.7974E-03  0.2384E-01  0.7663E-01  0.3931E+00  0.1064E+01
      4.445  0.7878E-02 -0.1042E-03  0.2406E-01  0.2910E-01  0.4989E+00  0.6142E+00
      4.621  0.6771E-02 -0.2676E-04  0.2207E-01  0.2809E-01  0.1144E+01  0.3744E+00
      4.797  0.8865E-02 -0.6524E-04  0.2170E-01  0.2825E-01  0.2895E+01  0.3255E+00
      4.973  0.6343E-02  0.1958E-04  0.2432E-01  0.2765E-01  0.3360E+01  0.3231E+00
      5.149  0.3130E-02  0.2024E-02  0.1903E-01  0.4190E-01  0.1659E+01  0.3940E+00
      5.325  0.3308E-02  0.3287E-02  0.1969E-01  0.5092E-01  0.3159E+00  0.5678E+00
      5.501  0.5614E-02  0.2062E-02  0.2707E-01  0.4851E-01  0.3703E+00  0.1382E+01
      5.677  0.3012E-02  0.1533E-02  0.1494E-01  0.5103E-01  0.6798E+00  0.1477E+01
      5.853  0.5253E-02  0.1282E-02  0.2458E-01  0.5315E-01  0.1016E+01  0.4893E+00
      6.029  0.3904E-02  0.1077E-02  0.1785E-01  0.5863E-01  0.7544E+00  0.3241E+00
      6.205  0.2421E-02  0.7650E-03  0.5383E-01  0.8069E-01  0.2177E+00  0.2876E+00
      6.381  0.5915E-02  0.3668E-03  0.8898E-01  0.1374E+00  0.5316E-02  0.2658E+00
      6.557  0.3493E-02  0.2763E-02  0.4372E-01  0.7795E-01  0.3856E-01  0.3178E+00
      6.733  0.9247E-03  0.4995E-02  0.2049E-01  0.4384E-02  0.3134E-01  0.3911E+00
      6.909  0.1411E-02  0.3052E-02  0.2930E-01  0.3968E-02  0.2197E-01  0.3235E+00
      7.085  0.7430E-02  0.2014E-02  0.1759E-01  0.5858E-02  0.3244E-01  0.3914E+00
      7.261  0.5410E-02  0.3553E-02  0.3271E-01  0.6163E-02  0.5338E-01  0.1021E+01
      7.437  0.1038E-02  0.5510E-02  0.1917E-01  0.6715E-02  0.2526E-01  0.2287E+01
      7.613 -0.4845E-03  0.2334E-02  0.1363E-01  0.4805E-02  0.1303E-01  0.2393E+01
      7.789  0.5634E-03  0.1126E-02  0.2292E-01  0.6544E-02  0.1738E-01  0.2258E+01
      7.965  0.9318E-02  0.1691E-02  0.3064E-01  0.5830E-02  0.4839E-01  0.9152E+00
      8.141  0.7303E-02  0.2908E-02  0.1722E-01  0.7931E-02  0.3504E-01  0.5565E+00
      8.317 -0.1387E-03  0.3372E-02  0.2705E-01  0.7617E-02  0.2205E-01  0.9245E+00
      8.493 -0.3046E-03  0.3528E-02  0.1458E-01  0.4977E-02  0.1160E-01  0.7303E+00
      8.669 -0.2729E-04  0.2920E-02  0.9193E-02  0.1189E-01  0.1043E-01  0.4278E+00
      8.845  0.2984E-02  0.3175E-02  0.3043E-01  0.8555E-02  0.3639E-01  0.9181E-01
      9.021  0.7817E-02  0.4653E-02  0.2806E-01  0.1338E-01  0.3434E-01  0.6255E-01
      9.197  0.6067E-02  0.1110E-02  0.2012E-01  0.1381E-01  0.2222E-01  0.6468E-01
      9.372  0.1588E-03  0.1934E-02  0.1559E-01  0.9328E-02  0.1086E-01  0.5746E-01
      9.548 -0.3676E-03  0.5905E-02  0.2525E-01  0.2106E-01  0.1954E-01  0.6480E-01
      9.724  0.1493E-02  0.3015E-02  0.1039E-01  0.1359E-01  0.1463E-01  0.4127E-01
      9.900  0.3560E-02  0.1300E-02  0.2050E-01  0.1118E-01  0.2746E-01  0.5065E-01
     10.076  0.8759E-03  0.5807E-03  0.3123E-01  0.1836E-01  0.2592E-01  0.4654E-01
     10.252  0.4931E-02  0.2969E-02  0.1593E-01  0.1565E-01  0.1116E-01  0.3430E-01
     10.428  0.4938E-02  0.6437E-02  0.2171E-01  0.1527E-01  0.1890E-01  0.3345E-01
     10.604 -0.8336E-04  0.2990E-02  0.2187E-01  0.2665E-01  0.1439E-01  0.6270E-01
     10.780  0.1306E-02  0.8661E-03  0.2016E-01  0.1156E-01  0.1768E-01  0.2946E-01
     10.956  0.3324E-02 -0.3120E-03  0.2105E-01  0.9711E-02  0.2753E-01  0.2038E-01
     11.132  0.5819E-03  0.2394E-03  0.1256E-01  0.1821E-01  0.9509E-02  0.2289E-01
     11.308 -0.3766E-03  0.6639E-02  0.2634E-01  0.2717E-01  0.1761E-01  0.4725E-01
     11.484  0.2231E-02  0.6225E-02  0.1754E-01  0.1894E-01  0.1321E-01  0.4009E-01
     11.660  0.5231E-02  0.1288E-03  0.1744E-01  0.2128E-01  0.8866E-02  0.2767E-01
     11.836  0.1339E-02 -0.2266E-03  0.3362E-01  0.1452E-01  0.2304E-01  0.2034E-01
     12.012  0.2173E-02 -0.1687E-03  0.2529E-01  0.3938E-02  0.2272E-01  0.6796E-02
     12.188  0.1386E-02  0.1261E-02  0.8851E-02  0.2744E-01  0.1120E-01  0.3954E-01
     12.364 -0.9923E-04  0.5403E-02  0.2144E-01  0.2814E-01  0.1598E-01  0.3686E-01
     12.540 -0.6890E-03  0.4837E-02  0.2023E-01  0.2155E-01  0.9113E-02  0.2442E-01
     12.716 -0.7399E-02  0.3129E-03  0.9262E-02  0.2025E-01 -0.3762E-03  0.1940E-01
     12.892  0.2555E-01 -0.2425E-03  0.2627E-01  0.1518E-01  0.3955E-01  0.1327E-01
     13.068  0.2051E+00  0.2025E-03  0.3960E-01  0.1109E-01  0.2275E+00  0.1880E-01
     13.244  0.2022E+00  0.1795E-02  0.4733E-01  0.2227E-01  0.2347E+00  0.2708E-01
     13.420  0.7887E-01  0.1517E-02  0.3294E-01  0.2892E-01  0.9539E-01  0.3096E-01
     13.596  0.5125E-01  0.3383E-02  0.3264E-01  0.2248E-01  0.5788E-01  0.1678E-01
     13.772  0.4646E-01  0.2123E-02  0.5152E-01  0.2306E-01  0.6635E-01  0.1183E-01
     13.948  0.2765E-01 -0.2454E-03  0.3446E-01  0.2553E-01  0.4363E-01  0.2219E-01
     14.124  0.1960E-01 -0.3374E-02  0.4884E-01  0.5230E-02  0.3574E-01  0.2724E-02
     14.299  0.1933E-01 -0.8096E-02  0.1328E+00  0.2556E-01  0.1022E+00  0.1360E-01
     14.475  0.1860E-01  0.1356E+00  0.8860E-01  0.3675E-01  0.8510E-01  0.2177E+00
     14.651  0.8148E-02  0.2804E+00  0.1884E-01  0.4196E-01  0.7664E-02  0.3917E+00
     14.827  0.3968E-02  0.1109E+00  0.5748E-01  0.7532E-01  0.2872E-01  0.1697E+00
     15.003  0.3640E-02  0.4172E-01  0.5526E-01  0.5493E-01  0.3538E-01  0.7692E-01
     15.179  0.7641E-02  0.3356E-01  0.5275E-01  0.5656E-01  0.1073E-01  0.7642E-01
     15.355  0.1245E-01  0.1344E-01  0.6916E-01  0.1224E+00  0.2854E-01  0.1291E+00
     15.531  0.3378E-02  0.8966E-02  0.1488E+00  0.8887E-01  0.3844E-01  0.6792E-01
     15.707 -0.5987E-04  0.1532E-01  0.2457E+00  0.7471E-01  0.1170E-01  0.2569E-01
     15.883 -0.2509E-03  0.6280E-02  0.1126E+00  0.1905E+00  0.6634E-02  0.5079E-01
     16.059 -0.6514E-03 -0.3254E-03  0.7776E-01  0.2368E+00  0.2090E-01  0.2076E-01
     16.235  0.2234E-02 -0.3102E-05  0.7158E-01  0.7585E-01  0.3536E-01  0.4499E-02
     16.411  0.3357E-01  0.7096E-02  0.4065E-01  0.7742E-01  0.2392E-01  0.5026E-01
     16.587  0.9317E-01  0.6891E-02  0.7053E-01  0.7550E-01  0.1469E-01  0.4098E-01
     16.763  0.6695E-01 -0.1163E-04  0.3714E-01  0.1295E-01  0.9279E-02  0.6777E-02
     16.939  0.2941E-01 -0.2272E-02  0.4829E-01  0.5752E-01  0.3053E-01  0.2355E-01
     17.115  0.4241E-01  0.5254E-03  0.4610E-01  0.6991E-01  0.2423E-01  0.3542E-01
     17.291  0.2387E-01  0.6594E-01  0.6250E-01  0.3439E-01  0.1636E-01  0.2998E-01
     17.467  0.2277E-01  0.1001E+00  0.4533E-01  0.3018E-01  0.1765E-01  0.2464E-01
     17.643  0.4131E-01  0.4506E-01  0.3788E-01  0.2697E-01  0.3124E-01  0.1409E-01
     17.819  0.8823E-02  0.3615E-01  0.3194E-01  0.8490E-01  0.2448E-01  0.4643E-01
     17.995  0.1235E-01  0.3434E-01  0.5888E-01  0.4883E-01  0.1217E-01  0.2563E-01
     18.171  0.2359E-01  0.1123E-01  0.5295E-01  0.1216E-02  0.1629E-01  0.7765E-03
     18.347  0.2099E-01  0.4566E-01  0.2020E-01  0.2843E-01  0.1344E-01  0.2770E-01
     18.523  0.2063E-01  0.2234E-01  0.5466E-01  0.7522E-01  0.3891E-01  0.5402E-01
     18.699  0.1124E-01  0.8407E-02  0.3630E-01  0.5885E-01  0.2614E-01  0.2522E-01
     18.875  0.2683E-02  0.2127E-01  0.3161E-01  0.1831E-01  0.1461E-01  0.8833E-02
     19.051  0.2796E-01  0.2232E-01  0.5794E-01  0.2641E-01  0.1254E-01  0.1290E-01