    1    1    1    2
  0.1145315E+02  0.2459512E-09  0.2459512E-09  0.2459512E-09  0.5000000E-15
  1.000000000000000E-004
  CAR 
 bcc Fe                                  
      8    100     12
 
  0.0000000E+00  0.0000000E+00  0.0000000E+00  0.1000000E-01
    1       -2.657116     -2.461895   1.000000   1.000000
    2        3.363464      5.517934   1.000000   1.029302
    3        3.363464      5.517934   1.000000   1.029302
    4        3.363659      5.518243   1.000000   1.029368
    5        4.753795      7.434054   1.000000  -0.000000
    6        4.753795      7.434054   1.000000  -0.000000
    7       30.673247     30.433651   0.000000   0.000000
    8       30.673247     30.433652   0.000000   0.000000
    9       30.673286     30.433715   0.000000   0.000000
   10       35.790873     35.921276   0.000000   0.000000
   11       35.790876     35.921277   0.000000   0.000000
   12       37.956177     38.764177   0.000000   0.000000
 
  0.2631579E-01 -0.2631579E-01  0.2631579E-01  0.1000000E-01
    1       -2.599838     -2.404382   1.000000   1.000000
    2        3.363031      5.515069   1.000000   1.028687
    3        3.363161      5.515274   1.000000   1.028732
    4        3.379042      5.535416   1.000000   1.032655
    5        4.728128      7.401033   1.000000  -0.000000
    6        4.764080      7.446890   1.000000  -0.000000
    7       30.264412     30.072590   0.000000   0.000000
    8       30.622424     30.411415   0.000000   0.000000
    9       30.622442     30.411446   0.000000   0.000000
   10       35.159972     35.421875   0.000000   0.000000
   11       36.332833     36.423467   0.000000   0.000000
   12       36.837817     37.788439   0.000000   0.000000
 
  0.5263158E-01 -0.5263158E-01  0.5263158E-01  0.1000000E-01
    1       -2.429274     -2.232864   1.000000   1.000000
    2        3.371144      5.514171   1.000000   1.028492
    3        3.371255      5.514346   1.000000   1.028530
    4        3.427654      5.588744   1.000000   1.033014
    5        4.656588      7.306902   1.000000  -0.000000
    6        4.798127      7.488105   1.000000  -0.000000
    7       29.367638     29.259795   0.000000   0.000000
    8       30.444201     30.324631   0.000000   0.000000
    9       30.444203     30.324642   0.000000   0.000000
   10       33.953563     34.332000   0.000000   0.000000
   11       35.904032     36.799770   0.000000   0.000000
   12       35.904093     36.799888   0.000000   0.000000
 
  0.7894737E-01 -0.7894737E-01  0.7894737E-01  0.1000000E-01
    1       -2.149768     -1.951076   1.000000   1.000000
    2        3.371301      5.504123   1.000000   1.026242
    3        3.371414      5.504301   1.000000   1.026282
    4        3.502737      5.673199   1.000000   0.954823
    5        4.529808      7.144666   1.000000  -0.000000
    6        4.846446      7.546416   1.000000  -0.000000
    7       28.326203     28.302995   0.000000   0.000000
    8       29.990118     30.048620   0.000000   0.000000
    9       29.990144     30.048648   0.000000   0.000000
   10       32.600305     33.028551   0.000000   0.000000
   11       35.287452     36.049499   0.000000   0.000000
   12       35.287478     36.049582   0.000000   0.000000
 
  0.1052632E+00 -0.1052632E+00  0.1052632E+00  0.1000000E-01
    1       -1.768978     -1.565152   1.000000   1.000000
    2        3.381590      5.501156   1.000000   1.025561
    3        3.381698      5.501324   1.000000   1.025600
    4        3.613895      5.795576   1.000000   0.562375
    5        4.358951      6.925932   1.000000  -0.000000
    6        4.912755      7.622436   1.000000  -0.000000
    7       27.310427     27.369215   0.000000   0.000000
    8       29.213867     29.491171   0.000000   0.000000
    9       29.213911     29.491224   0.000000   0.000000
   10       31.244677     31.687443   0.000000   0.000000
   11       35.179204     35.767498   0.000000   0.000000
   12       35.179208     35.767521   0.000000   0.000000
 
  0.1315789E+00 -0.1315789E+00  0.1315789E+00  0.1000000E-01
    1       -1.299158     -1.084465   1.000000   1.000000
    2        3.403114      5.509355   1.000000   1.027426
    3        3.403223      5.509526   1.000000   1.027465
    4        3.741093      5.939009   1.000000   0.061527
    5        4.145319      6.653625   1.000000  -0.000000
    6        4.996243      7.710107   1.000000  -0.000000
    7       26.363263     26.505925   0.000000   0.000000
    8       28.178402     28.641976   0.000000   0.000000
    9       28.178454     28.642043   0.000000   0.000000
   10       29.948623     30.391232   0.000000   0.000000
   11       35.474158     35.924136   0.000000   0.000000
   12       35.474174     35.924136   0.000000   0.000000
 
  0.1578947E+00 -0.1578947E+00  0.1578947E+00  0.1000000E-01
    1       -0.759017     -0.522366   1.000000   1.000000
    2        3.443822      5.537690   1.000000   1.033024
    3        3.443933      5.537864   1.000000   1.033051
    4        3.890600      6.107676   1.000000  -0.028246
    5        3.896398      6.337638   1.000000  -0.000616
    6        5.103720      7.807632   1.000003  -0.000000
    7       25.510135     25.738620   0.000000   0.000000
    8       27.005613     27.593491   0.000000   0.000000
    9       27.005663     27.593557   0.000000   0.000000
   10       28.745911     29.183847   0.000000   0.000000
   11       36.068986     36.441625   0.000000   0.000000
   12       36.069004     36.441627   0.000000   0.000000
 
  0.1842105E+00 -0.1842105E+00  0.1842105E+00  0.1000000E-01
    1       -0.177266      0.102132   1.000000   1.000000
    2        3.509213      5.593361   1.000000   1.031848
    3        3.509326      5.593538   1.000000   1.031798
    4        3.619081      5.987523   1.000000  -0.008861
    5        4.058590      6.297389   1.000000  -0.001540
    6        5.250015      7.916558   1.000271  -0.000000
    7       24.756547     25.072154   0.000000   0.000000
    8       25.777087     26.439600   0.000000   0.000000
    9       25.777130     26.439656   0.000000   0.000000
   10       27.662793     28.098523   0.000000   0.000000
   11       36.875925     37.217970   0.000000   0.000000
   12       36.875934     37.218056   0.000000   0.000000
 
  0.2105263E+00 -0.2105263E+00  0.2105263E+00  0.1000000E-01
    1        0.402910      0.761850   1.000000   1.000000
    2        3.321349      5.614083   1.000000   1.023087
    3        3.604150      5.682848   1.000000   0.936160
    4        3.604266      5.683030   1.000000   0.935786
    5        4.240711      6.503348   1.000000  -0.000005
    6        5.465420      8.047548   1.017484  -0.000000
    7       24.101103     24.503600   0.000000   0.000000
    8       24.538732     25.242169   0.000000   0.000000
    9       24.538766     25.242209   0.000000   0.000000
   10       26.716988     27.157964   0.000000   0.000000
   11       37.842320     38.182761   0.000000   0.000000
   12       37.842581     38.182828   0.000000   0.000000
 
  0.2368421E+00 -0.2368421E+00  0.2368421E+00  0.1000000E-01
    1        0.922562      1.418637   1.000000   1.000000
    2        3.011838      5.228699   1.000000   1.000155
    3        3.732221      5.811249   1.000000   0.496246
    4        3.732340      5.811436   1.000000   0.495453
    5        4.432153      6.720203   1.000000  -0.000000
    6        5.798759      8.225611   0.549006  -0.000000
    7       23.317293     24.026048   0.000000   0.000000
    8       23.317317     24.038273   0.000000   0.000000
    9       23.538788     24.038295   0.000000   0.000000
   10       25.917693     26.374526   0.000000   0.000000
   11       38.935600     39.291455   0.000000   0.000000
   12       38.936738     39.291690   0.000000   0.000000
 
  0.2631579E+00 -0.2631579E+00  0.2631579E+00  0.1000000E-01
    1        1.317704      2.021671   1.000000   1.000000
    2        2.699538      4.842833   1.000000   1.000000
    3        3.896135      5.982784   1.000000  -0.004276
    4        3.896257      5.982971   1.000000  -0.004465
    5        4.630024      6.944039   1.000000  -0.000000
    6        6.297961      8.483852  -0.001521  -0.000000
    7       22.134314     22.854022   0.000000   0.000000
    8       22.134326     22.854035   0.000000   0.000000
    9       23.062618     23.630608   0.000000   0.000000
   10       25.261970     25.747574   0.000000   0.000000
   11       40.044797     40.514205   0.000000   0.000000
   12       40.132643     40.601786   0.000000   0.000000
 
  0.2894737E+00 -0.2894737E+00  0.2894737E+00  0.1000000E-01
    1        1.550837      2.513728   1.000000   1.000000
    2        2.393402      4.467505   1.000000   1.000000
    3        4.092381      6.195496   1.000000  -0.010089
    4        4.092509      6.195694   1.000000  -0.010059
    5        4.823598      7.164342   1.000000  -0.000000
    6        7.014681      8.893376  -0.000000  -0.000000
    7       20.993092     21.698170   0.000000   0.000000
    8       20.993092     21.698202   0.000000   0.000000
    9       22.664624     23.307626   0.000000   0.000000
   10       24.742561     25.266716   0.000000   0.000000
   11       38.192764     38.915848   0.000000   0.000000
   12       40.527346     41.066723   0.000000   0.000000
 
  0.3157895E+00 -0.3157895E+00  0.3157895E+00  0.1000000E-01
    1        1.629433      2.851405   1.000000   1.000000
    2        2.101961      4.112846   1.000000   1.000000
    3        4.320411      6.449826   1.000000  -0.000030
    4        4.320546      6.450038   1.000000  -0.000030
    5        5.010594      7.377532   1.000000  -0.000000
    6        7.936850      9.494369  -0.000000  -0.000000
    7       19.913901     20.591001   0.000000   0.000000
    8       19.913914     20.591053   0.000000   0.000000
    9       22.336664     23.047610   0.000000   0.000000
   10       24.338202     24.907729   0.000000   0.000000
   11       35.900335     36.665617   0.000000   0.000000
   12       41.075586     41.578791   0.000000   0.000000
 
  0.3421053E+00 -0.3421053E+00  0.3421053E+00  0.1000000E-01
    1        1.595407      3.028784   1.000000   1.000000
    2        1.831509      3.786779   1.000000   1.000000
    3        4.571087      6.738141   1.000000  -0.000000
    4        4.571235      6.738378   1.000000  -0.000000
    5        5.185649      7.577447   1.000046  -0.000000
    6        9.032668     10.304328  -0.000000  -0.000000
    7       18.908685     19.545186   0.000000   0.000000
    8       18.908712     19.545257   0.000000   0.000000
    9       22.058837     22.831966   0.000000   0.000000
   10       24.034274     24.648422   0.000000   0.000000
   11       33.716406     34.527318   0.000000   0.000000
   12       41.690770     42.155582   0.000000   0.000000
 
  0.3684211E+00 -0.3684211E+00  0.3684211E+00  0.1000000E-01
    1        1.488631      3.073567   1.000000   1.000000
    2        1.591740      3.498946   1.000000   1.000000
    3        4.838783      7.054562   1.000000  -0.000000
    4        4.838942      7.054819   1.000000  -0.000000
    5        5.343618      7.758139   1.002356  -0.000000
    6       10.250673     11.287001  -0.000000   0.000000
    7       17.997311     18.581050   0.000000   0.000000
    8       17.997351     18.581147   0.000000   0.000000
    9       21.844971     22.669611   0.000000   0.000000
   10       23.754648     24.411385   0.000000   0.000000
   11       31.634103     32.508444   0.000000   0.000000
   12       42.361559     42.787758   0.000000   0.000000
 
  0.3947368E+00 -0.3947368E+00  0.3947368E+00  0.1000000E-01
    1        1.351324      3.034320   1.000000   1.000000
    2        1.387171      3.254918   1.000000   1.000000
    3        5.103607      7.379396   1.000003  -0.000000
    4        5.103783      7.379684   1.000003  -0.000000
    5        5.479858      7.914195   1.020659  -0.000000
    6       11.548465     12.393672   0.000000   0.000000
    7       17.195689     17.716025   0.000000   0.000000
    8       17.195743     17.716147   0.000000   0.000000
    9       21.676463     22.543913   0.000000   0.000000
   10       23.439022     24.133037   0.000000   0.000000
   11       29.756902     30.709476   0.000000   0.000000
   12       43.068483     43.456192   0.000000   0.000000
 
  0.4210526E+00 -0.4210526E+00  0.4210526E+00  0.1000000E-01
    1        1.215940      2.957880   1.000000   1.000000
    2        1.223144      3.059952   1.000000   1.000000
    3        5.351031      7.692689   1.002736  -0.000000
    4        5.351219      7.693004   1.002746  -0.000000
    5        5.590329      8.040884   1.032642  -0.000000
    6       12.878292     13.559536   0.000000   0.000000
    7       16.530727     16.981728   0.000000   0.000000
    8       16.530796     16.981880   0.000000   0.000000
    9       21.552651     22.453250   0.000000   0.000000
   10       23.016291     23.745322   0.000000   0.000000
   11       28.200273     29.239023   0.000000   0.000000
   12       43.774208     44.124379   0.000000   0.000000
 
  0.4473684E+00 -0.4473684E+00  0.4473684E+00  0.1000000E-01
    1        1.103270      2.879352   1.000000   1.000000
    2        1.104095      2.917938   1.000000   1.000000
    3        5.554909      7.960530   1.035062  -0.000000
    4        5.555107      7.960871   1.035077  -0.000000
    5        5.671699      8.134285   0.957517  -0.000000
    6       14.148750     14.676956   0.000000   0.000000
    7       16.026904     16.411267   0.000000   0.000000
    8       16.026984     16.411447   0.000000   0.000000
    9       21.467245     22.391553   0.000000   0.000000
   10       22.407385     23.196136   0.000000   0.000000
   11       27.093732     28.204539   0.000000   0.000000
   12       44.412606     44.728114   0.000000   0.000000
 
  0.4736842E+00 -0.4736842E+00  0.4736842E+00  0.1000000E-01
    1        1.030269      2.822992   1.000000   1.000000
    2        1.031071      2.831645   1.000000   1.000000
    3        5.690470      8.144531   0.919771  -0.000000
    4        5.690676      8.144892   0.919308  -0.000000
    5        5.721515      8.191504   0.837949  -0.000000
    6       15.174887     15.561042   0.000000   0.000000
    7       15.710691     16.044934   0.000000   0.000000
    8       15.710780     16.045136   0.000000   0.000000
    9       21.417220     22.355759   0.000000   0.000000
   10       21.729324     22.613773   0.000000   0.000000
   11       26.486209     27.634145   0.000000   0.000000
   12       44.879476     45.168459   0.000000   0.000000
 
  0.5000000E+00 -0.5000000E+00  0.5000000E+00  0.1000000E-01
    1        1.005759      2.802703   1.000000   1.000000
    2        1.005759      2.802703   1.000000   1.000000
    3        5.738204      8.210612   0.784409  -0.000000
    4        5.738204      8.210612   0.784409  -0.000000
    5        5.738518      8.211166   0.783344  -0.000000
    6       15.602612     15.917878   0.000000   0.000000
    7       15.602750     15.918193   0.000000   0.000000
    8       15.602750     15.918193   0.000000   0.000000
    9       21.400751     22.344034   0.000000   0.000000
   10       21.400751     22.344034   0.000000   0.000000
   11       26.301711     27.459075   0.000000   0.000000
   12       45.054779     45.333279   0.000000   0.000000
 
  0.5000000E+00 -0.5000000E+00  0.5000000E+00  0.1000000E-01
    1        1.005759      2.802703   1.000000   1.000000
    2        1.005759      2.802703   1.000000   1.000000
    3        5.738204      8.210612   0.784409  -0.000000
    4        5.738204      8.210612   0.784409  -0.000000
    5        5.738518      8.211166   0.783344  -0.000000
    6       15.602612     15.917878   0.000000   0.000000
    7       15.602750     15.918193   0.000000   0.000000
    8       15.602750     15.918193   0.000000   0.000000
    9       21.400751     22.344034   0.000000   0.000000
   10       21.400751     22.344034   0.000000   0.000000
   11       26.301711     27.459075   0.000000   0.000000
   12       45.054788     45.333281   0.000000   0.000000
 
  0.4736842E+00 -0.4736842E+00  0.5000000E+00  0.1000000E-01
    1        1.018107      2.814069   1.000000   1.000000
    2        1.018404      2.816085   1.000000   1.000000
    3        5.704022      8.165639   0.887009  -0.000000
    4        5.714188      8.177264   0.859408  -0.000000
    5        5.740199      8.213013   0.777599  -0.000000
    6       15.492233     15.834061   0.000000   0.000000
    7       15.541193     15.879040   0.000000   0.000000
    8       15.656847     15.981809   0.000000   0.000000
    9       21.451252     22.384344   0.000000   0.000000
   10       21.537664     22.455004   0.000000   0.000000
   11       26.391302     27.544413   0.000000   0.000000
   12       44.963136     45.247181   0.000000   0.000000
 
  0.4473684E+00 -0.4473684E+00  0.5000000E+00  0.1000000E-01
    1        1.054532      2.848215   1.000000   1.000000
    2        1.056374      2.855418   1.000000   1.000000
    3        5.604221      8.035638   1.028027  -0.000000
    4        5.642923      8.078698   0.998960  -0.000000
    5        5.745514      8.219056   0.759057  -0.000000
    6       15.187142     15.597079   0.000000   0.000000
    7       15.370589     15.770485   0.000000   0.000000
    8       15.816716     16.168266   0.000000   0.000000
    9       21.587151     22.494001   0.000000   0.000000
   10       21.922300     22.773221   0.000000   0.000000
   11       26.660533     27.800925   0.000000   0.000000
   12       44.676607     44.978258   0.000000   0.000000
 
  0.4210526E+00 -0.4210526E+00  0.5000000E+00  0.1000000E-01
    1        1.113082      2.905174   1.000000   1.000000
    2        1.119654      2.918127   1.000000   1.000000
    3        5.446144      7.833364   1.013634  -0.000000
    4        5.527708      7.921098   1.031277  -0.000000
    5        5.754224      8.228960   0.727481  -0.000000
    6       14.743699     15.241669   0.000000   0.000000
    7       15.124848     15.614743   0.000000   0.000000
    8       16.075263     16.465067   0.000000   0.000000
    9       21.772680     22.645984   0.000000   0.000000
   10       22.498854     23.264582   0.000000   0.000000
   11       27.108324     28.228126   0.000000   0.000000
   12       44.175166     44.506388   0.000000   0.000000
 
  0.3947368E+00 -0.3947368E+00  0.5000000E+00  0.1000000E-01
    1        1.190353      2.985021   1.000000   1.000000
    2        1.208249      2.999643   1.000000   1.000000
    3        5.240299      7.575666   1.000210  -0.000000
    4        5.374299      7.714904   1.004278  -0.000000
    5        5.766099      8.242464   0.682299  -0.000000
    6       14.214584     14.804728   0.000000   0.000000
    7       14.841542     15.437475   0.000000   0.000000
    8       16.422535     16.856031   0.000000   0.000000
    9       21.972876     22.811591   0.000000   0.000000
   10       23.215459     23.893041   0.000000   0.000000
   11       27.726783     28.819944   0.000000   0.000000
   12       43.460694     43.828861   0.000000   0.000000
 
  0.3684211E+00 -0.3684211E+00  0.5000000E+00  0.1000000E-01
    1        1.281166      3.087853   1.000000   1.000000
    2        1.322157      3.092902   1.000000   1.000000
    3        4.998541      7.279783   1.000000  -0.000000
    4        5.191278      7.475088   1.000054  -0.000000
    5        5.780832      8.259219   0.623452  -0.000000
    6       13.636501     14.315602   0.000000   0.000000
    7       14.551276     15.260039   0.000000   0.000000
    8       16.847452     17.324850   0.000000   0.000000
    9       22.166165     22.970740   0.000000   0.000000
   10       24.036404     24.630287   0.000000   0.000000
   11       28.498705     29.561944   0.000000   0.000000
   12       42.570901     42.975973   0.000000   0.000000
 
  0.3421053E+00 -0.3421053E+00  0.5000000E+00  0.1000000E-01
    1        1.378412      3.187808   1.000000   1.000000
    2        1.461483      3.213882   1.000000   1.000000
    3        4.732527      6.961071   1.000000  -0.000000
    4        4.993589      7.223541   1.000000  -0.000000
    5        5.798042      8.278793   0.552021  -0.000000
    6       13.032883     13.795349   0.000000   0.000000
    7       14.275074     15.096921   0.000000   0.000000
    8       17.339218     17.857217   0.000000   0.000000
    9       22.350515     23.118945   0.000000   0.000000
   10       24.941230     25.457932   0.000000   0.000000
   11       29.400218     30.432777   0.000000   0.000000
   12       41.561064     41.998086   0.000000   0.000000
 
  0.3157895E+00 -0.3157895E+00  0.5000000E+00  0.1000000E-01
    1        1.471657      3.270384   1.000000   1.000000
    2        1.625846      3.362840   1.000000   1.000000
    3        4.453002      6.632411   1.000000  -0.000000
    4        4.789203      6.978346   1.000000  -0.000000
    5        5.817268      8.300661   0.470797  -0.000000
    6       12.416980     13.256715   0.000000   0.000000
    7       14.024857     14.955084   0.000000   0.000000
    8       17.888119     18.441508   0.000000   0.000000
    9       22.514264     23.244389   0.000000   0.000000
   10       25.914298     26.361651   0.000000   0.000000
   11       30.401475     31.403756   0.000000   0.000000
   12       40.480476     40.943802   0.000000   0.000000
 
  0.2894737E+00 -0.2894737E+00  0.5000000E+00  0.1000000E-01
    1        1.548697      3.323863   1.000000   1.000000
    2        1.815336      3.534936   1.000000   1.000000
    3        4.169326      6.304168   1.000000  -0.001328
    4        4.600440      6.768925   1.000000  -0.000000
    5        5.838006      8.324251   0.384257  -0.000000
    6       11.798245     12.709567   0.000000   0.000000
    7       13.806486     14.837266   0.000000   0.000000
    8       18.485865     19.068674   0.000000   0.000000
    9       22.668409     23.355192   0.000000   0.000000
   10       26.949800     27.334878   0.000000   0.000000
   11       31.470468     32.442269   0.000000   0.000000
   12       39.364836     39.849516   0.000000   0.000000
 
  0.2631579E+00 -0.2631579E+00  0.5000000E+00  0.1000000E-01
    1        1.595352      3.331156   1.000000   1.000000
    2        2.031213      3.730871   1.000000   1.000000
    3        3.891981      5.986236   1.000000  -0.007661
    4        4.446839      6.620201   1.000000  -0.000000
    5        5.862532      8.351277   0.287355  -0.000000
    6       11.186009     12.163587  -0.000000   0.000000
    7       13.621338     14.742889   0.000000   0.000000
    8       19.128778     19.735189   0.000000   0.000000
    9       22.818048     23.455161   0.000000   0.000000
   10       28.056559     28.383237   0.000000   0.000000
   11       32.566471     33.504370   0.000000   0.000000
   12       38.266844     38.763727   0.000000   0.000000
 
  0.2368421E+00 -0.2368421E+00  0.5000000E+00  0.1000000E-01
    1        1.599268      3.281297   1.000000   1.000000
    2        2.270105      3.948724   1.000000   1.000000
    3        3.622149      5.681658   1.000000   0.938587
    4        4.344892      6.548294   1.000000  -0.000001
    5        5.884107      8.375958   0.210232  -0.000000
    6       10.576906     11.616441  -0.000000   0.000000
    7       13.468134     14.669686   0.000000   0.000000
    8       19.804836     20.428928   0.000000   0.000000
    9       22.966188     23.547152   0.000000   0.000000
   10       29.203986     29.481212   0.000000   0.000000
   11       33.625085     34.517690   0.000000   0.000000
   12       37.141099     37.653962   0.000000   0.000000
 
  0.2105263E+00 -0.2105263E+00  0.5000000E+00  0.1000000E-01
    1        1.554839      3.175567   1.000000   1.000000
    2        2.530884      4.187614   1.000000   1.000000
    3        3.363469      5.394084   1.000000   1.006092
    4        4.299280      6.552232   1.000000  -0.000001
    5        5.905188      8.400101   0.144438  -0.000000
    6        9.975342     11.072508  -0.000000  -0.000000
    7       13.341207     14.611995   0.000000   0.000000
    8       20.503064     21.140956   0.000000   0.000000
    9       23.110532     23.629468   0.000000   0.000000
   10       30.383389     30.620114   0.000000   0.000000
   11       34.513310     35.335039   0.000000   0.000000
   12       36.004304     36.536647   0.000000   0.000000
 
  0.1842105E+00 -0.1842105E+00  0.5000000E+00  0.1000000E-01
    1        1.468816      3.028642   1.000000   1.000000
    2        2.817189      4.449421   1.000000   1.000000
    3        3.132770      5.136881   1.000000   1.000010
    4        4.314005      6.624800   1.000000  -0.000000
    5        5.928972      8.426391   0.083129  -0.000000
    6        9.389906     10.540939  -0.000000  -0.000000
    7       13.243448     14.572593   0.000000   0.000000
    8       21.238813     21.884125   0.000000   0.000000
    9       23.264607     23.714277   0.000000   0.000000
   10       31.636686     31.835137   0.000000   0.000000
   11       34.945320     35.485220   0.000000   0.000000
   12       35.033734     35.746298   0.000000   0.000000
 
  0.1578947E+00 -0.1578947E+00  0.5000000E+00  0.1000000E-01
    1        1.353410      2.859351   1.000000   1.000000
    2        2.922755      4.731726   1.000000   1.000000
    3        3.125337      4.905243   1.000000   1.000000
    4        4.371495      6.741394   1.000000  -0.000000
    5        5.947865      8.448067   0.044560  -0.000000
    6        8.819170     10.021063  -0.000000  -0.000000
    7       13.166465     14.544273   0.000000   0.000000
    8       21.991831     22.641508   0.000000   0.000000
    9       23.417319     23.793788   0.000000   0.000000
   10       32.934021     33.099343   0.000000   0.000000
   11       33.875777     34.429063   0.000000   0.000000
   12       35.011473     35.634864   0.000000   0.000000
 
  0.1315789E+00 -0.1315789E+00  0.5000000E+00  0.1000000E-01
    1        1.225506      2.687194   1.000000   1.000000
    2        2.737141      4.702676   1.000000   1.000000
    3        3.449588      5.030752   1.000000   1.000000
    4        4.454133      6.879652   1.000000  -0.000000
    5        5.963195      8.466439   0.019696  -0.000000
    6        8.264089      9.512496  -0.000000  -0.000000
    7       13.104607     14.521931   0.000000   0.000000
    8       22.751744     23.403739   0.000000   0.000000
    9       23.562984     23.864975   0.000000   0.000000
   10       32.817083     33.386978   0.000000   0.000000
   11       34.246429     34.388420   0.000000   0.000000
   12       34.612649     35.206019   0.000000   0.000000
 
  0.1052632E+00 -0.1052632E+00  0.5000000E+00  0.1000000E-01
    1        1.102806      2.529083   1.000000   1.000000
    2        2.585301      4.536058   1.000000   1.000000
    3        3.796329      5.347648   1.000000   1.002557
    4        4.549812      7.024158   1.000000  -0.000000
    5        5.977997      8.483406   0.000820  -0.000000
    6        7.736003      9.030816  -0.000000  -0.000000
    7       13.062881     14.510915   0.000000   0.000000
    8       23.527513     23.936680   0.000000   0.000000
    9       23.709571     24.177902   0.000000   0.000000
   10       31.836115     32.415828   0.000000   0.000000
   11       34.110494     34.706417   0.000000   0.000000
   12       35.623965     35.740711   0.000000   0.000000
 
  0.7894737E-01 -0.7894737E-01  0.5000000E+00  0.1000000E-01
    1        0.995994      2.395657   1.000000   1.000000
    2        2.463630      4.403774   1.000000   1.000000
    3        4.151696      5.672347   1.000000   0.956359
    4        4.630811      7.147476   1.000000  -0.000000
    5        5.989631      8.496824  -0.010760  -0.000000
    6        7.235210      8.573184  -0.000000  -0.000000
    7       13.029741     14.501479   0.000000   0.000000
    8       23.836980     23.996647   0.000000   0.000000
    9       24.287978     24.934898   0.000000   0.000000
   10       30.894940     31.487919   0.000000   0.000000
   11       33.631643     34.244550   0.000000   0.000000
   12       37.014129     37.111089   0.000000   0.000000
 
  0.5263158E-01 -0.5263158E-01  0.5000000E+00  0.1000000E-01
    1        0.914237      2.295388   1.000000   1.000000
    2        2.376073      4.308576   1.000000   1.000000
    3        4.503011      5.990731   1.000000  -0.011715
    4        4.698212      7.246325   1.000000  -0.000000
    5        5.998215      8.159435  -0.017623  -0.000000
    6        6.779757      8.506720  -0.000000  -0.000000
    7       13.009319     14.497426   0.000000   0.000000
    8       23.940439     24.044862   0.000000   0.000000
    9       25.001915     25.643294   0.000000   0.000000
   10       30.056700     30.661002   0.000000   0.000000
   11       33.253111     33.885730   0.000000   0.000000
   12       38.372397     38.453271   0.000000   0.000000
 
  0.2631579E-01 -0.2631579E-01  0.5000000E+00  0.1000000E-01
    1        0.864022      2.233639   1.000000   1.000000
    2        2.323138      4.251091   1.000000   1.000000
    3        4.741632      6.261643   1.000000  -0.003205
    4        4.808839      7.309365   1.000000  -0.000000
    5        6.003482      7.833153  -0.021180  -0.000000
    6        6.413375      8.512790  -0.000086  -0.000000
    7       13.003508     14.500974   0.000000   0.000000
    8       24.008061     24.075966   0.000000   0.000000
    9       25.575754     26.211087   0.000000   0.000000
   10       29.408303     30.022033   0.000000   0.000000
   11       33.025226     33.669680   0.000000   0.000000
   12       39.552394     39.620822   0.000000   0.000000
 
  0.0000000E+00  0.0000000E+00  0.5000000E+00  0.1000000E-01
    1        0.846574      2.212611   1.000000   1.000000
    2        2.305432      4.231875   1.000000   1.000000