 running on    4 total cores
 distrk:  each k-point on    4 cores,    1 groups
 distr:  one band on    1 cores,    4 groups
 using from now: INCAR     
 vasp.5.4.4.18Apr17-6-g9f103f2a35 (build Jul 01 2019 03:25:34) complex          
  
 POSCAR found :  1 types and       1 ions
 scaLAPACK will be used
 LDA part: xc-table for Pade appr. of Perdew
 WARNING: stress and forces are not correct
 POSCAR, INCAR and KPOINTS ok, starting setup
 FFT: planning ...
 WAVECAR not read
 reading imaginary part of occupancies ...
 charge-density read from file: bcc                                     
 reading imaginary part of occupancies ...
 magnetization density read from file 1
 entering main loop
       N       E                     dE             d eps       ncg     rms          rms(c)
DAV:   1     0.114462768333E+02    0.11446E+02   -0.26614E+03  5352   0.484E+02
DAV:   2    -0.877800607734E+01   -0.20224E+02   -0.17907E+02  5088   0.943E+01
DAV:   3    -0.914624151560E+01   -0.36824E+00   -0.36432E+00  5948   0.147E+01
DAV:   4    -0.914732547444E+01   -0.10840E-02   -0.10838E-02  5524   0.724E-01
DAV:   5    -0.914733145621E+01   -0.59818E-05   -0.59811E-05  5068   0.540E-02
DAV:   6    -0.914733159756E+01   -0.14136E-06   -0.14188E-06  4036   0.840E-03
   1 F= -.91473316E+01 E0= -.91475124E+01  d E =0.542288E-03  mag=     2.3256
 writing wavefunctions
