 vasp.5.4.4.18Apr17-6-g9f103f2a35 (build Jul 01 2019 03:25:34) complex          
  
 executed on             LinuxIFC date 2020.07.01  21:35:21
 running on    4 total cores
 distrk:  each k-point on    4 cores,    1 groups
 distr:  one band on NCORES_PER_BAND=   1 cores,    4 groups


--------------------------------------------------------------------------------------------------------


 INCAR:
 POTCAR:    PAW_PBE Fe 06Sep2000                  
 POTCAR:    PAW_PBE Fe 06Sep2000                  
   VRHFIN =Fe:  d7 s1                                                           
   LEXCH  = PE                                                                  
   EATOM  =   594.3153 eV,   43.6809 Ry                                         
                                                                                
   TITEL  = PAW_PBE Fe 06Sep2000                                                
   LULTRA =        F    use ultrasoft PP ?                                      
   IUNSCR =        1    unscreen: 0-lin 1-nonlin 2-no                           
   RPACOR =    2.000    partial core radius                                     
   POMASS =   55.847; ZVAL   =    8.000    mass and valenz                      
   RCORE  =    2.300    outmost cutoff radius                                   
   RWIGS  =    2.460; RWIGS  =    1.302    wigner-seitz radius (au A)           
   ENMAX  =  267.882; ENMIN  =  200.911 eV                                      
   RCLOC  =    1.701    cutoff for local pot                                    
   LCOR   =        T    correct aug charges                                     
   LPAW   =        T    paw PP                                                  
   EAUG   =  511.368                                                            
   DEXC   =    0.000                                                            
   RMAX   =    2.356    core radius for proj-oper                               
   RAUG   =    1.300    factor for augmentation sphere                          
   RDEP   =    2.442    radius for radial grids                                 
   RDEPT  =    1.890    core radius for aug-charge                              
                                                                                
   Atomic configuration                                                         
    9 entries                                                                   
     n  l   j            E        occ.                                          
     1  0  0.50     -6993.8440   2.0000                                         
     2  0  0.50      -814.6047   2.0000                                         
     2  1  1.50      -693.3689   6.0000                                         
     3  0  0.50       -89.4732   2.0000                                         
     3  1  1.50       -55.6373   6.0000                                         
     3  2  2.50        -3.8151   7.0000                                         
     4  0  0.50        -4.2551   1.0000                                         
     4  1  1.50        -3.4015   0.0000                                         
     4  3  2.50        -1.3606   0.0000                                         
   Description                                                                  
     l       E           TYP  RCUT    TYP  RCUT                                 
     2     -3.8151135     23  2.300                                             
     2     -5.1756961     23  2.300                                             
     0     -4.2550963     23  2.300                                             
     0      7.2035603     23  2.300                                             
     1     -2.7211652     23  2.300                                             
     1     18.4316424     23  2.300                                             
  local pseudopotential read in
  partial core-charges read in
  partial kinetic energy density read in
  atomic valenz-charges read in
  non local Contribution for L=           2  read in
    real space projection operators read in
  non local Contribution for L=           2  read in
    real space projection operators read in
  non local Contribution for L=           0  read in
    real space projection operators read in
  non local Contribution for L=           0  read in
    real space projection operators read in
  non local Contribution for L=           1  read in
    real space projection operators read in
  non local Contribution for L=           1  read in
    real space projection operators read in
    PAW grid and wavefunctions read in
 
   number of l-projection  operators is LMAX  =           6
   number of lm-projection operators is LMMAX =          18
 
  PAW_PBE Fe 06Sep2000                  :
 energy of atom  1       EATOM= -594.3153
 kinetic energy error for atom=    0.0345 (will be added to EATOM!!)
 
 
 POSCAR: Fe bulk bcc                             
  positions in direct lattice
  No initial velocities read in
 exchange correlation table for  LEXCH =        8
   RHO(1)=    0.500       N(1)  =     2000
   RHO(2)=  100.500       N(2)  =     4000
 


--------------------------------------------------------------------------------------------------------


 ion  position               nearest neighbor table
   1  0.000  0.000  0.000-
 
  LATTYP: Found a body centered cubic cell.
 ALAT       =     2.8400000000
  
  Lattice vectors:
  
 A1 = (  -1.4200000000,   1.4200000000,   1.4200000000)
 A2 = (   1.4200000000,  -1.4200000000,   1.4200000000)
 A3 = (   1.4200000000,   1.4200000000,  -1.4200000000)


Analysis of symmetry for initial positions (statically):
=====================================================================
 Subroutine PRICEL returns:
 Original cell was already a primitive cell.
 

 Routine SETGRP: Setting up the symmetry group for a 
 body centered cubic supercell.


 Subroutine GETGRP returns: Found 48 space group operations
 (whereof 48 operations were pure point group operations)
 out of a pool of 48 trial point group operations.


The static configuration has the point symmetry O_h .


Analysis of symmetry for dynamics (positions and initial velocities):
=====================================================================
 Subroutine PRICEL returns:
 Original cell was already a primitive cell.
 

 Routine SETGRP: Setting up the symmetry group for a 
 body centered cubic supercell.


 Subroutine GETGRP returns: Found 48 space group operations
 (whereof 48 operations were pure point group operations)
 out of a pool of 48 trial point group operations.


The dynamic configuration has the point symmetry O_h .


Analysis of structural, dynamic, and magnetic symmetry:
=====================================================================
 Subroutine PRICEL returns:
 Original cell was already a primitive cell.
 

 Routine SETGRP: Setting up the symmetry group for a 
 body centered cubic supercell.


 Subroutine GETGRP returns: Found 48 space group operations
 (whereof 48 operations were pure point group operations)
 out of a pool of 48 trial point group operations.


The magnetic configuration has the point symmetry O_h .


 Subroutine INISYM returns: Found 48 space group operations
 (whereof 48 operations are pure point group operations),
 and found     1 'primitive' translations

 
 
 KPOINTS: K-points along high symmetry lines for b
  interpolating k-points between supplied coordinates
  k-points in cartesian coordinates
Space group operators:
 irot       det(A)        alpha          n_x          n_y          n_z        tau_x        tau_y        tau_z
    1     1.000000     0.000000     1.000000     0.000000     0.000000     0.000000     0.000000     0.000000
    2    -1.000000     0.000000     1.000000     0.000000     0.000000     0.000000     0.000000     0.000000
    3     1.000000   120.000000    -0.577350    -0.577350    -0.577350     0.000000     0.000000     0.000000
    4    -1.000000   120.000000    -0.577350    -0.577350    -0.577350     0.000000     0.000000     0.000000
    5     1.000000   120.000000     0.577350     0.577350     0.577350     0.000000     0.000000     0.000000
    6    -1.000000   120.000000     0.577350     0.577350     0.577350     0.000000     0.000000     0.000000
    7     1.000000    90.000000     0.000000     0.000000    -1.000000     0.000000     0.000000     0.000000
    8    -1.000000    90.000000     0.000000     0.000000    -1.000000     0.000000     0.000000     0.000000
    9     1.000000   180.000000     0.000000     0.707107     0.707107     0.000000     0.000000     0.000000
   10    -1.000000   180.000000     0.000000     0.707107     0.707107     0.000000     0.000000     0.000000
   11     1.000000    90.000000     0.000000     1.000000     0.000000     0.000000     0.000000     0.000000
   12    -1.000000    90.000000     0.000000     1.000000     0.000000     0.000000     0.000000     0.000000
   13     1.000000   180.000000     0.000000     0.000000     1.000000     0.000000     0.000000     0.000000
   14    -1.000000   180.000000     0.000000     0.000000     1.000000     0.000000     0.000000     0.000000
   15     1.000000   120.000000    -0.577350     0.577350     0.577350     0.000000     0.000000     0.000000
   16    -1.000000   120.000000    -0.577350     0.577350     0.577350     0.000000     0.000000     0.000000
   17     1.000000   120.000000    -0.577350     0.577350    -0.577350     0.000000     0.000000     0.000000
   18    -1.000000   120.000000    -0.577350     0.577350    -0.577350     0.000000     0.000000     0.000000
   19     1.000000    90.000000     0.000000     0.000000     1.000000     0.000000     0.000000     0.000000
   20    -1.000000    90.000000     0.000000     0.000000     1.000000     0.000000     0.000000     0.000000
   21     1.000000    90.000000    -1.000000     0.000000     0.000000     0.000000     0.000000     0.000000
   22    -1.000000    90.000000    -1.000000     0.000000     0.000000     0.000000     0.000000     0.000000
   23     1.000000   180.000000     0.707107     0.000000     0.707107     0.000000     0.000000     0.000000
   24    -1.000000   180.000000     0.707107     0.000000     0.707107     0.000000     0.000000     0.000000
   25     1.000000   120.000000     0.577350    -0.577350     0.577350     0.000000     0.000000     0.000000
   26    -1.000000   120.000000     0.577350    -0.577350     0.577350     0.000000     0.000000     0.000000
   27     1.000000   120.000000    -0.577350    -0.577350     0.577350     0.000000     0.000000     0.000000
   28    -1.000000   120.000000    -0.577350    -0.577350     0.577350     0.000000     0.000000     0.000000
   29     1.000000   180.000000     1.000000     0.000000     0.000000     0.000000     0.000000     0.000000
   30    -1.000000   180.000000     1.000000     0.000000     0.000000     0.000000     0.000000     0.000000
   31     1.000000    90.000000     0.000000    -1.000000     0.000000     0.000000     0.000000     0.000000
   32    -1.000000    90.000000     0.000000    -1.000000     0.000000     0.000000     0.000000     0.000000
   33     1.000000   180.000000     0.707107     0.707107     0.000000     0.000000     0.000000     0.000000
   34    -1.000000   180.000000     0.707107     0.707107     0.000000     0.000000     0.000000     0.000000
   35     1.000000    90.000000     1.000000     0.000000     0.000000     0.000000     0.000000     0.000000
   36    -1.000000    90.000000     1.000000     0.000000     0.000000     0.000000     0.000000     0.000000
   37     1.000000   120.000000     0.577350    -0.577350    -0.577350     0.000000     0.000000     0.000000
   38    -1.000000   120.000000     0.577350    -0.577350    -0.577350     0.000000     0.000000     0.000000
   39     1.000000   180.000000     0.000000     1.000000     0.000000     0.000000     0.000000     0.000000
   40    -1.000000   180.000000     0.000000     1.000000     0.000000     0.000000     0.000000     0.000000
   41     1.000000   120.000000     0.577350     0.577350    -0.577350     0.000000     0.000000     0.000000
   42    -1.000000   120.000000     0.577350     0.577350    -0.577350     0.000000     0.000000     0.000000
   43     1.000000   180.000000     0.000000    -0.707107     0.707107     0.000000     0.000000     0.000000
   44    -1.000000   180.000000     0.000000    -0.707107     0.707107     0.000000     0.000000     0.000000
   45     1.000000   180.000000     0.707107    -0.707107     0.000000     0.000000     0.000000     0.000000
   46    -1.000000   180.000000     0.707107    -0.707107     0.000000     0.000000     0.000000     0.000000
   47     1.000000   180.000000     0.707107     0.000000    -0.707107     0.000000     0.000000     0.000000
   48    -1.000000   180.000000     0.707107     0.000000    -0.707107     0.000000     0.000000     0.000000


--------------------------------------------------------------------------------------------------------




 Dimension of arrays:
   k-points           NKPTS =    100   k-points in BZ     NKDIM =    100   number of bands    NBANDS=     12
   number of dos      NEDOS =    301   number of ions     NIONS =      1
   non local maximal  LDIM  =      6   non local SUM 2l+1 LMDIM =     18
   total plane-waves  NPLWV =   1000
   max r-space proj   IRMAX =      1   max aug-charges    IRDMAX=   3309
   dimension x,y,z NGX =    10 NGY =   10 NGZ =   10
   dimension x,y,z NGXF=    20 NGYF=   20 NGZF=   20
   support grid    NGXF=    20 NGYF=   20 NGZF=   20
   ions per type =               1
   NGX,Y,Z   is equivalent  to a cutoff of   6.76,  6.76,  6.76 a.u.
   NGXF,Y,Z  is equivalent  to a cutoff of  13.52, 13.52, 13.52 a.u.

 SYSTEM =  bcc Fe                                  
 POSCAR =  Fe bulk bcc                             

 Startparameter for this run:
   NWRITE =      2    write-flag & timer
   PREC   = normal    normal or accurate (medium, high low for compatibility)
   ISTART =      0    job   : 0-new  1-cont  2-samecut
   ICHARG =     11    charge: 1-file 2-atom 10-const
   ISPIN  =      2    spin polarized calculation?
   LNONCOLLINEAR =      F non collinear calculations
   LSORBIT =      F    spin-orbit coupling
   INIWAV =      1    electr: 0-lowe 1-rand  2-diag
   LASPH  =      F    aspherical Exc in radial PAW
   METAGGA=      F    non-selfconsistent MetaGGA calc.

 Electronic Relaxation 1
   ENCUT  =  268.0 eV  19.70 Ry    4.44 a.u.   3.28  3.28  3.28*2*pi/ulx,y,z
   ENINI  =  268.0     initial cutoff
   ENAUG  =  511.4 eV  augmentation charge cutoff
   NELM   =     60;   NELMIN=  2; NELMDL= -5     # of ELM steps 
   EDIFF  = 0.1E-03   stopping-criterion for ELM
   LREAL  =      F    real-space projection
   NLSPLINE    = F    spline interpolate recip. space projectors
   LCOMPAT=      F    compatible to vasp.4.4
   GGA_COMPAT  = T    GGA compatible to vasp.4.4-vasp.4.6
   LMAXPAW     = -100 max onsite density
   LMAXMIX     =    2 max onsite mixed and CHGCAR
   VOSKOWN=      0    Vosko Wilk Nusair interpolation
   ROPT   =    0.00000
 Ionic relaxation
   EDIFFG = 0.1E-02   stopping-criterion for IOM
   NSW    =      0    number of steps for IOM
   NBLOCK =      1;   KBLOCK =      1    inner block; outer block 
   IBRION =     -1    ionic relax: 0-MD 1-quasi-New 2-CG
   NFREE  =      0    steps in history (QN), initial steepest desc. (CG)
   ISIF   =      2    stress and relaxation
   IWAVPR =     10    prediction:  0-non 1-charg 2-wave 3-comb
   ISYM   =      2    0-nonsym 1-usesym 2-fastsym
   LCORR  =      T    Harris-Foulkes like correction to forces

   POTIM  = 0.5000    time-step for ionic-motion
   TEIN   =    0.0    initial temperature
   TEBEG  =    0.0;   TEEND  =   0.0 temperature during run
   SMASS  =  -3.00    Nose mass-parameter (am)
   estimated Nose-frequenzy (Omega)   =  0.10E-29 period in steps =****** mass=  -0.138E-27a.u.
   SCALEE = 1.0000    scale energy and forces
   NPACO  =    256;   APACO  = 16.0  distance and # of slots for P.C.
   PSTRESS=    0.0 pullay stress

  Mass of Ions in am
   POMASS =  55.85
  Ionic Valenz
   ZVAL   =   8.00
  Atomic Wigner-Seitz radii
   RWIGS  =   1.30
  virtual crystal weights 
   VCA    =   1.00
   NELECT =       8.0000    total number of electrons
   NUPDOWN=      -1.0000    fix difference up-down

 DOS related values:
   EMIN   =  10.00;   EMAX   =-10.00  energy-range for DOS
   EFERMI =   0.00
   ISMEAR =     1;   SIGMA  =   0.20  broadening in eV -4-tet -1-fermi 0-gaus

 Electronic relaxation 2 (details)
   IALGO  =     38    algorithm
   LDIAG  =      T    sub-space diagonalisation (order eigenvalues)
   LSUBROT=      F    optimize rotation matrix (better conditioning)
   TURBO    =      0    0=normal 1=particle mesh
   IRESTART =      0    0=no restart 2=restart with 2 vectors
   NREBOOT  =      0    no. of reboots
   NMIN     =      0    reboot dimension
   EREF     =   0.00    reference energy to select bands
   IMIX   =      4    mixing-type and parameters
     AMIX     =   0.40;   BMIX     =  1.00
     AMIX_MAG =   1.60;   BMIX_MAG =  1.00
     AMIN     =   0.10
     WC   =   100.;   INIMIX=   1;  MIXPRE=   1;  MAXMIX= -45

 Intra band minimization:
   WEIMIN = 0.0000     energy-eigenvalue tresh-hold
   EBREAK =  0.21E-05  absolut break condition
   DEPER  =   0.30     relativ break condition  

   TIME   =   0.40     timestep for ELM

  volume/ion in A,a.u.               =      11.45        77.29
  Fermi-wavevector in a.u.,A,eV,Ry     =   1.452546  2.744913 28.706785  2.109889
  Thomas-Fermi vector in A             =   2.569915
 
 Write flags
   LWAVE        =      T    write WAVECAR
   LDOWNSAMPLE  =      F    k-point downsampling of WAVECAR
   LCHARG       =      F    write CHGCAR
   LVTOT        =      F    write LOCPOT, total local potential
   LVHAR        =      F    write LOCPOT, Hartree potential only
   LELF         =      F    write electronic localiz. function (ELF)
   LORBIT       =      0    0 simple, 1 ext, 2 COOP (PROOUT), +10 PAW based schemes


 Dipole corrections
   LMONO  =      F    monopole corrections only (constant potential shift)
   LDIPOL =      F    correct potential (dipole corrections)
   IDIPOL =      0    1-x, 2-y, 3-z, 4-all directions 
   EPSILON=  1.0000000 bulk dielectric constant

 Exchange correlation treatment:
   GGA     =    --    GGA type
   LEXCH   =     8    internal setting for exchange type
   VOSKOWN=      0    Vosko Wilk Nusair interpolation
   LHFCALC =     F    Hartree Fock is set to
   LHFONE  =     F    Hartree Fock one center treatment
   AEXX    =    0.0000 exact exchange contribution

 Linear response parameters
   LEPSILON=     F    determine dielectric tensor
   LRPA    =     F    only Hartree local field effects (RPA)
   LNABLA  =     F    use nabla operator in PAW spheres
   LVEL    =     F    velocity operator in full k-point grid
   LINTERFAST=   F  fast interpolation
   KINTER  =     0    interpolate to denser k-point grid
   CSHIFT  =0.1000    complex shift for real part using Kramers Kronig
   OMEGAMAX=  -1.0    maximum frequency
   DEG_THRESHOLD= 0.2000000E-02 threshold for treating states as degnerate
   RTIME   =   -0.100 relaxation time in fs
  (WPLASMAI=    0.000 imaginary part of plasma frequency in eV, 0.658/RTIME)
   DFIELD  = 0.0000000 0.0000000 0.0000000 field for delta impulse in time
 
 Orbital magnetization related:
   ORBITALMAG=     F  switch on orbital magnetization
   LCHIMAG   =     F  perturbation theory with respect to B field
   DQ        =  0.001000  dq finite difference perturbation B field
   LLRAUG    =     F  two centre corrections for induced B field



--------------------------------------------------------------------------------------------------------


 Static calculation
 charge density and potential remain constant during run
 spin polarized calculation
 Variant of blocked Davidson
 Davidson routine will perform the subspace rotation
 perform sub-space diagonalisation
    after iterative eigenvector-optimisation
 no mixing
 using additional bands            8
 reciprocal scheme for non local part
 use partial core corrections
 calculate Harris-corrections to forces 
   (improved forces if not selfconsistent)
 use gradient corrections 
 WARNING: stress and forces are not correct
  (second derivative of E(xc) not defined)
 use of overlap-Matrix (Vanderbilt PP)
 Methfessel and Paxton  Order N= 1 SIGMA  =   0.20


--------------------------------------------------------------------------------------------------------


  energy-cutoff  :      268.00
  volume of cell :       11.45
      direct lattice vectors                 reciprocal lattice vectors
    -1.420000000  1.420000000  1.420000000     0.000000000  0.352112676  0.352112676
     1.420000000 -1.420000000  1.420000000     0.352112676  0.000000000  0.352112676
     1.420000000  1.420000000 -1.420000000     0.352112676  0.352112676  0.000000000

  length of vectors
     2.459512147  2.459512147  2.459512147     0.497962522  0.497962522  0.497962522


 
 k-points in units of 2pi/SCALE and weight: K-points along high symmetry lines for b
   0.00000000  0.00000000  0.00000000       0.010
   0.00000000  0.05263158  0.00000000       0.010
   0.00000000  0.10526316  0.00000000       0.010
   0.00000000  0.15789474  0.00000000       0.010
   0.00000000  0.21052632  0.00000000       0.010
   0.00000000  0.26315789  0.00000000       0.010
   0.00000000  0.31578947  0.00000000       0.010
   0.00000000  0.36842105  0.00000000       0.010
   0.00000000  0.42105263  0.00000000       0.010
   0.00000000  0.47368421  0.00000000       0.010
   0.00000000  0.52631579  0.00000000       0.010
   0.00000000  0.57894737  0.00000000       0.010
   0.00000000  0.63157895  0.00000000       0.010
   0.00000000  0.68421053  0.00000000       0.010
   0.00000000  0.73684211  0.00000000       0.010
   0.00000000  0.78947368  0.00000000       0.010
   0.00000000  0.84210526  0.00000000       0.010
   0.00000000  0.89473684  0.00000000       0.010
   0.00000000  0.94736842  0.00000000       0.010
   0.00000000  1.00000000  0.00000000       0.010
   0.00000000  1.00000000  0.00000000       0.010
   0.02631579  0.97368421  0.00000000       0.010
   0.05263158  0.94736842  0.00000000       0.010
   0.07894737  0.92105263  0.00000000       0.010
   0.10526316  0.89473684  0.00000000       0.010
   0.13157895  0.86842105  0.00000000       0.010
   0.15789474  0.84210526  0.00000000       0.010
   0.18421053  0.81578947  0.00000000       0.010
   0.21052632  0.78947368  0.00000000       0.010
   0.23684211  0.76315789  0.00000000       0.010
   0.26315789  0.73684211  0.00000000       0.010
   0.28947368  0.71052632  0.00000000       0.010
   0.31578947  0.68421053  0.00000000       0.010
   0.34210526  0.65789474  0.00000000       0.010
   0.36842105  0.63157895  0.00000000       0.010
   0.39473684  0.60526316  0.00000000       0.010
   0.42105263  0.57894737  0.00000000       0.010
   0.44736842  0.55263158  0.00000000       0.010
   0.47368421  0.52631579  0.00000000       0.010
   0.50000000  0.50000000  0.00000000       0.010
   0.50000000  0.50000000  0.00000000       0.010
   0.50000000  0.50000000  0.02631579       0.010
   0.50000000  0.50000000  0.05263158       0.010
   0.50000000  0.50000000  0.07894737       0.010
   0.50000000  0.50000000  0.10526316       0.010
   0.50000000  0.50000000  0.13157895       0.010
   0.50000000  0.50000000  0.15789474       0.010
   0.50000000  0.50000000  0.18421053       0.010
   0.50000000  0.50000000  0.21052632       0.010
   0.50000000  0.50000000  0.23684211       0.010
   0.50000000  0.50000000  0.26315789       0.010
   0.50000000  0.50000000  0.28947368       0.010
   0.50000000  0.50000000  0.31578947       0.010
   0.50000000  0.50000000  0.34210526       0.010
   0.50000000  0.50000000  0.36842105       0.010
   0.50000000  0.50000000  0.39473684       0.010
   0.50000000  0.50000000  0.42105263       0.010
   0.50000000  0.50000000  0.44736842       0.010
   0.50000000  0.50000000  0.47368421       0.010
   0.50000000  0.50000000  0.50000000       0.010
   0.50000000  0.50000000  0.50000000       0.010
   0.47368421  0.47368421  0.47368421       0.010
   0.44736842  0.44736842  0.44736842       0.010
   0.42105263  0.42105263  0.42105263       0.010
   0.39473684  0.39473684  0.39473684       0.010
   0.36842105  0.36842105  0.36842105       0.010
   0.34210526  0.34210526  0.34210526       0.010
   0.31578947  0.31578947  0.31578947       0.010
   0.28947368  0.28947368  0.28947368       0.010
   0.26315789  0.26315789  0.26315789       0.010
   0.23684211  0.23684211  0.23684211       0.010
   0.21052632  0.21052632  0.21052632       0.010
   0.18421053  0.18421053  0.18421053       0.010
   0.15789474  0.15789474  0.15789474       0.010
   0.13157895  0.13157895  0.13157895       0.010
   0.10526316  0.10526316  0.10526316       0.010
   0.07894737  0.07894737  0.07894737       0.010
   0.05263158  0.05263158  0.05263158       0.010
   0.02631579  0.02631579  0.02631579       0.010
   0.00000000  0.00000000  0.00000000       0.010
   0.00000000  0.00000000  0.00000000       0.010
   0.02631579  0.02631579  0.00000000       0.010
   0.05263158  0.05263158  0.00000000       0.010
   0.07894737  0.07894737  0.00000000       0.010
   0.10526316  0.10526316  0.00000000       0.010
   0.13157895  0.13157895  0.00000000       0.010
   0.15789474  0.15789474  0.00000000       0.010
   0.18421053  0.18421053  0.00000000       0.010
   0.21052632  0.21052632  0.00000000       0.010
   0.23684211  0.23684211  0.00000000       0.010
   0.26315789  0.26315789  0.00000000       0.010
   0.28947368  0.28947368  0.00000000       0.010
   0.31578947  0.31578947  0.00000000       0.010
   0.34210526  0.34210526  0.00000000       0.010
   0.36842105  0.36842105  0.00000000       0.010
   0.39473684  0.39473684  0.00000000       0.010
   0.42105263  0.42105263  0.00000000       0.010
   0.44736842  0.44736842  0.00000000       0.010
   0.47368421  0.47368421  0.00000000       0.010
   0.50000000  0.50000000  0.00000000       0.010
 
 k-points in reciprocal lattice and weights: K-points along high symmetry lines for b
   0.00000000  0.00000000  0.00000000       0.010
   0.02631579 -0.02631579  0.02631579       0.010
   0.05263158 -0.05263158  0.05263158       0.010
   0.07894737 -0.07894737  0.07894737       0.010
   0.10526316 -0.10526316  0.10526316       0.010
   0.13157895 -0.13157895  0.13157895       0.010
   0.15789474 -0.15789474  0.15789474       0.010
   0.18421053 -0.18421053  0.18421053       0.010
   0.21052632 -0.21052632  0.21052632       0.010
   0.23684211 -0.23684211  0.23684211       0.010
   0.26315789 -0.26315789  0.26315789       0.010
   0.28947368 -0.28947368  0.28947368       0.010
   0.31578947 -0.31578947  0.31578947       0.010
   0.34210526 -0.34210526  0.34210526       0.010
   0.36842105 -0.36842105  0.36842105       0.010
   0.39473684 -0.39473684  0.39473684       0.010
   0.42105263 -0.42105263  0.42105263       0.010
   0.44736842 -0.44736842  0.44736842       0.010
   0.47368421 -0.47368421  0.47368421       0.010
   0.50000000 -0.50000000  0.50000000       0.010
   0.50000000 -0.50000000  0.50000000       0.010
   0.47368421 -0.47368421  0.50000000       0.010
   0.44736842 -0.44736842  0.50000000       0.010
   0.42105263 -0.42105263  0.50000000       0.010
   0.39473684 -0.39473684  0.50000000       0.010
   0.36842105 -0.36842105  0.50000000       0.010
   0.34210526 -0.34210526  0.50000000       0.010
   0.31578947 -0.31578947  0.50000000       0.010
   0.28947368 -0.28947368  0.50000000       0.010
   0.26315789 -0.26315789  0.50000000       0.010
   0.23684211 -0.23684211  0.50000000       0.010
   0.21052632 -0.21052632  0.50000000       0.010
   0.18421053 -0.18421053  0.50000000       0.010
   0.15789474 -0.15789474  0.50000000       0.010
   0.13157895 -0.13157895  0.50000000       0.010
   0.10526316 -0.10526316  0.50000000       0.010
   0.07894737 -0.07894737  0.50000000       0.010
   0.05263158 -0.05263158  0.50000000       0.010
   0.02631579 -0.02631579  0.50000000       0.010
   0.00000000  0.00000000  0.50000000       0.010
   0.00000000  0.00000000  0.50000000       0.010
   0.01315789  0.01315789  0.48684211       0.010
   0.02631579  0.02631579  0.47368421       0.010
   0.03947368  0.03947368  0.46052632       0.010
   0.05263158  0.05263158  0.44736842       0.010
   0.06578947  0.06578947  0.43421053       0.010
   0.07894737  0.07894737  0.42105263       0.010
   0.09210526  0.09210526  0.40789474       0.010
   0.10526316  0.10526316  0.39473684       0.010
   0.11842105  0.11842105  0.38157895       0.010
   0.13157895  0.13157895  0.36842105       0.010
   0.14473684  0.14473684  0.35526316       0.010
   0.15789474  0.15789474  0.34210526       0.010
   0.17105263  0.17105263  0.32894737       0.010
   0.18421053  0.18421053  0.31578947       0.010
   0.19736842  0.19736842  0.30263158       0.010
   0.21052632  0.21052632  0.28947368       0.010
   0.22368421  0.22368421  0.27631579       0.010
   0.23684211  0.23684211  0.26315789       0.010
   0.25000000  0.25000000  0.25000000       0.010
   0.25000000  0.25000000  0.25000000       0.010
   0.23684211  0.23684211  0.23684211       0.010
   0.22368421  0.22368421  0.22368421       0.010
   0.21052632  0.21052632  0.21052632       0.010
   0.19736842  0.19736842  0.19736842       0.010
   0.18421053  0.18421053  0.18421053       0.010
   0.17105263  0.17105263  0.17105263       0.010
   0.15789474  0.15789474  0.15789474       0.010
   0.14473684  0.14473684  0.14473684       0.010
   0.13157895  0.13157895  0.13157895       0.010
   0.11842105  0.11842105  0.11842105       0.010
   0.10526316  0.10526316  0.10526316       0.010
   0.09210526  0.09210526  0.09210526       0.010
   0.07894737  0.07894737  0.07894737       0.010
   0.06578947  0.06578947  0.06578947       0.010
   0.05263158  0.05263158  0.05263158       0.010
   0.03947368  0.03947368  0.03947368       0.010
   0.02631579  0.02631579  0.02631579       0.010
   0.01315789  0.01315789  0.01315789       0.010
   0.00000000  0.00000000  0.00000000       0.010
   0.00000000  0.00000000  0.00000000       0.010
   0.00000000  0.00000000  0.02631579       0.010
   0.00000000  0.00000000  0.05263158       0.010
   0.00000000  0.00000000  0.07894737       0.010
   0.00000000  0.00000000  0.10526316       0.010
   0.00000000  0.00000000  0.13157895       0.010
   0.00000000  0.00000000  0.15789474       0.010
   0.00000000  0.00000000  0.18421053       0.010
   0.00000000  0.00000000  0.21052632       0.010
   0.00000000  0.00000000  0.23684211       0.010
   0.00000000  0.00000000  0.26315789       0.010
   0.00000000  0.00000000  0.28947368       0.010
   0.00000000  0.00000000  0.31578947       0.010
   0.00000000  0.00000000  0.34210526       0.010
   0.00000000  0.00000000  0.36842105       0.010
   0.00000000  0.00000000  0.39473684       0.010
   0.00000000  0.00000000  0.42105263       0.010
   0.00000000  0.00000000  0.44736842       0.010
   0.00000000  0.00000000  0.47368421       0.010
   0.00000000  0.00000000  0.50000000       0.010
 
 position of ions in fractional coordinates (direct lattice) 
   0.00000000  0.00000000  0.00000000
 
 position of ions in cartesian coordinates  (Angst):
   0.00000000  0.00000000  0.00000000
 


--------------------------------------------------------------------------------------------------------


 k-point  1 :   0.0000 0.0000 0.0000  plane waves:     135
 k-point  2 :   0.0263-0.0263 0.0263  plane waves:     135
 k-point  3 :   0.0526-0.0526 0.0526  plane waves:     119
 k-point  4 :   0.0789-0.0789 0.0789  plane waves:     119
 k-point  5 :   0.1053-0.1053 0.1053  plane waves:     112
 k-point  6 :   0.1316-0.1316 0.1316  plane waves:     112
 k-point  7 :   0.1579-0.1579 0.1579  plane waves:     112
 k-point  8 :   0.1842-0.1842 0.1842  plane waves:     112
 k-point  9 :   0.2105-0.2105 0.2105  plane waves:     112
 k-point 10 :   0.2368-0.2368 0.2368  plane waves:     112
 k-point 11 :   0.2632-0.2632 0.2632  plane waves:     112
 k-point 12 :   0.2895-0.2895 0.2895  plane waves:     112
 k-point 13 :   0.3158-0.3158 0.3158  plane waves:     112
 k-point 14 :   0.3421-0.3421 0.3421  plane waves:     112
 k-point 15 :   0.3684-0.3684 0.3684  plane waves:     112
 k-point 16 :   0.3947-0.3947 0.3947  plane waves:     116
 k-point 17 :   0.4211-0.4211 0.4211  plane waves:     116
 k-point 18 :   0.4474-0.4474 0.4474  plane waves:     116
 k-point 19 :   0.4737-0.4737 0.4737  plane waves:     116
 k-point 20 :   0.5000-0.5000 0.5000  plane waves:     116
 k-point 21 :   0.5000-0.5000 0.5000  plane waves:     116
 k-point 22 :   0.4737-0.4737 0.5000  plane waves:     116
 k-point 23 :   0.4474-0.4474 0.5000  plane waves:     116
 k-point 24 :   0.4211-0.4211 0.5000  plane waves:     116
 k-point 25 :   0.3947-0.3947 0.5000  plane waves:     116
 k-point 26 :   0.3684-0.3684 0.5000  plane waves:     116
 k-point 27 :   0.3421-0.3421 0.5000  plane waves:     114
 k-point 28 :   0.3158-0.3158 0.5000  plane waves:     114
 k-point 29 :   0.2895-0.2895 0.5000  plane waves:     114
 k-point 30 :   0.2632-0.2632 0.5000  plane waves:     110
 k-point 31 :   0.2368-0.2368 0.5000  plane waves:     110
 k-point 32 :   0.2105-0.2105 0.5000  plane waves:     116
 k-point 33 :   0.1842-0.1842 0.5000  plane waves:     112
 k-point 34 :   0.1579-0.1579 0.5000  plane waves:     112
 k-point 35 :   0.1316-0.1316 0.5000  plane waves:     118
 k-point 36 :   0.1053-0.1053 0.5000  plane waves:     114
 k-point 37 :   0.0789-0.0789 0.5000  plane waves:     116
 k-point 38 :   0.0526-0.0526 0.5000  plane waves:     116
 k-point 39 :   0.0263-0.0263 0.5000  plane waves:     114
 k-point 40 :   0.0000 0.0000 0.5000  plane waves:     114
 k-point 41 :   0.0000 0.0000 0.5000  plane waves:     114
 k-point 42 :   0.0132 0.0132 0.4868  plane waves:     114
 k-point 43 :   0.0263 0.0263 0.4737  plane waves:     114
 k-point 44 :   0.0395 0.0395 0.4605  plane waves:     114
 k-point 45 :   0.0526 0.0526 0.4474  plane waves:     114
 k-point 46 :   0.0658 0.0658 0.4342  plane waves:     114
 k-point 47 :   0.0789 0.0789 0.4211  plane waves:     112
 k-point 48 :   0.0921 0.0921 0.4079  plane waves:     112
 k-point 49 :   0.1053 0.1053 0.3947  plane waves:     116
 k-point 50 :   0.1184 0.1184 0.3816  plane waves:     116
 k-point 51 :   0.1316 0.1316 0.3684  plane waves:     116
 k-point 52 :   0.1447 0.1447 0.3553  plane waves:     118
 k-point 53 :   0.1579 0.1579 0.3421  plane waves:     118
 k-point 54 :   0.1711 0.1711 0.3289  plane waves:     118
 k-point 55 :   0.1842 0.1842 0.3158  plane waves:     112
 k-point 56 :   0.1974 0.1974 0.3026  plane waves:     112
 k-point 57 :   0.2105 0.2105 0.2895  plane waves:     112
 k-point 58 :   0.2237 0.2237 0.2763  plane waves:     104
 k-point 59 :   0.2368 0.2368 0.2632  plane waves:     104
 k-point 60 :   0.2500 0.2500 0.2500  plane waves:     104
 k-point 61 :   0.2500 0.2500 0.2500  plane waves:     104
 k-point 62 :   0.2368 0.2368 0.2368  plane waves:     104
 k-point 63 :   0.2237 0.2237 0.2237  plane waves:     110
 k-point 64 :   0.2105 0.2105 0.2105  plane waves:     113
 k-point 65 :   0.1974 0.1974 0.1974  plane waves:     113
 k-point 66 :   0.1842 0.1842 0.1842  plane waves:     113
 k-point 67 :   0.1711 0.1711 0.1711  plane waves:     125
 k-point 68 :   0.1579 0.1579 0.1579  plane waves:     119
 k-point 69 :   0.1447 0.1447 0.1447  plane waves:     119
 k-point 70 :   0.1316 0.1316 0.1316  plane waves:     119
 k-point 71 :   0.1184 0.1184 0.1184  plane waves:     119
 k-point 72 :   0.1053 0.1053 0.1053  plane waves:     116
 k-point 73 :   0.0921 0.0921 0.0921  plane waves:     117
 k-point 74 :   0.0789 0.0789 0.0789  plane waves:     117
 k-point 75 :   0.0658 0.0658 0.0658  plane waves:     117
 k-point 76 :   0.0526 0.0526 0.0526  plane waves:     117
 k-point 77 :   0.0395 0.0395 0.0395  plane waves:     123
 k-point 78 :   0.0263 0.0263 0.0263  plane waves:     123
 k-point 79 :   0.0132 0.0132 0.0132  plane waves:     135
 k-point 80 :   0.0000 0.0000 0.0000  plane waves:     135
 k-point 81 :   0.0000 0.0000 0.0000  plane waves:     135
 k-point 82 :   0.0000 0.0000 0.0263  plane waves:     135
 k-point 83 :   0.0000 0.0000 0.0526  plane waves:     127
 k-point 84 :   0.0000 0.0000 0.0789  plane waves:     123
 k-point 85 :   0.0000 0.0000 0.1053  plane waves:     119
 k-point 86 :   0.0000 0.0000 0.1316  plane waves:     119
 k-point 87 :   0.0000 0.0000 0.1579  plane waves:     119
 k-point 88 :   0.0000 0.0000 0.1842  plane waves:     111
 k-point 89 :   0.0000 0.0000 0.2105  plane waves:     111
 k-point 90 :   0.0000 0.0000 0.2368  plane waves:     113
 k-point 91 :   0.0000 0.0000 0.2632  plane waves:     113
 k-point 92 :   0.0000 0.0000 0.2895  plane waves:     111
 k-point 93 :   0.0000 0.0000 0.3158  plane waves:     111
 k-point 94 :   0.0000 0.0000 0.3421  plane waves:     112
 k-point 95 :   0.0000 0.0000 0.3684  plane waves:     112
 k-point 96 :   0.0000 0.0000 0.3947  plane waves:     116
 k-point 97 :   0.0000 0.0000 0.4211  plane waves:     116
 k-point 98 :   0.0000 0.0000 0.4474  plane waves:     116
 k-point 99 :   0.0000 0.0000 0.4737  plane waves:     116
 k-point ** :   0.0000 0.0000 0.5000  plane waves:     114

 maximum and minimum number of plane-waves per node :       135      104

 maximum number of plane-waves:       135
 maximum index in each direction: 
   IXMAX=    3   IYMAX=    3   IZMAX=    3
   IXMIN=   -3   IYMIN=   -3   IZMIN=   -3


 serial   3D FFT for wavefunctions
 parallel 3D FFT for charge:
    minimum data exchange during FFTs selected (reduces bandwidth)


 total amount of memory used by VASP MPI-rank0    33950. kBytes
=======================================================================

   base      :      30000. kBytes
   nonl-proj :       1960. kBytes
   fftplans  :        142. kBytes
   grid      :        320. kBytes
   one-center:         31. kBytes
   wavefun   :       1497. kBytes
 
     INWAV:  cpu time    0.0001: real time    0.0002
 initial charge density was supplied:
 number of electron       8.0000106 magnetization       2.3256103
 keeping initial charge density in first step


--------------------------------------------------------------------------------------------------------


 Maximum index for augmentation-charges          749 (set IRDMAX)


--------------------------------------------------------------------------------------------------------


 First call to EWALD:  gamma=   0.786
 Maximum number of real-space cells 3x 3x 3
 Maximum number of reciprocal cells 3x 3x 3

    FEWALD:  cpu time    0.0009: real time    0.0009


--------------------------------------- Iteration      1(   1)  ---------------------------------------


    POTLOK:  cpu time    0.0037: real time    0.0064
    SETDIJ:  cpu time    0.0039: real time    0.0038
     EDDAV:  cpu time    0.2546: real time    0.2777
       DOS:  cpu time    0.0015: real time    0.0014
    --------------------------------------------
      LOOP:  cpu time    0.2637: real time    0.2893

 eigenvalue-minimisations  :  5352
 total energy-change (2. order) : 0.1144628E+02  (-0.2661394E+03)
 number of electron       8.0000106 magnetization       2.3256103
 augmentation part        8.0000106 magnetization       2.3256103

 Free energy of the ion-electron system (eV)
  ---------------------------------------------------
  alpha Z        PSCENC =        60.34476448
  Ewald energy   TEWEN  =      -590.46971399
  -Hartree energ DENC   =       -95.91358798
  -exchange      EXHF   =         0.00000000
  -V(xc)+E(xc)   XCENC  =         4.41713341
  PAW double counting   =       718.79586096     -727.86152773
  entropy T*S    EENTRO =        -0.00265888
  eigenvalues    EBANDS =        47.85516160
  atomic energy  EATOM  =       594.28084496
  Solvation  Ediel_sol  =         0.00000000
  ---------------------------------------------------
  free energy    TOTEN  =        11.44627683 eV

  energy without entropy =       11.44893571  energy(sigma->0) =       11.44716313


--------------------------------------------------------------------------------------------------------




--------------------------------------- Iteration      1(   2)  ---------------------------------------


     EDDAV:  cpu time    0.2277: real time    0.2330
       DOS:  cpu time    0.0015: real time    0.0015
    --------------------------------------------
      LOOP:  cpu time    0.2293: real time    0.2346

 eigenvalue-minimisations  :  5088
 total energy-change (2. order) :-0.2022428E+02  (-0.1790702E+02)
 number of electron       8.0000106 magnetization       2.3256103
 augmentation part        8.0000106 magnetization       2.3256103

 Free energy of the ion-electron system (eV)
  ---------------------------------------------------
  alpha Z        PSCENC =        60.34476448
  Ewald energy   TEWEN  =      -590.46971399
  -Hartree energ DENC   =       -95.91358798
  -exchange      EXHF   =         0.00000000
  -V(xc)+E(xc)   XCENC  =         4.41713341
  PAW double counting   =       718.79586096     -727.86152773
  entropy T*S    EENTRO =        -0.00050084
  eigenvalues    EBANDS =        27.62872065
  atomic energy  EATOM  =       594.28084496
  Solvation  Ediel_sol  =         0.00000000
  ---------------------------------------------------
  free energy    TOTEN  =        -8.77800608 eV

  energy without entropy =       -8.77750524  energy(sigma->0) =       -8.77783913


--------------------------------------------------------------------------------------------------------




--------------------------------------- Iteration      1(   3)  ---------------------------------------


     EDDAV:  cpu time    0.2556: real time    0.2607
       DOS:  cpu time    0.0016: real time    0.0016
    --------------------------------------------
      LOOP:  cpu time    0.2573: real time    0.2623

 eigenvalue-minimisations  :  5948
 total energy-change (2. order) :-0.3682354E+00  (-0.3643182E+00)
 number of electron       8.0000106 magnetization       2.3256103
 augmentation part        8.0000106 magnetization       2.3256103

 Free energy of the ion-electron system (eV)
  ---------------------------------------------------
  alpha Z        PSCENC =        60.34476448
  Ewald energy   TEWEN  =      -590.46971399
  -Hartree energ DENC   =       -95.91358798
  -exchange      EXHF   =         0.00000000
  -V(xc)+E(xc)   XCENC  =         4.41713341
  PAW double counting   =       718.79586096     -727.86152773
  entropy T*S    EENTRO =         0.00054324
  eigenvalues    EBANDS =        27.25944113
  atomic energy  EATOM  =       594.28084496
  Solvation  Ediel_sol  =         0.00000000
  ---------------------------------------------------
  free energy    TOTEN  =        -9.14624152 eV

  energy without entropy =       -9.14678476  energy(sigma->0) =       -9.14642260


--------------------------------------------------------------------------------------------------------




--------------------------------------- Iteration      1(   4)  ---------------------------------------


     EDDAV:  cpu time    0.2416: real time    0.2469
       DOS:  cpu time    0.0015: real time    0.0015
    --------------------------------------------
      LOOP:  cpu time    0.2431: real time    0.2484

 eigenvalue-minimisations  :  5524
 total energy-change (2. order) :-0.1083959E-02  (-0.1083836E-02)
 number of electron       8.0000106 magnetization       2.3256103
 augmentation part        8.0000106 magnetization       2.3256103

 Free energy of the ion-electron system (eV)
  ---------------------------------------------------
  alpha Z        PSCENC =        60.34476448
  Ewald energy   TEWEN  =      -590.46971399
  -Hartree energ DENC   =       -95.91358798
  -exchange      EXHF   =         0.00000000
  -V(xc)+E(xc)   XCENC  =         4.41713341
  PAW double counting   =       718.79586096     -727.86152773
  entropy T*S    EENTRO =         0.00054230
  eigenvalues    EBANDS =        27.25835811
  atomic energy  EATOM  =       594.28084496
  Solvation  Ediel_sol  =         0.00000000
  ---------------------------------------------------
  free energy    TOTEN  =        -9.14732547 eV

  energy without entropy =       -9.14786777  energy(sigma->0) =       -9.14750624


--------------------------------------------------------------------------------------------------------




--------------------------------------- Iteration      1(   5)  ---------------------------------------


     EDDAV:  cpu time    0.2300: real time    0.2354
       DOS:  cpu time    0.0017: real time    0.0016
    --------------------------------------------
      LOOP:  cpu time    0.2317: real time    0.2370

 eigenvalue-minimisations  :  5068
 total energy-change (2. order) :-0.5981771E-05  (-0.5981107E-05)
 number of electron       8.0000106 magnetization       2.3256103
 augmentation part        8.0000106 magnetization       2.3256103

 Free energy of the ion-electron system (eV)
  ---------------------------------------------------
  alpha Z        PSCENC =        60.34476448
  Ewald energy   TEWEN  =      -590.46971399
  -Hartree energ DENC   =       -95.91358798
  -exchange      EXHF   =         0.00000000
  -V(xc)+E(xc)   XCENC  =         4.41713341
  PAW double counting   =       718.79586096     -727.86152773
  entropy T*S    EENTRO =         0.00054229
  eigenvalues    EBANDS =        27.25835214
  atomic energy  EATOM  =       594.28084496
  Solvation  Ediel_sol  =         0.00000000
  ---------------------------------------------------
  free energy    TOTEN  =        -9.14733146 eV

  energy without entropy =       -9.14787374  energy(sigma->0) =       -9.14751222


--------------------------------------------------------------------------------------------------------




--------------------------------------- Iteration      1(   6)  ---------------------------------------


     EDDAV:  cpu time    0.2010: real time    0.2060
       DOS:  cpu time    0.0017: real time    0.0017
    --------------------------------------------
      LOOP:  cpu time    0.2027: real time    0.2076

 eigenvalue-minimisations  :  4036
 total energy-change (2. order) :-0.1413562E-06  (-0.1418801E-06)
 number of electron       8.0000106 magnetization       2.3256103
 augmentation part        8.0000106 magnetization       2.3256103

 Free energy of the ion-electron system (eV)
  ---------------------------------------------------
  alpha Z        PSCENC =        60.34476448
  Ewald energy   TEWEN  =      -590.46971399
  -Hartree energ DENC   =       -95.91358798
  -exchange      EXHF   =         0.00000000
  -V(xc)+E(xc)   XCENC  =         4.41713341
  PAW double counting   =       718.79586096     -727.86152773
  entropy T*S    EENTRO =         0.00054229
  eigenvalues    EBANDS =        27.25835200
  atomic energy  EATOM  =       594.28084496
  Solvation  Ediel_sol  =         0.00000000
  ---------------------------------------------------
  free energy    TOTEN  =        -9.14733160 eV

  energy without entropy =       -9.14787389  energy(sigma->0) =       -9.14751236


--------------------------------------------------------------------------------------------------------




 average (electrostatic) potential at core
  the test charge radii are     1.0103
  (the norm of the test charge is              1.0000)
       1 -43.3474
 
 
 
 E-fermi :   5.8104     XC(G=0): -13.0638     alpha+bet :-13.5338


 spin component 1

 k-point     1 :       0.0000    0.0000    0.0000
  band No.  band energies     occupation 
      1      -2.6571      1.00000
      2       3.3635      1.00000
      3       3.3635      1.00000
      4       3.3637      1.00000
      5       4.7538      1.00000
      6       4.7538      1.00000
      7      30.6732      0.00000
      8      30.6732      0.00000
      9      30.6733      0.00000
     10      35.7909      0.00000
     11      35.7909      0.00000
     12      37.9562      0.00000

 k-point     2 :       0.0263   -0.0263    0.0263
  band No.  band energies     occupation 
      1      -2.5998      1.00000
      2       3.3630      1.00000
      3       3.3632      1.00000
      4       3.3790      1.00000
      5       4.7281      1.00000
      6       4.7641      1.00000
      7      30.2644      0.00000
      8      30.6224      0.00000
      9      30.6224      0.00000
     10      35.1600      0.00000
     11      36.3328      0.00000
     12      36.8378      0.00000

 k-point     3 :       0.0526   -0.0526    0.0526
  band No.  band energies     occupation 
      1      -2.4293      1.00000
      2       3.3711      1.00000
      3       3.3713      1.00000
      4       3.4277      1.00000
      5       4.6566      1.00000
      6       4.7981      1.00000
      7      29.3676      0.00000
      8      30.4442      0.00000
      9      30.4442      0.00000
     10      33.9536      0.00000
     11      35.9040      0.00000
     12      35.9041      0.00000

 k-point     4 :       0.0789   -0.0789    0.0789
  band No.  band energies     occupation 
      1      -2.1498      1.00000
      2       3.3713      1.00000
      3       3.3714      1.00000
      4       3.5027      1.00000
      5       4.5298      1.00000
      6       4.8464      1.00000
      7      28.3262      0.00000
      8      29.9901      0.00000
      9      29.9901      0.00000
     10      32.6003      0.00000
     11      35.2875      0.00000
     12      35.2875      0.00000

 k-point     5 :       0.1053   -0.1053    0.1053
  band No.  band energies     occupation 
      1      -1.7690      1.00000
      2       3.3816      1.00000
      3       3.3817      1.00000
      4       3.6139      1.00000
      5       4.3590      1.00000
      6       4.9128      1.00000
      7      27.3104      0.00000
      8      29.2139      0.00000
      9      29.2139      0.00000
     10      31.2447      0.00000
     11      35.1792      0.00000
     12      35.1792      0.00000

 k-point     6 :       0.1316   -0.1316    0.1316
  band No.  band energies     occupation 
      1      -1.2992      1.00000
      2       3.4031      1.00000
      3       3.4032      1.00000
      4       3.7411      1.00000
      5       4.1453      1.00000
      6       4.9962      1.00000
      7      26.3633      0.00000
      8      28.1784      0.00000
      9      28.1785      0.00000
     10      29.9486      0.00000
     11      35.4742      0.00000
     12      35.4742      0.00000

 k-point     7 :       0.1579   -0.1579    0.1579
  band No.  band energies     occupation 
      1      -0.7590      1.00000
      2       3.4438      1.00000
      3       3.4439      1.00000
      4       3.8906      1.00000
      5       3.8964      1.00000
      6       5.1037      1.00000
      7      25.5101      0.00000
      8      27.0056      0.00000
      9      27.0057      0.00000
     10      28.7459      0.00000
     11      36.0690      0.00000
     12      36.0690      0.00000

 k-point     8 :       0.1842   -0.1842    0.1842
  band No.  band energies     occupation 
      1      -0.1773      1.00000
      2       3.5092      1.00000
      3       3.5093      1.00000
      4       3.6191      1.00000
      5       4.0586      1.00000
      6       5.2500      1.00027
      7      24.7565      0.00000
      8      25.7771      0.00000
      9      25.7771      0.00000
     10      27.6628      0.00000
     11      36.8759      0.00000
     12      36.8759      0.00000

 k-point     9 :       0.2105   -0.2105    0.2105
  band No.  band energies     occupation 
      1       0.4029      1.00000
      2       3.3213      1.00000
      3       3.6042      1.00000
      4       3.6043      1.00000
      5       4.2407      1.00000
      6       5.4654      1.01748
      7      24.1011      0.00000
      8      24.5387      0.00000
      9      24.5388      0.00000
     10      26.7170      0.00000
     11      37.8423      0.00000
     12      37.8426      0.00000

 k-point    10 :       0.2368   -0.2368    0.2368
  band No.  band energies     occupation 
      1       0.9226      1.00000
      2       3.0118      1.00000
      3       3.7322      1.00000
      4       3.7323      1.00000
      5       4.4322      1.00000
      6       5.7988      0.54901
      7      23.3173      0.00000
      8      23.3173      0.00000
      9      23.5388      0.00000
     10      25.9177      0.00000
     11      38.9356      0.00000
     12      38.9367      0.00000

 k-point    11 :       0.2632   -0.2632    0.2632
  band No.  band energies     occupation 
      1       1.3177      1.00000
      2       2.6995      1.00000
      3       3.8961      1.00000
      4       3.8963      1.00000
      5       4.6300      1.00000
      6       6.2980     -0.00152
      7      22.1343      0.00000
      8      22.1343      0.00000
      9      23.0626      0.00000
     10      25.2620      0.00000
     11      40.0448      0.00000
     12      40.1326      0.00000

 k-point    12 :       0.2895   -0.2895    0.2895
  band No.  band energies     occupation 
      1       1.5508      1.00000
      2       2.3934      1.00000
      3       4.0924      1.00000
      4       4.0925      1.00000
      5       4.8236      1.00000
      6       7.0147     -0.00000
      7      20.9931      0.00000
      8      20.9931      0.00000
      9      22.6646      0.00000
     10      24.7426      0.00000
     11      38.1928      0.00000
     12      40.5273      0.00000

 k-point    13 :       0.3158   -0.3158    0.3158
  band No.  band energies     occupation 
      1       1.6294      1.00000
      2       2.1020      1.00000
      3       4.3204      1.00000
      4       4.3205      1.00000
      5       5.0106      1.00000
      6       7.9368     -0.00000
      7      19.9139      0.00000
      8      19.9139      0.00000
      9      22.3367      0.00000
     10      24.3382      0.00000
     11      35.9003      0.00000
     12      41.0756      0.00000

 k-point    14 :       0.3421   -0.3421    0.3421
  band No.  band energies     occupation 
      1       1.5954      1.00000
      2       1.8315      1.00000
      3       4.5711      1.00000
      4       4.5712      1.00000
      5       5.1856      1.00005
      6       9.0327     -0.00000
      7      18.9087      0.00000
      8      18.9087      0.00000
      9      22.0588      0.00000
     10      24.0343      0.00000
     11      33.7164      0.00000
     12      41.6908      0.00000

 k-point    15 :       0.3684   -0.3684    0.3684
  band No.  band energies     occupation 
      1       1.4886      1.00000
      2       1.5917      1.00000
      3       4.8388      1.00000
      4       4.8389      1.00000
      5       5.3436      1.00236
      6      10.2507     -0.00000
      7      17.9973      0.00000
      8      17.9974      0.00000
      9      21.8450      0.00000
     10      23.7546      0.00000
     11      31.6341      0.00000
     12      42.3616      0.00000

 k-point    16 :       0.3947   -0.3947    0.3947
  band No.  band energies     occupation 
      1       1.3513      1.00000
      2       1.3872      1.00000
      3       5.1036      1.00000
      4       5.1038      1.00000
      5       5.4799      1.02066
      6      11.5485      0.00000
      7      17.1957      0.00000
      8      17.1957      0.00000
      9      21.6765      0.00000
     10      23.4390      0.00000
     11      29.7569      0.00000
     12      43.0685      0.00000

 k-point    17 :       0.4211   -0.4211    0.4211
  band No.  band energies     occupation 
      1       1.2159      1.00000
      2       1.2231      1.00000
      3       5.3510      1.00274
      4       5.3512      1.00275
      5       5.5903      1.03264
      6      12.8783      0.00000
      7      16.5307      0.00000
      8      16.5308      0.00000
      9      21.5527      0.00000
     10      23.0163      0.00000
     11      28.2003      0.00000
     12      43.7742      0.00000

 k-point    18 :       0.4474   -0.4474    0.4474
  band No.  band energies     occupation 
      1       1.1033      1.00000
      2       1.1041      1.00000
      3       5.5549      1.03506
      4       5.5551      1.03508
      5       5.6717      0.95752
      6      14.1487      0.00000
      7      16.0269      0.00000
      8      16.0270      0.00000
      9      21.4672      0.00000
     10      22.4074      0.00000
     11      27.0937      0.00000
     12      44.4126      0.00000

 k-point    19 :       0.4737   -0.4737    0.4737
  band No.  band energies     occupation 
      1       1.0303      1.00000
      2       1.0311      1.00000
      3       5.6905      0.91977
      4       5.6907      0.91931
      5       5.7215      0.83795
      6      15.1749      0.00000
      7      15.7107      0.00000
      8      15.7108      0.00000
      9      21.4172      0.00000
     10      21.7293      0.00000
     11      26.4862      0.00000
     12      44.8795      0.00000

 k-point    20 :       0.5000   -0.5000    0.5000
  band No.  band energies     occupation 
      1       1.0058      1.00000
      2       1.0058      1.00000
      3       5.7382      0.78441
      4       5.7382      0.78441
      5       5.7385      0.78334
      6      15.6026      0.00000
      7      15.6028      0.00000
      8      15.6028      0.00000
      9      21.4008      0.00000
     10      21.4008      0.00000
     11      26.3017      0.00000
     12      45.0548      0.00000

 k-point    21 :       0.5000   -0.5000    0.5000
  band No.  band energies     occupation 
      1       1.0058      1.00000
      2       1.0058      1.00000
      3       5.7382      0.78441
      4       5.7382      0.78441
      5       5.7385      0.78334
      6      15.6026      0.00000
      7      15.6028      0.00000
      8      15.6028      0.00000
      9      21.4008      0.00000
     10      21.4008      0.00000
     11      26.3017      0.00000
     12      45.0548      0.00000

 k-point    22 :       0.4737   -0.4737    0.5000
  band No.  band energies     occupation 
      1       1.0181      1.00000
      2       1.0184      1.00000
      3       5.7040      0.88701
      4       5.7142      0.85941
      5       5.7402      0.77760
      6      15.4922      0.00000
      7      15.5412      0.00000
      8      15.6568      0.00000
      9      21.4513      0.00000
     10      21.5377      0.00000
     11      26.3913      0.00000
     12      44.9631      0.00000

 k-point    23 :       0.4474   -0.4474    0.5000
  band No.  band energies     occupation 
      1       1.0545      1.00000
      2       1.0564      1.00000
      3       5.6042      1.02803
      4       5.6429      0.99896
      5       5.7455      0.75906
      6      15.1871      0.00000
      7      15.3706      0.00000
      8      15.8167      0.00000
      9      21.5872      0.00000
     10      21.9223      0.00000
     11      26.6605      0.00000
     12      44.6766      0.00000

 k-point    24 :       0.4211   -0.4211    0.5000
  band No.  band energies     occupation 
      1       1.1131      1.00000
      2       1.1197      1.00000
      3       5.4461      1.01363
      4       5.5277      1.03128
      5       5.7542      0.72748
      6      14.7437      0.00000
      7      15.1248      0.00000
      8      16.0753      0.00000
      9      21.7727      0.00000
     10      22.4989      0.00000
     11      27.1083      0.00000
     12      44.1752      0.00000

 k-point    25 :       0.3947   -0.3947    0.5000
  band No.  band energies     occupation 
      1       1.1904      1.00000
      2       1.2082      1.00000
      3       5.2403      1.00021
      4       5.3743      1.00428
      5       5.7661      0.68230
      6      14.2146      0.00000
      7      14.8415      0.00000
      8      16.4225      0.00000
      9      21.9729      0.00000
     10      23.2155      0.00000
     11      27.7268      0.00000
     12      43.4607      0.00000

 k-point    26 :       0.3684   -0.3684    0.5000
  band No.  band energies     occupation 
      1       1.2812      1.00000
      2       1.3222      1.00000
      3       4.9985      1.00000
      4       5.1913      1.00005
      5       5.7808      0.62345
      6      13.6365      0.00000
      7      14.5513      0.00000
      8      16.8475      0.00000
      9      22.1662      0.00000
     10      24.0364      0.00000
     11      28.4987      0.00000
     12      42.5709      0.00000

 k-point    27 :       0.3421   -0.3421    0.5000
  band No.  band energies     occupation 
      1       1.3784      1.00000
      2       1.4615      1.00000
      3       4.7325      1.00000
      4       4.9936      1.00000
      5       5.7980      0.55202
      6      13.0329      0.00000
      7      14.2751      0.00000
      8      17.3392      0.00000
      9      22.3505      0.00000
     10      24.9412      0.00000
     11      29.4002      0.00000
     12      41.5611      0.00000

 k-point    28 :       0.3158   -0.3158    0.5000
  band No.  band energies     occupation 
      1       1.4717      1.00000
      2       1.6258      1.00000
      3       4.4530      1.00000
      4       4.7892      1.00000
      5       5.8173      0.47080
      6      12.4170      0.00000
      7      14.0249      0.00000
      8      17.8881      0.00000
      9      22.5143      0.00000
     10      25.9143      0.00000
     11      30.4015      0.00000
     12      40.4805      0.00000

 k-point    29 :       0.2895   -0.2895    0.5000
  band No.  band energies     occupation 
      1       1.5487      1.00000
      2       1.8153      1.00000
      3       4.1693      1.00000
      4       4.6004      1.00000
      5       5.8380      0.38426
      6      11.7982      0.00000
      7      13.8065      0.00000
      8      18.4859      0.00000
      9      22.6684      0.00000
     10      26.9498      0.00000
     11      31.4705      0.00000
     12      39.3648      0.00000

 k-point    30 :       0.2632   -0.2632    0.5000
  band No.  band energies     occupation 
      1       1.5954      1.00000
      2       2.0312      1.00000
      3       3.8920      1.00000
      4       4.4468      1.00000
      5       5.8625      0.28735
      6      11.1860     -0.00000
      7      13.6213      0.00000
      8      19.1288      0.00000
      9      22.8180      0.00000
     10      28.0566      0.00000
     11      32.5665      0.00000
     12      38.2668      0.00000

 k-point    31 :       0.2368   -0.2368    0.5000
  band No.  band energies     occupation 
      1       1.5993      1.00000
      2       2.2701      1.00000
      3       3.6221      1.00000
      4       4.3449      1.00000
      5       5.8841      0.21023
      6      10.5769     -0.00000
      7      13.4681      0.00000
      8      19.8048      0.00000
      9      22.9662      0.00000
     10      29.2040      0.00000
     11      33.6251      0.00000
     12      37.1411      0.00000

 k-point    32 :       0.2105   -0.2105    0.5000
  band No.  band energies     occupation 
      1       1.5548      1.00000
      2       2.5309      1.00000
      3       3.3635      1.00000
      4       4.2993      1.00000
      5       5.9052      0.14444
      6       9.9753     -0.00000
      7      13.3412      0.00000
      8      20.5031      0.00000
      9      23.1105      0.00000
     10      30.3834      0.00000
     11      34.5133      0.00000
     12      36.0043      0.00000

 k-point    33 :       0.1842   -0.1842    0.5000
  band No.  band energies     occupation 
      1       1.4688      1.00000
      2       2.8172      1.00000
      3       3.1328      1.00000
      4       4.3140      1.00000
      5       5.9290      0.08313
      6       9.3899     -0.00000
      7      13.2434      0.00000
      8      21.2388      0.00000
      9      23.2646      0.00000
     10      31.6367      0.00000
     11      34.9453      0.00000
     12      35.0337      0.00000

 k-point    34 :       0.1579   -0.1579    0.5000
  band No.  band energies     occupation 
      1       1.3534      1.00000
      2       2.9228      1.00000
      3       3.1253      1.00000
      4       4.3715      1.00000
      5       5.9479      0.04456
      6       8.8192     -0.00000
      7      13.1665      0.00000
      8      21.9918      0.00000
      9      23.4173      0.00000
     10      32.9340      0.00000
     11      33.8758      0.00000
     12      35.0115      0.00000

 k-point    35 :       0.1316   -0.1316    0.5000
  band No.  band energies     occupation 
      1       1.2255      1.00000
      2       2.7371      1.00000
      3       3.4496      1.00000
      4       4.4541      1.00000
      5       5.9632      0.01970
      6       8.2641     -0.00000
      7      13.1046      0.00000
      8      22.7517      0.00000
      9      23.5630      0.00000
     10      32.8171      0.00000
     11      34.2464      0.00000
     12      34.6126      0.00000

 k-point    36 :       0.1053   -0.1053    0.5000
  band No.  band energies     occupation 
      1       1.1028      1.00000
      2       2.5853      1.00000
      3       3.7963      1.00000
      4       4.5498      1.00000
      5       5.9780      0.00082
      6       7.7360     -0.00000
      7      13.0629      0.00000
      8      23.5275      0.00000
      9      23.7096      0.00000
     10      31.8361      0.00000
     11      34.1105      0.00000
     12      35.6240      0.00000

 k-point    37 :       0.0789   -0.0789    0.5000
  band No.  band energies     occupation 
      1       0.9960      1.00000
      2       2.4636      1.00000
      3       4.1517      1.00000
      4       4.6308      1.00000
      5       5.9896     -0.01076
      6       7.2352     -0.00000
      7      13.0297      0.00000
      8      23.8370      0.00000
      9      24.2880      0.00000
     10      30.8949      0.00000
     11      33.6316      0.00000
     12      37.0141      0.00000

 k-point    38 :       0.0526   -0.0526    0.5000
  band No.  band energies     occupation 
      1       0.9142      1.00000
      2       2.3761      1.00000
      3       4.5030      1.00000
      4       4.6982      1.00000
      5       5.9982     -0.01762
      6       6.7798     -0.00000
      7      13.0093      0.00000
      8      23.9404      0.00000
      9      25.0019      0.00000
     10      30.0567      0.00000
     11      33.2531      0.00000
     12      38.3724      0.00000

 k-point    39 :       0.0263   -0.0263    0.5000
  band No.  band energies     occupation 
      1       0.8640      1.00000
      2       2.3231      1.00000
      3       4.7416      1.00000
      4       4.8088      1.00000
      5       6.0035     -0.02118
      6       6.4134     -0.00009
      7      13.0035      0.00000
      8      24.0081      0.00000
      9      25.5758      0.00000
     10      29.4083      0.00000
     11      33.0252      0.00000
     12      39.5524      0.00000

 k-point    40 :       0.0000    0.0000    0.5000
  band No.  band energies     occupation 
      1       0.8466      1.00000
      2       2.3054      1.00000
      3       4.7566      1.00000
      4       4.9481      1.00000
      5       6.0053     -0.02227
      6       6.2532     -0.00377
      7      12.9996      0.00000
      8      24.0316      0.00000
      9      25.8162      0.00000
     10      29.1430      0.00000
     11      32.9424      0.00000
     12      40.0982      0.00000

 k-point    41 :       0.0000    0.0000    0.5000
  band No.  band energies     occupation 
      1       0.8466      1.00000
      2       2.3054      1.00000
      3       4.7566      1.00000
      4       4.9481      1.00000
      5       6.0053     -0.02227
      6       6.2532     -0.00377
      7      12.9996      0.00000
      8      24.0316      0.00000
      9      25.8162      0.00000
     10      29.1430      0.00000
     11      32.9424      0.00000
     12      40.0982      0.00000

 k-point    42 :       0.0132    0.0132    0.4868
  band No.  band energies     occupation 
      1       0.8563      1.00000
      2       2.3042      1.00000
      3       4.7582      1.00000
      4       4.9484      1.00000
      5       5.7915      0.57937
      6       6.4797     -0.00001
      7      13.0016      0.00000
      8      23.9308      0.00000
      9      25.7000      0.00000
     10      29.2596      0.00000
     11      33.0745      0.00000
     12      40.1127      0.00000

 k-point    43 :       0.0263    0.0263    0.4737
  band No.  band energies     occupation 
      1       0.8852      1.00000
      2       2.3004      1.00000
      3       4.7628      1.00000
      4       4.9492      1.00000
      5       5.5012      1.02557
      6       6.8085     -0.00000
      7      13.0076      0.00000
      8      23.6519      0.00000
      9      25.3751      0.00000
     10      29.5862      0.00000
     11      33.4473      0.00000
     12      40.1563      0.00000

 k-point    44 :       0.0395    0.0395    0.4605
  band No.  band energies     occupation 
      1       0.9328      1.00000
      2       2.2944      1.00000
      3       4.7703      1.00000
      4       4.9505      1.00000
      5       5.2168      1.00011
      6       7.1570     -0.00000
      7      13.0180      0.00000
      8      23.2450      0.00000
      9      24.8947      0.00000
     10      30.0726      0.00000
     11      34.0071      0.00000
     12      40.2289      0.00000

 k-point    45 :       0.0526    0.0526    0.4474
  band No.  band energies     occupation 
      1       0.9983      1.00000
      2       2.2866      1.00000
      3       4.7806      1.00000
      4       4.9438      1.00000
      5       4.9523      1.00000
      6       7.5196     -0.00000
      7      13.0334      0.00000
      8      22.7573      0.00000
      9      24.3131      0.00000
     10      30.6720      0.00000
     11      34.6993      0.00000
     12      40.3302      0.00000

 k-point    46 :       0.0658    0.0658    0.4342
  band No.  band energies     occupation 
      1       1.0804      1.00000
      2       2.2775      1.00000
      3       4.6837      1.00000
      4       4.7935      1.00000
      5       4.9545      1.00000
      6       7.8950     -0.00000
      7      13.0546      0.00000
      8      22.2215      0.00000
      9      23.6717      0.00000
     10      31.3517      0.00000
     11      35.4816      0.00000
     12      40.4603      0.00000

 k-point    47 :       0.0789    0.0789    0.4211
  band No.  band energies     occupation 
      1       1.1778      1.00000
      2       2.2695      1.00000
      3       4.4369      1.00000
      4       4.8090      1.00000
      5       4.9571      1.00000
      6       8.2825     -0.00000
      7      13.0845      0.00000
      8      21.6665      0.00000
      9      23.0005      0.00000
     10      32.1022      0.00000
     11      36.3282      0.00000
     12      40.6189      0.00000

 k-point    48 :       0.0921    0.0921    0.4079
  band No.  band energies     occupation 
      1       1.2878      1.00000
      2       2.2594      1.00000
      3       4.2037      1.00000
      4       4.8259      1.00000
      5       4.9600      1.00000
      6       8.6817     -0.00000
      7      13.1202      0.00000
      8      21.0878      0.00000
      9      22.3153      0.00000
     10      32.8876      0.00000
     11      37.2105      0.00000
     12      40.8058      0.00000

 k-point    49 :       0.1053    0.1053    0.3947
  band No.  band energies     occupation 
      1       1.4078      1.00000
      2       2.2465      1.00000
      3       3.9831      1.00000
      4       4.8436      1.00000
      5       4.9614      1.00000
      6       9.0898     -0.00000
      7      13.1640      0.00000
      8      20.4932      0.00000
      9      21.6312      0.00000
     10      33.6809      0.00000
     11      38.1097      0.00000
     12      41.0194      0.00000

 k-point    50 :       0.1184    0.1184    0.3816
  band No.  band energies     occupation 
      1       1.5361      1.00000
      2       2.2387      1.00000
      3       3.7775      1.00000
      4       4.8628      1.00000
      5       4.9645      1.00000
      6       9.5113     -0.00000
      7      13.2201      0.00000
      8      19.9038      0.00000
      9      20.9577      0.00000
     10      34.5424      0.00000
     11      39.0278      0.00000
     12      41.2615      0.00000

 k-point    51 :       0.1316    0.1316    0.3684
  band No.  band energies     occupation 
      1       1.6692      1.00000
      2       2.2336      1.00000
      3       3.5859      1.00000
      4       4.8824      1.00000
      5       4.9676      1.00000
      6       9.9436     -0.00000
      7      13.2889      0.00000
      8      19.3153      0.00000
      9      20.3021      0.00000
     10      35.4369      0.00000
     11      39.9457      0.00000
     12      41.5308      0.00000

 k-point    52 :       0.1447    0.1447    0.3553
  band No.  band energies     occupation 
      1       1.8031      1.00000
      2       2.2323      1.00000
      3       3.4079      1.00000
      4       4.8973      1.00000
      5       4.9707      1.00000
      6      10.3859     -0.00000
      7      13.3711      0.00000
      8      18.7301      0.00000
      9      19.6704      0.00000
     10      36.3622      0.00000
     11      40.8073      0.00000
     12      41.8263      0.00000

 k-point    53 :       0.1579    0.1579    0.3421
  band No.  band energies     occupation 
      1       1.9350      1.00000
      2       2.2358      1.00000
      3       3.2441      1.00000
      4       4.9152      1.00000
      5       4.9738      1.00000
      6      10.8393     -0.00000
      7      13.4697      0.00000
      8      18.1496      0.00000
      9      19.0690      0.00000
     10      37.3168      0.00000
     11      41.6801      0.00000
     12      42.1482      0.00000

 k-point    54 :       0.1711    0.1711    0.3289
  band No.  band energies     occupation 
      1       2.0605      1.00000
      2       2.2449      1.00000
      3       3.0941      1.00000
      4       4.9318      1.00000
      5       4.9766      1.00000
      6      11.3030      0.00000
      7      13.5845      0.00000
      8      17.5749      0.00000
      9      18.5033      0.00000
     10      38.2995      0.00000
     11      42.4953      0.00000
     12      42.5085      0.00000

 k-point    55 :       0.1842    0.1842    0.3158
  band No.  band energies     occupation 
      1       2.1769      1.00000
      2       2.2621      1.00000
      3       2.9593      1.00000
      4       4.9489      1.00000
      5       4.9857      1.00000
      6      11.7794      0.00000
      7      13.7194      0.00000
      8      17.0132      0.00000
      9      17.9810      0.00000
     10      39.3204      0.00000
     11      42.8670      0.00000
     12      43.2820      0.00000

 k-point    56 :       0.1974    0.1974    0.3026
  band No.  band energies     occupation 
      1       2.2777      1.00000
      2       2.2854      1.00000
      3       2.8363      1.00000
      4       4.9615      1.00000
      5       4.9875      1.00000
      6      12.2633      0.00000
      7      13.8624      0.00000
      8      16.4520      0.00000
      9      17.5078      0.00000
     10      40.3545      0.00000
     11      43.2618      0.00000
     12      43.9560      0.00000

 k-point    57 :       0.2105    0.2105    0.2895
  band No.  band energies     occupation 
      1       2.3172      1.00000
      2       2.3605      1.00000
      3       2.7265      1.00000
      4       4.9718      1.00000
      5       4.9890      1.00000
      6      12.7569      0.00000
      7      14.0110      0.00000
      8      15.8985      0.00000
      9      17.0971      0.00000
     10      41.4123      0.00000
     11      43.6777      0.00000
     12      44.5230      0.00000

 k-point    58 :       0.2237    0.2237    0.2763
  band No.  band energies     occupation 
      1       2.3617      1.00000
      2       2.4230      1.00000
      3       2.6318      1.00000
      4       4.9866      1.00000
      5       4.9911      1.00000
      6      13.2660      0.00000
      7      14.1541      0.00000
      8      15.3690      0.00000
      9      16.7681      0.00000
     10      42.4954      0.00000
     11      44.1190      0.00000
     12      44.5926      0.00000

 k-point    59 :       0.2368    0.2368    0.2632
  band No.  band energies     occupation 
      1       2.4123      1.00000
      2       2.4610      1.00000
      3       2.5468      1.00000
      4       4.9906      1.00000
      5       4.9917      1.00000
      6      13.7781      0.00000
      7      14.2592      0.00000
      8      14.8298      0.00000
      9      16.5473      0.00000
     10      43.5832      0.00000
     11      44.5534      0.00000
     12      44.7370      0.00000

 k-point    60 :       0.2500    0.2500    0.2500
  band No.  band energies     occupation 
      1       2.4738      1.00000
      2       2.4738      1.00000
      3       2.4739      1.00000
      4       4.9919      1.00000
      5       4.9919      1.00000
      6      14.2994      0.00000
      7      14.2994      0.00000
      8      14.2996      0.00000
      9      16.4682      0.00000
     10      44.5830      0.00000
     11      44.5864      0.00000
     12      44.6730      0.00000

 k-point    61 :       0.2500    0.2500    0.2500
  band No.  band energies     occupation 
      1       2.4738      1.00000
      2       2.4738      1.00000
      3       2.4739      1.00000
      4       4.9919      1.00000
      5       4.9919      1.00000
      6      14.2994      0.00000
      7      14.2994      0.00000
      8      14.2996      0.00000
      9      16.4682      0.00000
     10      44.5826      0.00000
     11      44.5836      0.00000
     12      44.6653      0.00000

 k-point    62 :       0.2368    0.2368    0.2368
  band No.  band energies     occupation 
      1       2.4107      1.00000
      2       2.4107      1.00000
      3       2.5942      1.00000
      4       4.9895      1.00000
      5       4.9895      1.00000
      6      13.1556      0.00000
      7      14.8573      0.00000
      8      14.8573      0.00000
      9      16.6416      0.00000
     10      43.1607      0.00000
     11      44.1177      0.00000
     12      44.1220      0.00000

 k-point    63 :       0.2237    0.2237    0.2237
  band No.  band energies     occupation 
      1       2.3587      1.00000
      2       2.3587      1.00000
      3       2.6679      1.00000
      4       4.9760      1.00000
      5       4.9760      1.00000
      6      11.9712      0.00000
      7      15.4720      0.00000
      8      15.4720      0.00000
      9      17.0247      0.00000
     10      41.8134      0.00000
     11      43.3110      0.00000
     12      43.3114      0.00000

 k-point    64 :       0.2105    0.2105    0.2105
  band No.  band energies     occupation 
      1       2.3222      1.00000
      2       2.3222      1.00000
      3       2.6785      1.00000
      4       4.9616      1.00000
      5       4.9616      1.00000
      6      10.8422     -0.00000
      7      16.1377      0.00000
      8      16.1377      0.00000
      9      17.5505      0.00000
     10      40.5435      0.00000
     11      42.5229      0.00000
     12      42.5230      0.00000

 k-point    65 :       0.1974    0.1974    0.1974
  band No.  band energies     occupation 
      1       2.3080      1.00000
      2       2.3080      1.00000
      3       2.6053      1.00000
      4       4.9416      1.00000
      5       4.9416      1.00000
[...]
      6       7.7165     -0.00000
      7      18.2946      0.00000
      8      25.3284      0.00000
      9      28.2492      0.00000
     10      29.8655      0.00000
     11      33.4988      0.00000
     12      39.4132      0.00000

 k-point    95 :       0.0000    0.0000    0.3684
  band No.  band energies     occupation 
      1       1.6388      1.00000
      2       4.4253      1.00000
      3       5.3447      1.00241
      4       7.2595     -0.00000
      5       7.6314     -0.00000
      6       7.9364     -0.00000
      7      17.3076      0.00000
      8      24.9598      0.00000
      9      27.7238      0.00000
     10      29.8350      0.00000
     11      33.4996      0.00000
     12      40.3121      0.00000

 k-point    96 :       0.0000    0.0000    0.3947
  band No.  band energies     occupation 
      1       1.8774      1.00000
      2       4.3575      1.00000
      3       5.5667      1.03545
      4       7.2906     -0.00000
      5       7.6478     -0.00000
      6       8.1303     -0.00000
      7      16.4086      0.00000
      8      24.6500      0.00000
      9      27.2778      0.00000
     10      29.8059      0.00000
     11      33.5093      0.00000
     12      40.3522      0.00000

 k-point    97 :       0.0000    0.0000    0.4211
  band No.  band energies     occupation 
      1       2.0413      1.00000
      2       4.3034      1.00000
      3       5.8366      0.39018
      4       7.3141     -0.00000
      5       7.6658     -0.00000
      6       8.2921     -0.00000
      7      15.6356      0.00000
      8      24.4060      0.00000
      9      26.9214      0.00000
     10      29.7862      0.00000
     11      33.5334      0.00000
     12      40.2817      0.00000

 k-point    98 :       0.0000    0.0000    0.4474
  band No.  band energies     occupation 
      1       2.1424      1.00000
      2       4.2639      1.00000
      3       6.1042     -0.02901
      4       7.3275     -0.00000
      5       7.6796     -0.00000
      6       8.4137     -0.00000
      7      15.0273      0.00000
      8      24.2294      0.00000
      9      26.6608      0.00000
     10      29.7721      0.00000
     11      33.5577      0.00000
     12      40.2192      0.00000

 k-point    99 :       0.0000    0.0000    0.4737
  band No.  band energies     occupation 
      1       2.1958      1.00000
      2       4.2399      1.00000
      3       6.3059     -0.00128
      4       7.3312     -0.00000
      5       7.6885     -0.00000
      6       8.4892     -0.00000
      7      14.6326      0.00000
      8      24.1225      0.00000
      9      26.5019      0.00000
     10      29.7637      0.00000
     11      33.5757      0.00000
     12      40.1765      0.00000

 k-point   100 :       0.0000    0.0000    0.5000
  band No.  band energies     occupation 
      1       2.2126      1.00000
      2       4.2319      1.00000
      3       6.3820     -0.00020
      4       7.3310     -0.00000
      5       7.6936     -0.00000
      6       8.5148     -0.00000
      7      14.5003      0.00000
      8      24.0867      0.00000
      9      26.4484      0.00000
     10      29.7609      0.00000
     11      33.5925      0.00000
     12      40.1615      0.00000


--------------------------------------------------------------------------------------------------------


 soft charge-density along one line, spin component           1
         0         1         2         3         4         5         6         7         8         9
 total charge-density along one line
 
 soft charge-density along one line, spin component           2
         0         1         2         3         4         5         6         7         8         9
 total charge-density along one line
 
 pseudopotential strength for first ion, spin component:           1
 -5.720   0.000   0.000   0.000   0.000   0.000   0.000   0.000   0.000   0.000  -6.247   0.000   0.000   0.000   0.000   0.000
  0.000   0.000  -5.720   0.000  -0.000   0.000   0.000   0.000   0.000   0.000   0.000   0.000  -6.247   0.000  -0.000   0.000
  0.000   0.000  -0.000   0.000  -5.766   0.000  -0.000   0.000  -0.000   0.000   0.000   0.000  -0.000   0.000  -6.292   0.000
  0.000   0.000   0.000   0.000  -0.000   0.000  -5.720   0.000  -0.000   0.000   0.000   0.000   0.000   0.000  -0.000   0.000
  0.000   0.000   0.000   0.000  -0.000   0.000  -0.000   0.000  -5.766   0.000   0.000   0.000   0.000   0.000  -0.000   0.000
 -6.247   0.000   0.000   0.000   0.000   0.000   0.000   0.000   0.000   0.000  -6.731   0.000   0.000   0.000   0.000   0.000
  0.000   0.000  -6.247   0.000  -0.000   0.000   0.000   0.000   0.000   0.000   0.000   0.000  -6.731   0.000  -0.000   0.000
  0.000   0.000  -0.000   0.000  -6.292   0.000  -0.000   0.000  -0.000   0.000   0.000   0.000  -0.000   0.000  -6.777   0.000
  0.000   0.000   0.000   0.000  -0.000   0.000  -6.247   0.000  -0.000   0.000   0.000   0.000   0.000   0.000  -0.000   0.000
  0.000   0.000   0.000   0.000  -0.000   0.000  -0.000   0.000  -6.292   0.000   0.000   0.000   0.000   0.000  -0.000   0.000
 -0.000   0.000  -0.000   0.000   0.000   0.000  -0.000   0.000  -0.000   0.000  -0.000   0.000  -0.000   0.000   0.000   0.000
 -0.000   0.000  -0.000   0.000   0.000   0.000  -0.000   0.000  -0.000   0.000  -0.000   0.000  -0.000   0.000   0.000   0.000
  0.000   0.000  -0.000   0.000   0.000   0.000   0.000   0.000  -0.000   0.000   0.000   0.000  -0.000   0.000   0.000   0.000
  0.000   0.000   0.000   0.000  -0.000   0.000   0.000   0.000  -0.000   0.000   0.000   0.000   0.000   0.000  -0.000   0.000
 -0.000   0.000   0.000   0.000  -0.000   0.000  -0.000   0.000   0.000   0.000  -0.000   0.000   0.000   0.000  -0.000   0.000
  0.000   0.000  -0.000   0.000   0.000   0.000   0.000   0.000  -0.000   0.000   0.000   0.000  -0.000   0.000   0.000   0.000
  0.000   0.000  -0.000   0.000  -0.000   0.000   0.000   0.000  -0.000   0.000   0.000   0.000  -0.000   0.000  -0.000   0.000
 -0.000   0.000   0.000   0.000  -0.000   0.000  -0.000   0.000   0.000   0.000  -0.000   0.000   0.000   0.000  -0.000   0.000
 pseudopotential strength for first ion, spin component:           2
 -4.083   0.000   0.000   0.000   0.000   0.000   0.000   0.000   0.000   0.000  -4.663   0.000   0.000   0.000   0.000   0.000
  0.000   0.000  -4.083   0.000  -0.000   0.000   0.000   0.000   0.000   0.000   0.000   0.000  -4.663   0.000  -0.000   0.000
  0.000   0.000  -0.000   0.000  -3.934   0.000  -0.000   0.000  -0.000   0.000   0.000   0.000  -0.000   0.000  -4.514   0.000
  0.000   0.000   0.000   0.000  -0.000   0.000  -4.083   0.000  -0.000   0.000   0.000   0.000   0.000   0.000  -0.000   0.000
  0.000   0.000   0.000   0.000  -0.000   0.000  -0.000   0.000  -3.934   0.000   0.000   0.000   0.000   0.000  -0.000   0.000
 -4.663   0.000   0.000   0.000   0.000   0.000   0.000   0.000   0.000   0.000  -5.198   0.000   0.000   0.000   0.000   0.000
  0.000   0.000  -4.663   0.000  -0.000   0.000   0.000   0.000   0.000   0.000   0.000   0.000  -5.198   0.000  -0.000   0.000
  0.000   0.000  -0.000   0.000  -4.514   0.000  -0.000   0.000  -0.000   0.000   0.000   0.000  -0.000   0.000  -5.051   0.000
  0.000   0.000   0.000   0.000  -0.000   0.000  -4.663   0.000  -0.000   0.000   0.000   0.000   0.000   0.000  -0.000   0.000
  0.000   0.000   0.000   0.000  -0.000   0.000  -0.000   0.000  -4.514   0.000   0.000   0.000   0.000   0.000  -0.000   0.000
  0.000   0.000   0.000   0.000   0.000   0.000   0.000   0.000   0.000   0.000   0.000   0.000   0.000   0.000   0.000   0.000
  0.000   0.000   0.000   0.000   0.000   0.000   0.000   0.000   0.000   0.000   0.000   0.000   0.000   0.000   0.000   0.000
  0.000   0.000  -0.000   0.000  -0.000   0.000  -0.000   0.000  -0.000   0.000   0.000   0.000  -0.000   0.000  -0.000   0.000
 -0.000   0.000  -0.000   0.000  -0.000   0.000   0.000   0.000   0.000   0.000  -0.000   0.000  -0.000   0.000  -0.000   0.000
 -0.000   0.000  -0.000   0.000  -0.000   0.000  -0.000   0.000   0.000   0.000  -0.000   0.000  -0.000   0.000  -0.000   0.000
  0.000   0.000  -0.000   0.000  -0.000   0.000  -0.000   0.000   0.000   0.000   0.000   0.000  -0.000   0.000  -0.000   0.000
 -0.000   0.000  -0.000   0.000  -0.000   0.000   0.000   0.000   0.000   0.000  -0.000   0.000  -0.000   0.000  -0.000   0.000
 -0.000   0.000  -0.000   0.000  -0.000   0.000  -0.000   0.000   0.000   0.000  -0.000   0.000  -0.000   0.000  -0.000   0.000
 total augmentation occupancy for first ion, spin component:           1
  1.400   0.000   0.000   0.000   0.000   0.000   0.000   0.000   0.000   0.000   0.000   0.000   0.000   0.000   0.000   0.000
  0.000   1.400   0.000   0.000   0.000   0.000   0.000   0.000   0.000   0.000   0.000   0.000   0.000   0.000   0.000   0.000
  0.000   0.000   1.400   0.000   0.000   0.000   0.000   0.000   0.000   0.000   0.000   0.000   0.000   0.000   0.000   0.000
  0.000   0.000   0.000   1.400   0.000   0.000   0.000   0.000   0.000   0.000   0.000   0.000   0.000   0.000   0.000   0.000
  0.000   0.000   0.000   0.000   1.400   0.000   0.000   0.000   0.000   0.000   0.000   0.000   0.000   0.000   0.000   0.000
  0.000   0.000   0.000   0.000   0.000   0.000   0.000   0.000   0.000   0.000   0.000   0.000   0.000   0.000   0.000   0.000
  0.000   0.000   0.000   0.000   0.000   0.000   0.000   0.000   0.000   0.000   0.000   0.000   0.000   0.000   0.000   0.000
  0.000   0.000   0.000   0.000   0.000   0.000   0.000   0.000   0.000   0.000   0.000   0.000   0.000   0.000   0.000   0.000
  0.000   0.000   0.000   0.000   0.000   0.000   0.000   0.000   0.000   0.000   0.000   0.000   0.000   0.000   0.000   0.000
  0.000   0.000   0.000   0.000   0.000   0.000   0.000   0.000   0.000   0.000   0.000   0.000   0.000   0.000   0.000   0.000
  0.000   0.000   0.000   0.000   0.000   0.000   0.000   0.000   0.000   0.000   1.000   0.000   0.000   0.000   0.000   0.000
  0.000   0.000   0.000   0.000   0.000   0.000   0.000   0.000   0.000   0.000   0.000   0.000   0.000   0.000   0.000   0.000
  0.000   0.000   0.000   0.000   0.000   0.000   0.000   0.000   0.000   0.000   0.000   0.000   0.000   0.000   0.000   0.000
  0.000   0.000   0.000   0.000   0.000   0.000   0.000   0.000   0.000   0.000   0.000   0.000   0.000   0.000   0.000   0.000
  0.000   0.000   0.000   0.000   0.000   0.000   0.000   0.000   0.000   0.000   0.000   0.000   0.000   0.000   0.000   0.000
  0.000   0.000   0.000   0.000   0.000   0.000   0.000   0.000   0.000   0.000   0.000   0.000   0.000   0.000   0.000   0.000
  0.000   0.000   0.000   0.000   0.000   0.000   0.000   0.000   0.000   0.000   0.000   0.000   0.000   0.000   0.000   0.000
  0.000   0.000   0.000   0.000   0.000   0.000   0.000   0.000   0.000   0.000   0.000   0.000   0.000   0.000   0.000   0.000
 total augmentation occupancy for first ion, spin component:           2
  0.525   0.000   0.000   0.000   0.000   0.000   0.000   0.000   0.000   0.000   0.000   0.000   0.000   0.000   0.000   0.000
  0.000   0.525   0.000   0.000   0.000   0.000   0.000   0.000   0.000   0.000   0.000   0.000   0.000   0.000   0.000   0.000
  0.000   0.000   0.525   0.000   0.000   0.000   0.000   0.000   0.000   0.000   0.000   0.000   0.000   0.000   0.000   0.000
  0.000   0.000   0.000   0.525   0.000   0.000   0.000   0.000   0.000   0.000   0.000   0.000   0.000   0.000   0.000   0.000
  0.000   0.000   0.000   0.000   0.525   0.000   0.000   0.000   0.000   0.000   0.000   0.000   0.000   0.000   0.000   0.000
  0.000   0.000   0.000   0.000   0.000   0.000   0.000   0.000   0.000   0.000   0.000   0.000   0.000   0.000   0.000   0.000
  0.000   0.000   0.000   0.000   0.000   0.000   0.000   0.000   0.000   0.000   0.000   0.000   0.000   0.000   0.000   0.000
  0.000   0.000   0.000   0.000   0.000   0.000   0.000   0.000   0.000   0.000   0.000   0.000   0.000   0.000   0.000   0.000
  0.000   0.000   0.000   0.000   0.000   0.000   0.000   0.000   0.000   0.000   0.000   0.000   0.000   0.000   0.000   0.000
  0.000   0.000   0.000   0.000   0.000   0.000   0.000   0.000   0.000   0.000   0.000   0.000   0.000   0.000   0.000   0.000
  0.000   0.000   0.000   0.000   0.000   0.000   0.000   0.000   0.000   0.000   0.375   0.000   0.000   0.000   0.000   0.000
  0.000   0.000   0.000   0.000   0.000   0.000   0.000   0.000   0.000   0.000   0.000   0.000   0.000   0.000   0.000   0.000
  0.000   0.000   0.000   0.000   0.000   0.000   0.000   0.000   0.000   0.000   0.000   0.000   0.000   0.000   0.000   0.000
  0.000   0.000   0.000   0.000   0.000   0.000   0.000   0.000   0.000   0.000   0.000   0.000   0.000   0.000   0.000   0.000
  0.000   0.000   0.000   0.000   0.000   0.000   0.000   0.000   0.000   0.000   0.000   0.000   0.000   0.000   0.000   0.000
  0.000   0.000   0.000   0.000   0.000   0.000   0.000   0.000   0.000   0.000   0.000   0.000   0.000   0.000   0.000   0.000
  0.000   0.000   0.000   0.000   0.000   0.000   0.000   0.000   0.000   0.000   0.000   0.000   0.000   0.000   0.000   0.000
  0.000   0.000   0.000   0.000   0.000   0.000   0.000   0.000   0.000   0.000   0.000   0.000   0.000   0.000   0.000   0.000


------------------------ aborting loop because EDIFF is reached ----------------------------------------


    CHARGE:  cpu time    0.0033: real time    0.0033
    FORLOC:  cpu time    0.0001: real time    0.0001
    FORNL :  cpu time    0.0098: real time    0.0098
    STRESS:  cpu time    0.0338: real time    0.0339
    FORCOR:  cpu time    0.0020: real time    0.0020
    FORHAR:  cpu time    0.0004: real time    0.0003
    OFIELD:  cpu time    0.0000: real time    0.0000

  FORCE on cell =-STRESS in cart. coord.  units (eV):
  Direction    XX          YY          ZZ          XY          YZ          ZX
  --------------------------------------------------------------------------------------
  Alpha Z    60.34476    60.34476    60.34476
  Ewald    -196.82323  -196.82323  -196.82323    -0.00000     0.00000    -0.00000
  Hartree    33.98993    33.98993    33.98993    -0.00000    -0.00000    -0.00000
  E(xc)     -39.66857   -39.66857   -39.66857     0.00011     0.00011     0.00011
  Local      60.36694    60.36694    60.36694    -0.00028    -0.00028    -0.00028
  n-local   -26.40379   -26.85986   -24.39263    -1.59600    -0.17470    -0.17477
  augment    39.64456    39.64456    39.64456     0.00051     0.00051     0.00051
  Kinetic    72.79835    73.32655    72.10854     1.73516     0.34900     0.34902
  Fock        0.00000     0.00000     0.00000     0.00000     0.00000     0.00000
  -------------------------------------------------------------------------------------
  Total       4.71346     4.71346     4.71346    -0.00000     0.00000    -0.00000
  in kB     659.36357   659.36357   659.36357    -0.00000     0.00000    -0.00000
  external pressure =      659.36 kB  Pullay stress =        0.00 kB


 VOLUME and BASIS-vectors are now :
 -----------------------------------------------------------------------------
  energy-cutoff  :      268.00
  volume of cell :       11.45
      direct lattice vectors                 reciprocal lattice vectors
    -1.420000000  1.420000000  1.420000000     0.000000000  0.352112676  0.352112676
     1.420000000 -1.420000000  1.420000000     0.352112676  0.000000000  0.352112676
     1.420000000  1.420000000 -1.420000000     0.352112676  0.352112676  0.000000000

  length of vectors
     2.459512147  2.459512147  2.459512147     0.497962522  0.497962522  0.497962522


 FORCES acting on ions
    electron-ion (+dipol)            ewald-force                    non-local-force                 convergence-correction
 -----------------------------------------------------------------------------------------------
   0.148E-13 0.269E-14 0.506E-14   0.231E-15 0.119E-14 0.161E-14   0.635E-21 0.000E+00 -.424E-21   -.270E-14 0.364E-14 0.604E-14
 -----------------------------------------------------------------------------------------------
   0.148E-13 0.269E-14 0.506E-14   0.231E-15 0.119E-14 0.161E-14   0.635E-21 0.000E+00 -.424E-21   -.270E-14 0.364E-14 0.604E-14
 
 
 POSITION                                       TOTAL-FORCE (eV/Angst)
 -----------------------------------------------------------------------------------
      0.00000      0.00000      0.00000         0.000000      0.000000      0.000000
 -----------------------------------------------------------------------------------
    total drift:                                0.000000      0.000000      0.000000


--------------------------------------------------------------------------------------------------------



  FREE ENERGIE OF THE ION-ELECTRON SYSTEM (eV)
  ---------------------------------------------------
  free  energy   TOTEN  =        -9.14733160 eV

  energy  without entropy=       -9.14787389  energy(sigma->0) =       -9.14751236
 


--------------------------------------------------------------------------------------------------------


    POTLOK:  cpu time    0.0055: real time    0.0055


--------------------------------------------------------------------------------------------------------


 writing wavefunctions
     LOOP+:  cpu time    1.5417: real time    1.5972
    4ORBIT:  cpu time    0.0000: real time    0.0000

volume of typ            1:    80.7 %
 
total charge     
 
# of ion       s       p       d       tot
------------------------------------------
    1        0.467   0.310   6.297   7.074
 
magnetization (x)
 
# of ion       s       p       d       tot
------------------------------------------
    1       -0.001  -0.018   2.372   2.353
 
orbital moment (x)
 
# of ion     s             p             d             tot
-----------------------------------------------------------------
    1     0.000000E+00  0.117767E-08 -0.741305E-07 -0.729528E-07
 
orbital moment (y)
 
# of ion     s             p             d             tot
-----------------------------------------------------------------
    1     0.000000E+00  0.122737E-07  0.839938E-07  0.962675E-07
 
orbital moment (z)
 
# of ion     s             p             d             tot
-----------------------------------------------------------------
    1     0.000000E+00 -0.375854E-07 -0.111930E-06 -0.149515E-06
 
orbital moment (x)
 
# of ion     s             p             d             tot
-----------------------------------------------------------------
    1     0.000000E+00  0.315056E-08  0.609424E-07  0.640930E-07
 
orbital moment (y)
 
# of ion     s             p             d             tot
-----------------------------------------------------------------
    1     0.000000E+00  0.243584E-07 -0.801966E-07 -0.558382E-07
 
orbital moment (z)
 
# of ion     s             p             d             tot
-----------------------------------------------------------------
    1     0.000000E+00 -0.352764E-07 -0.105972E-06 -0.141248E-06
 

 total amount of memory used by VASP MPI-rank0    33950. kBytes
=======================================================================

   base      :      30000. kBytes
   nonl-proj :       1960. kBytes
   fftplans  :        142. kBytes
   grid      :        320. kBytes
   one-center:         31. kBytes
   wavefun   :       1497. kBytes
 
  
  
 General timing and accounting informations for this job:
 ========================================================
  
                  Total CPU time used (sec):        2.008
                            User time (sec):        1.552
                          System time (sec):        0.456
                         Elapsed time (sec):        2.786
  
                   Maximum memory used (kb):       61512.
                   Average memory used (kb):           0.
  
                          Minor page faults:        22652
                          Major page faults:           76
                 Voluntary context switches:         2290
