PROCAR new format
# of k-points:  100         # of bands:   12         # of ions:    1

 k-point     1 :    0.00000000 0.00000000 0.00000000     weight = 0.01000000

band     1 # energy   -2.65711647 # occ.  1.00000000
 
ion      s      p      d    tot
    1  0.610  0.000  0.000  0.610
 
band     2 # energy    3.36346376 # occ.  1.00000000
 
ion      s      p      d    tot
    1  0.000  0.000  0.970  0.970
 
band     3 # energy    3.36346376 # occ.  1.00000000
 
ion      s      p      d    tot
    1  0.000  0.000  0.970  0.970
 
band     4 # energy    3.36365919 # occ.  1.00000000
 
ion      s      p      d    tot
    1  0.000  0.000  0.970  0.970
 
band     5 # energy    4.75379457 # occ.  1.00000000
 
ion      s      p      d    tot
    1  0.000  0.000  0.970  0.970
 
band     6 # energy    4.75379457 # occ.  1.00000000
 
ion      s      p      d    tot
    1  0.000  0.000  0.970  0.970
 
band     7 # energy   30.67324653 # occ.  0.00000000
 
ion      s      p      d    tot
    1  0.000  0.000  0.000  0.000
 
band     8 # energy   30.67324684 # occ.  0.00000000
 
ion      s      p      d    tot
    1  0.000  0.000  0.000  0.000
 
band     9 # energy   30.67328647 # occ.  0.00000000
 
ion      s      p      d    tot
    1  0.000  0.000  0.000  0.000
 
band    10 # energy   35.79087310 # occ.  0.00000000
 
ion      s      p      d    tot
    1  0.000  0.000  0.359  0.359
 
band    11 # energy   35.79087593 # occ.  0.00000000
 
ion      s      p      d    tot
    1  0.000  0.000  0.359  0.359
 
band    12 # energy   37.95617651 # occ.  0.00000000
 
ion      s      p      d    tot
    1  0.000  0.001  0.788  0.789
 

 k-point     2 :    0.02631579-0.02631579 0.02631579     weight = 0.01000000

band     1 # energy   -2.59983770 # occ.  1.00000000
 
ion      s      p      d    tot
    1  0.607  0.003  0.000  0.610
 
band     2 # energy    3.36303141 # occ.  1.00000000
 
ion      s      p      d    tot
    1  0.000  0.000  0.970  0.970
 
band     3 # energy    3.36316094 # occ.  1.00000000
 
ion      s      p      d    tot
    1  0.000  0.000  0.970  0.970
 
band     4 # energy    3.37904204 # occ.  1.00000000
 
ion      s      p      d    tot
    1  0.000  0.000  0.970  0.970
 
band     5 # energy    4.72812751 # occ.  1.00000000
 
ion      s      p      d    tot
    1  0.000  0.000  0.968  0.968
 
band     6 # energy    4.76408028 # occ.  1.00000000
 
ion      s      p      d    tot
    1  0.000  0.000  0.970  0.970
 
band     7 # energy   30.26441157 # occ.  0.00000000
 
ion      s      p      d    tot
    1  0.000  0.000  0.043  0.043
 
band     8 # energy   30.62242384 # occ.  0.00000000
 
ion      s      p      d    tot
    1  0.000  0.001  0.023  0.024
 
band     9 # energy   30.62244164 # occ.  0.00000000
 
ion      s      p      d    tot
    1  0.000  0.001  0.023  0.024
 
band    10 # energy   35.15997194 # occ.  0.00000000
 
ion      s      p      d    tot
    1  0.002  0.151  0.265  0.418
 
band    11 # energy   36.33283301 # occ.  0.00000000
 
ion      s      p      d    tot
    1  0.000  0.000  0.319  0.319
 
band    12 # energy   36.83781697 # occ.  0.00000000
 
ion      s      p      d    tot
    1  0.000  0.391  0.391  0.782
 

 k-point     3 :    0.05263158-0.05263158 0.05263158     weight = 0.01000000

band     1 # energy   -2.42927449 # occ.  1.00000000
 
ion      s      p      d    tot
    1  0.597  0.013  0.000  0.611
 
band     2 # energy    3.37114405 # occ.  1.00000000
 
ion      s      p      d    tot
    1  0.000  0.001  0.967  0.968
 
band     3 # energy    3.37125498 # occ.  1.00000000
 
ion      s      p      d    tot
    1  0.000  0.001  0.967  0.968
 
band     4 # energy    3.42765394 # occ.  1.00000000
 
ion      s      p      d    tot
    1  0.000  0.000  0.970  0.970
 
band     5 # energy    4.65658755 # occ.  1.00000000
 
ion      s      p      d    tot
    1  0.000  0.000  0.965  0.965
 
band     6 # energy    4.79812704 # occ.  1.00000000
 
ion      s      p      d    tot
    1  0.000  0.000  0.971  0.971
 
band     7 # energy   29.36763837 # occ.  0.00000000
 
ion      s      p      d    tot
    1  0.000  0.000  0.111  0.111
 
band     8 # energy   30.44420116 # occ.  0.00000000
 
ion      s      p      d    tot
    1  0.000  0.012  0.090  0.102
 
band     9 # energy   30.44420284 # occ.  0.00000000
 
ion      s      p      d    tot
    1  0.000  0.012  0.090  0.102
 
band    10 # energy   33.95356298 # occ.  0.00000000
 
ion      s      p      d    tot
    1  0.013  0.274  0.167  0.454
 
band    11 # energy   35.90403231 # occ.  0.00000000
 
ion      s      p      d    tot
    1  0.000  0.459  0.270  0.728
 
band    12 # energy   35.90409342 # occ.  0.00000000
 
ion      s      p      d    tot
    1  0.000  0.459  0.270  0.728
 

 k-point     4 :    0.07894737-0.07894737 0.07894737     weight = 0.01000000

band     1 # energy   -2.14976831 # occ.  1.00000000
 
ion      s      p      d    tot
    1  0.581  0.029  0.002  0.612
 
band     2 # energy    3.37130141 # occ.  1.00000000
 
ion      s      p      d    tot
    1  0.000  0.003  0.963  0.966
 
band     3 # energy    3.37141387 # occ.  1.00000000
 
ion      s      p      d    tot
    1  0.000  0.003  0.963  0.966
 
band     4 # energy    3.50273716 # occ.  1.00000000
 
ion      s      p      d    tot
    1  0.000  0.000  0.970  0.970
 
band     5 # energy    4.52980759 # occ.  1.00000000
 
ion      s      p      d    tot
    1  0.000  0.000  0.959  0.959
 
band     6 # energy    4.84644603 # occ.  1.00000000
 
ion      s      p      d    tot
    1  0.001  0.000  0.972  0.973
 
band     7 # energy   28.32620278 # occ.  0.00000000
 
ion      s      p      d    tot
    1  0.000  0.000  0.171  0.171
 
band     8 # energy   29.99011801 # occ.  0.00000000
 
ion      s      p      d    tot
    1  0.000  0.056  0.191  0.247
 
band     9 # energy   29.99014433 # occ.  0.00000000
 
ion      s      p      d    tot
    1  0.000  0.056  0.191  0.247
 
band    10 # energy   32.60030536 # occ.  0.00000000
 
ion      s      p      d    tot
    1  0.033  0.326  0.103  0.462
 
band    11 # energy   35.28745246 # occ.  0.00000000
 
ion      s      p      d    tot
    1  0.000  0.460  0.154  0.615
 
band    12 # energy   35.28747793 # occ.  0.00000000
 
ion      s      p      d    tot
    1  0.000  0.461  0.154  0.615
 

 k-point     5 :    0.10526316-0.10526316 0.10526316     weight = 0.01000000

band     1 # energy   -1.76897827 # occ.  1.00000000
 
ion      s      p      d    tot
    1  0.557  0.051  0.005  0.613
 
band     2 # energy    3.38159026 # occ.  1.00000000
 
ion      s      p      d    tot
    1  0.000  0.005  0.958  0.963
 
band     3 # energy    3.38169773 # occ.  1.00000000
 
ion      s      p      d    tot
    1  0.000  0.005  0.958  0.963
 
band     4 # energy    3.61389470 # occ.  1.00000000
 
ion      s      p      d    tot
    1  0.000  0.000  0.970  0.970
 
band     5 # energy    4.35895089 # occ.  1.00000000
 
ion      s      p      d    tot
    1  0.000  0.000  0.952  0.952
 
band     6 # energy    4.91275512 # occ.  1.00000000
 
ion      s      p      d    tot
    1  0.003  0.001  0.971  0.975
 
band     7 # energy   27.31042658 # occ.  0.00000000
 
ion      s      p      d    tot
    1  0.000  0.000  0.222  0.222
 
band     8 # energy   29.21386704 # occ.  0.00000000
 
ion      s      p      d    tot
    1  0.000  0.132  0.276  0.408
 
band     9 # energy   29.21391076 # occ.  0.00000000
 
ion      s      p      d    tot
    1  0.000  0.132  0.276  0.408
 
band    10 # energy   31.24467674 # occ.  0.00000000
 
ion      s      p      d    tot
    1  0.060  0.341  0.058  0.458
 
band    11 # energy   35.17920386 # occ.  0.00000000
 
ion      s      p      d    tot
    1  0.000  0.426  0.059  0.485
 
band    12 # energy   35.17920761 # occ.  0.00000000
 
ion      s      p      d    tot
    1  0.000  0.426  0.059  0.485
 

 k-point     6 :    0.13157895-0.13157895 0.13157895     weight = 0.01000000

band     1 # energy   -1.29915797 # occ.  1.00000000
 
ion      s      p      d    tot
    1  0.525  0.077  0.013  0.616
 
band     2 # energy    3.40311381 # occ.  1.00000000
 
ion      s      p      d    tot
    1  0.000  0.008  0.952  0.960
 
band     3 # energy    3.40322298 # occ.  1.00000000
 
ion      s      p      d    tot
    1  0.000  0.008  0.952  0.960
 
band     4 # energy    3.74109339 # occ.  1.00000000
 
ion      s      p      d    tot
    1  0.000  0.000  0.970  0.970
 
band     5 # energy    4.14531911 # occ.  1.00000000
 
ion      s      p      d    tot
    1  0.000  0.000  0.943  0.943
 
band     6 # energy    4.99624343 # occ.  1.00000007
 
ion      s      p      d    tot
    1  0.008  0.001  0.966  0.976
 
band     7 # energy   26.36326273 # occ.  0.00000000
 
ion      s      p      d    tot
    1  0.000  0.000  0.269  0.269
 
band     8 # energy   28.17840231 # occ.  0.00000000
 
ion      s      p      d    tot
    1  0.000  0.213  0.319  0.531
 
band     9 # energy   28.17845382 # occ.  0.00000000
 
ion      s      p      d    tot
    1  0.000  0.213  0.319  0.531
 
band    10 # energy   29.94862277 # occ.  0.00000000
 
ion      s      p      d    tot
    1  0.092  0.334  0.026  0.452
 
band    11 # energy   35.47415762 # occ.  0.00000000
 
ion      s      p      d    tot
    1  0.000  0.381  0.012  0.393
 
band    12 # energy   35.47417369 # occ.  0.00000000
 
ion      s      p      d    tot
    1  0.000  0.381  0.012  0.393
 

 k-point     7 :    0.15789474-0.15789474 0.15789474     weight = 0.01000000

band     1 # energy   -0.75901685 # occ.  1.00000000
 
ion      s      p      d    tot
    1  0.484  0.106  0.031  0.621
 
band     2 # energy    3.44382200 # occ.  1.00000000
 
ion      s      p      d    tot
    1  0.000  0.011  0.946  0.957
 
band     3 # energy    3.44393304 # occ.  1.00000000
 
ion      s      p      d    tot
    1  0.000  0.011  0.946  0.957
 
band     4 # energy    3.89060031 # occ.  1.00000000
 
ion      s      p      d    tot
    1  0.000  0.000  0.970  0.970
 
band     5 # energy    3.89639797 # occ.  1.00000000
 
ion      s      p      d    tot
    1  0.000  0.000  0.934  0.934
 
band     6 # energy    5.10371965 # occ.  1.00000348
 
ion      s      p      d    tot
    1  0.018  0.004  0.953  0.974
 
band     7 # energy   25.51013466 # occ.  0.00000000
 
ion      s      p      d    tot
    1  0.000  0.000  0.312  0.312
 
band     8 # energy   27.00561268 # occ.  0.00000000
 
ion      s      p      d    tot
    1  0.000  0.281  0.328  0.609
 
band     9 # energy   27.00566259 # occ.  0.00000000
 
ion      s      p      d    tot
    1  0.000  0.281  0.328  0.609
 
band    10 # energy   28.74591104 # occ.  0.00000000
 
ion      s      p      d    tot
    1  0.127  0.313  0.007  0.447
 
band    11 # energy   36.06898579 # occ.  0.00000000
 
ion      s      p      d    tot
    1  0.000  0.346  0.000  0.346
 
band    12 # energy   36.06900450 # occ.  0.00000000
 
ion      s      p      d    tot
    1  0.000  0.346  0.000  0.346
 

 k-point     8 :    0.18421053-0.18421053 0.18421053     weight = 0.01000000

band     1 # energy   -0.17726639 # occ.  1.00000000
 
ion      s      p      d    tot
    1  0.431  0.134  0.065  0.630
 
band     2 # energy    3.50921278 # occ.  1.00000000
 
ion      s      p      d    tot
    1  0.000  0.015  0.939  0.954
 
band     3 # energy    3.50932602 # occ.  1.00000000
 
ion      s      p      d    tot
    1  0.000  0.015  0.939  0.954
 
band     4 # energy    3.61908066 # occ.  1.00000000
 
ion      s      p      d    tot
    1  0.000  0.000  0.923  0.923
 
band     5 # energy    4.05859009 # occ.  1.00000000
 
ion      s      p      d    tot
    1  0.000  0.000  0.970  0.970
 
band     6 # energy    5.25001485 # occ.  1.00027101
 
ion      s      p      d    tot
    1  0.036  0.009  0.923  0.968
 
band     7 # energy   24.75654713 # occ.  0.00000000
 
ion      s      p      d    tot
    1  0.000  0.000  0.352  0.352
 
band     8 # energy   25.77708679 # occ.  0.00000000
 
ion      s      p      d    tot
    1  0.000  0.337  0.318  0.655
 
band     9 # energy   25.77713012 # occ.  0.00000000
 
ion      s      p      d    tot
    1  0.000  0.337  0.318  0.655
 
band    10 # energy   27.66279265 # occ.  0.00000000
 
ion      s      p      d    tot
    1  0.164  0.281  0.000  0.445
 
band    11 # energy   36.87592522 # occ.  0.00000000
 
ion      s      p      d    tot
    1  0.000  0.320  0.009  0.329
 
band    12 # energy   36.87593426 # occ.  0.00000000
 
ion      s      p      d    tot
    1  0.000  0.320  0.009  0.329
 

 k-point     9 :    0.21052632-0.21052632 0.21052632     weight = 0.01000000

band     1 # energy    0.40291005 # occ.  1.00000000
 
ion      s      p      d    tot
    1  0.364  0.157  0.125  0.647
 
band     2 # energy    3.32134938 # occ.  1.00000000
 
ion      s      p      d    tot
    1  0.000  0.000  0.913  0.913
 
band     3 # energy    3.60415005 # occ.  1.00000000
 
ion      s      p      d    tot
    1  0.000  0.019  0.933  0.951
 
band     4 # energy    3.60426595 # occ.  1.00000000
 
ion      s      p      d    tot
    1  0.000  0.019  0.933  0.951
 
band     5 # energy    4.24071114 # occ.  1.00000000
 
ion      s      p      d    tot
    1  0.000  0.000  0.971  0.971
 
band     6 # energy    5.46541990 # occ.  1.01748381
 
ion      s      p      d    tot
    1  0.065  0.022  0.865  0.952
 
band     7 # energy   24.10110289 # occ.  0.00000000
 
ion      s      p      d    tot
    1  0.000  0.000  0.391  0.391
 
band     8 # energy   24.53873185 # occ.  0.00000000
 
ion      s      p      d    tot
    1  0.000  0.383  0.299  0.681
 
band     9 # energy   24.53876605 # occ.  0.00000000
 
ion      s      p      d    tot
    1  0.000  0.383  0.299  0.681
 
band    10 # energy   26.71698836 # occ.  0.00000000
 
ion      s      p      d    tot
    1  0.200  0.242  0.005  0.447
 
band    11 # energy   37.84231955 # occ.  0.00000000
 
ion      s      p      d    tot
    1  0.000  0.300  0.029  0.329
 
band    12 # energy   37.84258134 # occ.  0.00000000
 
ion      s      p      d    tot
    1  0.000  0.300  0.029  0.329
 

 k-point    10 :    0.23684211-0.23684211 0.23684211     weight = 0.01000000

band     1 # energy    0.92256168 # occ.  1.00000000
 
ion      s      p      d    tot
    1  0.283  0.169  0.223  0.675
 
band     2 # energy    3.01183820 # occ.  1.00000000
 
ion      s      p      d    tot
    1  0.000  0.000  0.903  0.903
 
band     3 # energy    3.73222085 # occ.  1.00000000
 
ion      s      p      d    tot
    1  0.000  0.022  0.927  0.949
 
band     4 # energy    3.73234004 # occ.  1.00000000
 
ion      s      p      d    tot
    1  0.000  0.022  0.927  0.949
 
band     5 # energy    4.43215336 # occ.  1.00000000
 
ion      s      p      d    tot
    1  0.000  0.000  0.971  0.971
 
band     6 # energy    5.79875853 # occ.  0.54900576
 
ion      s      p      d    tot
    1  0.107  0.046  0.770  0.924
 
band     7 # energy   23.31729304 # occ.  0.00000000
 
ion      s      p      d    tot
    1  0.000  0.422  0.273  0.695
 
band     8 # energy   23.31731670 # occ.  0.00000000
 
ion      s      p      d    tot
    1  0.000  0.422  0.273  0.695
 
band     9 # energy   23.53878818 # occ.  0.00000000
 
ion      s      p      d    tot
    1  0.000  0.000  0.427  0.427
 
band    10 # energy   25.91769303 # occ.  0.00000000
 
ion      s      p      d    tot
    1  0.234  0.199  0.021  0.454
 
band    11 # energy   38.93559950 # occ.  0.00000000
 
ion      s      p      d    tot
    1  0.000  0.285  0.054  0.339
 
band    12 # energy   38.93673793 # occ.  0.00000000
 
ion      s      p      d    tot
    1  0.000  0.284  0.054  0.338
 

 k-point    11 :    0.26315789-0.26315789 0.26315789     weight = 0.01000000

band     1 # energy    1.31770426 # occ.  1.00000000
 
ion      s      p      d    tot
    1  0.197  0.162  0.353  0.713
 
band     2 # energy    2.69953766 # occ.  1.00000000
 
ion      s      p      d    tot
    1  0.000  0.000  0.893  0.893
 
band     3 # energy    3.89613525 # occ.  1.00000000
 
ion      s      p      d    tot
    1  0.000  0.026  0.923  0.949
 
band     4 # energy    3.89625706 # occ.  1.00000000
 
ion      s      p      d    tot
    1  0.000  0.026  0.923  0.949
 
band     5 # energy    4.63002406 # occ.  1.00000000
 
ion      s      p      d    tot
    1  0.000  0.000  0.973  0.973
 
band     6 # energy    6.29796051 # occ. -0.00152073
 
ion      s      p      d    tot
    1  0.153  0.089  0.641  0.882
 
band     7 # energy   22.13431362 # occ.  0.00000000
 
ion      s      p      d    tot
    1  0.000  0.455  0.245  0.699
 
band     8 # energy   22.13432569 # occ.  0.00000000
 
ion      s      p      d    tot
    1  0.000  0.455  0.245  0.699
 
band     9 # energy   23.06261790 # occ.  0.00000000
 
ion      s      p      d    tot
    1  0.000  0.000  0.460  0.460
 
band    10 # energy   25.26196988 # occ.  0.00000000
 
ion      s      p      d    tot
    1  0.264  0.155  0.048  0.467
 
band    11 # energy   40.04479743 # occ.  0.00000000
 
ion      s      p      d    tot
    1  0.000  0.001  0.517  0.519
 
band    12 # energy   40.13264325 # occ.  0.00000000
 
ion      s      p      d    tot
    1  0.000  0.272  0.082  0.354
 

 k-point    12 :    0.28947368-0.28947368 0.28947368     weight = 0.01000000

band     1 # energy    1.55083720 # occ.  1.00000000
 
ion      s      p      d    tot
    1  0.122  0.141  0.492  0.755
 
band     2 # energy    2.39340221 # occ.  1.00000000
 
ion      s      p      d    tot
    1  0.000  0.000  0.885  0.885
 
band     3 # energy    4.09238104 # occ.  1.00000000
 
ion      s      p      d    tot
    1  0.000  0.028  0.921  0.949
 
band     4 # energy    4.09250908 # occ.  1.00000000
 
ion      s      p      d    tot
    1  0.000  0.028  0.921  0.949
 
band     5 # energy    4.82359777 # occ.  1.00000000
 
ion      s      p      d    tot
    1  0.000  0.000  0.974  0.974
 
band     6 # energy    7.01468129 # occ. -0.00000000
 
ion      s      p      d    tot
    1  0.188  0.145  0.502  0.835
 
band     7 # energy   20.99309187 # occ.  0.00000000
 
ion      s      p      d    tot
    1  0.000  0.484  0.215  0.699
 
band     8 # energy   20.99309191 # occ.  0.00000000
 
ion      s      p      d    tot
    1  0.000  0.484  0.215  0.699
 
band     9 # energy   22.66462374 # occ.  0.00000000
 
ion      s      p      d    tot
    1  0.000  0.000  0.491  0.491
 
band    10 # energy   24.74256149 # occ.  0.00000000
 
ion      s      p      d    tot
    1  0.288  0.111  0.085  0.483
 
band    11 # energy   38.19276415 # occ.  0.00000000
 
ion      s      p      d    tot
    1  0.074  0.307  0.228  0.609
 
band    12 # energy   40.52734649 # occ.  0.00000000
 
ion      s      p      d    tot
    1  0.000  0.000  0.468  0.469
 

 k-point    13 :    0.31578947-0.31578947 0.31578947     weight = 0.01000000

band     1 # energy    1.62943348 # occ.  1.00000000
 
ion      s      p      d    tot
    1  0.068  0.113  0.610  0.791
 
band     2 # energy    2.10196057 # occ.  1.00000000
 
ion      s      p      d    tot
    1  0.000  0.000  0.878  0.878
 
band     3 # energy    4.32041081 # occ.  1.00000000
 
ion      s      p      d    tot
    1  0.000  0.029  0.922  0.951
 
band     4 # energy    4.32054613 # occ.  1.00000000
 
ion      s      p      d    tot
    1  0.000  0.029  0.922  0.951
 
band     5 # energy    5.01059393 # occ.  1.00000012
 
ion      s      p      d    tot
    1  0.000  0.000  0.976  0.976
 
band     6 # energy    7.93684981 # occ. -0.00000000
 
ion      s      p      d    tot
    1  0.202  0.206  0.383  0.791
 
band     7 # energy   19.91390131 # occ.  0.00000000
 
ion      s      p      d    tot
    1  0.000  0.511  0.183  0.694
 
band     8 # energy   19.91391410 # occ.  0.00000000
 
ion      s      p      d    tot
    1  0.000  0.511  0.183  0.694
 
band     9 # energy   22.33666375 # occ.  0.00000000
 
ion      s      p      d    tot
    1  0.000  0.000  0.518  0.518
 
band    10 # energy   24.33820230 # occ.  0.00000000
 
ion      s      p      d    tot
    1  0.301  0.070  0.131  0.502
 
band    11 # energy   35.90033467 # occ.  0.00000000
 
ion      s      p      d    tot
    1  0.124  0.307  0.200  0.631
 
band    12 # energy   41.07558579 # occ.  0.00000000
 
ion      s      p      d    tot
    1  0.000  0.000  0.414  0.414
 

 k-point    14 :    0.34210526-0.34210526 0.34210526     weight = 0.01000000

band     1 # energy    1.59540652 # occ.  1.00000000
 
ion      s      p      d    tot
    1  0.034  0.085  0.697  0.817
 
band     2 # energy    1.83150929 # occ.  1.00000000
 
ion      s      p      d    tot
    1  0.000  0.000  0.871  0.871
 
band     3 # energy    4.57108652 # occ.  1.00000000
 
ion      s      p      d    tot
    1  0.000  0.029  0.925  0.954
 
band     4 # energy    4.57123520 # occ.  1.00000000
 
ion      s      p      d    tot
    1  0.000  0.029  0.925  0.954
 
band     5 # energy    5.18564862 # occ.  1.00004603
 
ion      s      p      d    tot
    1  0.000  0.000  0.979  0.979
 
band     6 # energy    9.03266804 # occ. -0.00000000
 
ion      s      p      d    tot
    1  0.196  0.268  0.293  0.756
 
band     7 # energy   18.90868506 # occ.  0.00000000
 
ion      s      p      d    tot
    1  0.000  0.535  0.150  0.685
 
band     8 # energy   18.90871157 # occ.  0.00000000
 
ion      s      p      d    tot
    1  0.000  0.535  0.150  0.685
 
band     9 # energy   22.05883739 # occ.  0.00000000
 
ion      s      p      d    tot
    1  0.000  0.000  0.543  0.543
 
band    10 # energy   24.03427447 # occ.  0.00000000
 
ion      s      p      d    tot
    1  0.301  0.036  0.185  0.521
 
band    11 # energy   33.71640641 # occ.  0.00000000
 
ion      s      p      d    tot
    1  0.185  0.296  0.173  0.654
 
band    12 # energy   41.69076980 # occ.  0.00000000
 
ion      s      p      d    tot
    1  0.000  0.000  0.356  0.356
 

 k-point    15 :    0.36842105-0.36842105 0.36842105     weight = 0.01000000

band     1 # energy    1.48863137 # occ.  1.00000000
 
ion      s      p      d    tot
    1  0.015  0.060  0.758  0.834
 
band     2 # energy    1.59173961 # occ.  1.00000000
 
ion      s      p      d    tot
    1  0.000  0.000  0.866  0.866
 
band     3 # energy    4.83878298 # occ.  1.00000000
 
ion      s      p      d    tot
    1  0.000  0.026  0.933  0.959
 
band     4 # energy    4.83894187 # occ.  1.00000000
 
ion      s      p      d    tot
    1  0.000  0.026  0.933  0.959
 
band     5 # energy    5.34361815 # occ.  1.00235627
 
ion      s      p      d    tot
    1  0.000  0.000  0.981  0.981
 
band     6 # energy   10.25067270 # occ. -0.00000000
 
ion      s      p      d    tot
    1  0.175  0.327  0.227  0.728
 
band     7 # energy   17.99731084 # occ.  0.00000000
 
ion      s      p      d    tot
    1  0.000  0.557  0.117  0.674
 
band     8 # energy   17.99735137 # occ.  0.00000000
 
ion      s      p      d    tot
    1  0.000  0.557  0.117  0.674
 
band     9 # energy   21.84497117 # occ.  0.00000000
 
ion      s      p      d    tot
    1  0.000  0.000  0.563  0.563
 
band    10 # energy   23.75464828 # occ.  0.00000000
 
ion      s      p      d    tot
    1  0.279  0.011  0.249  0.539
 
band    11 # energy   31.63410255 # occ.  0.00000000
 
ion      s      p      d    tot
    1  0.265  0.275  0.142  0.682
 
band    12 # energy   42.36155872 # occ.  0.00000000
 
ion      s      p      d    tot
    1  0.000  0.000  0.293  0.293
 

 k-point    16 :    0.39473684-0.39473684 0.39473684     weight = 0.01000000

band     1 # energy    1.35132360 # occ.  1.00000000
 
ion      s      p      d    tot
    1  0.006  0.039  0.799  0.844
 
band     2 # energy    1.38717060 # occ.  1.00000000
 
ion      s      p      d    tot
    1  0.000  0.000  0.863  0.863
 
band     3 # energy    5.10360730 # occ.  1.00000347
 
ion      s      p      d    tot
    1  0.000  0.021  0.944  0.965
 
band     4 # energy    5.10378339 # occ.  1.00000349
 
ion      s      p      d    tot
    1  0.000  0.021  0.944  0.965
 
band     5 # energy    5.47985774 # occ.  1.02065897
 
ion      s      p      d    tot
    1  0.000  0.000  0.983  0.983
 
band     6 # energy   11.54846526 # occ.  0.00000000
 
ion      s      p      d    tot
    1  0.142  0.385  0.176  0.704
 
band     7 # energy   17.19568884 # occ.  0.00000000
 
ion      s      p      d    tot
    1  0.000  0.578  0.084  0.662
 
band     8 # energy   17.19574311 # occ.  0.00000000
 
ion      s      p      d    tot
    1  0.000  0.578  0.084  0.662
 
band     9 # energy   21.67646280 # occ.  0.00000000
 
ion      s      p      d    tot
    1  0.000  0.000  0.580  0.580
 
band    10 # energy   23.43902211 # occ.  0.00000000
 
ion      s      p      d    tot
    1  0.226  0.000  0.327  0.553
 
band    11 # energy   29.75690238 # occ.  0.00000000
 
ion      s      p      d    tot
    1  0.376  0.235  0.103  0.714
 
band    12 # energy   43.06848269 # occ.  0.00000000
 
ion      s      p      d    tot
    1  0.000  0.000  0.225  0.225
 

 k-point    17 :    0.42105263-0.42105263 0.42105263     weight = 0.01000000

band     1 # energy    1.21593976 # occ.  1.00000000
 
ion      s      p      d    tot
    1  0.002  0.022  0.826  0.850
 
band     2 # energy    1.22314420 # occ.  1.00000000
 
ion      s      p      d    tot
    1  0.000  0.000  0.860  0.860
 
band     3 # energy    5.35103131 # occ.  1.00273590
 
ion      s      p      d    tot
    1  0.000  0.015  0.958  0.973
 
band     4 # energy    5.35121934 # occ.  1.00274617
 
ion      s      p      d    tot
    1  0.000  0.015  0.958  0.973
 
band     5 # energy    5.59032892 # occ.  1.03264239
 
ion      s      p      d    tot
    1  0.000  0.000  0.985  0.985
 
band     6 # energy   12.87829160 # occ.  0.00000000
 
ion      s      p      d    tot
    1  0.104  0.445  0.133  0.681
 
band     7 # energy   16.53072739 # occ.  0.00000000
 
ion      s      p      d    tot
    1  0.000  0.598  0.053  0.650
 
band     8 # energy   16.53079578 # occ.  0.00000000
 
ion      s      p      d    tot
    1  0.000  0.598  0.053  0.650
 
band     9 # energy   21.55265058 # occ.  0.00000000
 
ion      s      p      d    tot
    1  0.000  0.000  0.593  0.593
 
band    10 # energy   23.01629057 # occ.  0.00000000
 
ion      s      p      d    tot
    1  0.139  0.009  0.416  0.563
 
band    11 # energy   28.20027253 # occ.  0.00000000
 
ion      s      p      d    tot
    1  0.519  0.171  0.055  0.745
 
band    12 # energy   43.77420800 # occ.  0.00000000
 
ion      s      p      d    tot
    1  0.000  0.000  0.154  0.154
 

 k-point    18 :    0.44736842-0.44736842 0.44736842     weight = 0.01000000

band     1 # energy    1.10327047 # occ.  1.00000000
 
ion      s      p      d    tot
    1  0.000  0.000  0.858  0.858
 
band     2 # energy    1.10409537 # occ.  1.00000000
 
ion      s      p      d    tot
    1  0.000  0.010  0.843  0.854
 
band     3 # energy    5.55490876 # occ.  1.03506242
 
ion      s      p      d    tot
    1  0.000  0.008  0.972  0.980
 
band     4 # energy    5.55510737 # occ.  1.03507671
 
ion      s      p      d    tot
    1  0.000  0.008  0.972  0.980
 
band     5 # energy    5.67169937 # occ.  0.95751685
 
ion      s      p      d    tot
    1  0.000  0.000  0.986  0.986
 
band     6 # energy   14.14874982 # occ.  0.00000000
 
ion      s      p      d    tot
    1  0.061  0.513  0.086  0.660
 
band     7 # energy   16.02690363 # occ.  0.00000000
 
ion      s      p      d    tot
    1  0.000  0.614  0.026  0.639
 
band     8 # energy   16.02698425 # occ.  0.00000000
 
ion      s      p      d    tot
    1  0.000  0.614  0.026  0.639
 
band     9 # energy   21.46724458 # occ.  0.00000000
 
ion      s      p      d    tot
    1  0.000  0.000  0.603  0.603
 
band    10 # energy   22.40738533 # occ.  0.00000000
 
ion      s      p      d    tot
    1  0.047  0.026  0.504  0.577
 
band    11 # energy   27.09373213 # occ.  0.00000000
 
ion      s      p      d    tot
    1  0.664  0.089  0.016  0.769
 
band    12 # energy   44.41260557 # occ.  0.00000000
 
ion      s      p      d    tot
    1  0.000  0.000  0.083  0.083
 

 k-point    19 :    0.47368421-0.47368421 0.47368421     weight = 0.01000000

band     1 # energy    1.03026899 # occ.  1.00000000
 
ion      s      p      d    tot
    1  0.000  0.000  0.857  0.857
 
band     2 # energy    1.03107087 # occ.  1.00000000
 
ion      s      p      d    tot
    1  0.000  0.003  0.853  0.856
 
band     3 # energy    5.69047014 # occ.  0.91977087
 
ion      s      p      d    tot
    1  0.000  0.002  0.983  0.985
 
band     4 # energy    5.69067582 # occ.  0.91930829
 
ion      s      p      d    tot
    1  0.000  0.002  0.983  0.985
 
band     5 # energy    5.72151517 # occ.  0.83794910
 
ion      s      p      d    tot
    1  0.000  0.000  0.987  0.987
 
band     6 # energy   15.17488718 # occ.  0.00000000
 
ion      s      p      d    tot
    1  0.020  0.587  0.032  0.639
 
band     7 # energy   15.71069128 # occ.  0.00000000
 
ion      s      p      d    tot
    1  0.000  0.625  0.007  0.632
 
band     8 # energy   15.71078040 # occ.  0.00000000
 
ion      s      p      d    tot
    1  0.000  0.625  0.007  0.632
 
band     9 # energy   21.41722002 # occ.  0.00000000
 
ion      s      p      d    tot
    1  0.000  0.000  0.608  0.608
 
band    10 # energy   21.72932366 # occ.  0.00000000
 
ion      s      p      d    tot
    1  0.004  0.018  0.576  0.598
 
band    11 # energy   26.48620892 # occ.  0.00000000
 
ion      s      p      d    tot
    1  0.755  0.023  0.001  0.779
 
band    12 # energy   44.87947555 # occ.  0.00000000
 
ion      s      p      d    tot
    1  0.000  0.000  0.024  0.024
 

 k-point    20 :    0.50000000-0.50000000 0.50000000     weight = 0.01000000

band     1 # energy    1.00575881 # occ.  1.00000000
 
ion      s      p      d    tot
    1  0.000  0.000  0.856  0.856
 
band     2 # energy    1.00575882 # occ.  1.00000000
 
ion      s      p      d    tot
    1  0.000  0.000  0.856  0.856
 