<?xml version="1.0" encoding="ISO-8859-1"?>
<modeling>
 <generator>
  <i name="program" type="string">vasp </i>
  <i name="version" type="string">5.4.4.18Apr17-6-g9f103f2a35  </i>
  <i name="subversion" type="string">(build Jul 01 2019 03:25:34) complex            parallel </i>
  <i name="platform" type="string">LinuxIFC </i>
  <i name="date" type="string">2020 07 01 </i>
  <i name="time" type="string">21:35:21 </i>
 </generator>
 <incar>
  <i type="string" name="SYSTEM"> bcc Fe</i>
  <i type="string" name="PREC">normal</i>
  <i type="int" name="ISPIN">     2</i>
  <i type="int" name="ICHARG">    11</i>
  <i name="EDIFF">      0.00010000</i>
  <i name="ENCUT">    268.00000000</i>
  <v name="RWIGS">      1.30200000</v>
  <v name="MAGMOM">      3.00000000</v>
  <i type="logical" name="LCHARG"> F  </i>
  <v type="int" name="KPOINT_BSE">    -1     0     0     0</v>
 </incar>
 <structure name="primitive_cell" >
  <crystal>
   <varray name="basis" >
    <v>      -1.42000000       1.42000000       1.42000000 </v>
    <v>       1.42000000      -1.42000000       1.42000000 </v>
    <v>       1.42000000       1.42000000      -1.42000000 </v>
   </varray>
   <i name="volume">     11.45315200 </i>
   <varray name="rec_basis" >
    <v>       0.00000000       0.35211268       0.35211268 </v>
    <v>       0.35211268       0.00000000       0.35211268 </v>
    <v>       0.35211268       0.35211268       0.00000000 </v>
   </varray>
  </crystal>
  <varray name="positions" >
   <v>       0.00000000       0.00000000       0.00000000 </v>
  </varray>
 </structure>
 <varray name="primitive_index" >
  <v type="int" >        1 </v>
 </varray>
 <kpoints>
  <generation param="listgenerated">
   <i name="divisions" type="int">      20 </i>
   <v>       0.00000000       0.00000000       0.00000000 </v>
   <v>       0.50000000      -0.50000000       0.50000000 </v>
   <v>       0.00000000       0.00000000       0.50000000 </v>
   <v>       0.25000000       0.25000000       0.25000000 </v>
   <v>       0.00000000       0.00000000       0.00000000 </v>
   <v>       0.00000000       0.00000000       0.50000000 </v>
  </generation>
  <varray name="kpointlist" >
   <v>       0.00000000       0.00000000       0.00000000 </v>
   <v>       0.02631579      -0.02631579       0.02631579 </v>
   <v>       0.05263158      -0.05263158       0.05263158 </v>
   <v>       0.07894737      -0.07894737       0.07894737 </v>
   <v>       0.10526316      -0.10526316       0.10526316 </v>
   <v>       0.13157895      -0.13157895       0.13157895 </v>
   <v>       0.15789474      -0.15789474       0.15789474 </v>
   <v>       0.18421053      -0.18421053       0.18421053 </v>
   <v>       0.21052632      -0.21052632       0.21052632 </v>
   <v>       0.23684211      -0.23684211       0.23684211 </v>
   <v>       0.26315789      -0.26315789       0.26315789 </v>
   <v>       0.28947368      -0.28947368       0.28947368 </v>
   <v>       0.31578947      -0.31578947       0.31578947 </v>
   <v>       0.34210526      -0.34210526       0.34210526 </v>
   <v>       0.36842105      -0.36842105       0.36842105 </v>
   <v>       0.39473684      -0.39473684       0.39473684 </v>
   <v>       0.42105263      -0.42105263       0.42105263 </v>
   <v>       0.44736842      -0.44736842       0.44736842 </v>
   <v>       0.47368421      -0.47368421       0.47368421 </v>
   <v>       0.50000000      -0.50000000       0.50000000 </v>
   <v>       0.50000000      -0.50000000       0.50000000 </v>
   <v>       0.47368421      -0.47368421       0.50000000 </v>
   <v>       0.44736842      -0.44736842       0.50000000 </v>
   <v>       0.42105263      -0.42105263       0.50000000 </v>
   <v>       0.39473684      -0.39473684       0.50000000 </v>
   <v>       0.36842105      -0.36842105       0.50000000 </v>
   <v>       0.34210526      -0.34210526       0.50000000 </v>
   <v>       0.31578947      -0.31578947       0.50000000 </v>
   <v>       0.28947368      -0.28947368       0.50000000 </v>
   <v>       0.26315789      -0.26315789       0.50000000 </v>
   <v>       0.23684211      -0.23684211       0.50000000 </v>
   <v>       0.21052632      -0.21052632       0.50000000 </v>
   <v>       0.18421053      -0.18421053       0.50000000 </v>
   <v>       0.15789474      -0.15789474       0.50000000 </v>
   <v>       0.13157895      -0.13157895       0.50000000 </v>
   <v>       0.10526316      -0.10526316       0.50000000 </v>
   <v>       0.07894737      -0.07894737       0.50000000 </v>
   <v>       0.05263158      -0.05263158       0.50000000 </v>
   <v>       0.02631579      -0.02631579       0.50000000 </v>
   <v>       0.00000000       0.00000000       0.50000000 </v>
   <v>       0.00000000       0.00000000       0.50000000 </v>
   <v>       0.01315789       0.01315789       0.48684211 </v>
   <v>       0.02631579       0.02631579       0.47368421 </v>
   <v>       0.03947368       0.03947368       0.46052632 </v>
   <v>       0.05263158       0.05263158       0.44736842 </v>
   <v>       0.06578947       0.06578947       0.43421053 </v>
   <v>       0.07894737       0.07894737       0.42105263 </v>
   <v>       0.09210526       0.09210526       0.40789474 </v>
   <v>       0.10526316       0.10526316       0.39473684 </v>
   <v>       0.11842105       0.11842105       0.38157895 </v>
   <v>       0.13157895       0.13157895       0.36842105 </v>
   <v>       0.14473684       0.14473684       0.35526316 </v>
   <v>       0.15789474       0.15789474       0.34210526 </v>
   <v>       0.17105263       0.17105263       0.32894737 </v>
   <v>       0.18421053       0.18421053       0.31578947 </v>
   <v>       0.19736842       0.19736842       0.30263158 </v>
   <v>       0.21052632       0.21052632       0.28947368 </v>
   <v>       0.22368421       0.22368421       0.27631579 </v>
   <v>       0.23684211       0.23684211       0.26315789 </v>
   <v>       0.25000000       0.25000000       0.25000000 </v>
   <v>       0.25000000       0.25000000       0.25000000 </v>
   <v>       0.23684211       0.23684211       0.23684211 </v>
   <v>       0.22368421       0.22368421       0.22368421 </v>
   <v>       0.21052632       0.21052632       0.21052632 </v>
   <v>       0.19736842       0.19736842       0.19736842 </v>
   <v>       0.18421053       0.18421053       0.18421053 </v>
   <v>       0.17105263       0.17105263       0.17105263 </v>
   <v>       0.15789474       0.15789474       0.15789474 </v>
   <v>       0.14473684       0.14473684       0.14473684 </v>
   <v>       0.13157895       0.13157895       0.13157895 </v>
   <v>       0.11842105       0.11842105       0.11842105 </v>
   <v>       0.10526316       0.10526316       0.10526316 </v>
   <v>       0.09210526       0.09210526       0.09210526 </v>
   <v>       0.07894737       0.07894737       0.07894737 </v>
   <v>       0.06578947       0.06578947       0.06578947 </v>
   <v>       0.05263158       0.05263158       0.05263158 </v>
   <v>       0.03947368       0.03947368       0.03947368 </v>
   <v>       0.02631579       0.02631579       0.02631579 </v>
   <v>       0.01315789       0.01315789       0.01315789 </v>
   <v>       0.00000000       0.00000000       0.00000000 </v>
   <v>       0.00000000       0.00000000       0.00000000 </v>
   <v>       0.00000000       0.00000000       0.02631579 </v>
   <v>       0.00000000       0.00000000       0.05263158 </v>
   <v>       0.00000000       0.00000000       0.07894737 </v>
   <v>       0.00000000       0.00000000       0.10526316 </v>
   <v>       0.00000000       0.00000000       0.13157895 </v>
   <v>       0.00000000       0.00000000       0.15789474 </v>
   <v>       0.00000000       0.00000000       0.18421053 </v>
   <v>       0.00000000       0.00000000       0.21052632 </v>
   <v>       0.00000000       0.00000000       0.23684211 </v>
   <v>       0.00000000       0.00000000       0.26315789 </v>
   <v>       0.00000000       0.00000000       0.28947368 </v>
   <v>       0.00000000       0.00000000       0.31578947 </v>
   <v>       0.00000000       0.00000000       0.34210526 </v>
   <v>       0.00000000       0.00000000       0.36842105 </v>
   <v>       0.00000000       0.00000000       0.39473684 </v>
   <v>       0.00000000       0.00000000       0.42105263 </v>
   <v>       0.00000000       0.00000000       0.44736842 </v>
   <v>       0.00000000       0.00000000       0.47368421 </v>
   <v>       0.00000000       0.00000000       0.50000000 </v>
  </varray>
  <varray name="weights" >
   <v>       0.01000000 </v>
   <v>       0.01000000 </v>
   <v>       0.01000000 </v>
   <v>       0.01000000 </v>
   <v>       0.01000000 </v>
   <v>       0.01000000 </v>
   <v>       0.01000000 </v>
   <v>       0.01000000 </v>
   <v>       0.01000000 </v>
   <v>       0.01000000 </v>
   <v>       0.01000000 </v>
   <v>       0.01000000 </v>
   <v>       0.01000000 </v>
   <v>       0.01000000 </v>
   <v>       0.01000000 </v>
   <v>       0.01000000 </v>
   <v>       0.01000000 </v>
   <v>       0.01000000 </v>
   <v>       0.01000000 </v>
   <v>       0.01000000 </v>
   <v>       0.01000000 </v>
   <v>       0.01000000 </v>
   <v>       0.01000000 </v>
   <v>       0.01000000 </v>
   <v>       0.01000000 </v>
   <v>       0.01000000 </v>
   <v>       0.01000000 </v>
   <v>       0.01000000 </v>
   <v>       0.01000000 </v>
   <v>       0.01000000 </v>
   <v>       0.01000000 </v>
   <v>       0.01000000 </v>
   <v>       0.01000000 </v>
   <v>       0.01000000 </v>
   <v>       0.01000000 </v>
   <v>       0.01000000 </v>
   <v>       0.01000000 </v>
   <v>       0.01000000 </v>
   <v>       0.01000000 </v>
   <v>       0.01000000 </v>
   <v>       0.01000000 </v>
   <v>       0.01000000 </v>
   <v>       0.01000000 </v>
   <v>       0.01000000 </v>
   <v>       0.01000000 </v>
   <v>       0.01000000 </v>
   <v>       0.01000000 </v>
   <v>       0.01000000 </v>
   <v>       0.01000000 </v>
   <v>       0.01000000 </v>
   <v>       0.01000000 </v>
   <v>       0.01000000 </v>
   <v>       0.01000000 </v>
   <v>       0.01000000 </v>
   <v>       0.01000000 </v>
   <v>       0.01000000 </v>
   <v>       0.01000000 </v>
   <v>       0.01000000 </v>
   <v>       0.01000000 </v>
   <v>       0.01000000 </v>
   <v>       0.01000000 </v>
   <v>       0.01000000 </v>
   <v>       0.01000000 </v>
   <v>       0.01000000 </v>
   <v>       0.01000000 </v>
   <v>       0.01000000 </v>
   <v>       0.01000000 </v>
   <v>       0.01000000 </v>
   <v>       0.01000000 </v>
   <v>       0.01000000 </v>
   <v>       0.01000000 </v>
   <v>       0.01000000 </v>
   <v>       0.01000000 </v>
   <v>       0.01000000 </v>
   <v>       0.01000000 </v>
   <v>       0.01000000 </v>
   <v>       0.01000000 </v>
   <v>       0.01000000 </v>
   <v>       0.01000000 </v>
   <v>       0.01000000 </v>
   <v>       0.01000000 </v>
   <v>       0.01000000 </v>
   <v>       0.01000000 </v>
   <v>       0.01000000 </v>
   <v>       0.01000000 </v>
   <v>       0.01000000 </v>
   <v>       0.01000000 </v>
   <v>       0.01000000 </v>
   <v>       0.01000000 </v>
   <v>       0.01000000 </v>
   <v>       0.01000000 </v>
   <v>       0.01000000 </v>
   <v>       0.01000000 </v>
   <v>       0.01000000 </v>
   <v>       0.01000000 </v>
   <v>       0.01000000 </v>
   <v>       0.01000000 </v>
   <v>       0.01000000 </v>
   <v>       0.01000000 </v>
   <v>       0.01000000 </v>
  </varray>
 </kpoints>
 <parameters>
  <separator name="general" >
   <i type="string" name="SYSTEM">bcc Fe</i>
   <i type="logical" name="LCOMPAT"> F  </i>
  </separator>
  <separator name="electronic" >
   <i type="string" name="PREC">normal</i>
   <i name="ENMAX">    268.00000000</i>
   <i name="ENAUG">    511.36800000</i>
   <i name="EDIFF">      0.00010000</i>
   <i type="int" name="IALGO">    38</i>
   <i type="int" name="IWAVPR">    10</i>
   <i type="int" name="NBANDS">    12</i>
   <i name="NELECT">      8.00000000</i>
   <i type="int" name="TURBO">     0</i>
   <i type="int" name="IRESTART">     0</i>
   <i type="int" name="NREBOOT">     0</i>
   <i type="int" name="NMIN">     0</i>
   <i name="EREF">      0.00000000</i>
   <separator name="electronic smearing" >
    <i type="int" name="ISMEAR">     1</i>
    <i name="SIGMA">      0.20000000</i>
    <i name="KSPACING">      0.50000000</i>
    <i type="logical" name="KGAMMA"> T  </i>
   </separator>
   <separator name="electronic projectors" >
    <i type="logical" name="LREAL"> F  </i>
    <v name="ROPT">      0.00000000</v>
    <i type="int" name="LMAXPAW">  -100</i>
    <i type="int" name="LMAXMIX">     2</i>
    <i type="logical" name="NLSPLINE"> F  </i>
   </separator>
   <separator name="electronic startup" >
    <i type="int" name="ISTART">     0</i>
    <i type="int" name="ICHARG">    11</i>
    <i type="int" name="INIWAV">     1</i>
   </separator>
   <separator name="electronic spin" >
    <i type="int" name="ISPIN">     2</i>
    <i type="logical" name="LNONCOLLINEAR"> F  </i>
    <v name="MAGMOM">      3.00000000</v>
    <i name="NUPDOWN">     -1.00000000</i>
    <i type="logical" name="LSORBIT"> F  </i>
    <v name="SAXIS">      0.00000000      0.00000000      1.00000000</v>
    <i type="logical" name="LSPIRAL"> F  </i>
    <v name="QSPIRAL">      0.00000000      0.00000000      0.00000000</v>
    <i type="logical" name="LZEROZ"> F  </i>
   </separator>
   <separator name="electronic exchange-correlation" >
    <i type="logical" name="LASPH"> F  </i>
    <i type="logical" name="LMETAGGA"> F  </i>
   </separator>
   <separator name="electronic convergence" >
    <i type="int" name="NELM">    60</i>
    <i type="int" name="NELMDL">    -5</i>
    <i type="int" name="NELMIN">     2</i>
    <i name="ENINI">    268.00000000</i>
    <separator name="electronic convergence detail" >
     <i type="logical" name="LDIAG"> T  </i>
     <i type="logical" name="LSUBROT"> F  </i>
     <i name="WEIMIN">      0.00000000</i>
     <i name="EBREAK">      0.00000208</i>
     <i name="DEPER">      0.30000000</i>
     <i type="int" name="NRMM">     4</i>
     <i name="TIME">      0.40000000</i>
    </separator>
   </separator>
   <separator name="electronic mixer" >
    <i name="AMIX">      0.40000000</i>
    <i name="BMIX">      1.00000000</i>
    <i name="AMIN">      0.10000000</i>
    <i name="AMIX_MAG">      1.60000000</i>
    <i name="BMIX_MAG">      1.00000000</i>
    <separator name="electronic mixer details" >
     <i type="int" name="IMIX">     4</i>
     <i type="logical" name="MIXFIRST"> F  </i>
     <i type="int" name="MAXMIX">   -45</i>
     <i name="WC">    100.00000000</i>
     <i type="int" name="INIMIX">     1</i>
     <i type="int" name="MIXPRE">     1</i>
     <i type="int" name="MREMOVE">     5</i>
    </separator>
   </separator>
   <separator name="electronic dipolcorrection" >
    <i type="logical" name="LDIPOL"> F  </i>
    <i type="logical" name="LMONO"> F  </i>
    <i type="int" name="IDIPOL">     0</i>
    <i name="EPSILON">      1.00000000</i>
    <v name="DIPOL">   -100.00000000   -100.00000000   -100.00000000</v>
    <i name="EFIELD">      0.00000000</i>
   </separator>
  </separator>
  <separator name="grids" >
   <i type="int" name="NGX">    10</i>
   <i type="int" name="NGY">    10</i>
   <i type="int" name="NGZ">    10</i>
   <i type="int" name="NGXF">    20</i>
   <i type="int" name="NGYF">    20</i>
   <i type="int" name="NGZF">    20</i>
   <i type="logical" name="ADDGRID"> F  </i>
  </separator>
  <separator name="ionic" >
   <i type="int" name="NSW">     0</i>
   <i type="int" name="IBRION">    -1</i>
   <i type="int" name="MDALGO">     0</i>
   <i type="int" name="ISIF">     2</i>
   <i name="PSTRESS">      0.00000000</i>
   <i name="EDIFFG">      0.00100000</i>
   <i type="int" name="NFREE">     0</i>
   <i name="POTIM">      0.50000000</i>
   <i name="SMASS">     -3.00000000</i>
   <i name="SCALEE">      1.00000000</i>
  </separator>
  <separator name="ionic md" >
   <i name="TEBEG">      0.00010000</i>
   <i name="TEEND">      0.00010000</i>
   <i type="int" name="NBLOCK">     1</i>
   <i type="int" name="KBLOCK">     1</i>
   <i type="int" name="NPACO">   256</i>
   <i name="APACO">     16.00000000</i>
  </separator>
  <separator name="symmetry" >
   <i type="int" name="ISYM">     2</i>
   <i name="SYMPREC">      0.00001000</i>
  </separator>
  <separator name="dos" >
   <i type="int" name="LORBIT">     0</i>
   <v name="RWIGS">      1.30200000</v>
   <i type="int" name="NEDOS">   301</i>
   <i name="EMIN">     10.00000000</i>
   <i name="EMAX">    -10.00000000</i>
   <i name="EFERMI">      0.00000000</i>
  </separator>
  <separator name="writing" >
   <i type="int" name="NWRITE">     2</i>
   <i type="logical" name="LWAVE"> T  </i>
   <i type="logical" name="LDOWNSAMPLE"> F  </i>
   <i type="logical" name="LCHARG"> F  </i>
   <i type="logical" name="LPARD"> F  </i>
   <i type="logical" name="LVTOT"> F  </i>
   <i type="logical" name="LVHAR"> F  </i>
   <i type="logical" name="LELF"> F  </i>
   <i type="logical" name="LOPTICS"> F  </i>
   <v name="STM">      0.00000000      0.00000000      0.00000000      0.00000000      0.00000000      0.00000000      0.00000000</v>
  </separator>
  <separator name="performance" >
   <i type="int" name="NPAR">     4</i>
   <i type="int" name="NSIM">     4</i>
   <i type="int" name="NBLK">    -1</i>
   <i type="logical" name="LPLANE"> T  </i>
   <i type="logical" name="LSCALAPACK"> T  </i>
   <i type="logical" name="LSCAAWARE"> F  </i>
   <i type="logical" name="LSCALU"> F  </i>
   <i type="logical" name="LASYNC"> F  </i>
   <i type="logical" name="LORBITALREAL"> F  </i>
  </separator>
  <separator name="miscellaneous" >
   <i type="int" name="IDIOT">     3</i>
   <i type="int" name="ISPECIAL">     0</i>
   <i type="logical" name="LMUSIC"> F  </i>
   <v name="POMASS">     55.84700000</v>
   <v name="DARWINR">      0.00000000</v>
   <v name="DARWINV">      1.00000000</v>
   <i type="logical" name="LCORR"> T  </i>
  </separator>
  <i type="logical" name="GGA_COMPAT"> T  </i>
  <i type="logical" name="LBERRY"> F  </i>
  <i type="int" name="ICORELEVEL">     0</i>
  <i type="logical" name="LDAU"> F  </i>
  <i type="int" name="I_CONSTRAINED_M">     0</i>
  <separator name="electronic exchange-correlation" >
   <i type="string" name="GGA">--</i>
   <i type="int" name="VOSKOWN">     0</i>
   <i type="logical" name="LHFCALC"> F  </i>
   <i type="string" name="PRECFOCK"></i>
   <i type="logical" name="LSYMGRAD"> F  </i>
   <i type="logical" name="LHFONE"> F  </i>
   <i type="logical" name="LRHFCALC"> F  </i>
   <i type="logical" name="LTHOMAS"> F  </i>
   <i type="logical" name="LMODELHF"> F  </i>
   <i name="ENCUT4O">     -1.00000000</i>
   <i type="int" name="EXXOEP">     0</i>
   <i type="int" name="FOURORBIT">     0</i>
   <i name="AEXX">      0.00000000</i>
   <i name="HFALPHA">      0.00000000</i>
   <i name="MCALPHA">      0.00000000</i>
   <i name="ALDAX">      1.00000000</i>
   <i name="AGGAX">      1.00000000</i>
   <i name="ALDAC">      1.00000000</i>
   <i name="AGGAC">      1.00000000</i>
   <i type="int" name="NKREDX">     1</i>
   <i type="int" name="NKREDY">     1</i>
   <i type="int" name="NKREDZ">     1</i>
   <i type="logical" name="SHIFTRED"> F  </i>
   <i type="logical" name="ODDONLY"> F  </i>
   <i type="logical" name="EVENONLY"> F  </i>
   <i type="int" name="LMAXFOCK">     0</i>
   <i type="int" name="NMAXFOCKAE">     0</i>
   <i type="logical" name="LFOCKAEDFT"> F  </i>
   <i name="HFSCREEN">      0.00000000</i>
   <i name="HFSCREENC">      0.00000000</i>
   <i type="int" name="NBANDSGWLOW">     0</i>
  </separator>
  <separator name="vdW DFT" >
   <i type="logical" name="LUSE_VDW"> F  </i>
   <i name="Zab_VDW">     -0.84910000</i>
   <i name="PARAM1">      0.12340000</i>
   <i name="PARAM2">      1.00000000</i>
   <i name="PARAM3">      0.00000000</i>
  </separator>
  <separator name="model GW" >
   <i type="int" name="MODEL_GW">     0</i>
   <i name="MODEL_EPS0">      6.87189120</i>
   <i name="MODEL_ALPHA">      1.00000000</i>
  </separator>
  <separator name="linear response parameters" >
   <i type="logical" name="LEPSILON"> F  </i>
   <i type="logical" name="LRPA"> F  </i>
   <i type="logical" name="LNABLA"> F  </i>
   <i type="logical" name="LVEL"> F  </i>
   <i type="int" name="KINTER">     0</i>
   <i name="CSHIFT">      0.10000000</i>
   <i name="OMEGAMAX">     -1.00000000</i>
   <i name="DEG_THRESHOLD">      0.00200000</i>
   <i name="RTIME">     -0.10000000</i>
   <i name="WPLASMAI">      0.00000000</i>
   <v name="DFIELD">      0.00000000      0.00000000      0.00000000</v>
   <v name="WPLASMA">      0.00000000      0.00000000      0.00000000      0.00000000      0.00000000      0.00000000      0.00000000      0.00000000      0.00000000</v>
  </separator>
  <separator name="orbital magnetization" >
   <i type="logical" name="NUCIND"> F  </i>
   <v name="MAGPOS">      0.00000000      0.00000000      0.00000000</v>
   <i type="logical" name="LNICSALL"> T  </i>
   <i type="logical" name="ORBITALMAG"> F  </i>
   <i type="logical" name="LMAGBLOCH"> F  </i>
   <i type="logical" name="LCHIMAG"> F  </i>
   <i type="logical" name="LGAUGE"> T  </i>
   <i type="int" name="MAGATOM">     0</i>
   <v name="MAGDIPOL">      0.00000000      0.00000000      0.00000000</v>
   <v name="AVECCONST">      0.00000000      0.00000000      0.00000000</v>
  </separator>
  <separator name="response functions" >
   <i type="logical" name="LADDER"> F  </i>
   <i type="logical" name="LRPAFORCE"> F  </i>
   <i type="logical" name="LFXC"> F  </i>
   <i type="logical" name="LHARTREE"> T  </i>
   <i type="int" name="IBSE">     0</i>
   <v type="int" name="KPOINT">    -1     0     0     0</v>
   <i type="logical" name="LTCTE"> F  </i>
   <i type="logical" name="LTETE"> F  </i>
   <i type="logical" name="LTRIPLET"> F  </i>
   <i type="logical" name="LFXCEPS"> F  </i>
   <i type="logical" name="LFXHEG"> F  </i>
   <i type="int" name="NATURALO">     2</i>
   <i type="logical" name="L2ORDER"> F  </i>
   <i type="logical" name="LMP2LT"> F  </i>
   <i type="logical" name="LUSEW"> F  </i>
   <i name="ENCUTGW">     -2.00000000</i>
   <i name="ENCUTGWSOFT">     -2.00000000</i>
   <i name="ENCUTLF">     -1.00000000</i>
   <i type="int" name="LMAXMP2">    -1</i>
   <i name="SCISSOR">      0.00000000</i>
   <i type="int" name="NOMEGA">     0</i>
   <i type="int" name="NOMEGAR">     0</i>
   <i type="int" name="NBANDSGW">    -1</i>
   <i type="int" name="NBANDSO">    -1</i>
   <i type="int" name="NBANDSV">    -1</i>
   <i type="int" name="NELM">     1</i>
   <i type="int" name="NELMHF">     1</i>
   <i type="int" name="DIM">     3</i>
   <i type="int" name="ANTIRES">     0</i>
   <i name="OMEGAMAX">    -30.00000000</i>
   <i name="OMEGAMIN">    -30.00000000</i>
   <i name="OMEGATL">   -200.00000000</i>
   <i type="int" name="OMEGAGRID">   140</i>
   <i name="CSHIFT">     -0.10000000</i>
   <i type="logical" name="SELFENERGY"> F  </i>
   <i type="logical" name="LSPECTRAL"> F  </i>
   <i type="logical" name="LSPECTRALGW"> F  </i>
   <i type="logical" name="LSINGLES"> F  </i>
   <i type="logical" name="LFERMIGW"> F  </i>
   <i type="logical" name="ODDONLYGW"> F  </i>
   <i type="logical" name="EVENONLYGW"> F  </i>
   <i type="int" name="NKREDLFX">     1</i>
   <i type="int" name="NKREDLFY">     1</i>
   <i type="int" name="NKREDLFZ">     1</i>
   <i type="int" name="MAXMEM">  2800</i>
   <i type="int" name="TELESCOPE">     0</i>
   <i type="int" name="TAUPAR">     1</i>
   <i type="int" name="OMEGAPAR">    -1</i>
   <i name="LAMBDA">      1.00000000</i>
  </separator>
  <separator name="External order field" >
   <i name="OFIELD_KAPPA">      0.00000000</i>
   <v name="OFIELD_K">      0.00000000      0.00000000      0.00000000</v>
   <i name="OFIELD_Q6_NEAR">      0.00000000</i>
   <i name="OFIELD_Q6_FAR">      0.00000000</i>
   <i name="OFIELD_A">      0.00000000</i>
  </separator>
 </parameters>
 <atominfo>
  <atoms>       1 </atoms>
  <types>       1 </types>
  <array name="atoms" >
   <dimension dim="1">ion</dimension>
   <field type="string">element</field>
   <field type="int">atomtype</field>
   <set>
    <rc><c>Fe</c><c>   1</c></rc>
   </set>
  </array>
  <array name="atomtypes" >
   <dimension dim="1">type</dimension>
   <field type="int">atomspertype</field>
   <field type="string">element</field>
   <field>mass</field>
   <field>valence</field>
   <field type="string">pseudopotential</field>
   <set>
    <rc><c>   1</c><c>Fe</c><c>     55.84700000</c><c>      8.00000000</c><c>  PAW_PBE Fe 06Sep2000                  </c></rc>
   </set>
  </array>
 </atominfo>
 <structure name="initialpos" >
  <crystal>
   <varray name="basis" >
    <v>      -1.42000000       1.42000000       1.42000000 </v>
    <v>       1.42000000      -1.42000000       1.42000000 </v>
    <v>       1.42000000       1.42000000      -1.42000000 </v>
   </varray>
   <i name="volume">     11.45315200 </i>
   <varray name="rec_basis" >
    <v>       0.00000000       0.35211268       0.35211268 </v>
    <v>       0.35211268       0.00000000       0.35211268 </v>
    <v>       0.35211268       0.35211268       0.00000000 </v>
   </varray>
  </crystal>
  <varray name="positions" >
   <v>       0.00000000       0.00000000       0.00000000 </v>
  </varray>
 </structure>
 <calculation>
  <scstep>
   <time name="dav">    0.25    0.28</time>
   <time name="total">    0.26    0.29</time>
   <energy>
    <i name="alphaZ">     60.34476448 </i>
    <i name="ewald">   -590.46971399 </i>
    <i name="hartreedc">    -95.91358798 </i>
    <i name="XCdc">      4.41713341 </i>
    <i name="pawpsdc">    718.79586096 </i>
    <i name="pawaedc">   -727.86152773 </i>
    <i name="eentropy">     -0.00265888 </i>
    <i name="bandstr">     47.85516160 </i>
    <i name="atom">    594.28084496 </i>
    <i name="e_fr_energy">     11.44627683 </i>
    <i name="e_wo_entrp">     11.44893571 </i>
    <i name="e_0_energy">     11.44716313 </i>
   </energy>
  </scstep>
  <scstep>
   <time name="dav">    0.23    0.23</time>
   <time name="total">    0.23    0.23</time>
   <energy>
    <i name="e_fr_energy">     -8.77800608 </i>
    <i name="e_wo_entrp">     -8.77750524 </i>
    <i name="e_0_energy">     -8.77783913 </i>
   </energy>
  </scstep>
  <scstep>
   <time name="dav">    0.26    0.26</time>
   <time name="total">    0.26    0.26</time>
   <energy>
    <i name="e_fr_energy">     -9.14624152 </i>
    <i name="e_wo_entrp">     -9.14678476 </i>
    <i name="e_0_energy">     -9.14642260 </i>
   </energy>
  </scstep>
  <scstep>
   <time name="dav">    0.24    0.25</time>
   <time name="total">    0.24    0.25</time>
   <energy>
    <i name="e_fr_energy">     -9.14732547 </i>
    <i name="e_wo_entrp">     -9.14786777 </i>
    <i name="e_0_energy">     -9.14750624 </i>
   </energy>
  </scstep>
  <scstep>
   <time name="dav">    0.23    0.24</time>
   <time name="total">    0.23    0.24</time>
   <energy>
    <i name="e_fr_energy">     -9.14733146 </i>
    <i name="e_wo_entrp">     -9.14787374 </i>
    <i name="e_0_energy">     -9.14751222 </i>
   </energy>
  </scstep>
  <scstep>
   <time name="dav">    0.20    0.21</time>
   <time name="total">    0.20    0.21</time>
   <energy>
    <i name="alphaZ">     60.34476448 </i>
    <i name="ewald">   -590.46971399 </i>
    <i name="hartreedc">    -95.91358798 </i>
    <i name="XCdc">      4.41713341 </i>
    <i name="pawpsdc">    718.79586096 </i>
    <i name="pawaedc">   -727.86152773 </i>
    <i name="eentropy">      0.00054229 </i>
    <i name="bandstr">     27.25835200 </i>
    <i name="atom">    594.28084496 </i>
    <i name="e_fr_energy">     -9.14733160 </i>
    <i name="e_wo_entrp">     -9.14787389 </i>
    <i name="e_0_energy">     -9.14751236 </i>
   </energy>
  </scstep>
  <structure>
   <crystal>
    <varray name="basis" >
     <v>      -1.42000000       1.42000000       1.42000000 </v>
     <v>       1.42000000      -1.42000000       1.42000000 </v>
     <v>       1.42000000       1.42000000      -1.42000000 </v>
    </varray>
    <i name="volume">     11.45315200 </i>
    <varray name="rec_basis" >
     <v>       0.00000000       0.35211268       0.35211268 </v>
     <v>       0.35211268       0.00000000       0.35211268 </v>
     <v>       0.35211268       0.35211268       0.00000000 </v>
    </varray>
   </crystal>
   <varray name="positions" >
    <v>       0.00000000       0.00000000       0.00000000 </v>
   </varray>
  </structure>
  <varray name="forces" >
   <v>       0.00000000       0.00000000       0.00000000 </v>
  </varray>
  <varray name="stress" >
   <v>     659.36357319       0.00000000      -0.00000000 </v>
   <v>      -0.00000000     659.36357319      -0.00000000 </v>
   <v>       0.00000000       0.00000000     659.36357319 </v>
  </varray>
  <energy>
   <i name="e_fr_energy">     -9.14733160 </i>
   <i name="e_wo_entrp">     -9.14751236 </i>
   <i name="e_0_energy">      0.00054229 </i>
  </energy>
  <time name="totalsc">    1.54    1.60</time>
  <eigenvalues>
   <array>
    <dimension dim="1">band</dimension>
    <dimension dim="2">kpoint</dimension>
    <dimension dim="3">spin</dimension>
    <field>eigene</field>
    <field>occ</field>
    <set>
     <set comment="spin 1">
      <set comment="kpoint 1">
       <r>   -2.6571    1.0000 </r>
       <r>    3.3635    1.0000 </r>
       <r>    3.3635    1.0000 </r>
       <r>    3.3637    1.0000 </r>
       <r>    4.7538    1.0000 </r>
       <r>    4.7538    1.0000 </r>
       <r>   30.6732    0.0000 </r>
       <r>   30.6732    0.0000 </r>
       <r>   30.6733    0.0000 </r>
       <r>   35.7909    0.0000 </r>
       <r>   35.7909    0.0000 </r>
       <r>   37.9562    0.0000 </r>
      </set>
      <set comment="kpoint 2">
       <r>   -2.5998    1.0000 </r>
       <r>    3.3630    1.0000 </r>
       <r>    3.3632    1.0000 </r>
       <r>    3.3790    1.0000 </r>
       <r>    4.7281    1.0000 </r>
       <r>    4.7641    1.0000 </r>
       <r>   30.2644    0.0000 </r>
       <r>   30.6224    0.0000 </r>
       <r>   30.6224    0.0000 </r>
       <r>   35.1600    0.0000 </r>
       <r>   36.3328    0.0000 </r>
       <r>   36.8378    0.0000 </r>
      </set>
      <set comment="kpoint 3">
       <r>   -2.4293    1.0000 </r>
       <r>    3.3711    1.0000 </r>
       <r>    3.3713    1.0000 </r>
       <r>    3.4277    1.0000 </r>
       <r>    4.6566    1.0000 </r>
       <r>    4.7981    1.0000 </r>
       <r>   29.3676    0.0000 </r>
       <r>   30.4442    0.0000 </r>
       <r>   30.4442    0.0000 </r>
       <r>   33.9536    0.0000 </r>
       <r>   35.9040    0.0000 </r>
       <r>   35.9041    0.0000 </r>
      </set>
      <set comment="kpoint 4">
       <r>   -2.1498    1.0000 </r>
       <r>    3.3713    1.0000 </r>
       <r>    3.3714    1.0000 </r>
       <r>    3.5027    1.0000 </r>
       <r>    4.5298    1.0000 </r>
       <r>    4.8464    1.0000 </r>
       <r>   28.3262    0.0000 </r>
       <r>   29.9901    0.0000 </r>
       <r>   29.9901    0.0000 </r>
       <r>   32.6003    0.0000 </r>
       <r>   35.2875    0.0000 </r>
       <r>   35.2875    0.0000 </r>
      </set>
      <set comment="kpoint 5">
       <r>   -1.7690    1.0000 </r>
       <r>    3.3816    1.0000 </r>
       <r>    3.3817    1.0000 </r>
       <r>    3.6139    1.0000 </r>
       <r>    4.3590    1.0000 </r>
       <r>    4.9128    1.0000 </r>
       <r>   27.3104    0.0000 </r>
       <r>   29.2139    0.0000 </r>
       <r>   29.2139    0.0000 </r>
       <r>   31.2447    0.0000 </r>
       <r>   35.1792    0.0000 </r>
       <r>   35.1792    0.0000 </r>
      </set>
      <set comment="kpoint 6">
       <r>   -1.2992    1.0000 </r>
       <r>    3.4031    1.0000 </r>
       <r>    3.4032    1.0000 </r>
       <r>    3.7411    1.0000 </r>
       <r>    4.1453    1.0000 </r>
       <r>    4.9962    1.0000 </r>
       <r>   26.3633    0.0000 </r>
       <r>   28.1784    0.0000 </r>
       <r>   28.1785    0.0000 </r>
       <r>   29.9486    0.0000 </r>
       <r>   35.4742    0.0000 </r>
       <r>   35.4742    0.0000 </r>
      </set>
      <set comment="kpoint 7">
       <r>   -0.7590    1.0000 </r>
       <r>    3.4438    1.0000 </r>
       <r>    3.4439    1.0000 </r>
       <r>    3.8906    1.0000 </r>
       <r>    3.8964    1.0000 </r>
       <r>    5.1037    1.0000 </r>
       <r>   25.5101    0.0000 </r>
       <r>   27.0056    0.0000 </r>
       <r>   27.0057    0.0000 </r>
       <r>   28.7459    0.0000 </r>
       <r>   36.0690    0.0000 </r>
       <r>   36.0690    0.0000 </r>
      </set>
      <set comment="kpoint 8">
       <r>   -0.1773    1.0000 </r>
       <r>    3.5092    1.0000 </r>
       <r>    3.5093    1.0000 </r>
       <r>    3.6191    1.0000 </r>
       <r>    4.0586    1.0000 </r>
       <r>    5.2500    1.0003 </r>
       <r>   24.7565    0.0000 </r>
       <r>   25.7771    0.0000 </r>
       <r>   25.7771    0.0000 </r>
       <r>   27.6628    0.0000 </r>
       <r>   36.8759    0.0000 </r>
       <r>   36.8759    0.0000 </r>
      </set>
      <set comment="kpoint 9">
       <r>    0.4029    1.0000 </r>
       <r>    3.3213    1.0000 </r>
       <r>    3.6042    1.0000 </r>
       <r>    3.6043    1.0000 </r>
       <r>    4.2407    1.0000 </r>
       <r>    5.4654    1.0175 </r>
       <r>   24.1011    0.0000 </r>
       <r>   24.5387    0.0000 </r>
       <r>   24.5388    0.0000 </r>
       <r>   26.7170    0.0000 </r>
       <r>   37.8423    0.0000 </r>
       <r>   37.8426    0.0000 </r>
      </set>
      <set comment="kpoint 10">
       <r>    0.9226    1.0000 </r>
       <r>    3.0118    1.0000 </r>
       <r>    3.7322    1.0000 </r>
       <r>    3.7323    1.0000 </r>
       <r>    4.4322    1.0000 </r>
       <r>    5.7988    0.5490 </r>
       <r>   23.3173    0.0000 </r>
       <r>   23.3173    0.0000 </r>
       <r>   23.5388    0.0000 </r>
       <r>   25.9177    0.0000 </r>
       <r>   38.9356    0.0000 </r>
       <r>   38.9367    0.0000 </r>
      </set>
      <set comment="kpoint 11">
       <r>    1.3177    1.0000 </r>
       <r>    2.6995    1.0000 </r>
       <r>    3.8961    1.0000 </r>
       <r>    3.8963    1.0000 </r>
       <r>    4.6300    1.0000 </r>
       <r>    6.2980   -0.0015 </r>
       <r>   22.1343    0.0000 </r>
       <r>   22.1343    0.0000 </r>
       <r>   23.0626    0.0000 </r>
       <r>   25.2620    0.0000 </r>
       <r>   40.0448    0.0000 </r>
       <r>   40.1326    0.0000 </r>
      </set>
      <set comment="kpoint 12">
       <r>    1.5508    1.0000 </r>
       <r>    2.3934    1.0000 </r>
       <r>    4.0924    1.0000 </r>
       <r>    4.0925    1.0000 </r>
       <r>    4.8236    1.0000 </r>
       <r>    7.0147   -0.0000 </r>
       <r>   20.9931    0.0000 </r>
       <r>   20.9931    0.0000 </r>
       <r>   22.6646    0.0000 </r>
       <r>   24.7426    0.0000 </r>
       <r>   38.1928    0.0000 </r>
       <r>   40.5273    0.0000 </r>
      </set>
      <set comment="kpoint 13">
       <r>    1.6294    1.0000 </r>
       <r>    2.1020    1.0000 </r>
       <r>    4.3204    1.0000 </r>
       <r>    4.3205    1.0000 </r>
       <r>    5.0106    1.0000 </r>
       <r>    7.9368   -0.0000 </r>
       <r>   19.9139    0.0000 </r>
       <r>   19.9139    0.0000 </r>
       <r>   22.3367    0.0000 </r>
       <r>   24.3382    0.0000 </r>
       <r>   35.9003    0.0000 </r>
       <r>   41.0756    0.0000 </r>
      </set>
      <set comment="kpoint 14">
       <r>    1.5954    1.0000 </r>
       <r>    1.8315    1.0000 </r>
       <r>    4.5711    1.0000 </r>
       <r>    4.5712    1.0000 </r>
       <r>    5.1856    1.0000 </r>
       <r>    9.0327   -0.0000 </r>
       <r>   18.9087    0.0000 </r>
       <r>   18.9087    0.0000 </r>
       <r>   22.0588    0.0000 </r>
       <r>   24.0343    0.0000 </r>
       <r>   33.7164    0.0000 </r>
       <r>   41.6908    0.0000 </r>
      </set>
      <set comment="kpoint 15">
       <r>    1.4886    1.0000 </r>
       <r>    1.5917    1.0000 </r>
       <r>    4.8388    1.0000 </r>
       <r>    4.8389    1.0000 </r>
       <r>    5.3436    1.0024 </r>
       <r>   10.2507   -0.0000 </r>
       <r>   17.9973    0.0000 </r>
       <r>   17.9974    0.0000 </r>
       <r>   21.8450    0.0000 </r>
       <r>   23.7546    0.0000 </r>
       <r>   31.6341    0.0000 </r>
       <r>   42.3616    0.0000 </r>
      </set>
      <set comment="kpoint 16">
       <r>    1.3513    1.0000 </r>
       <r>    1.3872    1.0000 </r>
       <r>    5.1036    1.0000 </r>
       <r>    5.1038    1.0000 </r>
       <r>    5.4799    1.0207 </r>
       <r>   11.5485    0.0000 </r>
       <r>   17.1957    0.0000 </r>
       <r>   17.1957    0.0000 </r>
       <r>   21.6765    0.0000 </r>
       <r>   23.4390    0.0000 </r>
       <r>   29.7569    0.0000 </r>
       <r>   43.0685    0.0000 </r>
      </set>
      <set comment="kpoint 17">
       <r>    1.2159    1.0000 </r>
       <r>    1.2231    1.0000 </r>
       <r>    5.3510    1.0027 </r>
       <r>    5.3512    1.0027 </r>
       <r>    5.5903    1.0326 </r>
       <r>   12.8783    0.0000 </r>
       <r>   16.5307    0.0000 </r>
       <r>   16.5308    0.0000 </r>
       <r>   21.5527    0.0000 </r>
       <r>   23.0163    0.0000 </r>
       <r>   28.2003    0.0000 </r>
       <r>   43.7742    0.0000 </r>
      </set>
      <set comment="kpoint 18">
       <r>    1.1033    1.0000 </r>
       <r>    1.1041    1.0000 </r>
       <r>    5.5549    1.0351 </r>
       <r>    5.5551    1.0351 </r>
       <r>    5.6717    0.9575 </r>
       <r>   14.1487    0.0000 </r>
       <r>   16.0269    0.0000 </r>
       <r>   16.0270    0.0000 </r>
       <r>   21.4672    0.0000 </r>
       <r>   22.4074    0.0000 </r>
       <r>   27.0937    0.0000 </r>
       <r>   44.4126    0.0000 </r>
      </set>
      <set comment="kpoint 19">
       <r>    1.0303    1.0000 </r>
       <r>    1.0311    1.0000 </r>
       <r>    5.6905    0.9198 </r>
       <r>    5.6907    0.9193 </r>
       <r>    5.7215    0.8379 </r>
       <r>   15.1749    0.0000 </r>
       <r>   15.7107    0.0000 </r>
       <r>   15.7108    0.0000 </r>
       <r>   21.4172    0.0000 </r>
       <r>   21.7293    0.0000 </r>
       <r>   26.4862    0.0000 </r>
       <r>   44.8795    0.0000 </r>
      </set>
      <set comment="kpoint 20">
       <r>    1.0058    1.0000 </r>
       <r>    1.0058    1.0000 </r>
       <r>    5.7382    0.7844 </r>
       <r>    5.7382    0.7844 </r>
       <r>    5.7385    0.7833 </r>
       <r>   15.6026    0.0000 </r>
       <r>   15.6028    0.0000 </r>
       <r>   15.6028    0.0000 </r>
       <r>   21.4008    0.0000 </r>
       <r>   21.4008    0.0000 </r>
       <r>   26.3017    0.0000 </r>
       <r>   45.0548    0.0000 </r>
      </set>
      <set comment="kpoint 21">
       <r>    1.0058    1.0000 </r>
       <r>    1.0058    1.0000 </r>
       <r>    5.7382    0.7844 </r>
       <r>    5.7382    0.7844 </r>
       <r>    5.7385    0.7833 </r>
       <r>   15.6026    0.0000 </r>
       <r>   15.6028    0.0000 </r>
       <r>   15.6028    0.0000 </r>
       <r>   21.4008    0.0000 </r>
       <r>   21.4008    0.0000 </r>
       <r>   26.3017    0.0000 </r>
       <r>   45.0548    0.0000 </r>
      </set>
      <set comment="kpoint 22">
       <r>    1.0181    1.0000 </r>
       <r>    1.0184    1.0000 </r>
       <r>    5.7040    0.8870 </r>
       <r>    5.7142    0.8594 </r>
       <r>    5.7402    0.7776 </r>
       <r>   15.4922    0.0000 </r>
       <r>   15.5412    0.0000 </r>
       <r>   15.6568    0.0000 </r>
       <r>   21.4513    0.0000 </r>
       <r>   21.5377    0.0000 </r>
       <r>   26.3913    0.0000 </r>
       <r>   44.9631    0.0000 </r>
      </set>
      <set comment="kpoint 23">
       <r>    1.0545    1.0000 </r>
       <r>    1.0564    1.0000 </r>
       <r>    5.6042    1.0280 </r>
       <r>    5.6429    0.9990 </r>
       <r>    5.7455    0.7591 </r>
       <r>   15.1871    0.0000 </r>
       <r>   15.3706    0.0000 </r>
       <r>   15.8167    0.0000 </r>
       <r>   21.5872    0.0000 </r>
       <r>   21.9223    0.0000 </r>
       <r>   26.6605    0.0000 </r>
       <r>   44.6766    0.0000 </r>
      </set>
      <set comment="kpoint 24">
       <r>    1.1131    1.0000 </r>
       <r>    1.1197    1.0000 </r>
       <r>    5.4461    1.0136 </r>
       <r>    5.5277    1.0313 </r>
       <r>    5.7542    0.7275 </r>
       <r>   14.7437    0.0000 </r>
       <r>   15.1248    0.0000 </r>
       <r>   16.0753    0.0000 </r>
       <r>   21.7727    0.0000 </r>
       <r>   22.4989    0.0000 </r>
       <r>   27.1083    0.0000 </r>
       <r>   44.1752    0.0000 </r>
      </set>
      <set comment="kpoint 25">
       <r>    1.1904    1.0000 </r>
       <r>    1.2082    1.0000 </r>
       <r>    5.2403    1.0002 </r>
       <r>    5.3743    1.0043 </r>
       <r>    5.7661    0.6823 </r>
       <r>   14.2146    0.0000 </r>
       <r>   14.8415    0.0000 </r>
       <r>   16.4225    0.0000 </r>
       <r>   21.9729    0.0000 </r>
       <r>   23.2155    0.0000 </r>
       <r>   27.7268    0.0000 </r>
       <r>   43.4607    0.0000 </r>
      </set>
      <set comment="kpoint 26">
       <r>    1.2812    1.0000 </r>
       <r>    1.3222    1.0000 </r>
       <r>    4.9985    1.0000 </r>
       <r>    5.1913    1.0001 </r>
       <r>    5.7808    0.6235 </r>
       <r>   13.6365    0.0000 </r>
       <r>   14.5513    0.0000 </r>
       <r>   16.8475    0.0000 </r>
       <r>   22.1662    0.0000 </r>
       <r>   24.0364    0.0000 </r>
       <r>   28.4987    0.0000 </r>
       <r>   42.5709    0.0000 </r>
      </set>
      <set comment="kpoint 27">
       <r>    1.3784    1.0000 </r>
       <r>    1.4615    1.0000 </r>
       <r>    4.7325    1.0000 </r>
       <r>    4.9936    1.0000 </r>
       <r>    5.7980    0.5520 </r>
       <r>   13.0329    0.0000 </r>
       <r>   14.2751    0.0000 </r>
       <r>   17.3392    0.0000 </r>
       <r>   22.3505    0.0000 </r>
       <r>   24.9412    0.0000 </r>
       <r>   29.4002    0.0000 </r>
       <r>   41.5611    0.0000 </r>
      </set>
      <set comment="kpoint 28">
       <r>    1.4717    1.0000 </r>
       <r>    1.6258    1.0000 </r>
       <r>    4.4530    1.0000 </r>
       <r>    4.7892    1.0000 </r>
       <r>    5.8173    0.4708 </r>
       <r>   12.4170    0.0000 </r>
       <r>   14.0249    0.0000 </r>
       <r>   17.8881    0.0000 </r>
       <r>   22.5143    0.0000 </r>
       <r>   25.9143    0.0000 </r>
       <r>   30.4015    0.0000 </r>
       <r>   40.4805    0.0000 </r>
      </set>
      <set comment="kpoint 29">
       <r>    1.5487    1.0000 </r>
       <r>    1.8153    1.0000 </r>
       <r>    4.1693    1.0000 </r>
       <r>    4.6004    1.0000 </r>
       <r>    5.8380    0.3843 </r>
       <r>   11.7982    0.0000 </r>
       <r>   13.8065    0.0000 </r>
       <r>   18.4859    0.0000 </r>
       <r>   22.6684    0.0000 </r>
       <r>   26.9498    0.0000 </r>
       <r>   31.4705    0.0000 </r>
       <r>   39.3648    0.0000 </r>
      </set>
      <set comment="kpoint 30">
       <r>    1.5954    1.0000 </r>
       <r>    2.0312    1.0000 </r>
       <r>    3.8920    1.0000 </r>
       <r>    4.4468    1.0000 </r>
       <r>    5.8625    0.2874 </r>
       <r>   11.1860   -0.0000 </r>
       <r>   13.6213    0.0000 </r>
       <r>   19.1288    0.0000 </r>
       <r>   22.8180    0.0000 </r>
       <r>   28.0566    0.0000 </r>
       <r>   32.5665    0.0000 </r>
       <r>   38.2668    0.0000 </r>
      </set>
      <set comment="kpoint 31">
       <r>    1.5993    1.0000 </r>
       <r>    2.2701    1.0000 </r>
       <r>    3.6221    1.0000 </r>
       <r>    4.3449    1.0000 </r>
       <r>    5.8841    0.2102 </r>
       <r>   10.5769   -0.0000 </r>
       <r>   13.4681    0.0000 </r>
       <r>   19.8048    0.0000 </r>
       <r>   22.9662    0.0000 </r>
       <r>   29.2040    0.0000 </r>
       <r>   33.6251    0.0000 </r>
       <r>   37.1411    0.0000 </r>
      </set>
      <set comment="kpoint 32">
       <r>    1.5548    1.0000 </r>
       <r>    2.5309    1.0000 </r>
       <r>    3.3635    1.0000 </r>
       <r>    4.2993    1.0000 </r>
       <r>    5.9052    0.1444 </r>
       <r>    9.9753   -0.0000 </r>
       <r>   13.3412    0.0000 </r>
       <r>   20.5031    0.0000 </r>
       <r>   23.1105    0.0000 </r>
       <r>   30.3834    0.0000 </r>
       <r>   34.5133    0.0000 </r>
       <r>   36.0043    0.0000 </r>
      </set>
      <set comment="kpoint 33">
       <r>    1.4688    1.0000 </r>
       <r>    2.8172    1.0000 </r>
       <r>    3.1328    1.0000 </r>
       <r>    4.3140    1.0000 </r>
       <r>    5.9290    0.0831 </r>
       <r>    9.3899   -0.0000 </r>
       <r>   13.2434    0.0000 </r>
       <r>   21.2388    0.0000 </r>
       <r>   23.2646    0.0000 </r>
       <r>   31.6367    0.0000 </r>
       <r>   34.9453    0.0000 </r>
       <r>   35.0337    0.0000 </r>
      </set>
      <set comment="kpoint 34">
       <r>    1.3534    1.0000 </r>
       <r>    2.9228    1.0000 </r>
       <r>    3.1253    1.0000 </r>
       <r>    4.3715    1.0000 </r>
       <r>    5.9479    0.0446 </r>
       <r>    8.8192   -0.0000 </r>
       <r>   13.1665    0.0000 </r>
       <r>   21.9918    0.0000 </r>
       <r>   23.4173    0.0000 </r>
       <r>   32.9340    0.0000 </r>
       <r>   33.8758    0.0000 </r>
       <r>   35.0115    0.0000 </r>
      </set>
      <set comment="kpoint 35">
       <r>    1.2255    1.0000 </r>
       <r>    2.7371    1.0000 </r>
       <r>    3.4496    1.0000 </r>
       <r>    4.4541    1.0000 </r>
       <r>    5.9632    0.0197 </r>
       <r>    8.2641   -0.0000 </r>
       <r>   13.1046    0.0000 </r>
       <r>   22.7517    0.0000 </r>
       <r>   23.5630    0.0000 </r>
       <r>   32.8171    0.0000 </r>
       <r>   34.2464    0.0000 </r>
       <r>   34.6126    0.0000 </r>
      </set>
      <set comment="kpoint 36">
       <r>    1.1028    1.0000 </r>
       <r>    2.5853    1.0000 </r>
       <r>    3.7963    1.0000 </r>
       <r>    4.5498    1.0000 </r>
       <r>    5.9780    0.0008 </r>
       <r>    7.7360   -0.0000 </r>
       <r>   13.0629    0.0000 </r>
       <r>   23.5275    0.0000 </r>
       <r>   23.7096    0.0000 </r>
       <r>   31.8361    0.0000 </r>
       <r>   34.1105    0.0000 </r>
       <r>   35.6240    0.0000 </r>
      </set>
      <set comment="kpoint 37">
       <r>    0.9960    1.0000 </r>
       <r>    2.4636    1.0000 </r>
       <r>    4.1517    1.0000 </r>
       <r>    4.6308    1.0000 </r>
       <r>    5.9896   -0.0108 </r>
       <r>    7.2352   -0.0000 </r>
       <r>   13.0297    0.0000 </r>
       <r>   23.8370    0.0000 </r>
       <r>   24.2880    0.0000 </r>
       <r>   30.8949    0.0000 </r>
       <r>   33.6316    0.0000 </r>
       <r>   37.0141    0.0000 </r>
      </set>
      <set comment="kpoint 38">
       <r>    0.9142    1.0000 </r>
       <r>    2.3761    1.0000 </r>
       <r>    4.5030    1.0000 </r>
       <r>    4.6982    1.0000 </r>
       <r>    5.9982   -0.0176 </r>
       <r>    6.7798   -0.0000 </r>
       <r>   13.0093    0.0000 </r>
       <r>   23.9404    0.0000 </r>
       <r>   25.0019    0.0000 </r>
       <r>   30.0567    0.0000 </r>
       <r>   33.2531    0.0000 </r>
       <r>   38.3724    0.0000 </r>
      </set>
      <set comment="kpoint 39">
       <r>    0.8640    1.0000 </r>
       <r>    2.3231    1.0000 </r>
       <r>    4.7416    1.0000 </r>
       <r>    4.8088    1.0000 </r>
       <r>    6.0035   -0.0212 </r>
       <r>    6.4134   -0.0001 </r>
       <r>   13.0035    0.0000 </r>
       <r>   24.0081    0.0000 </r>
       <r>   25.5758    0.0000 </r>
       <r>   29.4083    0.0000 </r>
       <r>   33.0252    0.0000 </r>
       <r>   39.5524    0.0000 </r>
      </set>
      <set comment="kpoint 40">
       <r>    0.8466    1.0000 </r>
       <r>    2.3054    1.0000 </r>
       <r>    4.7566    1.0000 </r>
       <r>    4.9481    1.0000 </r>
       <r>    6.0053   -0.0223 </r>
       <r>    6.2532   -0.0038 </r>
       <r>   12.9996    0.0000 </r>
       <r>   24.0316    0.0000 </r>
       <r>   25.8162    0.0000 </r>
       <r>   29.1430    0.0000 </r>
       <r>   32.9424    0.0000 </r>
       <r>   40.0982    0.0000 </r>
      </set>
      <set comment="kpoint 41">
       <r>    0.8466    1.0000 </r>
       <r>    2.3054    1.0000 </r>
       <r>    4.7566    1.0000 </r>
       <r>    4.9481    1.0000 </r>
       <r>    6.0053   -0.0223 </r>
       <r>    6.2532   -0.0038 </r>
       <r>   12.9996    0.0000 </r>
       <r>   24.0316    0.0000 </r>
       <r>   25.8162    0.0000 </r>
       <r>   29.1430    0.0000 </r>
       <r>   32.9424    0.0000 </r>
       <r>   40.0982    0.0000 </r>
      </set>
      <set comment="kpoint 42">
       <r>    0.8563    1.0000 </r>
       <r>    2.3042    1.0000 </r>
       <r>    4.7582    1.0000 </r>
       <r>    4.9484    1.0000 </r>
       <r>    5.7915    0.5794 </r>
       <r>    6.4797   -0.0000 </r>
       <r>   13.0016    0.0000 </r>
       <r>   23.9308    0.0000 </r>
       <r>   25.7000    0.0000 </r>
       <r>   29.2596    0.0000 </r>
       <r>   33.0745    0.0000 </r>
       <r>   40.1127    0.0000 </r>
      </set>
      <set comment="kpoint 43">
       <r>    0.8852    1.0000 </r>
       <r>    2.3004    1.0000 </r>
       <r>    4.7628    1.0000 </r>
       <r>    4.9492    1.0000 </r>
       <r>    5.5012    1.0256 </r>
       <r>    6.8085   -0.0000 </r>
       <r>   13.0076    0.0000 </r>
       <r>   23.6519    0.0000 </r>
       <r>   25.3751    0.0000 </r>
       <r>   29.5862    0.0000 </r>
       <r>   33.4473    0.0000 </r>
       <r>   40.1563    0.0000 </r>
      </set>
      <set comment="kpoint 44">
       <r>    0.9328    1.0000 </r>
       <r>    2.2944    1.0000 </r>
       <r>    4.7703    1.0000 </r>
       <r>    4.9505    1.0000 </r>
       <r>    5.2168    1.0001 </r>
       <r>    7.1570   -0.0000 </r>
       <r>   13.0180    0.0000 </r>
       <r>   23.2450    0.0000 </r>
       <r>   24.8947    0.0000 </r>
       <r>   30.0726    0.0000 </r>
       <r>   34.0071    0.0000 </r>
       <r>   40.2289    0.0000 </r>
      </set>
      <set comment="kpoint 45">
       <r>    0.9983    1.0000 </r>
       <r>    2.2866    1.0000 </r>
       <r>    4.7806    1.0000 </r>
       <r>    4.9438    1.0000 </r>
       <r>    4.9523    1.0000 </r>
       <r>    7.5196   -0.0000 </r>
       <r>   13.0334    0.0000 </r>
       <r>   22.7573    0.0000 </r>
       <r>   24.3131    0.0000 </r>
       <r>   30.6720    0.0000 </r>
       <r>   34.6993    0.0000 </r>
       <r>   40.3302    0.0000 </r>
      </set>
      <set comment="kpoint 46">
       <r>    1.0804    1.0000 </r>
       <r>    2.2775    1.0000 </r>
       <r>    4.6837    1.0000 </r>
       <r>    4.7935    1.0000 </r>
       <r>    4.9545    1.0000 </r>
       <r>    7.8950   -0.0000 </r>
       <r>   13.0546    0.0000 </r>
       <r>   22.2215    0.0000 </r>
       <r>   23.6717    0.0000 </r>
       <r>   31.3517    0.0000 </r>
       <r>   35.4816    0.0000 </r>
       <r>   40.4603    0.0000 </r>
      </set>
      <set comment="kpoint 47">
       <r>    1.1778    1.0000 </r>
       <r>    2.2695    1.0000 </r>
       <r>    4.4369    1.0000 </r>
       <r>    4.8090    1.0000 </r>
       <r>    4.9571    1.0000 </r>
       <r>    8.2825   -0.0000 </r>
       <r>   13.0845    0.0000 </r>
       <r>   21.6665    0.0000 </r>
       <r>   23.0005    0.0000 </r>
       <r>   32.1022    0.0000 </r>
       <r>   36.3282    0.0000 </r>
       <r>   40.6189    0.0000 </r>
      </set>
      <set comment="kpoint 48">
       <r>    1.2878    1.0000 </r>
       <r>    2.2594    1.0000 </r>
       <r>    4.2037    1.0000 </r>
       <r>    4.8259    1.0000 </r>
       <r>    4.9600    1.0000 </r>
       <r>    8.6817   -0.0000 </r>
       <r>   13.1202    0.0000 </r>
       <r>   21.0878    0.0000 </r>
       <r>   22.3153    0.0000 </r>
       <r>   32.8876    0.0000 </r>
       <r>   37.2105    0.0000 </r>
       <r>   40.8058    0.0000 </r>
      </set>
      <set comment="kpoint 49">
       <r>    1.4078    1.0000 </r>
       <r>    2.2465    1.0000 </r>
       <r>    3.9831    1.0000 </r>
       <r>    4.8436    1.0000 </r>
       <r>    4.9614    1.0000 </r>
       <r>    9.0898   -0.0000 </r>
       <r>   13.1640    0.0000 </r>
       <r>   20.4932    0.0000 </r>
       <r>   21.6312    0.0000 </r>
       <r>   33.6809    0.0000 </r>
       <r>   38.1097    0.0000 </r>
       <r>   41.0194    0.0000 </r>
      </set>
      <set comment="kpoint 50">
       <r>    1.5361    1.0000 </r>
       <r>    2.2387    1.0000 </r>
       <r>    3.7775    1.0000 </r>
       <r>    4.8628    1.0000 </r>
       <r>    4.9645    1.0000 </r>
       <r>    9.5113   -0.0000 </r>
       <r>   13.2201    0.0000 </r>
       <r>   19.9038    0.0000 </r>
       <r>   20.9577    0.0000 </r>
       <r>   34.5424    0.0000 </r>
       <r>   39.0278    0.0000 </r>
       <r>   41.2615    0.0000 </r>
      </set>
      <set comment="kpoint 51">
       <r>    1.6692    1.0000 </r>
       <r>    2.2336    1.0000 </r>
       <r>    3.5859    1.0000 </r>
       <r>    4.8824    1.0000 </r>
       <r>    4.9676    1.0000 </r>
       <r>    9.9436   -0.0000 </r>
       <r>   13.2889    0.0000 </r>
       <r>   19.3153    0.0000 </r>
       <r>   20.3021    0.0000 </r>
       <r>   35.4369    0.0000 </r>
       <r>   39.9457    0.0000 </r>
       <r>   41.5308    0.0000 </r>
      </set>
      <set comment="kpoint 52">
       <r>    1.8031    1.0000 </r>
       <r>    2.2323    1.0000 </r>
       <r>    3.4079    1.0000 </r>
       <r>    4.8973    1.0000 </r>
       <r>    4.9707    1.0000 </r>
       <r>   10.3859   -0.0000 </r>
       <r>   13.3711    0.0000 </r>
       <r>   18.7301    0.0000 </r>
       <r>   19.6704    0.0000 </r>
       <r>   36.3622    0.0000 </r>
       <r>   40.8073    0.0000 </r>
       <r>   41.8263    0.0000 </r>
      </set>
      <set comment="kpoint 53">
       <r>    1.9350    1.0000 </r>
       <r>    2.2358    1.0000 </r>
       <r>    3.2441    1.0000 </r>
       <r>    4.9152    1.0000 </r>
       <r>    4.9738    1.0000 </r>
       <r>   10.8393   -0.0000 </r>
       <r>   13.4697    0.0000 </r>
       <r>   18.1496    0.0000 </r>
       <r>   19.0690    0.0000 </r>
       <r>   37.3168    0.0000 </r>
       <r>   41.6801    0.0000 </r>
       <r>   42.1482    0.0000 </r>
      </set>
      <set comment="kpoint 54">
       <r>    2.0605    1.0000 </r>
       <r>    2.2449    1.0000 </r>
       <r>    3.0941    1.0000 </r>
       <r>    4.9318    1.0000 </r>
       <r>    4.9766    1.0000 </r>
       <r>   11.3030    0.0000 </r>
       <r>   13.5845    0.0000 </r>
       <r>   17.5749    0.0000 </r>
       <r>   18.5033    0.0000 </r>
       <r>   38.2995    0.0000 </r>
       <r>   42.4953    0.0000 </r>
       <r>   42.5085    0.0000 </r>
      </set>
      <set comment="kpoint 55">
       <r>    2.1769    1.0000 </r>
       <r>    2.2621    1.0000 </r>
       <r>    2.9593    1.0000 </r>
       <r>    4.9489    1.0000 </r>
       <r>    4.9857    1.0000 </r>
       <r>   11.7794    0.0000 </r>
       <r>   13.7194    0.0000 </r>
       <r>   17.0132    0.0000 </r>
       <r>   17.9810    0.0000 </r>
       <r>   39.3204    0.0000 </r>
       <r>   42.8670    0.0000 </r>
       <r>   43.2820    0.0000 </r>
      </set>
      <set comment="kpoint 56">
       <r>    2.2777    1.0000 </r>
       <r>    2.2854    1.0000 </r>
       <r>    2.8363    1.0000 </r>
       <r>    4.9615    1.0000 </r>
       <r>    4.9875    1.0000 </r>
       <r>   12.2633    0.0000 </r>
       <r>   13.8624    0.0000 </r>
       <r>   16.4520    0.0000 </r>
       <r>   17.5078    0.0000 </r>
       <r>   40.3545    0.0000 </r>
       <r>   43.2618    0.0000 </r>
       <r>   43.9560    0.0000 </r>
      </set>
      <set comment="kpoint 57">
       <r>    2.3172    1.0000 </r>
       <r>    2.3605    1.0000 </r>
       <r>    2.7265    1.0000 </r>
       <r>    4.9718    1.0000 </r>
       <r>    4.9890    1.0000 </r>
       <r>   12.7569    0.0000 </r>
       <r>   14.0110    0.0000 </r>
       <r>   15.8985    0.0000 </r>
       <r>   17.0971    0.0000 </r>
       <r>   41.4123    0.0000 </r>
       <r>   43.6777    0.0000 </r>
       <r>   44.5230    0.0000 </r>
      </set>
      <set comment="kpoint 58">
       <r>    2.3617    1.0000 </r>
       <r>    2.4230    1.0000 </r>
       <r>    2.6318    1.0000 </r>
       <r>    4.9866    1.0000 </r>
       <r>    4.9911    1.0000 </r>
       <r>   13.2660    0.0000 </r>
       <r>   14.1541    0.0000 </r>
       <r>   15.3690    0.0000 </r>
       <r>   16.7681    0.0000 </r>
       <r>   42.4954    0.0000 </r>
       <r>   44.1190    0.0000 </r>
       <r>   44.5926    0.0000 </r>
      </set>
      <set comment="kpoint 59">
       <r>    2.4123    1.0000 </r>
       <r>    2.4610    1.0000 </r>
       <r>    2.5468    1.0000 </r>
       <r>    4.9906    1.0000 </r>
       <r>    4.9917    1.0000 </r>
       <r>   13.7781    0.0000 </r>
       <r>   14.2592    0.0000 </r>
       <r>   14.8298    0.0000 </r>
       <r>   16.5473    0.0000 </r>
       <r>   43.5832    0.0000 </r>
       <r>   44.5534    0.0000 </r>
       <r>   44.7370    0.0000 </r>
      </set>
      <set comment="kpoint 60">
       <r>    2.4738    1.0000 </r>
       <r>    2.4738    1.0000 </r>
       <r>    2.4739    1.0000 </r>
       <r>    4.9919    1.0000 </r>
       <r>    4.9919    1.0000 </r>
       <r>   14.2994    0.0000 </r>
       <r>   14.2994    0.0000 </r>
       <r>   14.2996    0.0000 </r>
       <r>   16.4682    0.0000 </r>
       <r>   44.5830    0.0000 </r>
       <r>   44.5864    0.0000 </r>
       <r>   44.6730    0.0000 </r>
      </set>
      <set comment="kpoint 61">
       <r>    2.4738    1.0000 </r>
       <r>    2.4738    1.0000 </r>
       <r>    2.4739    1.0000 </r>
       <r>    4.9919    1.0000 </r>
       <r>    4.9919    1.0000 </r>
       <r>   14.2994    0.0000 </r>
       <r>   14.2994    0.0000 </r>
       <r>   14.2996    0.0000 </r>
       <r>   16.4682    0.0000 </r>
       <r>   44.5826    0.0000 </r>
       <r>   44.5836    0.0000 </r>
       <r>   44.6653    0.0000 </r>
      </set>
      <set comment="kpoint 62">
       <r>    2.4107    1.0000 </r>
       <r>    2.4107    1.0000 </r>
       <r>    2.5942    1.0000 </r>
       <r>    4.9895    1.0000 </r>
       <r>    4.9895    1.0000 </r>
       <r>   13.1556    0.0000 </r>
       <r>   14.8573    0.0000 </r>
       <r>   14.8573    0.0000 </r>
       <r>   16.6416    0.0000 </r>
       <r>   43.1607    0.0000 </r>
       <r>   44.1177    0.0000 </r>
       <r>   44.1220    0.0000 </r>
      </set>
      <set comment="kpoint 63">
       <r>    2.3587    1.0000 </r>
       <r>    2.3587    1.0000 </r>
       <r>    2.6679    1.0000 </r>
       <r>    4.9760    1.0000 </r>
       <r>    4.9760    1.0000 </r>
       <r>   11.9712    0.0000 </r>
       <r>   15.4720    0.0000 </r>
       <r>   15.4720    0.0000 </r>
       <r>   17.0247    0.0000 </r>
       <r>   41.8134    0.0000 </r>
       <r>   43.3110    0.0000 </r>
       <r>   43.3114    0.0000 </r>
      </set>
      <set comment="kpoint 64">
       <r>    2.3222    1.0000 </r>
       <r>    2.3222    1.0000 </r>
       <r>    2.6785    1.0000 </r>
       <r>    4.9616    1.0000 </r>
       <r>    4.9616    1.0000 </r>
       <r>   10.8422   -0.0000 </r>
       <r>   16.1377    0.0000 </r>
       <r>   16.1377    0.0000 </r>
       <r>   17.5505    0.0000 </r>
       <r>   40.5435    0.0000 </r>
       <r>   42.5229    0.0000 </r>
       <r>   42.5230    0.0000 </r>
      </set>
      <set comment="kpoint 65">
       <r>    2.3080    1.0000 </r>
       <r>    2.3080    1.0000 </r>
       <r>    2.6053    1.0000 </r>
       <r>    4.9416    1.0000 </r>
       <r>    4.9416    1.0000 </r>
       <r>    9.7916   -0.0000 </r>
       <r>   16.8660    0.0000 </r>
       <r>   16.8660    0.0000 </r>
       <r>   18.2067    0.0000 </r>
       <r>   39.3500    0.0000 </r>
       <r>   41.7920    0.0000 </r>
       <r>   41.7920    0.0000 </r>
      </set>
      <set comment="kpoint 66">
       <r>    2.3168    1.0000 </r>
       <r>    2.3168    1.0000 </r>
       <r>    2.4354    1.0000 </r>
       <r>    4.9162    1.0000 </r>
       <r>    4.9162    1.0000 </r>
       <r>    8.8332   -0.0000 </r>
       <r>   17.6474    0.0000 </r>
       <r>   17.6474    0.0000 </r>
       <r>   18.9905    0.0000 </r>
       <r>   38.2332    0.0000 </r>
       <r>   41.1197    0.0000 </r>
       <r>   41.1198    0.0000 </r>
      </set>
      <set comment="kpoint 67">
       <r>    2.1628    1.0000 </r>
       <r>    2.3471    1.0000 </r>
       <r>    2.3471    1.0000 </r>
       <r>    4.8775    1.0000 </r>
       <r>    4.8775    1.0000 </r>
       <r>    7.9663   -0.0000 </r>
       <r>   18.4698    0.0000 </r>
       <r>   18.4698    0.0000 </r>
       <r>   19.8982    0.0000 </r>
       <r>   37.1910    0.0000 </r>
       <r>   40.4433    0.0000 </r>
       <r>   40.4433    0.0000 </r>
      </set>
      <set comment="kpoint 68">
       <r>    1.7969    1.0000 </r>
       <r>    2.4058    1.0000 </r>
       <r>    2.4058    1.0000 </r>
       <r>    4.8454    1.0000 </r>
       <r>    4.8454    1.0000 </r>
       <r>    7.2107   -0.0000 </r>
       <r>   19.3619    0.0000 </r>
       <r>   19.3619    0.0000 </r>
       <r>   20.9245    0.0000 </r>
       <r>   36.2277    0.0000 </r>
       <r>   39.8961    0.0000 </r>
       <r>   39.8961    0.0000 </r>
      </set>
      <set comment="kpoint 69">
       <r>    1.3515    1.0000 </r>
       <r>    2.4837    1.0000 </r>
       <r>    2.4837    1.0000 </r>
       <r>    4.8082    1.0000 </r>
       <r>    4.8082    1.0000 </r>
       <r>    6.5477   -0.0000 </r>
       <r>   20.2957    0.0000 </r>
       <r>   20.2957    0.0000 </r>
       <r>   22.0607    0.0000 </r>
       <r>   35.3413    0.0000 </r>
       <r>   39.3961    0.0000 </r>
       <r>   39.3961    0.0000 </r>
      </set>
      <set comment="kpoint 70">
       <r>    0.8505    1.0000 </r>
       <r>    2.5804    1.0000 </r>
       <r>    2.5804    1.0000 </r>
       <r>    4.7714    1.0000 </r>
       <r>    4.7714    1.0000 </r>
       <r>    5.9703    0.0100 </r>
       <r>   21.2784    0.0000 </r>
       <r>   21.2784    0.0000 </r>
       <r>   23.2968    0.0000 </r>
       <r>   34.5318    0.0000 </r>
       <r>   38.9520    0.0000 </r>
       <r>   38.9520    0.0000 </r>
      </set>
      <set comment="kpoint 71">
       <r>    0.3205    1.0000 </r>
       <r>    2.6913    1.0000 </r>
       <r>    2.6913    1.0000 </r>
       <r>    4.7373    1.0000 </r>
       <r>    4.7373    1.0000 </r>
       <r>    5.4667    1.0178 </r>
       <r>   22.3077    0.0000 </r>
       <r>   22.3077    0.0000 </r>
       <r>   24.6213    0.0000 </r>
       <r>   33.7993    0.0000 </r>
       <r>   38.5565    0.0000 </r>
       <r>   38.5566    0.0000 </r>
      </set>
      <set comment="kpoint 72">
       <r>   -0.2124    1.0000 </r>
       <r>    2.8105    1.0000 </r>
       <r>    2.8105    1.0000 </r>
       <r>    4.7122    1.0000 </r>
       <r>    4.7122    1.0000 </r>
       <r>    5.0266    1.0000 </r>
       <r>   23.3829    0.0000 </r>
       <r>   23.3829    0.0000 </r>
       <r>   26.0225    0.0000 </r>
       <r>   33.1438    0.0000 </r>
       <r>   38.2028    0.0000 </r>
       <r>   38.2028    0.0000 </r>
      </set>
      <set comment="kpoint 73">
       <r>   -0.7260    1.0000 </r>
       <r>    2.9309    1.0000 </r>
       <r>    2.9309    1.0000 </r>
       <r>    4.6398    1.0000 </r>
       <r>    4.6916    1.0000 </r>
       <r>    4.6916    1.0000 </r>
       <r>   24.4933    0.0000 </r>
       <r>   24.4933    0.0000 </r>
       <r>   27.4834    0.0000 </r>
       <r>   32.5653    0.0000 </r>
       <r>   37.8115    0.0000 </r>
       <r>   37.8125    0.0000 </r>
      </set>
      <set comment="kpoint 74">
       <r>   -1.2020    1.0000 </r>
       <r>    3.0452    1.0000 </r>
       <r>    3.0452    1.0000 </r>
       <r>    4.3064    1.0000 </r>
       <r>    4.6819    1.0000 </r>
       <r>    4.6819    1.0000 </r>
       <r>   25.6315    0.0000 </r>
       <r>   25.6315    0.0000 </r>
       <r>   28.9975    0.0000 </r>
       <r>   32.0639    0.0000 </r>
       <r>   37.2777    0.0000 </r>
       <r>   37.2813    0.0000 </r>
      </set>
      <set comment="kpoint 75">
       <r>   -1.6259    1.0000 </r>
       <r>    3.1469    1.0000 </r>
       <r>    3.1469    1.0000 </r>
       <r>    4.0231    1.0000 </r>
       <r>    4.6841    1.0000 </r>
       <r>    4.6841    1.0000 </r>
       <r>   26.7803    0.0000 </r>
       <r>   26.7803    0.0000 </r>
       <r>   30.5485    0.0000 </r>
       <r>   31.6397    0.0000 </r>
       <r>   36.6860    0.0000 </r>
       <r>   36.6860    0.0000 </r>
      </set>
      <set comment="kpoint 76">
       <r>   -1.9865    1.0000 </r>
       <r>    3.2310    1.0000 </r>
       <r>    3.2310    1.0000 </r>
       <r>    3.7899    1.0000 </r>
       <r>    4.6971    1.0000 </r>
       <r>    4.6971    1.0000 </r>
       <r>   27.9098    0.0000 </r>
       <r>   27.9098    0.0000 </r>
       <r>   31.2925    0.0000 </r>
       <r>   32.1215    0.0000 </r>
       <r>   36.1895    0.0000 </r>
       <r>   36.1896    0.0000 </r>
      </set>
      <set comment="kpoint 77">
       <r>   -2.2753    1.0000 </r>
       <r>    3.2914    1.0000 </r>
       <r>    3.2914    1.0000 </r>
       <r>    3.6060    1.0000 </r>
       <r>    4.7149    1.0000 </r>
       <r>    4.7149    1.0000 </r>
       <r>   28.9592    0.0000 </r>
       <r>   28.9592    0.0000 </r>
       <r>   31.0207    0.0000 </r>
       <r>   33.6933    0.0000 </r>
       <r>   35.8495    0.0000 </r>
       <r>   35.8496    0.0000 </r>
      </set>
      <set comment="kpoint 78">
       <r>   -2.4860    1.0000 </r>
       <r>    3.3354    1.0000 </r>
       <r>    3.3354    1.0000 </r>
       <r>    3.4754    1.0000 </r>
       <r>    4.7361    1.0000 </r>
       <r>    4.7361    1.0000 </r>
       <r>   29.8551    0.0000 </r>
       <r>   29.8551    0.0000 </r>
       <r>   30.8278    0.0000 </r>
       <r>   35.2545    0.0000 </r>
       <r>   35.7119    0.0000 </r>
       <r>   35.7119    0.0000 </r>
      </set>
      <set comment="kpoint 79">
       <r>   -2.6142    1.0000 </r>
       <r>    3.3555    1.0000 </r>
       <r>    3.3555    1.0000 </r>
       <r>    3.3903    1.0000 </r>
       <r>    4.7482    1.0000 </r>
       <r>    4.7482    1.0000 </r>
       <r>   30.4528    0.0000 </r>
       <r>   30.4528    0.0000 </r>
       <r>   30.7119    0.0000 </r>
       <r>   35.7359    0.0000 </r>
       <r>   35.7359    0.0000 </r>
       <r>   36.6910    0.0000 </r>
      </set>
      <set comment="kpoint 80">
       <r>   -2.6571    1.0000 </r>
       <r>    3.3635    1.0000 </r>
       <r>    3.3635    1.0000 </r>
       <r>    3.3637    1.0000 </r>
       <r>    4.7538    1.0000 </r>
       <r>    4.7538    1.0000 </r>
       <r>   30.6732    0.0000 </r>
       <r>   30.6732    0.0000 </r>
       <r>   30.6733    0.0000 </r>
       <r>   35.7909    0.0000 </r>
       <r>   35.7909    0.0000 </r>
       <r>   37.9560    0.0000 </r>
      </set>
      <set comment="kpoint 81">
       <r>   -2.6571    1.0000 </r>
       <r>    3.3635    1.0000 </r>
       <r>    3.3635    1.0000 </r>
       <r>    3.3637    1.0000 </r>
       <r>    4.7538    1.0000 </r>
       <r>    4.7538    1.0000 </r>
       <r>   30.6732    0.0000 </r>
       <r>   30.6732    0.0000 </r>
       <r>   30.6733    0.0000 </r>
       <r>   35.7909    0.0000 </r>
       <r>   35.7909    0.0000 </r>
       <r>   37.9563    0.0000 </r>
      </set>
      <set comment="kpoint 82">
       <r>   -2.6285    1.0000 </r>
       <r>    3.3557    1.0000 </r>
       <r>    3.3632    1.0000 </r>
       <r>    3.3789    1.0000 </r>
       <r>    4.7455    1.0000 </r>
       <r>    4.7545    1.0000 </r>
       <r>   30.4662    0.0000 </r>
       <r>   30.6351    0.0000 </r>
       <r>   30.6503    0.0000 </r>
       <r>   35.6004    0.0000 </r>
       <r>   35.9024    0.0000 </r>
       <r>   37.1411    0.0000 </r>
      </set>
      <set comment="kpoint 83">
       <r>   -2.5428    1.0000 </r>
       <r>    3.3336    1.0000 </r>
       <r>    3.3664    1.0000 </r>
       <r>    3.4290    1.0000 </r>
       <r>    4.7232    1.0000 </r>
       <r>    4.7596    1.0000 </r>
       <r>   29.9111    0.0000 </r>
       <r>   30.5136    0.0000 </r>
       <r>   30.5873    0.0000 </r>
       <r>   35.2365    0.0000 </r>
       <r>   36.0215    0.0000 </r>
       <r>   36.2374    0.0000 </r>
      </set>
      <set comment="kpoint 84">
       <r>   -2.4013    1.0000 </r>
       <r>    3.2962    1.0000 </r>
       <r>    3.3618    1.0000 </r>
       <r>    3.5077    1.0000 </r>
       <r>    4.6887    1.0000 </r>
       <r>    4.7627    1.0000 </r>
       <r>   29.0900    0.0000 </r>
       <r>   30.2841    0.0000 </r>
       <r>   30.4891    0.0000 </r>
       <r>   34.9126    0.0000 </r>
       <r>   35.3275    0.0000 </r>
       <r>   35.5085    0.0000 </r>
      </set>
      <set comment="kpoint 85">
       <r>   -2.2060    1.0000 </r>
       <r>    3.2482    1.0000 </r>
       <r>    3.3536    1.0000 </r>
       <r>    3.6106    1.0000 </r>
       <r>    4.6456    1.0000 </r>
       <r>    4.7701    1.0000 </r>
       <r>   28.0943    0.0000 </r>
       <r>   29.9368    0.0000 </r>
       <r>   30.3789    0.0000 </r>
       <r>   34.3980    0.0000 </r>
       <r>   34.7522    0.0000 </r>
       <r>   34.9218    0.0000 </r>
      </set>
      <set comment="kpoint 86">
       <r>   -1.9601    1.0000 </r>
       <r>    3.1851    1.0000 </r>
       <r>    3.3385    1.0000 </r>
       <r>    3.7389    1.0000 </r>
       <r>    4.6024    1.0000 </r>
       <r>    4.7762    1.0000 </r>
       <r>   26.9833    0.0000 </r>
       <r>   29.4770    0.0000 </r>
       <r>   30.2434    0.0000 </r>
       <r>   33.4809    0.0000 </r>
       <r>   34.4182    0.0000 </r>
       <r>   34.7681    0.0000 </r>
      </set>
      <set comment="kpoint 87">
       <r>   -1.6681    1.0000 </r>
       <r>    3.1125    1.0000 </r>
       <r>    3.3171    1.0000 </r>
       <r>    3.8916    1.0000 </r>
       <r>    4.5658    1.0000 </r>
       <r>    4.7844    1.0000 </r>
       <r>   25.8009    0.0000 </r>
       <r>   28.9401    0.0000 </r>
       <r>   30.1021    0.0000 </r>
       <r>   32.5913    0.0000 </r>
       <r>   34.0050    0.0000 </r>
       <r>   34.9524    0.0000 </r>
      </set>
      <set comment="kpoint 88">
       <r>   -1.3366    1.0000 </r>
       <r>    3.0378    1.0000 </r>
       <r>    3.2948    1.0000 </r>
       <r>    4.0668    1.0000 </r>
       <r>    4.5463    1.0000 </r>
       <r>    4.7973    1.0000 </r>
       <r>   24.5869    0.0000 </r>
       <r>   28.3662    0.0000 </r>
       <r>   29.9989    0.0000 </r>
       <r>   31.7406    0.0000 </r>
       <r>   33.6887    0.0000 </r>
       <r>   35.2811    0.0000 </r>
      </set>
      <set comment="kpoint 89">
       <r>   -0.9754    1.0000 </r>
       <r>    2.9522    1.0000 </r>
       <r>    3.2729    1.0000 </r>
       <r>    4.2587    1.0000 </r>
       <r>    4.5371    1.0000 </r>
       <r>    4.8099    1.0000 </r>
       <r>   23.3423    0.0000 </r>
       <r>   27.7779    0.0000 </r>
       <r>   29.8670    0.0000 </r>
       <r>   30.9165    0.0000 </r>
       <r>   33.4284    0.0000 </r>
       <r>   35.7207    0.0000 </r>
      </set>
      <set comment="kpoint 90">
       <r>   -0.5987    1.0000 </r>
       <r>    2.8642    1.0000 </r>
       <r>    3.2693    1.0000 </r>
       <r>    4.4644    1.0000 </r>
       <r>    4.5419    1.0000 </r>
       <r>    4.8197    1.0000 </r>
       <r>   22.0941    0.0000 </r>
       <r>   27.1953    0.0000 </r>
       <r>   29.7432    0.0000 </r>
       <r>   30.1323    0.0000 </r>
       <r>   33.2249    0.0000 </r>
       <r>   36.2573    0.0000 </r>
      </set>
      <set comment="kpoint 91">
       <r>   -0.2264    1.0000 </r>
       <r>    2.7761    1.0000 </r>
       <r>    3.3053    1.0000 </r>
       <r>    4.5617    1.0000 </r>
       <r>    4.6789    1.0000 </r>
       <r>    4.8352    1.0000 </r>
       <r>   20.8568    0.0000 </r>
       <r>   26.6440    0.0000 </r>
       <r>   29.3930    0.0000 </r>
       <r>   29.6296    0.0000 </r>
       <r>   33.0808    0.0000 </r>
       <r>   36.8776    0.0000 </r>
      </set>
      <set comment="kpoint 92">
       <r>    0.1150    1.0000 </r>
       <r>    2.6903    1.0000 </r>
       <r>    3.4087    1.0000 </r>
       <r>    4.5929    1.0000 </r>
       <r>    4.8522    1.0000 </r>
       <r>    4.9000    1.0000 </r>
       <r>   19.6454    0.0000 </r>
       <r>   26.1297    0.0000 </r>
       <r>   28.7096    0.0000 </r>
       <r>   29.5275    0.0000 </r>
       <r>   32.9829    0.0000 </r>
       <r>   37.5716    0.0000 </r>
      </set>
      <set comment="kpoint 93">
       <r>    0.3973    1.0000 </r>
       <r>    2.6090    1.0000 </r>
       <r>    3.6043    1.0000 </r>
       <r>    4.6323    1.0000 </r>
       <r>    4.8700    1.0000 </r>
       <r>    5.1148    1.0000 </r>
       <r>   18.4623    0.0000 </r>
       <r>   25.6605    0.0000 </r>
       <r>   28.0767    0.0000 </r>
       <r>   29.4375    0.0000 </r>
       <r>   32.9235    0.0000 </r>
       <r>   38.3317    0.0000 </r>
      </set>
      <set comment="kpoint 94">
       <r>    0.6019    1.0000 </r>
       <r>    2.5342    1.0000 </r>
       <r>    3.9021    1.0000 </r>
       <r>    4.6805    1.0000 </r>
       <r>    4.8881    1.0000 </r>
       <r>    5.3209    1.0015 </r>
       <r>   17.3201    0.0000 </r>
       <r>   25.2426    0.0000 </r>
       <r>   27.5082    0.0000 </r>
       <r>   29.3600    0.0000 </r>
       <r>   32.8908    0.0000 </r>
       <r>   39.1519    0.0000 </r>
      </set>
      <set comment="kpoint 95">
       <r>    0.7306    1.0000 </r>
       <r>    2.4678    1.0000 </r>
       <r>    4.2785    1.0000 </r>
       <r>    4.7524    1.0000 </r>
       <r>    4.9057    1.0000 </r>
       <r>    5.5113    1.0279 </r>
       <r>   16.2427    0.0000 </r>
       <r>   24.8810    0.0000 </r>
       <r>   27.0109    0.0000 </r>
       <r>   29.2950    0.0000 </r>
       <r>   32.8838    0.0000 </r>
       <r>   40.0256    0.0000 </r>
      </set>
      <set comment="kpoint 96">
       <r>    0.7999    1.0000 </r>
       <r>    2.4109    1.0000 </r>
       <r>    4.5867    1.0000 </r>
       <r>    4.9154    1.0000 </r>
       <r>    4.9560    1.0000 </r>
       <r>    5.6774    0.9469 </r>
       <r>   15.2451    0.0000 </r>
       <r>   24.5784    0.0000 </r>
       <r>   26.5911    0.0000 </r>
       <r>   29.2372    0.0000 </r>
       <r>   32.8807    0.0000 </r>
       <r>   40.1979    0.0000 </r>
      </set>
      <set comment="kpoint 97">
       <r>    0.8316    1.0000 </r>
       <r>    2.3655    1.0000 </r>
       <r>    4.6908    1.0000 </r>
       <r>    4.9280    1.0000 </r>
       <r>    5.3782    1.0046 </r>
       <r>    5.8159    0.4767 </r>
       <r>   14.3645    0.0000 </r>
       <r>   24.3411    0.0000 </r>
       <r>   26.2571    0.0000 </r>
       <r>   29.1958    0.0000 </r>
       <r>   32.8953    0.0000 </r>
       <r>   40.1646    0.0000 </r>
      </set>
      <set comment="kpoint 98">
       <r>    0.8428    1.0000 </r>
       <r>    2.3324    1.0000 </r>
       <r>    4.7307    1.0000 </r>
       <r>    4.9377    1.0000 </r>
       <r>    5.8124    0.4915 </r>
       <r>    5.9194    0.1060 </r>
       <r>   13.6481    0.0000 </r>
       <r>   24.1697    0.0000 </r>
       <r>   26.0138    0.0000 </r>
       <r>   29.1664    0.0000 </r>
       <r>   32.9116    0.0000 </r>
       <r>   40.1311    0.0000 </r>
      </set>
      <set comment="kpoint 99">
       <r>    0.8454    1.0000 </r>
       <r>    2.3122    1.0000 </r>
       <r>    4.7504    1.0000 </r>
       <r>    4.9439    1.0000 </r>
       <r>    5.9835   -0.0050 </r>
       <r>    6.1334   -0.0224 </r>
       <r>   13.1663    0.0000 </r>
       <r>   24.0662    0.0000 </r>
       <r>   25.8659    0.0000 </r>
       <r>   29.1488    0.0000 </r>
       <r>   32.9242    0.0000 </r>
       <r>   40.1069    0.0000 </r>
      </set>
      <set comment="kpoint 100">
       <r>    0.8466    1.0000 </r>
       <r>    2.3054    1.0000 </r>
       <r>    4.7566    1.0000 </r>
       <r>    4.9481    1.0000 </r>
       <r>    6.0053   -0.0223 </r>
       <r>    6.2532   -0.0038 </r>
       <r>   12.9996    0.0000 </r>
       <r>   24.0316    0.0000 </r>
       <r>   25.8162    0.0000 </r>
       <r>   29.1430    0.0000 </r>
       <r>   32.9424    0.0000 </r>
       <r>   40.0982    0.0000 </r>
      </set>
     </set>
     <set comment="spin 2">
      <set comment="kpoint 1">
       <r>   -2.4619    1.0000 </r>
       <r>    5.5179    1.0293 </r>
       <r>    5.5179    1.0293 </r>
       <r>    5.5182    1.0294 </r>
       <r>    7.4341   -0.0000 </r>
       <r>    7.4341   -0.0000 </r>
       <r>   30.4337    0.0000 </r>
       <r>   30.4337    0.0000 </r>
       <r>   30.4337    0.0000 </r>
       <r>   35.9213    0.0000 </r>
       <r>   35.9213    0.0000 </r>
       <r>   38.7642    0.0000 </r>
      </set>
      <set comment="kpoint 2">
       <r>   -2.4044    1.0000 </r>
       <r>    5.5151    1.0287 </r>
       <r>    5.5153    1.0287 </r>
       <r>    5.5354    1.0327 </r>
       <r>    7.4010   -0.0000 </r>
       <r>    7.4469   -0.0000 </r>
       <r>   30.0726    0.0000 </r>
       <r>   30.4114    0.0000 </r>
       <r>   30.4114    0.0000 </r>
       <r>   35.4219    0.0000 </r>
       <r>   36.4235    0.0000 </r>
       <r>   37.7884    0.0000 </r>
      </set>
      <set comment="kpoint 3">
       <r>   -2.2329    1.0000 </r>
       <r>    5.5142    1.0285 </r>
       <r>    5.5143    1.0285 </r>
       <r>    5.5887    1.0330 </r>
       <r>    7.3069   -0.0000 </r>
       <r>    7.4881   -0.0000 </r>
       <r>   29.2598    0.0000 </r>
       <r>   30.3246    0.0000 </r>
       <r>   30.3246    0.0000 </r>
       <r>   34.3320    0.0000 </r>
       <r>   36.7998    0.0000 </r>
       <r>   36.7999    0.0000 </r>
      </set>
      <set comment="kpoint 4">
       <r>   -1.9511    1.0000 </r>
       <r>    5.5041    1.0262 </r>
       <r>    5.5043    1.0263 </r>
       <r>    5.6732    0.9548 </r>
       <r>    7.1447   -0.0000 </r>
       <r>    7.5464   -0.0000 </r>
       <r>   28.3030    0.0000 </r>
       <r>   30.0486    0.0000 </r>
       <r>   30.0486    0.0000 </r>
       <r>   33.0286    0.0000 </r>
       <r>   36.0495    0.0000 </r>
       <r>   36.0496    0.0000 </r>
      </set>
      <set comment="kpoint 5">
       <r>   -1.5652    1.0000 </r>
       <r>    5.5012    1.0256 </r>
       <r>    5.5013    1.0256 </r>
       <r>    5.7956    0.5624 </r>
       <r>    6.9259   -0.0000 </r>
       <r>    7.6224   -0.0000 </r>
       <r>   27.3692    0.0000 </r>
       <r>   29.4912    0.0000 </r>
       <r>   29.4912    0.0000 </r>
       <r>   31.6874    0.0000 </r>
       <r>   35.7675    0.0000 </r>
       <r>   35.7675    0.0000 </r>
      </set>
      <set comment="kpoint 6">
       <r>   -1.0845    1.0000 </r>
       <r>    5.5094    1.0274 </r>
       <r>    5.5095    1.0275 </r>
       <r>    5.9390    0.0615 </r>
       <r>    6.6536   -0.0000 </r>
       <r>    7.7101   -0.0000 </r>
       <r>   26.5059    0.0000 </r>
       <r>   28.6420    0.0000 </r>
       <r>   28.6420    0.0000 </r>
       <r>   30.3912    0.0000 </r>
       <r>   35.9241    0.0000 </r>
       <r>   35.9241    0.0000 </r>
      </set>
      <set comment="kpoint 7">
       <r>   -0.5224    1.0000 </r>
       <r>    5.5377    1.0330 </r>
       <r>    5.5379    1.0331 </r>
[...]
      </set>
      <set comment="kpoint 83">
       <set comment="band 1">
        <r>  0.5917  0.0067  0.0001 </r>
       </set>
       <set comment="band 2">
        <r>  0.0000  0.0000  0.9644 </r>
       </set>
       <set comment="band 3">
        <r>  0.0000  0.0009  0.9634 </r>
       </set>
       <set comment="band 4">
        <r>  0.0000  0.0008  0.9648 </r>
       </set>
       <set comment="band 5">
        <r>  0.0000  0.0000  0.9607 </r>
       </set>
       <set comment="band 6">
        <r>  0.0000  0.0000  0.9628 </r>
       </set>
       <set comment="band 7">
        <r>  0.0001  0.0053  0.0825 </r>
       </set>
       <set comment="band 8">
        <r>  0.0000  0.0019  0.0220 </r>
       </set>
       <set comment="band 9">
        <r>  0.0000  0.0000  0.0347 </r>
       </set>
       <set comment="band 10">
        <r>  0.0000  0.1296  0.2411 </r>
       </set>
       <set comment="band 11">
        <r>  0.0028  0.1058  0.2347 </r>
       </set>
       <set comment="band 12">
        <r>  0.0000  0.3616  0.4306 </r>
       </set>
      </set>
      <set comment="kpoint 84">
       <set comment="band 1">
        <r>  0.5836  0.0148  0.0003 </r>
       </set>
       <set comment="band 2">
        <r>  0.0000  0.0000  0.9627 </r>
       </set>
       <set comment="band 3">
        <r>  0.0000  0.0021  0.9600 </r>
       </set>
       <set comment="band 4">
        <r>  0.0000  0.0018  0.9638 </r>
       </set>
       <set comment="band 5">
        <r>  0.0000  0.0000  0.9585 </r>
       </set>
       <set comment="band 6">
        <r>  0.0000  0.0000  0.9629 </r>
       </set>
       <set comment="band 7">
        <r>  0.0008  0.0200  0.1483 </r>
       </set>
       <set comment="band 8">
        <r>  0.0000  0.0091  0.0456 </r>
       </set>
       <set comment="band 9">
        <r>  0.0000  0.0000  0.0742 </r>
       </set>
       <set comment="band 10">
        <r>  0.0000  0.1975  0.1665 </r>
       </set>
       <set comment="band 11">
        <r>  0.0000  0.4068  0.3859 </r>
       </set>
       <set comment="band 12">
        <r>  0.0242  0.4195  0.1616 </r>
       </set>
      </set>
      <set comment="kpoint 85">
       <set comment="band 1">
        <r>  0.5723  0.0260  0.0010 </r>
       </set>
       <set comment="band 2">
        <r>  0.0000  0.0000  0.9605 </r>
       </set>
       <set comment="band 3">
        <r>  0.0001  0.0040  0.9544 </r>
       </set>
       <set comment="band 4">
        <r>  0.0000  0.0030  0.9624 </r>
       </set>
       <set comment="band 5">
        <r>  0.0001  0.0000  0.9560 </r>
       </set>
       <set comment="band 6">
        <r>  0.0000  0.0001  0.9630 </r>
       </set>
       <set comment="band 7">
        <r>  0.0029  0.0452  0.2059 </r>
       </set>
       <set comment="band 8">
        <r>  0.0000  0.0248  0.0697 </r>
       </set>
       <set comment="band 9">
        <r>  0.0000  0.0000  0.1223 </r>
       </set>
       <set comment="band 10">
        <r>  0.0000  0.2386  0.1021 </r>
       </set>
       <set comment="band 11">
        <r>  0.0000  0.4366  0.3551 </r>
       </set>
       <set comment="band 12">
        <r>  0.0428  0.4321  0.1890 </r>
       </set>
      </set>
      <set comment="kpoint 86">
       <set comment="band 1">
        <r>  0.5578  0.0397  0.0027 </r>
       </set>
       <set comment="band 2">
        <r>  0.0000  0.0000  0.9579 </r>
       </set>
       <set comment="band 3">
        <r>  0.0003  0.0068  0.9459 </r>
       </set>
       <set comment="band 4">
        <r>  0.0000  0.0044  0.9610 </r>
       </set>
       <set comment="band 5">
        <r>  0.0002  0.0000  0.9541 </r>
       </set>
       <set comment="band 6">
        <r>  0.0000  0.0001  0.9632 </r>
       </set>
       <set comment="band 7">
        <r>  0.0077  0.0774  0.2502 </r>
       </set>
       <set comment="band 8">
        <r>  0.0000  0.0487  0.0878 </r>
       </set>
       <set comment="band 9">
        <r>  0.0000  0.0000  0.1773 </r>
       </set>
       <set comment="band 10">
        <r>  0.0000  0.4619  0.3266 </r>
       </set>
       <set comment="band 11">
        <r>  0.0000  0.2569  0.0540 </r>
       </set>
       <set comment="band 12">
        <r>  0.0609  0.3981  0.1863 </r>
       </set>
      </set>
      <set comment="kpoint 87">
       <set comment="band 1">
        <r>  0.5400  0.0556  0.0058 </r>
       </set>
       <set comment="band 2">
        <r>  0.0000  0.0000  0.9550 </r>
       </set>
       <set comment="band 3">
        <r>  0.0007  0.0111  0.9336 </r>
       </set>
       <set comment="band 4">
        <r>  0.0000  0.0059  0.9596 </r>
       </set>
       <set comment="band 5">
        <r>  0.0003  0.0000  0.9530 </r>
       </set>
       <set comment="band 6">
        <r>  0.0000  0.0002  0.9636 </r>
       </set>
       <set comment="band 7">
        <r>  0.0158  0.1114  0.2812 </r>
       </set>
       <set comment="band 8">
        <r>  0.0000  0.0767  0.0963 </r>
       </set>
       <set comment="band 9">
        <r>  0.0000  0.0000  0.2344 </r>
       </set>
       <set comment="band 10">
        <r>  0.0000  0.4852  0.2980 </r>
       </set>
       <set comment="band 11">
        <r>  0.0790  0.3563  0.1852 </r>
       </set>
       <set comment="band 12">
        <r>  0.0000  0.2612  0.0227 </r>
       </set>
      </set>
      <set comment="kpoint 88">
       <set comment="band 1">
        <r>  0.5191  0.0729  0.0115 </r>
       </set>
       <set comment="band 2">
        <r>  0.0000  0.0000  0.9519 </r>
       </set>
       <set comment="band 3">
        <r>  0.0015  0.0175  0.9161 </r>
       </set>
       <set comment="band 4">
        <r>  0.0000  0.0073  0.9586 </r>
       </set>
       <set comment="band 5">
        <r>  0.0005  0.0000  0.9533 </r>
       </set>
       <set comment="band 6">
        <r>  0.0000  0.0002  0.9642 </r>
       </set>
       <set comment="band 7">
        <r>  0.0275  0.1431  0.3010 </r>
       </set>
       <set comment="band 8">
        <r>  0.0000  0.1042  0.0961 </r>
       </set>
       <set comment="band 9">
        <r>  0.0000  0.0000  0.2881 </r>
       </set>
       <set comment="band 10">
        <r>  0.0000  0.5069  0.2684 </r>
       </set>
       <set comment="band 11">
        <r>  0.0971  0.3133  0.1883 </r>
       </set>
       <set comment="band 12">
        <r>  0.0000  0.2585  0.0058 </r>
       </set>
      </set>
      <set comment="kpoint 89">
       <set comment="band 1">
        <r>  0.4947  0.0907  0.0212 </r>
       </set>
       <set comment="band 2">
        <r>  0.0000  0.0000  0.9488 </r>
       </set>
       <set comment="band 3">
        <r>  0.0028  0.0268  0.8923 </r>
       </set>
       <set comment="band 4">
        <r>  0.0000  0.0086  0.9581 </r>
       </set>
       <set comment="band 5">
        <r>  0.0007  0.0000  0.9547 </r>
       </set>
       <set comment="band 6">
        <r>  0.0000  0.0003  0.9650 </r>
       </set>
       <set comment="band 7">
        <r>  0.0430  0.1691  0.3140 </r>
       </set>
       <set comment="band 8">
        <r>  0.0000  0.1291  0.0900 </r>
       </set>
       <set comment="band 9">
        <r>  0.0000  0.0000  0.3423 </r>
       </set>
       <set comment="band 10">
        <r>  0.0000  0.5276  0.2388 </r>
       </set>
       <set comment="band 11">
        <r>  0.1140  0.2692  0.1999 </r>
       </set>
       <set comment="band 12">
        <r>  0.0000  0.2531  0.0001 </r>
       </set>
      </set>
      <set comment="kpoint 90">
       <set comment="band 1">
        <r>  0.4667  0.1076  0.0371 </r>
       </set>
       <set comment="band 2">
        <r>  0.0000  0.0000  0.9458 </r>
       </set>
       <set comment="band 3">
        <r>  0.0051  0.0404  0.8602 </r>
       </set>
       <set comment="band 4">
        <r>  0.0000  0.0095  0.9583 </r>
       </set>
       <set comment="band 5">
        <r>  0.0009  0.0002  0.9569 </r>
       </set>
       <set comment="band 6">
        <r>  0.0000  0.0003  0.9662 </r>
       </set>
       <set comment="band 7">
        <r>  0.0622  0.1876  0.3225 </r>
       </set>
       <set comment="band 8">
        <r>  0.0000  0.1502  0.0808 </r>
       </set>
       <set comment="band 9">
        <r>  0.0000  0.0000  0.3929 </r>
       </set>
       <set comment="band 10">
        <r>  0.0000  0.5472  0.2088 </r>
       </set>
       <set comment="band 11">
        <r>  0.1302  0.2275  0.2161 </r>
       </set>
       <set comment="band 12">
        <r>  0.0000  0.2469  0.0023 </r>
       </set>
      </set>
      <set comment="kpoint 91">
       <set comment="band 1">
        <r>  0.4349  0.1215  0.0626 </r>
       </set>
       <set comment="band 2">
        <r>  0.0000  0.0000  0.9430 </r>
       </set>
       <set comment="band 3">
        <r>  0.0085  0.0603  0.8168 </r>
       </set>
       <set comment="band 4">
        <r>  0.0000  0.0100  0.9595 </r>
       </set>
       <set comment="band 5">
        <r>  0.0010  0.0005  0.9593 </r>
       </set>
       <set comment="band 6">
        <r>  0.0000  0.0003  0.9676 </r>
       </set>
       <set comment="band 7">
        <r>  0.0847  0.1982  0.3293 </r>
       </set>
       <set comment="band 8">
        <r>  0.0000  0.1680  0.0694 </r>
       </set>
       <set comment="band 9">
        <r>  0.0000  0.0000  0.4388 </r>
       </set>
       <set comment="band 10">
        <r>  0.0000  0.5659  0.1787 </r>
       </set>
       <set comment="band 11">
        <r>  0.1456  0.1887  0.2345 </r>
       </set>
       <set comment="band 12">
        <r>  0.0000  0.2408  0.0103 </r>
       </set>
      </set>
      <set comment="kpoint 92">
       <set comment="band 1">
        <r>  0.3987  0.1298  0.1021 </r>
       </set>
       <set comment="band 2">
        <r>  0.0000  0.0000  0.9404 </r>
       </set>
       <set comment="band 3">
        <r>  0.0137  0.0893  0.7576 </r>
       </set>
       <set comment="band 4">
        <r>  0.0012  0.0010  0.9616 </r>
       </set>
       <set comment="band 5">
        <r>  0.0000  0.0100  0.9616 </r>
       </set>
       <set comment="band 6">
        <r>  0.0000  0.0003  0.9693 </r>
       </set>
       <set comment="band 7">
        <r>  0.1108  0.2001  0.3362 </r>
       </set>
       <set comment="band 8">
        <r>  0.0000  0.1827  0.0574 </r>
       </set>
       <set comment="band 9">
        <r>  0.0000  0.5836  0.1487 </r>
       </set>
       <set comment="band 10">
        <r>  0.0000  0.0000  0.4799 </r>
       </set>
       <set comment="band 11">
        <r>  0.1606  0.1532  0.2543 </r>
       </set>
       <set comment="band 12">
        <r>  0.0000  0.2347  0.0227 </r>
       </set>
      </set>
      <set comment="kpoint 93">
       <set comment="band 1">
        <r>  0.3582  0.1293  0.1608 </r>
       </set>
       <set comment="band 2">
        <r>  0.0000  0.0000  0.9381 </r>
       </set>
       <set comment="band 3">
        <r>  0.0208  0.1306  0.6775 </r>
       </set>
       <set comment="band 4">
        <r>  0.0014  0.0018  0.9632 </r>
       </set>
       <set comment="band 5">
        <r>  0.0000  0.0095  0.9648 </r>
       </set>
       <set comment="band 6">
        <r>  0.0000  0.0003  0.9712 </r>
       </set>
       <set comment="band 7">
        <r>  0.1398  0.1933  0.3454 </r>
       </set>
       <set comment="band 8">
        <r>  0.0000  0.1948  0.0457 </r>
       </set>
       <set comment="band 9">
        <r>  0.0000  0.6002  0.1199 </r>
       </set>
       <set comment="band 10">
        <r>  0.0000  0.0000  0.5158 </r>
       </set>
       <set comment="band 11">
        <r>  0.1750  0.1208  0.2748 </r>
       </set>
       <set comment="band 12">
        <r>  0.0000  0.2282  0.0388 </r>
       </set>
      </set>
      <set comment="kpoint 94">
       <set comment="band 1">
        <r>  0.3138  0.1174  0.2416 </r>
       </set>
       <set comment="band 2">
        <r>  0.0000  0.0000  0.9361 </r>
       </set>
       <set comment="band 3">
        <r>  0.0292  0.1870  0.5730 </r>
       </set>
       <set comment="band 4">
        <r>  0.0017  0.0029  0.9639 </r>
       </set>
       <set comment="band 5">
        <r>  0.0000  0.0002  0.9733 </r>
       </set>
       <set comment="band 6">
        <r>  0.0000  0.0083  0.9689 </r>
       </set>
       <set comment="band 7">
        <r>  0.1716  0.1776  0.3583 </r>
       </set>
       <set comment="band 8">
        <r>  0.0000  0.2045  0.0346 </r>
       </set>
       <set comment="band 9">
        <r>  0.0000  0.6155  0.0925 </r>
       </set>
       <set comment="band 10">
        <r>  0.0000  0.0000  0.5466 </r>
       </set>
       <set comment="band 11">
        <r>  0.1890  0.0918  0.2951 </r>
       </set>
       <set comment="band 12">
        <r>  0.0000  0.2205  0.0580 </r>
       </set>
      </set>
      <set comment="kpoint 95">
       <set comment="band 1">
        <r>  0.2681  0.0946  0.3405 </r>
       </set>
       <set comment="band 2">
        <r>  0.0000  0.0000  0.9344 </r>
       </set>
       <set comment="band 3">
        <r>  0.0367  0.2578  0.4479 </r>
       </set>
       <set comment="band 4">
        <r>  0.0021  0.0043  0.9634 </r>
       </set>
       <set comment="band 5">
        <r>  0.0000  0.0002  0.9753 </r>
       </set>
       <set comment="band 6">
        <r>  0.0000  0.0068  0.9737 </r>
       </set>
       <set comment="band 7">
        <r>  0.2063  0.1534  0.3759 </r>
       </set>
       <set comment="band 8">
        <r>  0.0000  0.2123  0.0247 </r>
       </set>
       <set comment="band 9">
        <r>  0.0000  0.6293  0.0672 </r>
       </set>
       <set comment="band 10">
        <r>  0.0000  0.0000  0.5723 </r>
       </set>
       <set comment="band 11">
        <r>  0.2021  0.0660  0.3145 </r>
       </set>
       <set comment="band 12">
        <r>  0.0037  0.1910  0.0847 </r>
       </set>
      </set>
      <set comment="kpoint 96">
       <set comment="band 1">
        <r>  0.2256  0.0658  0.4438 </r>
       </set>
       <set comment="band 2">
        <r>  0.0000  0.0000  0.9330 </r>
       </set>
       <set comment="band 3">
        <r>  0.0392  0.3380  0.3154 </r>
       </set>
       <set comment="band 4">
        <r>  0.0028  0.0058  0.9617 </r>
       </set>
       <set comment="band 5">
        <r>  0.0000  0.0001  0.9772 </r>
       </set>
       <set comment="band 6">
        <r>  0.0000  0.0050  0.9787 </r>
       </set>
       <set comment="band 7">
        <r>  0.2427  0.1208  0.3991 </r>
       </set>
       <set comment="band 8">
        <r>  0.0000  0.2181  0.0162 </r>
       </set>
       <set comment="band 9">
        <r>  0.0000  0.6413  0.0448 </r>
       </set>
       <set comment="band 10">
        <r>  0.0000  0.0000  0.5934 </r>
       </set>
       <set comment="band 11">
        <r>  0.2145  0.0438  0.3327 </r>
       </set>
       <set comment="band 12">
        <r>  0.0309  0.0367  0.0834 </r>
       </set>
      </set>
      <set comment="kpoint 97">
       <set comment="band 1">
        <r>  0.1909  0.0381  0.5343 </r>
       </set>
       <set comment="band 2">
        <r>  0.0000  0.0000  0.9319 </r>
       </set>
       <set comment="band 3">
        <r>  0.0336  0.4188  0.1931 </r>
       </set>
       <set comment="band 4">
        <r>  0.0040  0.0069  0.9594 </r>
       </set>
       <set comment="band 5">
        <r>  0.0000  0.0001  0.9789 </r>
       </set>
       <set comment="band 6">
        <r>  0.0000  0.0031  0.9836 </r>
       </set>
       <set comment="band 7">
        <r>  0.2798  0.0825  0.4270 </r>
       </set>
       <set comment="band 8">
        <r>  0.0000  0.2227  0.0093 </r>
       </set>
       <set comment="band 9">
        <r>  0.0000  0.6512  0.0260 </r>
       </set>
       <set comment="band 10">
        <r>  0.0000  0.0000  0.6094 </r>
       </set>
       <set comment="band 11">
        <r>  0.2248  0.0254  0.3482 </r>
       </set>
       <set comment="band 12">
        <r>  0.0190  0.0508  0.0493 </r>
       </set>
      </set>
      <set comment="kpoint 98">
       <set comment="band 1">
        <r>  0.1664  0.0170  0.6007 </r>
       </set>
       <set comment="band 2">
        <r>  0.0000  0.0000  0.9312 </r>
       </set>
       <set comment="band 3">
        <r>  0.0207  0.4912  0.0938 </r>
       </set>
       <set comment="band 4">
        <r>  0.0059  0.0061  0.9582 </r>
       </set>
       <set comment="band 5">
        <r>  0.0000  0.0000  0.9802 </r>
       </set>
       <set comment="band 6">
        <r>  0.0000  0.0015  0.9876 </r>
       </set>
       <set comment="band 7">
        <r>  0.3138  0.0433  0.4565 </r>
       </set>
       <set comment="band 8">
        <r>  0.0000  0.2258  0.0042 </r>
       </set>
       <set comment="band 9">
        <r>  0.0000  0.6587  0.0118 </r>
       </set>
       <set comment="band 10">
        <r>  0.0000  0.0000  0.6208 </r>
       </set>
       <set comment="band 11">
        <r>  0.2329  0.0115  0.3603 </r>
       </set>
       <set comment="band 12">
        <r>  0.0090  0.0629  0.0227 </r>
       </set>
      </set>
      <set comment="kpoint 99">
       <set comment="band 1">
        <r>  0.1521  0.0042  0.6400 </r>
       </set>
       <set comment="band 2">
        <r>  0.0000  0.0000  0.9307 </r>
       </set>
       <set comment="band 3">
        <r>  0.0065  0.5453  0.0257 </r>
       </set>
       <set comment="band 4">
        <r>  0.0083  0.0027  0.9605 </r>
       </set>
       <set comment="band 5">
        <r>  0.0000  0.0000  0.9810 </r>
       </set>
       <set comment="band 6">
        <r>  0.0000  0.0004  0.9903 </r>
       </set>
       <set comment="band 7">
        <r>  0.3390  0.0122  0.4805 </r>
       </set>
       <set comment="band 8">
        <r>  0.0000  0.2277  0.0010 </r>
       </set>
       <set comment="band 9">
        <r>  0.0000  0.6633  0.0030 </r>
       </set>
       <set comment="band 10">
        <r>  0.0000  0.0000  0.6275 </r>
       </set>
       <set comment="band 11">
        <r>  0.2381  0.0029  0.3680 </r>
       </set>
       <set comment="band 12">
        <r>  0.0023  0.0709  0.0058 </r>
       </set>
      </set>
      <set comment="kpoint 100">
       <set comment="band 1">
        <r>  0.1475  0.0000  0.6527 </r>
       </set>
       <set comment="band 2">
        <r>  0.0000  0.0000  0.9306 </r>
       </set>
       <set comment="band 3">
        <r>  0.0000  0.5666  0.0000 </r>
       </set>
       <set comment="band 4">
        <r>  0.0097  0.0000  0.9629 </r>
       </set>
       <set comment="band 5">
        <r>  0.0000  0.0000  0.9813 </r>
       </set>
       <set comment="band 6">
        <r>  0.0000  0.0000  0.9912 </r>
       </set>
       <set comment="band 7">
        <r>  0.3489  0.0000  0.4897 </r>
       </set>
       <set comment="band 8">
        <r>  0.0000  0.2283  0.0000 </r>
       </set>
       <set comment="band 9">
        <r>  0.0000  0.6649  0.0000 </r>
       </set>
       <set comment="band 10">
        <r>  0.0000  0.0000  0.6298 </r>
       </set>
       <set comment="band 11">
        <r>  0.2394  0.0000  0.3705 </r>
       </set>
       <set comment="band 12">
        <r>  0.0000  0.0736  0.0000 </r>
       </set>
      </set>
     </set>
    </set>
   </array>
  </projected>
 </calculation>
 <structure name="finalpos" >
  <crystal>
   <varray name="basis" >
    <v>      -1.42000000       1.42000000       1.42000000 </v>
    <v>       1.42000000      -1.42000000       1.42000000 </v>
    <v>       1.42000000       1.42000000      -1.42000000 </v>
   </varray>
   <i name="volume">     11.45315200 </i>
   <varray name="rec_basis" >
    <v>       0.00000000       0.35211268       0.35211268 </v>
    <v>       0.35211268       0.00000000       0.35211268 </v>
    <v>       0.35211268       0.35211268       0.00000000 </v>
   </varray>
  </crystal>
  <varray name="positions" >
   <v>       0.00000000       0.00000000       0.00000000 </v>
  </varray>
 </structure>
</modeling>
