bcc Fe                                  
   3.00000000000000     
    -0.500000    0.500000    0.500000
     0.500000   -0.500000    0.500000
     0.500000    0.500000   -0.500000
   Fe
     1
Direct
  0.000000  0.000000  0.000000
 
   20   20   20
  114.87      107.48      88.098      63.290      39.706      21.652      10.666      5.8508      4.3802      3.7641    
  3.6082      3.7641      4.3802      5.8508      10.666      21.652      39.706      63.290      88.098      107.48    
  107.48      105.07      89.895      67.370      44.136      25.151      12.711      6.6276      4.6319      3.8528    
  3.5771      3.6224      4.0453      5.0483      8.0643      16.118      30.859      51.687      75.386      96.197    
  88.098      89.895      80.115      62.402      42.451      25.166      13.226      6.9728      4.7360      3.8692    
  3.4903      3.4456      3.6956      4.4036      5.9456      10.648      20.761      36.645      56.316      75.386    
  63.290      67.370      62.402      50.351      35.417      21.766      11.978      6.6613      4.6467      3.7957    
  3.3630      3.2537      3.3771      3.8284      4.7117      6.8085      12.358      22.564      36.645      51.687    
  39.706      44.136      42.451      35.417      25.724      16.425      9.6002      5.8543      4.3774      3.6304    
  3.2099      3.0681      3.1124      3.3673      3.9454      4.8954      7.1632      12.358      20.761      30.859    
  21.652      25.151      25.166      21.766      16.425      11.069      7.1033      4.9450      4.0051      3.3983    
  3.0437      2.9047      2.9089      3.0436      3.3772      3.9886      4.8954      6.8085      10.648      16.118    
  10.666      12.711      13.226      11.978      9.6002      7.1033      5.2560      4.2296      3.6042      3.1462    
  2.8808      2.7709      2.7642      2.8397      3.0242      3.3772      3.9454      4.7117      5.9456      8.0643    
  5.8508      6.6276      6.9728      6.6613      5.8543      4.9450      4.2296      3.6884      3.2389      2.9213    
  2.7411      2.6691      2.6693      2.7236      2.8397      3.0436      3.3673      3.8284      4.4036      5.0483    
  4.3802      4.6319      4.7360      4.6467      4.3774      4.0051      3.6042      3.2389      2.9493      2.7511    
  2.6405      2.6015      2.6151      2.6693      2.7642      2.9089      3.1124      3.3771      3.6956      4.0453    
  3.7641      3.8528      3.8692      3.7957      3.6304      3.3983      3.1462      2.9213      2.7511      2.6407    
  2.5833      2.5717      2.6015      2.6691      2.7709      2.9047      3.0681      3.2537      3.4456      3.6224    
  3.6082      3.5771      3.4903      3.3630      3.2099      3.0437      2.8808      2.7411      2.6405      2.5833    
  2.5654      2.5833      2.6405      2.7411      2.8808      3.0437      3.2099      3.3630      3.4903      3.5771    
  3.7641      3.6224      3.4456      3.2537      3.0681      2.9047      2.7709      2.6691      2.6015      2.5717    
  2.5833      2.6407      2.7511      2.9213      3.1462      3.3983      3.6304      3.7957      3.8692      3.8528    
  4.3802      4.0453      3.6956      3.3771      3.1124      2.9089      2.7642      2.6693      2.6151      2.6015    
  2.6405      2.7511      2.9493      3.2389      3.6042      4.0051      4.3774      4.6467      4.7360      4.6319    
  5.8508      5.0483      4.4036      3.8284      3.3673      3.0436      2.8397      2.7236      2.6693      2.6691    
  2.7411      2.9213      3.2389      3.6884      4.2296      4.9450      5.8543      6.6613      6.9728      6.6276    
  10.666      8.0643      5.9456      4.7117      3.9454      3.3772      3.0242      2.8397      2.7642      2.7709    
  2.8808      3.1462      3.6042      4.2296      5.2560      7.1033      9.6002      11.978      13.226      12.711    
  21.652      16.118      10.648      6.8085      4.8954      3.9886      3.3772      3.0436      2.9089      2.9047    
  3.0437      3.3983      4.0051      4.9450      7.1033      11.069      16.425      21.766      25.166      25.151    
  39.706      30.859      20.761      12.358      7.1632      4.8954      3.9454      3.3673      3.1124      3.0681    
  3.2099      3.6304      4.3774      5.8543      9.6002      16.425      25.724      35.417      42.451      44.136    
  63.290      51.687      36.645      22.564      12.358      6.8085      4.7117      3.8284      3.3771      3.2537    
  3.3630      3.7957      4.6467      6.6613      11.978      21.766      35.417      50.351      62.402      67.370    
  88.098      75.386      56.316      36.645      20.761      10.648      5.9456      4.4036      3.6956      3.4456    
  3.4903      3.8692      4.7360      6.9728      13.226      25.166      42.451      62.402      80.115      89.895    
  107.48      96.197      75.386      51.687      30.859      16.118      8.0643      5.0483      4.0453      3.6224    
  3.5771      3.8528      4.6319      6.6276      12.711      25.151      44.136      67.370      89.895      105.07    
  107.48      105.07      89.895      67.370      44.136      25.151      12.711      6.6276      4.6319      3.8528    
  3.5771      3.6224      4.0453      5.0483      8.0643      16.118      30.859      51.687      75.386      96.197    
  105.07      107.45      96.157      75.360      51.679      30.859      16.115      8.0611      5.0507      4.0517    
  3.6245      3.5719      3.8476      4.6337      6.6334      12.714      25.153      44.146      67.394      89.918    
  89.895      96.157      89.884      73.453      52.464      32.653      17.751      8.9925      5.3554      4.1724    
  3.6152      3.4705      3.6150      4.1725      5.3555      8.9919      17.750      32.657      52.475      73.468    
  67.370      75.360      73.453      62.409      46.234      29.844      16.892      8.9154      5.3845      4.1745    
  3.5504      3.3317      3.3764      3.7200      4.5029      6.2160      11.135      20.971      35.545      52.464    
  44.136      51.679      52.464      46.234      35.421      23.660      13.987      7.8731      5.0888      4.0406    
  3.4316      3.1745      3.1528      3.3379      3.8437      4.7379      6.8240      11.989      20.970      32.650    
  25.151      30.859      32.653      29.844      23.660      16.427      10.297      6.3957      4.6039      3.7930    
  3.2660      3.0160      2.9604      3.0494      3.3389      3.9250      4.8311      6.8271      11.138      17.751    
  12.711      16.115      17.751      16.892      13.987      10.297      7.1039      5.0872      4.1073      3.4868    
  3.0745      2.8684      2.8085      2.8504      3.0084      3.3475      3.9277      4.7423      6.2192      8.9919    
  6.6276      8.0611      8.9925      8.9154      7.8731      6.3957      5.0872      4.2289      3.6436      3.1850    
  2.8895      2.7416      2.6976      2.7240      2.8187      3.0096      3.3411      3.8448      4.5009      5.3504    
  4.6319      5.0507      5.3554      5.3845      5.0888      4.6039      4.1073      3.6436      3.2390      2.9334    
  2.7400      2.6456      2.6236      2.6518      2.7243      2.8508      3.0488      3.3350      3.7150      4.1677    
  3.8528      4.0517      4.1724      4.1745      4.0406      3.7930      3.4868      3.1850      2.9334      2.7513    
  2.6389      2.5871      2.5852      2.6237      2.6975      2.8076      2.9583      3.1502      3.3751      3.6168    
  3.5771      3.6245      3.6152      3.5504      3.4316      3.2660      3.0745      2.8895      2.7400      2.6389    
  2.5835      2.5670      2.5871      2.6455      2.7411      2.8674      3.0154      3.1757      3.3356      3.4762    
  3.6224      3.5719      3.4705      3.3317      3.1745      3.0160      2.8684      2.7416      2.6456      2.5871    
  2.5670      2.5835      2.6388      2.7398      2.8892      3.0748      3.2677      3.4350      3.5541      3.6168    
  4.0453      3.8476      3.6150      3.3764      3.1528      2.9604      2.8085      2.6976      2.6236      2.5852    
  2.5871      2.6388      2.7512      2.9333      3.1854      3.4881      3.7950      4.0419      4.1731      4.1677    
  5.0483      4.6337      4.1725      3.7200      3.3379      3.0494      2.8504      2.7240      2.6518      2.6237    
  2.6455      2.7398      2.9333      3.2394      3.6445      4.1084      4.6041      5.0866      5.3799      5.3504    
  8.0643      6.6334      5.3555      4.5029      3.8437      3.3389      3.0084      2.8187      2.7243      2.6975    
  2.7411      2.8892      3.1854      3.6445      4.2297      5.0871      6.3939      7.8697      8.9122      8.9919    
  16.118      12.714      8.9919      6.2160      4.7379      3.9250      3.3475      3.0096      2.8508      2.8076    
  2.8674      3.0748      3.4881      4.1084      5.0871      7.1024      10.294      13.984      16.890      17.751    
  30.859      25.153      17.750      11.135      6.8240      4.8311      3.9277      3.3411      3.0488      2.9583    
  3.0154      3.2677      3.7950      4.6041      6.3939      10.294      16.424      23.656      29.840      32.650    
  51.687      44.146      32.657      20.971      11.989      6.8271      4.7423      3.8448      3.3350      3.1502    
  3.1757      3.4350      4.0419      5.0866      7.8697      13.984      23.656      35.414      46.228      52.464    
  75.386      67.394      52.475      35.545      20.970      11.138      6.2192      4.5009      3.7150      3.3751    
  3.3356      3.5541      4.1731      5.3799      8.9122      16.890      29.840      46.228      62.409      73.468    
  96.197      89.918      73.468      52.464      32.650      17.751      8.9919      5.3504      4.1677      3.6168    
  3.4762      3.6168      4.1677      5.3504      8.9919      17.751      32.650      52.464      73.468      89.918    
  88.098      89.895      80.115      62.402      42.451      25.166      13.226      6.9728      4.7360      3.8692    
  3.4903      3.4456      3.6956      4.4036      5.9456      10.648      20.761      36.645      56.316      75.386    
  89.895      96.157      89.884      73.453      52.464      32.653      17.751      8.9925      5.3554      4.1724    
  3.6152      3.4705      3.6150      4.1725      5.3555      8.9919      17.750      32.657      52.475      73.468    
  80.115      89.884      88.078      75.368      56.306      36.644      20.763      10.650      5.9457      4.4035    
  3.6958      3.4456      3.4901      3.8692      4.7362      6.9725      13.226      25.169      42.458      62.409    
  62.402      73.453      75.368      67.381      52.471      35.548      20.974      11.140      6.2194      4.5009    
  3.7153      3.3751      3.3353      3.5540      4.1733      5.3797      8.9120      16.891      29.842      46.228    
  42.451      52.464      56.306      52.471      42.462      29.849      18.327      10.221      5.9969      4.4306    
  3.6565      3.2684      3.1668      3.2683      3.6565      4.4306      5.9965      10.218      18.321      29.840    
  25.166      32.653      36.644      35.548      29.849      21.772      13.989      8.3641      5.3891      4.2046    
  3.5155      3.1359      3.0027      3.0328      3.2491      3.7524      4.5715      6.2533      10.218      16.890    
  13.226      17.751      20.763      20.974      18.327      13.989      9.6015      6.3937      4.6903      3.8766    
  3.3131      2.9895      2.8579      2.8535      2.9667      3.2553      3.7902      4.5717      5.9969      8.9122    
  6.9728      8.9925      10.650      11.140      10.221      8.3641      6.3937      4.9427      4.1070      3.5166    
  3.0910      2.8455      2.7400      2.7275      2.7901      2.9494      3.2552      3.7523      4.4307      5.3799    
  4.7360      5.3554      5.9457      6.2194      5.9969      5.3891      4.6903      4.1070      3.6043      3.1857    
  2.8916      2.7231      2.6519      2.6463      2.6905      2.7900      2.9665      3.2489      3.6563      4.1731    
  3.8692      4.1724      4.4035      4.5009      4.4306      4.2046      3.8766      3.5166      3.1857      2.9221    
  2.7401      2.6360      2.5955      2.6023      2.6463      2.7275      2.8535      3.0328      3.2684      3.5541    
  3.4903      3.6152      3.6958      3.7153      3.6565      3.5155      3.3131      3.0910      2.8916      2.7401    
  2.6408      2.5872      2.5732      2.5955      2.6520      2.7401      2.8580      3.0029      3.1670      3.3356    
  3.4456      3.4705      3.4456      3.3751      3.2684      3.1359      2.9895      2.8455      2.7231      2.6360    
  2.5872      2.5721      2.5873      2.6361      2.7231      2.8454      2.9894      3.1359      3.2684      3.3751    
  3.6956      3.6150      3.4901      3.3353      3.1668      3.0027      2.8579      2.7400      2.6519      2.5955    
  2.5732      2.5873      2.6408      2.7401      2.8915      3.0908      3.3129      3.5153      3.6563      3.7150    
  4.4036      4.1725      3.8692      3.5540      3.2683      3.0328      2.8535      2.7275      2.6463      2.6023    
  2.5955      2.6361      2.7401      2.9219      3.1855      3.5166      3.8768      4.2048      4.4307      4.5009    
  5.9456      5.3555      4.7362      4.1733      3.6565      3.2491      2.9667      2.7901      2.6905      2.6463    
  2.6520      2.7231      2.8915      3.1855      3.6045      4.1076      4.6910      5.3895      5.9969      6.2192    
  10.648      8.9919      6.9725      5.3797      4.4306      3.7524      3.2553      2.9494      2.7900      2.7275    
  2.7401      2.8454      3.0908      3.5166      4.1076      4.9437      6.3941      8.3631      10.218      11.138    
  20.761      17.750      13.226      8.9120      5.9965      4.5715      3.7902      3.2552      2.9665      2.8535    
  2.8580      2.9894      3.3129      3.8768      4.6910      6.3941      9.5999      13.985      18.321      20.970    
  36.645      32.657      25.169      16.891      10.218      6.2533      4.5717      3.7523      3.2489      3.0328    
  3.0029      3.1359      3.5153      4.2048      5.3895      8.3631      13.985      21.765      29.842      35.545    
  56.316      52.475      42.458      29.842      18.321      10.218      5.9969      4.4307      3.6563      3.2684    
  3.1670      3.2684      3.6563      4.4307      5.9969      10.218      18.321      29.842      42.458      52.475    
  75.386      73.468      62.409      46.228      29.840      16.890      8.9122      5.3799      4.1731      3.5541    
  3.3356      3.3751      3.7150      4.5009      6.2192      11.138      20.970      35.545      52.475      67.394    
  63.290      67.370      62.402      50.351      35.417      21.766      11.978      6.6613      4.6467      3.7957    
  3.3630      3.2537      3.3771      3.8284      4.7117      6.8085      12.358      22.564      36.645      51.687    
  67.370      75.360      73.453      62.409      46.234      29.844      16.892      8.9154      5.3845      4.1745    
  3.5504      3.3317      3.3764      3.7200      4.5029      6.2160      11.135      20.971      35.545      52.464    
  62.402      73.453      75.368      67.381      52.471      35.548      20.974      11.140      6.2194      4.5009    
  3.7153      3.3751      3.3353      3.5540      4.1733      5.3797      8.9120      16.891      29.842      46.228    
  50.351      62.409      67.381      63.299      51.693      36.650      22.570      12.363      6.8086      4.7073    
  3.8248      3.3784      3.2578      3.3642      3.7924      4.6429      6.6608      11.980      21.765      35.414    
  35.417      46.234      52.471      51.693      44.151      32.663      20.977      11.991      6.8238      4.7375    
  3.8436      3.3379      3.1528      3.1745      3.4316      4.0406      5.0886      7.8723      13.985      23.656    
  21.766      29.844      35.548      36.650      32.663      25.176      16.895      10.216      6.2481      4.5683    
  3.7532      3.2517      3.0335      3.0008      3.1340      3.5162      4.2077      5.3916      8.3631      13.984    
  11.978      16.892      20.974      22.570      20.977      16.895      11.978      7.8671      5.3869      4.2582    
  3.5675      3.1256      2.9123      2.8538      2.9126      3.1256      3.5675      4.2593      5.3895      7.8697    
  6.6613      8.9154      11.140      12.363      11.991      10.216      7.8671      5.8493      4.6019      3.8774    
  3.3296      2.9784      2.7996      2.7389      2.7613      2.8742      3.1243      3.5657      4.2048      5.0866    
  4.6467      5.3845      6.2194      6.8086      6.8238      6.2481      5.3869      4.6019      4.0043      3.4881    
  3.0909      2.8367      2.7044      2.6567      2.6671      2.7326      2.8732      3.1239      3.5153      4.0419    
  3.7957      4.1745      4.5009      4.7073      4.7375      4.5683      4.2582      3.8774      3.4881      3.1474    
  2.8896      2.7228      2.6348      2.6050      2.6172      2.6669      2.7609      2.9128      3.1359      3.4350    
  3.3630      3.5504      3.7153      3.8248      3.8436      3.7532      3.5675      3.3296      3.0909      2.8896    
  2.7412      2.6455      2.5953      2.5837      2.6051      2.6569      2.7397      2.8554      3.0029      3.1757    
  3.2537      3.3317      3.3751      3.3784      3.3379      3.2517      3.1256      2.9784      2.8367      2.7228    
  2.6455      2.6015      2.5852      2.5955      2.6351      2.7049      2.8004      2.9128      3.0328      3.1502    
  3.3771      3.3764      3.3353      3.2578      3.1528      3.0335      2.9123      2.7996      2.7044      2.6348    
  2.5953      2.5852      2.6016      2.6456      2.7229      2.8366      2.9778      3.1239      3.2489      3.3350    
  3.8284      3.7200      3.5540      3.3642      3.1745      3.0008      2.8538      2.7389      2.6567      2.6050    
  2.5837      2.5955      2.6456      2.7412      2.8891      3.0899      3.3279      3.5657      3.7523      3.8448    
  4.7117      4.5029      4.1733      3.7924      3.4316      3.1340      2.9126      2.7613      2.6671      2.6172    
  2.6051      2.6351      2.7229      2.8891      3.1463      3.4868      3.8768      4.2593      4.5717      4.7423    
  6.8085      6.2160      5.3797      4.6429      4.0406      3.5162      3.1256      2.8742      2.7326      2.6669    
  2.6569      2.7049      2.8366      3.0899      3.4868      4.0043      4.6043      5.3916      6.2533      6.8271    
  12.358      11.135      8.9120      6.6608      5.0886      4.2077      3.5675      3.1243      2.8732      2.7609    
  2.7397      2.8004      2.9778      3.3279      3.8768      4.6043      5.8545      7.8723      10.218      11.989    
  22.564      20.971      16.891      11.980      7.8723      5.3916      4.2593      3.5657      3.1239      2.9128    
  2.8554      2.9128      3.1239      3.5657      4.2593      5.3916      7.8723      11.980      16.891      20.971    
  36.645      35.545      29.842      21.765      13.985      8.3631      5.3895      4.2048      3.5153      3.1359    
  3.0029      3.0328      3.2489      3.7523      4.5717      6.2533      10.218      16.891      25.169      32.657    
  51.687      52.464      46.228      35.414      23.656      13.984      7.8697      5.0866      4.0419      3.4350    
  3.1757      3.1502      3.3350      3.8448      4.7423      6.8271      11.989      20.971      32.657      44.146    
  39.706      44.136      42.451      35.417      25.724      16.425      9.6002      5.8543      4.3774      3.6304    
  3.2099      3.0681      3.1124      3.3673      3.9454      4.8954      7.1632      12.358      20.761      30.859    
  44.136      51.679      52.464      46.234      35.421      23.660      13.987      7.8731      5.0888      4.0406    
  3.4316      3.1745      3.1528      3.3379      3.8437      4.7379      6.8240      11.989      20.970      32.650    
  42.451      52.464      56.306      52.471      42.462      29.849      18.327      10.221      5.9969      4.4306    
  3.6565      3.2684      3.1668      3.2683      3.6565      4.4306      5.9965      10.218      18.321      29.840    
  35.417      46.234      52.471      51.693      44.151      32.663      20.977      11.991      6.8238      4.7375    
  3.8436      3.3379      3.1528      3.1745      3.4316      4.0406      5.0886      7.8723      13.985      23.656    
  25.724      35.421      42.462      44.151      39.722      30.871      20.765      12.358      7.1611      4.8940    
  3.9450      3.3673      3.1124      3.0681      3.2099      3.6304      4.3775      5.8545      9.5999      16.424    
  16.425      23.660      29.849      32.663      30.871      25.159      17.750      11.130      6.8196      4.8288    
  3.9271      3.3410      3.0488      2.9583      3.0154      3.2677      3.7950      4.6043      6.3941      10.294    
  9.6002      13.987      18.327      20.977      20.765      17.750      13.220      8.9048      5.9911      4.5692    
  3.7898      3.2552      2.9664      2.8535      2.8580      2.9894      3.3128      3.8768      4.6910      6.3939    
  5.8543      7.8731      10.221      11.991      12.358      11.130      8.9048      6.6539      5.0845      4.2065    
  3.5677      3.1245      2.8731      2.7608      2.7397      2.8004      2.9778      3.3279      3.8768      4.6041    
  4.3774      5.0888      5.9969      6.8238      7.1611      6.8196      5.9911      5.0845      4.3758      3.7952    
  3.3135      2.9780      2.7811      2.6860      2.6587      2.6862      2.7813      2.9778      3.3129      3.7950    
  3.6304      4.0406      4.4306      4.7375      4.8940      4.8288      4.5692      4.2065      3.7952      3.3999    
  3.0750      2.8447      2.7043      2.6331      2.6109      2.6275      2.6861      2.8004      2.9894      3.2677    
  3.2099      3.4316      3.6565      3.8436      3.9450      3.9271      3.7898      3.5677      3.3135      3.0750    
  2.8810      2.7409      2.6516      2.6050      2.5929      2.6108      2.6586      2.7397      2.8580      3.0154    
  3.0681      3.1745      3.2684      3.3379      3.3673      3.3410      3.2552      3.1245      2.9780      2.8447    
  2.7409      2.6686      2.6234      2.6021      2.6050      2.6332      2.6861      2.7609      2.8535      2.9583    
  3.1124      3.1528      3.1668      3.1528      3.1124      3.0488      2.9664      2.8731      2.7811      2.7043    
  2.6516      2.6234      2.6150      2.6235      2.6517      2.7045      2.7813      2.8732      2.9665      3.0488    
  3.3673      3.3379      3.2683      3.1745      3.0681      2.9583      2.8535      2.7608      2.6860      2.6331    
  2.6050      2.6021      2.6235      2.6687      2.7409      2.8446      2.9778      3.1243      3.2552      3.3411    
  3.9454      3.8437      3.6565      3.4316      3.2099      3.0154      2.8580      2.7397      2.6587      2.6109    
  2.5929      2.6050      2.6517      2.7409      2.8806      3.0742      3.3128      3.5675      3.7902      3.9277    
  4.8954      4.7379      4.4306      4.0406      3.6304      3.2677      2.9894      2.8004      2.6862      2.6275    
  2.6108      2.6332      2.7045      2.8446      3.0742      3.3989      3.7950      4.2077      4.5715      4.8311    
  7.1632      6.8240      5.9965      5.0886      4.3775      3.7950      3.3128      2.9778      2.7813      2.6861    
  2.6586      2.6861      2.7813      2.9778      3.3128      3.7950      4.3775      5.0886      5.9965      6.8240    
  12.358      11.989      10.218      7.8723      5.8545      4.6043      3.8768      3.3279      2.9778      2.8004    
  2.7397      2.7609      2.8732      3.1243      3.5675      4.2077      5.0886      6.6608      8.9120      11.135    
  20.761      20.970      18.321      13.985      9.5999      6.3941      4.6910      3.8768      3.3129      2.9894    
  2.8580      2.8535      2.9665      3.2552      3.7902      4.5715      5.9965      8.9120      13.226      17.750    
  30.859      32.650      29.840      23.656      16.424      10.294      6.3939      4.6041      3.7950      3.2677    
  3.0154      2.9583      3.0488      3.3411      3.9277      4.8311      6.8240      11.135      17.750      25.153    
  21.652      25.151      25.166      21.766      16.425      11.069      7.1033      4.9450      4.0051      3.3983    
  3.0437      2.9047      2.9089      3.0436      3.3772      3.9886      4.8954      6.8085      10.648      16.118    
  25.151      30.859      32.653      29.844      23.660      16.427      10.297      6.3957      4.6039      3.7930    
  3.2660      3.0160      2.9604      3.0494      3.3389      3.9250      4.8311      6.8271      11.138      17.751    
  25.166      32.653      36.644      35.548      29.849      21.772      13.989      8.3641      5.3891      4.2046    
  3.5155      3.1359      3.0027      3.0328      3.2491      3.7524      4.5715      6.2533      10.218      16.890    
  21.766      29.844      35.548      36.650      32.663      25.176      16.895      10.216      6.2481      4.5683    
  3.7532      3.2517      3.0335      3.0008      3.1340      3.5162      4.2077      5.3916      8.3631      13.984    
  16.425      23.660      29.849      32.663      30.871      25.159      17.750      11.130      6.8196      4.8288    
  3.9271      3.3410      3.0488      2.9583      3.0154      3.2677      3.7950      4.6043      6.3941      10.294    
  11.069      16.427      21.772      25.176      25.159      21.652      16.109      10.636      6.8009      4.8949    
  3.9914      3.3783      3.0422      2.9076      2.9053      3.0453      3.3989      4.0043      4.9437      7.1024    
  7.1033      10.297      13.989      16.895      17.750      16.109      12.700      8.9800      6.2117      4.7398    
  3.9279      3.3479      3.0083      2.8504      2.8086      2.8683      3.0742      3.4868      4.1076      5.0871    
  4.9450      6.3957      8.3641      10.216      11.130      10.636      8.9800      6.9662      5.3803      4.4344    
  3.7550      3.2552      2.9484      2.7900      2.7283      2.7403      2.8446      3.0899      3.5166      4.1084    
  4.0051      4.6039      5.3891      6.2481      6.8196      6.8009      6.2117      5.3803      4.6469      4.0447    
  3.5179      3.1252      2.8735      2.7326      2.6672      2.6568      2.7045      2.8366      3.0908      3.4881    
  3.3983      3.7930      4.2046      4.5683      4.8288      4.8949      4.7398      4.4344      4.0447      3.6331    
  3.2682      2.9886      2.7997      2.6861      2.6277      2.6108      2.6332      2.7049      2.8454      3.0748    
  3.0437      3.2660      3.5155      3.7532      3.9271      3.9914      3.9279      3.7550      3.5179      3.2682    
  3.0448      2.8675      2.7399      2.6569      2.6110      2.5963      2.6108      2.6569      2.7401      2.8674    
  2.9047      3.0160      3.1359      3.2517      3.3410      3.3783      3.3479      3.2552      3.1252      2.9886    
  2.8675      2.7705      2.6974      2.6464      2.6173      2.6108      2.6275      2.6669      2.7275      2.8076    
  2.9089      2.9604      3.0027      3.0335      3.0488      3.0422      3.0083      2.9484      2.8735      2.7997    
  2.7399      2.6974      2.6692      2.6519      2.6464      2.6568      2.6862      2.7326      2.7900      2.8508    
  3.0436      3.0494      3.0328      3.0008      2.9583      2.9076      2.8504      2.7900      2.7326      2.6861    
  2.6569      2.6464      2.6519      2.6691      2.6975      2.7403      2.8004      2.8742      2.9494      3.0096    
  3.3772      3.3389      3.2491      3.1340      3.0154      2.9053      2.8086      2.7283      2.6672      2.6277    
  2.6110      2.6173      2.6464      2.6975      2.7710      2.8683      2.9894      3.1256      3.2553      3.3475    
  3.9886      3.9250      3.7524      3.5162      3.2677      3.0453      2.8683      2.7403      2.6568      2.6108    
  2.5963      2.6108      2.6568      2.7403      2.8683      3.0453      3.2677      3.5162      3.7524      3.9250    
  4.8954      4.8311      4.5715      4.2077      3.7950      3.3989      3.0742      2.8446      2.7045      2.6332    
  2.6108      2.6275      2.6862      2.8004      2.9894      3.2677      3.6304      4.0406      4.4306      4.7379    
  6.8085      6.8271      6.2533      5.3916      4.6043      4.0043      3.4868      3.0899      2.8366      2.7049    
  2.6569      2.6669      2.7326      2.8742      3.1256      3.5162      4.0406      4.6429      5.3797      6.2160    
  10.648      11.138      10.218      8.3631      6.3941      4.9437      4.1076      3.5166      3.0908      2.8454    
  2.7401      2.7275      2.7900      2.9494      3.2553      3.7524      4.4306      5.3797      6.9725      8.9919    
  16.118      17.751      16.890      13.984      10.294      7.1024      5.0871      4.1084      3.4881      3.0748    
  2.8674      2.8076      2.8508      3.0096      3.3475      3.9250      4.7379      6.2160      8.9919      12.714    
  10.666      12.711      13.226      11.978      9.6002      7.1033      5.2560      4.2296      3.6042      3.1462    
  2.8808      2.7709      2.7642      2.8397      3.0242      3.3772      3.9454      4.7117      5.9456      8.0643    
  12.711      16.115      17.751      16.892      13.987      10.297      7.1039      5.0872      4.1073      3.4868    
  3.0745      2.8684      2.8085      2.8504      3.0084      3.3475      3.9277      4.7423      6.2192      8.9919    
  13.226      17.751      20.763      20.974      18.327      13.989      9.6015      6.3937      4.6903      3.8766    