   1   1   1   0
  0.1350000E+02  0.2598076E-09  0.2598076E-09  0.2598076E-09  0.5000000E-15
  1.000000000000000E-004
  CAR 
 bcc Fe                                  
     42.18626271     -5.21783504  301      4.29751519      1.00000000
     -5.218  0.0000E+00  0.0000E+00  0.0000E+00  0.0000E+00
     -5.060  0.0000E+00  0.0000E+00  0.0000E+00  0.0000E+00
     -4.902  0.0000E+00  0.0000E+00  0.0000E+00  0.0000E+00
     -4.744 -0.1929E-31  0.0000E+00 -0.3048E-32  0.0000E+00
     -4.586 -0.5472E-26 -0.1745E-30 -0.8646E-27 -0.2757E-31
     -4.428 -0.4407E-21 -0.4005E-25 -0.6963E-22 -0.6328E-26
     -4.270 -0.1005E-16 -0.2608E-20 -0.1588E-17 -0.4121E-21
     -4.112 -0.6229E-13 -0.4596E-16 -0.9844E-14 -0.7262E-17
     -3.954 -0.1107E-09 -0.2402E-12 -0.1750E-10 -0.3796E-13
     -3.796 -0.5408E-07 -0.3439E-09 -0.8563E-08 -0.5438E-10
     -3.638 -0.7034E-05 -0.1348E-06 -0.1120E-05 -0.2136E-07
     -3.480 -0.2230E-03 -0.1395E-04 -0.3636E-04 -0.2226E-05
     -3.322 -0.1095E-02 -0.3417E-03 -0.2094E-03 -0.5622E-04
     -3.164  0.6050E-02 -0.9699E-03  0.7467E-03 -0.2095E-03
     -3.006  0.2165E-01  0.9049E-02  0.4168E-02  0.1220E-02
     -2.848  0.1461E-01  0.2187E-01  0.6477E-02  0.4676E-02
     -2.690  0.2340E-01  0.1388E-01  0.1018E-01  0.6870E-02
     -2.532  0.2471E-01  0.2500E-01  0.1408E-01  0.1082E-01
     -2.374  0.7005E-01  0.2494E-01  0.2515E-01  0.1476E-01
     -2.216  0.7712E-01  0.7675E-01  0.3734E-01  0.2689E-01
     -2.058  0.4934E-02  0.6971E-01  0.3812E-01  0.3790E-01
     -1.900 -0.3951E-02  0.9334E-03  0.3749E-01  0.3805E-01
     -1.742  0.7109E-01 -0.4247E-02  0.4872E-01  0.3738E-01
     -1.584  0.1078E+00  0.6857E-01  0.6576E-01  0.4821E-01
     -1.426  0.7844E-01  0.1069E+00  0.7815E-01  0.6510E-01
     -1.267  0.9349E-01  0.6993E-01  0.9293E-01  0.7615E-01
     -1.109  0.9744E-01  0.8385E-01  0.1083E+00  0.8940E-01
     -0.951  0.4840E-01  0.7769E-01  0.1160E+00  0.1017E+00
     -0.793 -0.9145E-02  0.8101E-01  0.1145E+00  0.1145E+00
     -0.635  0.9097E-01  0.7944E-02  0.1289E+00  0.1157E+00
     -0.477  0.2315E+00  0.4887E-03  0.1655E+00  0.1158E+00
     -0.319  0.1707E+00  0.1310E+00  0.1925E+00  0.1365E+00
     -0.161  0.2265E+00  0.1807E+00  0.2283E+00  0.1651E+00
     -0.003  0.1965E+00  0.1025E+00  0.2593E+00  0.1813E+00
      0.155  0.2260E+00  0.1186E+00  0.2950E+00  0.2000E+00
      0.313  0.5962E+00  0.1779E+00  0.3892E+00  0.2281E+00
      0.471  0.9183E+00  0.6524E-01  0.5343E+00  0.2384E+00
      0.629  0.8711E+00  0.7355E-01  0.6720E+00  0.2500E+00
      0.787  0.1057E+01  0.7980E-01  0.8390E+00  0.2626E+00
      0.945  0.9636E+00  0.8060E-01  0.9913E+00  0.2754E+00
      1.103  0.5540E+00  0.2557E+00  0.1079E+01  0.3158E+00
      1.261  0.9512E+00  0.3413E+00  0.1229E+01  0.3697E+00
      1.419  0.1807E+01  0.2138E+00  0.1515E+01  0.4035E+00
      1.577  0.1539E+01  0.3485E+00  0.1758E+01  0.4586E+00
      1.735  0.1280E+01  0.2598E+00  0.1960E+01  0.4996E+00
      1.893  0.2006E+01  0.1952E+00  0.2277E+01  0.5305E+00
      2.051  0.1779E+01  0.4626E+00  0.2558E+01  0.6036E+00
      2.209  0.7443E+00  0.4493E+00  0.2676E+01  0.6746E+00
      2.367  0.5538E+00  0.4435E+00  0.2763E+01  0.7446E+00
      2.525  0.9541E+00  0.7175E+00  0.2914E+01  0.8580E+00
      2.683  0.6178E+00  0.5696E+00  0.3011E+01  0.9480E+00
      2.841  0.1167E+01  0.3860E+00  0.3196E+01  0.1009E+01
      2.999  0.2337E+01  0.3474E+00  0.3565E+01  0.1064E+01
      3.157  0.2945E+01  0.5411E+00  0.4030E+01  0.1149E+01
      3.315  0.2704E+01  0.1082E+01  0.4458E+01  0.1320E+01
      3.473  0.1463E+01  0.1599E+01  0.4689E+01  0.1573E+01
      3.631  0.1125E+01  0.1457E+01  0.4867E+01  0.1803E+01
      3.789  0.1184E+01  0.1365E+01  0.5054E+01  0.2019E+01
      3.947  0.8328E+00  0.1609E+01  0.5185E+01  0.2273E+01
      4.105  0.4307E+00  0.1441E+01  0.5253E+01  0.2501E+01
      4.263  0.1993E+00  0.1118E+01  0.5285E+01  0.2678E+01
      4.421  0.1516E+00  0.7410E+00  0.5309E+01  0.2795E+01
      4.579  0.7279E-01  0.3703E+00  0.5320E+01  0.2853E+01
      4.737  0.1930E+00  0.3462E+00  0.5351E+01  0.2908E+01
      4.895  0.3193E+00  0.4694E+00  0.5401E+01  0.2982E+01
      5.053  0.2939E+00  0.2794E+00  0.5448E+01  0.3026E+01
      5.211  0.2019E+00  0.2833E+00  0.5480E+01  0.3071E+01
      5.369  0.8915E-01  0.5665E+00  0.5494E+01  0.3161E+01
      5.527  0.9387E-01  0.1064E+01  0.5509E+01  0.3329E+01
      5.685  0.8227E-01  0.1121E+01  0.5522E+01  0.3506E+01
      5.843  0.1608E-01  0.1417E+01  0.5524E+01  0.3730E+01
      6.001  0.5606E-01  0.1693E+01  0.5533E+01  0.3997E+01
      6.159  0.2537E+00  0.2134E+01  0.5573E+01  0.4335E+01
      6.317  0.1942E+00  0.2772E+01  0.5604E+01  0.4773E+01
      6.475  0.1717E+00  0.1929E+01  0.5631E+01  0.5078E+01
      6.633  0.2943E+00  0.8730E+00  0.5677E+01  0.5215E+01
      6.791  0.1934E+00  0.5714E+00  0.5708E+01  0.5306E+01
      6.949  0.6276E-01  0.3239E+00  0.5718E+01  0.5357E+01
      7.107  0.1607E-02  0.3173E+00  0.5718E+01  0.5407E+01
      7.265  0.7101E-01  0.4143E+00  0.5729E+01  0.5473E+01
      7.423  0.1945E+00  0.2661E+00  0.5760E+01  0.5515E+01
      7.581  0.1488E+00  0.1086E+00  0.5784E+01  0.5532E+01
      7.739  0.1068E+00  0.1600E+00  0.5800E+01  0.5557E+01
      7.897  0.1285E+00  0.2877E+00  0.5821E+01  0.5602E+01
      8.055  0.1174E+00  0.1495E+00  0.5839E+01  0.5626E+01
      8.213  0.3695E-01  0.1499E+00  0.5845E+01  0.5650E+01
      8.371  0.2913E-01  0.1821E+00  0.5850E+01  0.5679E+01
      8.529  0.3919E-01  0.1763E+00  0.5856E+01  0.5706E+01
      8.687  0.9258E-01  0.1027E+00  0.5871E+01  0.5723E+01
      8.845  0.1563E+00  0.1792E+00  0.5895E+01  0.5751E+01
      9.003  0.1360E+00  0.3147E+00  0.5917E+01  0.5801E+01
      9.161  0.7144E-01  0.1977E+00  0.5928E+01  0.5832E+01
      9.319  0.2738E-04  0.7723E-01  0.5928E+01  0.5844E+01
      9.477 -0.1122E-03  0.5220E-02  0.5928E+01  0.5845E+01
      9.635  0.6665E-01  0.3010E-01  0.5939E+01  0.5850E+01
      9.793  0.7244E-01  0.3862E-01  0.5950E+01  0.5856E+01
      9.951  0.7678E-01  0.1035E+00  0.5962E+01  0.5872E+01
     10.109  0.1965E+00  0.1565E+00  0.5993E+01  0.5897E+01
     10.268  0.1717E+00  0.9702E-01  0.6020E+01  0.5912E+01
     10.426  0.7056E-01  0.1171E+00  0.6032E+01  0.5931E+01
     10.584  0.1888E+00  0.1071E+00  0.6061E+01  0.5948E+01
     10.742  0.2373E+00  0.3303E-01  0.6099E+01  0.5953E+01
     10.900  0.1144E+00  0.6121E-01  0.6117E+01  0.5963E+01
     11.058  0.2432E+00  0.8221E-01  0.6155E+01  0.5976E+01
     11.216  0.2621E+00  0.5859E-01  0.6197E+01  0.5985E+01
     11.374  0.2198E+00  0.3948E-01  0.6231E+01  0.5991E+01
     11.532  0.1457E+00  0.6750E-03  0.6255E+01  0.5991E+01
     11.690  0.8344E-01  0.1135E+00  0.6268E+01  0.6009E+01
     11.848  0.1778E+00  0.2855E+00  0.6296E+01  0.6054E+01
     12.006  0.1997E+00  0.1999E+00  0.6327E+01  0.6086E+01
     12.164  0.2270E+00  0.1799E+00  0.6363E+01  0.6114E+01
     12.322  0.1766E+00  0.3951E+00  0.6391E+01  0.6177E+01
     12.480  0.1841E+00  0.3176E+00  0.6420E+01  0.6227E+01
     12.638  0.1238E+00  0.2324E+00  0.6440E+01  0.6264E+01
     12.796  0.1954E+00  0.2253E+00  0.6471E+01  0.6299E+01
     12.954  0.2538E+00  0.2113E+00  0.6511E+01  0.6333E+01
     13.112  0.3710E+00  0.1593E+00  0.6569E+01  0.6358E+01
     13.270  0.4234E+00  0.8039E-01  0.6636E+01  0.6370E+01
     13.428  0.9321E-01  0.1618E+00  0.6651E+01  0.6396E+01
     13.586 -0.7168E-03  0.3737E+00  0.6651E+01  0.6455E+01
     13.744  0.1294E+00  0.3490E+00  0.6671E+01  0.6510E+01
     13.902  0.1805E+00  0.1462E+00  0.6700E+01  0.6533E+01
     14.060  0.1722E+00  0.3468E+00  0.6727E+01  0.6588E+01
     14.218  0.1721E+00  0.3628E+00  0.6754E+01  0.6645E+01
     14.376  0.3376E+00  0.6655E-01  0.6808E+01  0.6656E+01
     14.534  0.4759E+00  0.1207E+00  0.6883E+01  0.6675E+01
     14.692  0.2344E+00  0.1260E+00  0.6920E+01  0.6695E+01
     14.850  0.8045E-01  0.1125E+00  0.6933E+01  0.6713E+01
     15.008  0.3333E-01  0.3355E+00  0.6938E+01  0.6766E+01
     15.166  0.1906E-01  0.3958E+00  0.6941E+01  0.6828E+01
     15.324  0.1014E+00  0.2339E+00  0.6957E+01  0.6865E+01
     15.482  0.2027E+00  0.2485E+00  0.6989E+01  0.6904E+01
     15.640  0.2988E+00  0.1404E+00  0.7036E+01  0.6927E+01
     15.798  0.1350E+00  0.6230E-01  0.7057E+01  0.6936E+01
     15.956  0.1581E+00  0.3118E-01  0.7082E+01  0.6941E+01
     16.114  0.3522E+00  0.1489E+00  0.7138E+01  0.6965E+01
     16.272  0.2235E+00  0.3297E+00  0.7173E+01  0.7017E+01
     16.430  0.3201E+00  0.2400E+00  0.7224E+01  0.7055E+01
     16.588  0.2912E+00  0.9550E-01  0.7270E+01  0.7070E+01
     16.746  0.1865E+00  0.2443E+00  0.7299E+01  0.7109E+01
     16.904  0.1453E+00  0.2634E+00  0.7322E+01  0.7150E+01
     17.062  0.1305E+00  0.2679E+00  0.7343E+01  0.7193E+01
     17.220  0.4191E-01  0.4109E+00  0.7350E+01  0.7258E+01
     17.378  0.2101E+00  0.2963E+00  0.7383E+01  0.7304E+01
     17.536  0.3368E+00  0.9204E-01  0.7436E+01  0.7319E+01
     17.694  0.1133E+00  0.8327E-01  0.7454E+01  0.7332E+01
     17.852  0.1014E+00  0.8302E-01  0.7470E+01  0.7345E+01
     18.010  0.4630E-01  0.1977E+00  0.7477E+01  0.7376E+01
     18.168  0.1356E+00  0.3575E+00  0.7499E+01  0.7433E+01
     18.326  0.2830E+00  0.1608E+00  0.7543E+01  0.7458E+01
     18.484  0.1708E+00  0.6945E-01  0.7570E+01  0.7469E+01
     18.642  0.5580E-01  0.6531E-01  0.7579E+01  0.7480E+01
     18.800  0.1018E+00  0.1889E+00  0.7595E+01  0.7509E+01
     18.958  0.2424E+00  0.2302E+00  0.7634E+01  0.7546E+01
     19.116  0.2971E+00  0.1536E+00  0.7681E+01  0.7570E+01
     19.274  0.3211E+00  0.4798E-01  0.7731E+01  0.7578E+01
     19.432  0.2485E+00  0.1000E+00  0.7771E+01  0.7593E+01
     19.590  0.2041E+00  0.2079E+00  0.7803E+01  0.7626E+01
     19.748  0.3430E+00  0.2900E+00  0.7857E+01  0.7672E+01
     19.906  0.3007E+00  0.4194E+00  0.7905E+01  0.7738E+01
     20.064  0.1888E+00  0.3208E+00  0.7934E+01  0.7789E+01
     20.222  0.1320E+00  0.3069E+00  0.7955E+01  0.7838E+01
     20.380  0.2651E+00  0.2912E+00  0.7997E+01  0.7884E+01
     20.538  0.4479E+00  0.2984E+00  0.8068E+01  0.7931E+01
     20.696  0.2650E+00  0.2876E+00  0.8110E+01  0.7976E+01
     20.854  0.1435E+00  0.1494E+00  0.8132E+01  0.8000E+01
     21.012  0.3563E+00  0.3144E+00  0.8189E+01  0.8049E+01
     21.170  0.3605E+00  0.4136E+00  0.8246E+01  0.8115E+01
     21.328  0.3031E+00  0.2641E+00  0.8294E+01  0.8157E+01
     21.486  0.3034E+00  0.3182E+00  0.8342E+01  0.8207E+01
     21.644  0.6729E-01  0.2785E+00  0.8352E+01  0.8251E+01
     21.803  0.2930E-01  0.1498E+00  0.8357E+01  0.8275E+01
     21.961  0.2969E+00  0.2569E+00  0.8404E+01  0.8315E+01
     22.119  0.4063E+00  0.2782E+00  0.8468E+01  0.8359E+01
     22.277  0.3672E+00  0.1529E+00  0.8526E+01  0.8383E+01
     22.435  0.4018E+00  0.2388E+00  0.8589E+01  0.8421E+01
     22.593  0.2668E+00  0.4007E+00  0.8632E+01  0.8484E+01
     22.751  0.2693E+00  0.3481E+00  0.8674E+01  0.8539E+01
     22.909  0.3946E+00  0.2076E+00  0.8736E+01  0.8572E+01
     23.067  0.3921E+00  0.4032E+00  0.8798E+01  0.8636E+01
     23.225  0.2058E+00  0.4954E+00  0.8831E+01  0.8714E+01
     23.383  0.1108E+00  0.3088E+00  0.8848E+01  0.8763E+01
     23.541  0.1750E+00  0.3532E+00  0.8876E+01  0.8819E+01
     23.699  0.1430E+00  0.2421E+00  0.8899E+01  0.8857E+01
     23.857  0.7150E-01  0.1020E-01  0.8910E+01  0.8859E+01
     24.015  0.1871E+00  0.5176E-01  0.8940E+01  0.8867E+01
     24.173  0.3043E+00  0.1551E+00  0.8988E+01  0.8891E+01
     24.331  0.1915E+00  0.1405E+00  0.9018E+01  0.8913E+01
     24.489  0.1548E+00  0.2488E+00  0.9042E+01  0.8953E+01
     24.647  0.1417E+00  0.2791E+00  0.9065E+01  0.8997E+01
     24.805  0.1377E+00  0.2422E+00  0.9087E+01  0.9035E+01
     24.963  0.2294E+00  0.1593E+00  0.9123E+01  0.9060E+01
     25.121  0.1854E+00  0.7129E-02  0.9152E+01  0.9061E+01
     25.279  0.1049E+00  0.5035E-01  0.9169E+01  0.9069E+01
     25.437  0.2396E+00  0.2517E+00  0.9206E+01  0.9109E+01
     25.595  0.1836E+00  0.2867E+00  0.9235E+01  0.9154E+01
     25.753  0.1632E-01  0.2525E+00  0.9238E+01  0.9194E+01
     25.911  0.9212E-01  0.2322E+00  0.9253E+01  0.9231E+01
     26.069  0.2419E+00  0.8494E-01  0.9291E+01  0.9244E+01
     26.227  0.2641E+00  0.1604E+00  0.9333E+01  0.9270E+01
     26.385  0.3905E+00  0.1140E+00  0.9394E+01  0.9288E+01
     26.543  0.6724E+00  0.8216E-01  0.9501E+01  0.9301E+01
     26.701  0.3318E+00  0.2368E+00  0.9553E+01  0.9338E+01
     26.859  0.1442E+00  0.4592E+00  0.9576E+01  0.9411E+01
     27.017  0.2664E+00  0.6705E+00  0.9618E+01  0.9517E+01
     27.175  0.1886E+00  0.5421E+00  0.9648E+01  0.9602E+01
     27.333  0.2489E+00  0.2913E+00  0.9687E+01  0.9648E+01
     27.491  0.3012E+00  0.1577E+00  0.9735E+01  0.9673E+01
     27.649  0.1298E+00  0.1702E+00  0.9755E+01  0.9700E+01
     27.807 -0.1145E-01  0.1643E+00  0.9753E+01  0.9726E+01
     27.965  0.2082E-01  0.2075E+00  0.9757E+01  0.9759E+01
     28.123  0.1969E+00  0.1226E+00  0.9788E+01  0.9778E+01
     28.281  0.1891E+00 -0.2080E-02  0.9818E+01  0.9778E+01
     28.439  0.1900E+00  0.3436E-01  0.9848E+01  0.9783E+01
     28.597  0.3268E+00  0.1232E+00  0.9899E+01  0.9803E+01
     28.755  0.3335E+00  0.1133E+00  0.9952E+01  0.9821E+01
     28.913  0.3501E+00  0.8836E-01  0.1001E+02  0.9835E+01
     29.071  0.4032E+00  0.3321E+00  0.1007E+02  0.9887E+01
     29.229  0.3658E+00  0.7476E+00  0.1013E+02  0.1001E+02
     29.387  0.6083E+00  0.6042E+00  0.1022E+02  0.1010E+02
     29.545  0.4861E+00  0.2441E+00  0.1030E+02  0.1014E+02
     29.703  0.1774E+00  0.2371E+00  0.1033E+02  0.1018E+02
     29.861  0.4044E+00  0.5391E+00  0.1039E+02  0.1026E+02
     30.019  0.3371E+00  0.5048E+00  0.1045E+02  0.1034E+02
     30.177  0.1101E+00  0.1753E+00  0.1046E+02  0.1037E+02
     30.335  0.1214E+00  0.1979E+00  0.1048E+02  0.1040E+02
     30.493  0.1730E+00  0.3052E+00  0.1051E+02  0.1045E+02
     30.651  0.2738E+00  0.1735E+00  0.1055E+02  0.1048E+02
     30.809  0.3292E+00  0.2247E+00  0.1061E+02  0.1051E+02
     30.967  0.4204E+00  0.3411E+00  0.1067E+02  0.1057E+02
     31.125  0.1912E+00  0.2921E+00  0.1070E+02  0.1061E+02
     31.283  0.6177E-03  0.2459E+00  0.1070E+02  0.1065E+02
     31.441  0.1017E+00  0.9839E-01  0.1072E+02  0.1067E+02
     31.599  0.1934E+00  0.8654E-01  0.1075E+02  0.1068E+02
     31.757  0.2605E+00  0.1864E+00  0.1079E+02  0.1071E+02
     31.915  0.3992E+00  0.1837E+00  0.1085E+02  0.1074E+02
     32.073  0.4469E+00  0.3346E+00  0.1092E+02  0.1079E+02
     32.231  0.4517E+00  0.3167E+00  0.1100E+02  0.1084E+02
     32.389  0.3290E+00  0.2053E+00  0.1105E+02  0.1087E+02
     32.547  0.1967E+00  0.3204E+00  0.1108E+02  0.1092E+02
     32.705  0.1418E+00  0.6333E+00  0.1110E+02  0.1102E+02
     32.863  0.2235E+00  0.5409E+00  0.1114E+02  0.1111E+02
     33.021  0.3513E+00  0.2239E+00  0.1119E+02  0.1115E+02
     33.179  0.3722E+00  0.1967E+00  0.1125E+02  0.1118E+02
     33.337  0.3895E+00  0.2308E+00  0.1131E+02  0.1121E+02
     33.496  0.3460E+00  0.1242E+00  0.1137E+02  0.1123E+02
     33.654  0.2849E+00  0.8285E-01  0.1141E+02  0.1125E+02
     33.812  0.2398E+00  0.2850E+00  0.1145E+02  0.1129E+02
     33.970  0.2104E+00  0.5185E+00  0.1148E+02  0.1137E+02
     34.128  0.2913E+00  0.4098E+00  0.1153E+02  0.1144E+02
     34.286  0.1340E+00  0.2813E+00  0.1155E+02  0.1148E+02
     34.444 -0.7389E-02  0.2384E+00  0.1155E+02  0.1152E+02
     34.602  0.2213E-01  0.1350E+00  0.1155E+02  0.1154E+02
     34.760  0.1920E+00  0.1040E+00  0.1158E+02  0.1156E+02
     34.918  0.2138E+00  0.2192E+00  0.1162E+02  0.1159E+02
     35.076  0.3194E+00  0.1787E+00  0.1167E+02  0.1162E+02
     35.234  0.3015E+00  0.1113E+00  0.1171E+02  0.1164E+02
     35.392  0.5731E-01  0.9939E-01  0.1172E+02  0.1165E+02
     35.550 -0.1415E-01  0.9052E-01  0.1172E+02  0.1167E+02
     35.708  0.4915E-01  0.8886E-01  0.1173E+02  0.1168E+02
     35.866  0.1285E+00  0.2125E+00  0.1175E+02  0.1172E+02
     36.024  0.1744E+00  0.2681E+00  0.1178E+02  0.1176E+02
     36.182  0.1004E+00  0.1523E+00  0.1179E+02  0.1178E+02
     36.340  0.5165E-01  0.5898E-03  0.1180E+02  0.1178E+02
     36.498  0.9613E-01  0.4092E-01  0.1182E+02  0.1179E+02
     36.656  0.1018E+00  0.1802E+00  0.1183E+02  0.1182E+02
     36.814  0.5609E-01  0.1483E+00  0.1184E+02  0.1184E+02
     36.972  0.1762E-02  0.1348E-01  0.1184E+02  0.1184E+02
     37.130  0.1069E+00  0.1908E-02  0.1186E+02  0.1184E+02
     37.288  0.1838E+00  0.8185E-01  0.1189E+02  0.1186E+02
     37.446  0.1034E+00  0.1467E+00  0.1190E+02  0.1188E+02
     37.604  0.1316E+00  0.1512E+00  0.1192E+02  0.1190E+02
     37.762  0.9241E-01  0.3836E-01  0.1194E+02  0.1191E+02
     37.920  0.3310E-02 -0.2466E-02  0.1194E+02  0.1191E+02
     38.078  0.4016E-01  0.6389E-01  0.1195E+02  0.1192E+02
     38.236  0.9155E-01  0.1118E+00  0.1196E+02  0.1194E+02
     38.394  0.2563E-01  0.1005E+00  0.1196E+02  0.1195E+02
     38.552 -0.4360E-02  0.7292E-01  0.1196E+02  0.1196E+02
     38.710 -0.9226E-03  0.6546E-02  0.1196E+02  0.1196E+02
     38.868 -0.2984E-04 -0.3619E-02  0.1196E+02  0.1196E+02
     39.026 -0.2567E-04 -0.3615E-03  0.1196E+02  0.1196E+02
     39.184 -0.8470E-03 -0.7552E-04  0.1196E+02  0.1196E+02
     39.342 -0.4701E-02 -0.1486E-02  0.1196E+02  0.1196E+02
     39.500  0.2211E-01 -0.4321E-02  0.1197E+02  0.1196E+02
     39.658  0.9976E-01  0.3822E-01  0.1198E+02  0.1197E+02
     39.816  0.7010E-01  0.1124E+00  0.1199E+02  0.1199E+02
     39.974  0.1729E-01  0.6507E-01  0.1200E+02  0.1200E+02
     40.132  0.1996E-01  0.1763E-01  0.1200E+02  0.1200E+02
     40.290  0.5512E-02  0.1630E-02  0.1200E+02  0.1200E+02
     40.448 -0.1104E-02 -0.1116E-02  0.1200E+02  0.1200E+02
     40.606 -0.2129E-03 -0.1380E-03  0.1200E+02  0.1200E+02
     40.764 -0.6542E-05 -0.3348E-05  0.1200E+02  0.1200E+02
     40.922 -0.4917E-07 -0.2039E-07  0.1200E+02  0.1200E+02
     41.080 -0.9851E-10 -0.3335E-10  0.1200E+02  0.1200E+02
     41.238 -0.5427E-13 -0.1503E-13  0.1200E+02  0.1200E+02
     41.396 -0.8431E-17  0.0000E+00  0.1200E+02  0.1200E+02
     41.554  0.0000E+00  0.0000E+00  0.1200E+02  0.1200E+02
     41.712  0.0000E+00  0.0000E+00  0.1200E+02  0.1200E+02
     41.870  0.0000E+00  0.0000E+00  0.1200E+02  0.1200E+02
     42.028  0.0000E+00  0.0000E+00  0.1200E+02  0.1200E+02
     42.186  0.0000E+00  0.0000E+00  0.1200E+02  0.1200E+02
     42.18626271     -5.21783504  301      4.29751519      1.00000000
     -5.218  0.0000E+00  0.0000E+00  0.0000E+00  0.0000E+00  0.0000E+00  0.0000E+00
     -5.060  0.0000E+00  0.0000E+00  0.0000E+00  0.0000E+00  0.0000E+00  0.0000E+00
     -4.902  0.0000E+00  0.0000E+00  0.0000E+00  0.0000E+00  0.0000E+00  0.0000E+00
     -4.744 -0.9684E-32  0.0000E+00 -0.1721E-33  0.0000E+00 -0.3733E-35  0.0000E+00
     -4.586 -0.2747E-26 -0.8460E-31 -0.4882E-28 -0.1554E-32 -0.1059E-29 -0.2053E-34
     -4.428 -0.2212E-21 -0.1942E-25 -0.3932E-23 -0.3566E-27 -0.8529E-25 -0.4713E-29
     -4.270 -0.5044E-17 -0.1265E-20 -0.8964E-19 -0.2323E-22 -0.1945E-20 -0.3069E-24
     -4.112 -0.3127E-13 -0.2228E-16 -0.5557E-15 -0.4093E-18 -0.1206E-16 -0.5408E-20
     -3.954 -0.5558E-10 -0.1165E-12 -0.9878E-12 -0.2139E-14 -0.2143E-13 -0.2827E-16
     -3.796 -0.2715E-07 -0.1668E-09 -0.4825E-09 -0.3063E-11 -0.1047E-10 -0.4047E-13
     -3.638 -0.3531E-05 -0.6538E-07 -0.6276E-07 -0.1201E-08 -0.1362E-08 -0.1587E-10
     -3.480 -0.1120E-03 -0.6766E-05 -0.1990E-05 -0.1243E-06 -0.4321E-07 -0.1642E-08
     -3.322 -0.5496E-03 -0.1657E-03 -0.9822E-05 -0.3044E-05 -0.2187E-06 -0.4026E-07
     -3.164  0.3040E-02 -0.4702E-03  0.5152E-04 -0.8743E-05  0.8588E-06 -0.1217E-06
     -3.006  0.1089E-01  0.4392E-02  0.1715E-03  0.7673E-04  0.1432E-05  0.7859E-06
     -2.848  0.7284E-02  0.1063E-01  0.1813E-03  0.1703E-03  0.8676E-05  0.7951E-06
     -2.690  0.1138E-01  0.6636E-02  0.5662E-03  0.2168E-03  0.4226E-04  0.7944E-05
     -2.532  0.1190E-01  0.1173E-01  0.6981E-03  0.6068E-03  0.7378E-04  0.2643E-04
     -2.374  0.3262E-01  0.1152E-01  0.2925E-02  0.7721E-03  0.4789E-03  0.5168E-04
     -2.216  0.3590E-01  0.3451E-01  0.3240E-02  0.3249E-02  0.5306E-03  0.2878E-03
     -2.058  0.2414E-02  0.3135E-01  0.1233E-03  0.2950E-02 -0.2325E-04  0.2604E-03
     -1.900 -0.1822E-02  0.5200E-03 -0.1784E-03 -0.4422E-04 -0.3516E-04 -0.2331E-04
     -1.742  0.3040E-01 -0.1868E-02  0.4910E-02 -0.2144E-03  0.1783E-02 -0.2686E-04
     -1.584  0.4602E-01  0.2847E-01  0.7502E-02  0.4881E-02  0.2738E-02  0.8841E-03
     -1.426  0.3224E-01  0.4436E-01  0.6205E-02  0.7614E-02  0.2761E-02  0.1378E-02
     -1.267  0.3729E-01  0.2812E-01  0.7785E-02  0.5669E-02  0.4527E-02  0.1215E-02
     -1.109  0.3721E-01  0.3312E-01  0.8239E-02  0.7226E-02  0.7319E-02  0.1698E-02
     -0.951  0.1844E-01  0.2974E-01  0.4025E-02  0.7135E-02  0.3829E-02  0.2415E-02
     -0.793 -0.3052E-02  0.3062E-01 -0.9001E-03  0.7617E-02 -0.1217E-02  0.2855E-02
     -0.635  0.3038E-01  0.3220E-02  0.9973E-02  0.5958E-03  0.1017E-01  0.1848E-03
     -0.477  0.7614E-01  0.2402E-04  0.2406E-01  0.1709E-03  0.3035E-01  0.6333E-04
     -0.319  0.5210E-01  0.4474E-01  0.1648E-01  0.1572E-01  0.3155E-01  0.6564E-02
     -0.161  0.5995E-01  0.6136E-01  0.2041E-01  0.2152E-01  0.5986E-01  0.9981E-02
     -0.003  0.4498E-01  0.3374E-01  0.1337E-01  0.1185E-01  0.7151E-01  0.8110E-02
      0.155  0.2777E-01  0.3674E-01  0.5154E-02  0.1469E-01  0.1407E+00  0.1136E-01
      0.313  0.7390E-01  0.5414E-01  0.2720E-01  0.2289E-01  0.3458E+00  0.1709E-01
      0.471  0.9942E-01  0.1948E-01  0.4163E-01  0.8120E-02  0.5581E+00  0.7359E-02
      0.629  0.6086E-01  0.1929E-01  0.3400E-01  0.7740E-02  0.5942E+00  0.1509E-01
      0.787  0.4588E-01  0.2109E-01  0.4087E-01  0.9390E-02  0.7709E+00  0.1421E-01
      0.945  0.3509E-01  0.1975E-01  0.3229E-01  0.1263E-01  0.7301E+00  0.1114E-01
      1.103  0.1318E-01  0.5989E-01  0.1902E-01  0.3689E-01  0.4350E+00  0.4679E-01
      1.261  0.3531E-02  0.7733E-01  0.2458E-01  0.4370E-01  0.8085E+00  0.7741E-01
      1.419  0.2043E-02  0.4237E-01  0.4359E-01  0.1994E-01  0.1563E+01  0.7165E-01
      1.577  0.1228E-02  0.5970E-01  0.3429E-01  0.2705E-01  0.1342E+01  0.1415E+00
      1.735  0.9563E-02  0.4316E-01  0.4144E-01  0.2099E-01  0.1088E+01  0.1058E+00
      1.893  0.2247E-01  0.2374E-01  0.8561E-01  0.1546E-01  0.1661E+01  0.9343E-01
      2.051  0.1456E-01  0.5311E-01  0.6142E-01  0.3048E-01  0.1518E+01  0.2408E+00
      2.209  0.4944E-02  0.5248E-01  0.2644E-01  0.4026E-01  0.6396E+00  0.2143E+00
      2.367  0.6214E-02  0.3631E-01  0.3462E-01  0.4011E-01  0.4439E+00  0.2344E+00
      2.525  0.8440E-02  0.3661E-01  0.4469E-01  0.4417E-01  0.8019E+00  0.4477E+00
      2.683  0.3300E-02  0.1996E-01  0.1522E-01  0.2631E-01  0.5523E+00  0.3858E+00
      2.841  0.7327E-02  0.7401E-02  0.1742E-01  0.2027E-01  0.1075E+01  0.2685E+00
      2.999  0.1154E-01  0.5742E-02  0.2629E-01  0.2200E-01  0.2187E+01  0.2376E+00
      3.157  0.6266E-02  0.2669E-02  0.1432E-01  0.3283E-01  0.2826E+01  0.3920E+00
      3.315  0.7311E-02  0.1695E-02  0.1342E-01  0.7712E-01  0.2604E+01  0.7929E+00
      3.473  0.1123E-01  0.1771E-02  0.2030E-01  0.9740E-01  0.1374E+01  0.1212E+01
      3.631  0.1440E-01  0.1464E-02  0.2321E-01  0.7727E-01  0.1035E+01  0.1140E+01
      3.789  0.1460E-01  0.2694E-02  0.2044E-01  0.8589E-01  0.1100E+01  0.1049E+01
      3.947  0.4673E-02  0.6920E-02  0.8960E-02  0.1188E+00  0.7950E+00  0.1200E+01
      4.105  0.1452E-02  0.7002E-02  0.1514E-02  0.1023E+00  0.4202E+00  0.1094E+01
      4.263  0.1387E-01  0.2788E-02  0.9926E-02  0.4560E-01  0.1557E+00  0.9308E+00
      4.421  0.1917E-01  0.5523E-03  0.1453E-01  0.2650E-01  0.9104E-01  0.6330E+00
      4.579  0.5722E-02  0.8205E-03  0.1040E-01  0.4639E-01  0.4155E-01  0.2498E+00
      4.737  0.8509E-02  0.2165E-02  0.3957E-01  0.2408E-01  0.9493E-01  0.2724E+00
      4.895  0.1839E-01  0.2755E-02  0.5003E-01  0.7031E-02  0.1831E+00  0.4239E+00
      5.053  0.2124E-01  0.6121E-03  0.3996E-01  0.2645E-02  0.1755E+00  0.2560E+00
      5.211  0.1693E-01  0.8127E-03  0.2991E-01  0.3708E-02  0.1123E+00  0.2558E+00
      5.369  0.1061E-01  0.2989E-02  0.1182E-01  0.6536E-02  0.4795E-01  0.5192E+00
      5.527  0.1546E-01  0.3614E-02  0.1557E-01  0.9432E-02  0.3801E-01  0.9867E+00
      5.685  0.7353E-02  0.2451E-02  0.2012E-01  0.9260E-02  0.2883E-01  0.1044E+01
      5.843 -0.1821E-02  0.3543E-02  0.7119E-02  0.1024E-01  0.3612E-02  0.1330E+01
      6.001  0.6742E-02  0.3602E-02  0.1194E-01  0.8477E-02  0.2136E-01  0.1607E+01
      6.159  0.2772E-01  0.2654E-02  0.5867E-01  0.7971E-02  0.9168E-01  0.2050E+01
      6.317  0.1452E-01  0.7424E-02  0.5384E-01  0.1089E-01  0.6215E-01  0.2669E+01
      6.475  0.4142E-02  0.1041E-01  0.5162E-01  0.1511E-01  0.5763E-01  0.1840E+01
      6.633  0.1757E-01  0.6233E-02  0.6736E-01  0.1271E-01  0.1238E+00  0.8232E+00
      6.791  0.1594E-01  0.9820E-02  0.3784E-01  0.8968E-02  0.8749E-01  0.5311E+00
      6.949  0.6481E-02  0.6775E-02  0.1077E-01  0.7700E-02  0.2948E-01  0.2940E+00
      7.107  0.1288E-02  0.5823E-02 -0.2435E-04  0.1821E-01 -0.2069E-03  0.2676E+00
      7.265  0.7145E-02  0.1136E-01  0.1836E-01  0.2709E-01  0.2235E-01  0.3374E+00
      7.423  0.1441E-01  0.1436E-01  0.5086E-01  0.2041E-01  0.6720E-01  0.2007E+00
      7.581  0.1563E-01  0.6592E-02  0.3835E-01  0.1308E-01  0.4651E-01  0.7179E-01
      7.739  0.1498E-01  0.4848E-02  0.2864E-01  0.2832E-01  0.2675E-01  0.9574E-01
      7.897  0.9922E-02  0.1319E-01  0.4110E-01  0.4270E-01  0.3140E-01  0.1815E+00
      8.055  0.2318E-02  0.7627E-02  0.4279E-01  0.2046E-01  0.2839E-01  0.9618E-01
      8.213 -0.4973E-03  0.2282E-02  0.1418E-01  0.2041E-01  0.9181E-02  0.1022E+00
      8.371 -0.3954E-03  0.5549E-02  0.9124E-02  0.2354E-01  0.9829E-02  0.1227E+00
      8.529  0.6941E-03  0.1054E-01  0.1218E-01  0.2064E-01  0.1230E-01  0.1157E+00
      8.687  0.5972E-02  0.5901E-02  0.2813E-01  0.1206E-01  0.2615E-01  0.6771E-01
      8.845  0.5670E-02  0.1081E-01  0.4855E-01  0.3287E-01  0.4641E-01  0.9598E-01
      9.003  0.5940E-02  0.2008E-01  0.3839E-01  0.6343E-01  0.4393E-01  0.1570E+00
      9.161  0.5566E-02  0.8728E-02  0.1746E-01  0.4917E-01  0.2419E-01  0.8754E-01
      9.319  0.9649E-04  0.1482E-03 -0.4886E-03  0.2263E-01  0.6229E-03  0.3272E-01
      9.477  0.1334E-03 -0.4088E-03  0.2706E-03  0.1533E-02 -0.6356E-03  0.2641E-02
      9.635  0.7678E-02 -0.2405E-03  0.2261E-01  0.6249E-02  0.1056E-01  0.1633E-01
      9.793  0.7792E-02  0.4540E-03  0.2537E-01  0.8503E-02  0.1093E-01  0.1963E-01
      9.951 -0.5192E-03  0.4234E-02  0.3118E-01  0.2464E-01  0.1574E-01  0.4714E-01
     10.109  0.1979E-01  0.3608E-02  0.5480E-01  0.3706E-01  0.5329E-01  0.7384E-01
     10.268  0.4619E-01  0.2665E-02  0.1909E-01  0.1990E-01  0.5667E-01  0.4894E-01
     10.426  0.2678E-01  0.8028E-02  0.1479E-02  0.2577E-01  0.2370E-01  0.4955E-01
     10.584  0.5601E-01  0.1011E-01  0.1991E-01  0.3121E-01  0.5504E-01  0.2950E-01
     10.742  0.6960E-01  0.3164E-02  0.2357E-01  0.1106E-01  0.7230E-01  0.6773E-02
     10.900  0.3492E-01 -0.4301E-03  0.9547E-02  0.2256E-01  0.3621E-01  0.1815E-01
     11.058  0.7062E-01 -0.1273E-03  0.2636E-01  0.2932E-01  0.7089E-01  0.2523E-01
     11.216  0.7031E-01 -0.1303E-03  0.3758E-01  0.1684E-01  0.6949E-01  0.2396E-01
     11.374  0.4816E-01 -0.1622E-02  0.4243E-01  0.1175E-01  0.5376E-01  0.1728E-01
     11.532  0.3118E-01 -0.1305E-03  0.2632E-01  0.5786E-04  0.3864E-01  0.7931E-03
     11.690  0.1217E-01  0.3560E-01  0.2232E-01  0.2132E-02  0.1806E-01  0.5113E-01
     11.848  0.1912E-01  0.7831E-01  0.5271E-01  0.1763E-01  0.3931E-01  0.1198E+00
     12.006  0.1665E-01  0.5109E-01  0.6089E-01  0.1642E-01  0.4566E-01  0.8055E-01
     12.164  0.2087E-01  0.4395E-01  0.6647E-01  0.2153E-01  0.5146E-01  0.6462E-01
     12.322  0.3075E-01  0.9671E-01  0.3719E-01  0.4717E-01  0.4504E-01  0.1405E+00
     12.480  0.4186E-01  0.7699E-01  0.2929E-01  0.3423E-01  0.4998E-01  0.1184E+00
     12.638  0.2936E-01  0.3926E-01  0.2277E-01  0.4267E-01  0.2803E-01  0.7840E-01
     12.796  0.5860E-01  0.2222E-01  0.4175E-01  0.6132E-01  0.2298E-01  0.6482E-01
     12.954  0.6728E-01  0.1559E-01  0.5761E-01  0.5616E-01  0.3455E-01  0.6848E-01
     13.112  0.6216E-01  0.1387E-01  0.8729E-01  0.3620E-01  0.8035E-01  0.5429E-01
     13.270  0.6344E-01  0.1307E-01  0.1050E+00  0.1645E-01  0.9155E-01  0.2248E-01
     13.428  0.7593E-02  0.3175E-01  0.3479E-01  0.2863E-01  0.1215E-01  0.4930E-01
     13.586 -0.6018E-03  0.6996E-01  0.2831E-02  0.7685E-01 -0.3286E-02  0.1010E+00
     13.744  0.3452E-01  0.8511E-01  0.2998E-01  0.6971E-01  0.1621E-01  0.7122E-01
     13.902  0.3894E-01  0.4685E-01  0.4594E-01  0.2239E-01  0.2692E-01  0.2459E-01
     14.060  0.1629E-01  0.5665E-01  0.4985E-01  0.6712E-01  0.3933E-01  0.1002E+00
     14.218  0.2133E-01  0.5173E-01  0.4798E-01  0.7364E-01  0.3540E-01  0.1102E+00
     14.376  0.5741E-01  0.7652E-02  0.9237E-01  0.1763E-01  0.5415E-01  0.1732E-01
     14.534  0.6228E-01  0.2513E-01  0.1396E+00  0.3169E-01  0.8407E-01  0.1817E-01
     14.692  0.2322E-01  0.3498E-01  0.6878E-01  0.2366E-01  0.4793E-01  0.2134E-01
     14.850 -0.1545E-02  0.7013E-02  0.2349E-01  0.3693E-01  0.2402E-01  0.2657E-01
     15.008 -0.2334E-02  0.3074E-01  0.1022E-01  0.1049E+00  0.1082E-01  0.7122E-01
     15.166  0.7453E-02  0.5947E-01  0.2842E-02  0.1048E+00  0.1740E-02  0.7960E-01
     15.324  0.2674E-01  0.3765E-01  0.2174E-01  0.4880E-01  0.1434E-01  0.5899E-01
     15.482  0.2801E-01  0.3432E-01  0.6008E-01  0.4771E-01  0.3377E-01  0.7431E-01
     15.640  0.2871E-01  0.9934E-02  0.9717E-01  0.3188E-01  0.4885E-01  0.4539E-01
     15.798  0.9613E-02 -0.2749E-02  0.4374E-01  0.1706E-01  0.2342E-01  0.2326E-01
     15.956  0.1393E-01  0.8501E-02  0.4478E-01  0.5024E-02  0.3031E-01  0.5803E-02
     16.114  0.3800E-01  0.2931E-01  0.9947E-01  0.3672E-01  0.6601E-01  0.2513E-01
     16.272  0.2824E-01  0.3655E-01  0.5972E-01  0.9466E-01  0.4321E-01  0.6624E-01
     16.430  0.4325E-01  0.2170E-01  0.9524E-01  0.6812E-01  0.5275E-01  0.5149E-01