 vasp.5.4.4.18Apr17-6-g9f103f2a35 (build May 18 2018 14:42:58) complex          
  
 executed on             LinuxIFC date 2020.06.30  16:51:08
 running on    4 total cores
 distrk:  each k-point on    4 cores,    1 groups
 distr:  one band on NCORES_PER_BAND=   1 cores,    4 groups


--------------------------------------------------------------------------------------------------------


 INCAR:
 POTCAR:    PAW_PBE Fe 06Sep2000                  
 POTCAR:    PAW_PBE Fe 06Sep2000                  
   VRHFIN =Fe:  d7 s1                                                           
   LEXCH  = PE                                                                  
   EATOM  =   594.3153 eV,   43.6809 Ry                                         
                                                                                
   TITEL  = PAW_PBE Fe 06Sep2000                                                
   LULTRA =        F    use ultrasoft PP ?                                      
   IUNSCR =        1    unscreen: 0-lin 1-nonlin 2-no                           
   RPACOR =    2.000    partial core radius                                     
   POMASS =   55.847; ZVAL   =    8.000    mass and valenz                      
   RCORE  =    2.300    outmost cutoff radius                                   
   RWIGS  =    2.460; RWIGS  =    1.302    wigner-seitz radius (au A)           
   ENMAX  =  267.882; ENMIN  =  200.911 eV                                      
   RCLOC  =    1.701    cutoff for local pot                                    
   LCOR   =        T    correct aug charges                                     
   LPAW   =        T    paw PP                                                  
   EAUG   =  511.368                                                            
   DEXC   =    0.000                                                            
   RMAX   =    2.356    core radius for proj-oper                               
   RAUG   =    1.300    factor for augmentation sphere                          
   RDEP   =    2.442    radius for radial grids                                 
   RDEPT  =    1.890    core radius for aug-charge                              
                                                                                
   Atomic configuration                                                         
    9 entries                                                                   
     n  l   j            E        occ.                                          
     1  0  0.50     -6993.8440   2.0000                                         
     2  0  0.50      -814.6047   2.0000                                         
     2  1  1.50      -693.3689   6.0000                                         
     3  0  0.50       -89.4732   2.0000                                         
     3  1  1.50       -55.6373   6.0000                                         
     3  2  2.50        -3.8151   7.0000                                         
     4  0  0.50        -4.2551   1.0000                                         
     4  1  1.50        -3.4015   0.0000                                         
     4  3  2.50        -1.3606   0.0000                                         
   Description                                                                  
     l       E           TYP  RCUT    TYP  RCUT                                 
     2     -3.8151135     23  2.300                                             
     2     -5.1756961     23  2.300                                             
     0     -4.2550963     23  2.300                                             
     0      7.2035603     23  2.300                                             
     1     -2.7211652     23  2.300                                             
     1     18.4316424     23  2.300                                             
  local pseudopotential read in
  partial core-charges read in
  partial kinetic energy density read in
  atomic valenz-charges read in
  non local Contribution for L=           2  read in
    real space projection operators read in
  non local Contribution for L=           2  read in
    real space projection operators read in
  non local Contribution for L=           0  read in
    real space projection operators read in
  non local Contribution for L=           0  read in
    real space projection operators read in
  non local Contribution for L=           1  read in
    real space projection operators read in
  non local Contribution for L=           1  read in
    real space projection operators read in
    PAW grid and wavefunctions read in
 
   number of l-projection  operators is LMAX  =           6
   number of lm-projection operators is LMMAX =          18
 
  PAW_PBE Fe 06Sep2000                  :
 energy of atom  1       EATOM= -594.3153
 kinetic energy error for atom=    0.0345 (will be added to EATOM!!)
 
 
 POSCAR: BCC Fe Bulk                             
  positions in direct lattice
  No initial velocities read in
 exchange correlation table for  LEXCH =        8
   RHO(1)=    0.500       N(1)  =     2000
   RHO(2)=  100.500       N(2)  =     4000
 


--------------------------------------------------------------------------------------------------------


 ion  position               nearest neighbor table
   1  0.000  0.000  0.000-
 
  LATTYP: Found a body centered cubic cell.
 ALAT       =     3.0000000000
  
  Lattice vectors:
  
 A1 = (  -1.5000000000,   1.5000000000,   1.5000000000)
 A2 = (   1.5000000000,  -1.5000000000,   1.5000000000)
 A3 = (   1.5000000000,   1.5000000000,  -1.5000000000)


Analysis of symmetry for initial positions (statically):
=====================================================================
 Subroutine PRICEL returns:
 Original cell was already a primitive cell.
 

 Routine SETGRP: Setting up the symmetry group for a 
 body centered cubic supercell.


 Subroutine GETGRP returns: Found 48 space group operations
 (whereof 48 operations were pure point group operations)
 out of a pool of 48 trial point group operations.


The static configuration has the point symmetry O_h .


Analysis of symmetry for dynamics (positions and initial velocities):
=====================================================================
 Subroutine PRICEL returns:
 Original cell was already a primitive cell.
 

 Routine SETGRP: Setting up the symmetry group for a 
 body centered cubic supercell.


 Subroutine GETGRP returns: Found 48 space group operations
 (whereof 48 operations were pure point group operations)
 out of a pool of 48 trial point group operations.


The dynamic configuration has the point symmetry O_h .


Analysis of structural, dynamic, and magnetic symmetry:
=====================================================================
 Subroutine PRICEL returns:
 Original cell was already a primitive cell.
 

 Routine SETGRP: Setting up the symmetry group for a 
 body centered cubic supercell.


 Subroutine GETGRP returns: Found 48 space group operations
 (whereof 48 operations were pure point group operations)
 out of a pool of 48 trial point group operations.


The magnetic configuration has the point symmetry O_h .


 Subroutine INISYM returns: Found 48 space group operations
 (whereof 48 operations are pure point group operations),
 and found     1 'primitive' translations

 
 
 KPOINTS: 10x10x10                                

Automatic generation of k-mesh.
Space group operators:
 irot       det(A)        alpha          n_x          n_y          n_z        tau_x        tau_y        tau_z
    1     1.000000     0.000000     1.000000     0.000000     0.000000     0.000000     0.000000     0.000000
    2    -1.000000     0.000000     1.000000     0.000000     0.000000     0.000000     0.000000     0.000000
    3     1.000000   120.000000    -0.577350    -0.577350    -0.577350     0.000000     0.000000     0.000000
    4    -1.000000   120.000000    -0.577350    -0.577350    -0.577350     0.000000     0.000000     0.000000
    5     1.000000   120.000000     0.577350     0.577350     0.577350     0.000000     0.000000     0.000000
    6    -1.000000   120.000000     0.577350     0.577350     0.577350     0.000000     0.000000     0.000000
    7     1.000000    90.000000     0.000000     0.000000    -1.000000     0.000000     0.000000     0.000000
    8    -1.000000    90.000000     0.000000     0.000000    -1.000000     0.000000     0.000000     0.000000
    9     1.000000   180.000000     0.000000     0.707107     0.707107     0.000000     0.000000     0.000000
   10    -1.000000   180.000000     0.000000     0.707107     0.707107     0.000000     0.000000     0.000000
   11     1.000000    90.000000     0.000000     1.000000     0.000000     0.000000     0.000000     0.000000
   12    -1.000000    90.000000     0.000000     1.000000     0.000000     0.000000     0.000000     0.000000
   13     1.000000   180.000000     0.000000     0.000000     1.000000     0.000000     0.000000     0.000000
   14    -1.000000   180.000000     0.000000     0.000000     1.000000     0.000000     0.000000     0.000000
   15     1.000000   120.000000    -0.577350     0.577350     0.577350     0.000000     0.000000     0.000000
   16    -1.000000   120.000000    -0.577350     0.577350     0.577350     0.000000     0.000000     0.000000
   17     1.000000   120.000000    -0.577350     0.577350    -0.577350     0.000000     0.000000     0.000000
   18    -1.000000   120.000000    -0.577350     0.577350    -0.577350     0.000000     0.000000     0.000000
   19     1.000000    90.000000     0.000000     0.000000     1.000000     0.000000     0.000000     0.000000
   20    -1.000000    90.000000     0.000000     0.000000     1.000000     0.000000     0.000000     0.000000
   21     1.000000    90.000000    -1.000000     0.000000     0.000000     0.000000     0.000000     0.000000
   22    -1.000000    90.000000    -1.000000     0.000000     0.000000     0.000000     0.000000     0.000000
   23     1.000000   180.000000     0.707107     0.000000     0.707107     0.000000     0.000000     0.000000
   24    -1.000000   180.000000     0.707107     0.000000     0.707107     0.000000     0.000000     0.000000
   25     1.000000   120.000000     0.577350    -0.577350     0.577350     0.000000     0.000000     0.000000
   26    -1.000000   120.000000     0.577350    -0.577350     0.577350     0.000000     0.000000     0.000000
   27     1.000000   120.000000    -0.577350    -0.577350     0.577350     0.000000     0.000000     0.000000
   28    -1.000000   120.000000    -0.577350    -0.577350     0.577350     0.000000     0.000000     0.000000
   29     1.000000   180.000000     1.000000     0.000000     0.000000     0.000000     0.000000     0.000000
   30    -1.000000   180.000000     1.000000     0.000000     0.000000     0.000000     0.000000     0.000000
   31     1.000000    90.000000     0.000000    -1.000000     0.000000     0.000000     0.000000     0.000000
   32    -1.000000    90.000000     0.000000    -1.000000     0.000000     0.000000     0.000000     0.000000
   33     1.000000   180.000000     0.707107     0.707107     0.000000     0.000000     0.000000     0.000000
   34    -1.000000   180.000000     0.707107     0.707107     0.000000     0.000000     0.000000     0.000000
   35     1.000000    90.000000     1.000000     0.000000     0.000000     0.000000     0.000000     0.000000
   36    -1.000000    90.000000     1.000000     0.000000     0.000000     0.000000     0.000000     0.000000
   37     1.000000   120.000000     0.577350    -0.577350    -0.577350     0.000000     0.000000     0.000000
   38    -1.000000   120.000000     0.577350    -0.577350    -0.577350     0.000000     0.000000     0.000000
   39     1.000000   180.000000     0.000000     1.000000     0.000000     0.000000     0.000000     0.000000
   40    -1.000000   180.000000     0.000000     1.000000     0.000000     0.000000     0.000000     0.000000
   41     1.000000   120.000000     0.577350     0.577350    -0.577350     0.000000     0.000000     0.000000
   42    -1.000000   120.000000     0.577350     0.577350    -0.577350     0.000000     0.000000     0.000000
   43     1.000000   180.000000     0.000000    -0.707107     0.707107     0.000000     0.000000     0.000000
   44    -1.000000   180.000000     0.000000    -0.707107     0.707107     0.000000     0.000000     0.000000
   45     1.000000   180.000000     0.707107    -0.707107     0.000000     0.000000     0.000000     0.000000
   46    -1.000000   180.000000     0.707107    -0.707107     0.000000     0.000000     0.000000     0.000000
   47     1.000000   180.000000     0.707107     0.000000    -0.707107     0.000000     0.000000     0.000000
   48    -1.000000   180.000000     0.707107     0.000000    -0.707107     0.000000     0.000000     0.000000
 
 Subroutine IBZKPT returns following result:
 ===========================================
 
 Found     44 irreducible k-points:
 
 Following reciprocal coordinates:
            Coordinates               Weight
  0.050000  0.050000  0.050000      8.000000
  0.150000  0.050000  0.050000     24.000000
  0.250000  0.050000  0.050000     24.000000
  0.350000  0.050000  0.050000     24.000000
  0.450000  0.050000  0.050000     12.000000
 -0.050000  0.050000  0.050000      6.000000
  0.150000  0.150000  0.050000     24.000000
  0.250000  0.150000  0.050000     48.000000
  0.350000  0.150000  0.050000     48.000000
 -0.150000  0.150000  0.050000     24.000000
  0.250000  0.250000  0.050000     24.000000
  0.350000  0.250000  0.050000     24.000000
 -0.250000  0.250000  0.050000     24.000000
 -0.150000  0.250000  0.050000     24.000000
 -0.350000  0.350000  0.050000     24.000000
 -0.250000  0.350000  0.050000     48.000000
 -0.450000  0.450000  0.050000     24.000000
 -0.350000  0.450000  0.050000     48.000000
 -0.250000  0.450000  0.050000     24.000000
 -0.450000 -0.450000  0.050000     24.000000
 -0.350000 -0.450000  0.050000     48.000000
 -0.350000 -0.350000  0.050000      8.000000
  0.150000  0.150000  0.150000      8.000000
  0.250000  0.150000  0.150000     24.000000
  0.350000  0.150000  0.150000     12.000000
 -0.150000  0.150000  0.150000      6.000000
  0.250000  0.250000  0.150000     24.000000
 -0.250000  0.250000  0.150000     24.000000
 -0.350000  0.350000  0.150000     24.000000
 -0.250000  0.350000  0.150000     24.000000
 -0.450000  0.450000  0.150000     24.000000
 -0.350000  0.450000  0.150000     48.000000
 -0.450000 -0.450000  0.150000     24.000000
 -0.350000 -0.450000  0.150000     24.000000
  0.250000  0.250000  0.250000      2.000000
 -0.250000  0.250000  0.250000      6.000000
 -0.350000  0.350000  0.250000     24.000000
 -0.450000  0.450000  0.250000     24.000000
 -0.350000  0.450000  0.250000     24.000000
 -0.450000 -0.450000  0.250000     24.000000
 -0.350000  0.350000  0.350000      6.000000
 -0.450000  0.450000  0.350000     24.000000
 -0.450000 -0.450000  0.350000      8.000000
 -0.450000  0.450000  0.450000      6.000000
 
 Following cartesian coordinates:
            Coordinates               Weight
  0.100000  0.100000  0.100000      8.000000
  0.100000  0.200000  0.200000     24.000000
  0.100000  0.300000  0.300000     24.000000
  0.100000  0.400000  0.400000     24.000000
  0.100000  0.500000  0.500000     12.000000
  0.100000  0.000000  0.000000      6.000000
  0.200000  0.200000  0.300000     24.000000
  0.200000  0.300000  0.400000     48.000000
  0.200000  0.400000  0.500000     48.000000
  0.200000 -0.100000  0.000000     24.000000
  0.300000  0.300000  0.500000     24.000000
  0.300000  0.400000  0.600000     24.000000
  0.300000 -0.200000  0.000000     24.000000
  0.300000 -0.100000  0.100000     24.000000
  0.400000 -0.300000  0.000000     24.000000
  0.400000 -0.200000  0.100000     48.000000
  0.500000 -0.400000  0.000000     24.000000
  0.500000 -0.300000  0.100000     48.000000
  0.500000 -0.200000  0.200000     24.000000
 -0.400000 -0.400000 -0.900000     24.000000
 -0.400000 -0.300000 -0.800000     48.000000
 -0.300000 -0.300000 -0.700000      8.000000
  0.300000  0.300000  0.300000      8.000000
  0.300000  0.400000  0.400000     24.000000
  0.300000  0.500000  0.500000     12.000000
  0.300000  0.000000  0.000000      6.000000
  0.400000  0.400000  0.500000     24.000000
  0.400000 -0.100000  0.000000     24.000000
  0.500000 -0.200000  0.000000     24.000000
  0.500000 -0.100000  0.100000     24.000000
  0.600000 -0.300000  0.000000     24.000000
  0.600000 -0.200000  0.100000     48.000000
 -0.300000 -0.300000 -0.900000     24.000000
 -0.300000 -0.200000 -0.800000     24.000000
  0.500000  0.500000  0.500000      2.000000
  0.500000  0.000000  0.000000      6.000000
  0.600000 -0.100000  0.000000     24.000000
  0.700000 -0.200000  0.000000     24.000000
  0.700000 -0.100000  0.100000     24.000000
 -0.200000 -0.200000 -0.900000     24.000000
  0.700000  0.000000  0.000000      6.000000
  0.800000 -0.100000  0.000000     24.000000
 -0.100000 -0.100000 -0.900000      8.000000
  0.900000  0.000000  0.000000      6.000000
 


--------------------------------------------------------------------------------------------------------




 Dimension of arrays:
   k-points           NKPTS =     44   k-points in BZ     NKDIM =     44   number of bands    NBANDS=     12
   number of dos      NEDOS =    301   number of ions     NIONS =      1
   non local maximal  LDIM  =      6   non local SUM 2l+1 LMDIM =     18
   total plane-waves  NPLWV =   1000
   max r-space proj   IRMAX =      1   max aug-charges    IRDMAX=   2838
   dimension x,y,z NGX =    10 NGY =   10 NGZ =   10
   dimension x,y,z NGXF=    20 NGYF=   20 NGZF=   20
   support grid    NGXF=    20 NGYF=   20 NGZF=   20
   ions per type =               1
   NGX,Y,Z   is equivalent  to a cutoff of   6.40,  6.40,  6.40 a.u.
   NGXF,Y,Z  is equivalent  to a cutoff of  12.80, 12.80, 12.80 a.u.

 SYSTEM =  bcc Fe                                  
 POSCAR =  BCC Fe Bulk                             

 Startparameter for this run:
   NWRITE =      2    write-flag & timer
   PREC   = normal    normal or accurate (medium, high low for compatibility)
   ISTART =      0    job   : 0-new  1-cont  2-samecut
   ICHARG =      2    charge: 1-file 2-atom 10-const
   ISPIN  =      2    spin polarized calculation?
   LNONCOLLINEAR =      F non collinear calculations
   LSORBIT =      F    spin-orbit coupling
   INIWAV =      1    electr: 0-lowe 1-rand  2-diag
   LASPH  =      F    aspherical Exc in radial PAW
   METAGGA=      F    non-selfconsistent MetaGGA calc.

 Electronic Relaxation 1
   ENCUT  =  268.0 eV  19.70 Ry    4.44 a.u.   3.47  3.47  3.47*2*pi/ulx,y,z
   ENINI  =  268.0     initial cutoff
   ENAUG  =  511.4 eV  augmentation charge cutoff
   NELM   =     60;   NELMIN=  2; NELMDL= -5     # of ELM steps 
   EDIFF  = 0.1E-03   stopping-criterion for ELM
   LREAL  =      F    real-space projection
   NLSPLINE    = F    spline interpolate recip. space projectors
   LCOMPAT=      F    compatible to vasp.4.4
   GGA_COMPAT  = T    GGA compatible to vasp.4.4-vasp.4.6
   LMAXPAW     = -100 max onsite density
   LMAXMIX     =    2 max onsite mixed and CHGCAR
   VOSKOWN=      0    Vosko Wilk Nusair interpolation
   ROPT   =    0.00000
 Ionic relaxation
   EDIFFG = 0.1E-02   stopping-criterion for IOM
   NSW    =      0    number of steps for IOM
   NBLOCK =      1;   KBLOCK =      1    inner block; outer block 
   IBRION =     -1    ionic relax: 0-MD 1-quasi-New 2-CG
   NFREE  =      0    steps in history (QN), initial steepest desc. (CG)
   ISIF   =      2    stress and relaxation
   IWAVPR =     10    prediction:  0-non 1-charg 2-wave 3-comb
   ISYM   =      2    0-nonsym 1-usesym 2-fastsym
   LCORR  =      T    Harris-Foulkes like correction to forces

   POTIM  = 0.5000    time-step for ionic-motion
   TEIN   =    0.0    initial temperature
   TEBEG  =    0.0;   TEEND  =   0.0 temperature during run
   SMASS  =  -3.00    Nose mass-parameter (am)
   estimated Nose-frequenzy (Omega)   =  0.10E-29 period in steps =****** mass=  -0.154E-27a.u.
   SCALEE = 1.0000    scale energy and forces
   NPACO  =    256;   APACO  = 16.0  distance and # of slots for P.C.
   PSTRESS=    0.0 pullay stress

  Mass of Ions in am
   POMASS =  55.85
  Ionic Valenz
   ZVAL   =   8.00
  Atomic Wigner-Seitz radii
   RWIGS  =   1.30
  virtual crystal weights 
   VCA    =   1.00
   NELECT =       8.0000    total number of electrons
   NUPDOWN=      -1.0000    fix difference up-down

 DOS related values:
   EMIN   =  10.00;   EMAX   =-10.00  energy-range for DOS
   EFERMI =   0.00
   ISMEAR =     1;   SIGMA  =   0.20  broadening in eV -4-tet -1-fermi 0-gaus

 Electronic relaxation 2 (details)
   IALGO  =     38    algorithm
   LDIAG  =      T    sub-space diagonalisation (order eigenvalues)
   LSUBROT=      F    optimize rotation matrix (better conditioning)
   TURBO    =      0    0=normal 1=particle mesh
   IRESTART =      0    0=no restart 2=restart with 2 vectors
   NREBOOT  =      0    no. of reboots
   NMIN     =      0    reboot dimension
   EREF     =   0.00    reference energy to select bands
   IMIX   =      4    mixing-type and parameters
     AMIX     =   0.40;   BMIX     =  1.00
     AMIX_MAG =   1.60;   BMIX_MAG =  1.00
     AMIN     =   0.10
     WC   =   100.;   INIMIX=   1;  MIXPRE=   1;  MAXMIX= -45

 Intra band minimization:
   WEIMIN = 0.0000     energy-eigenvalue tresh-hold
   EBREAK =  0.21E-05  absolut break condition
   DEPER  =   0.30     relativ break condition  

   TIME   =   0.40     timestep for ELM

  volume/ion in A,a.u.               =      13.50        91.10
  Fermi-wavevector in a.u.,A,eV,Ry     =   1.375077  2.598518 25.726382  1.890836
  Thomas-Fermi vector in A             =   2.500445
 
 Write flags
   LWAVE        =      T    write WAVECAR
   LDOWNSAMPLE  =      F    k-point downsampling of WAVECAR
   LCHARG       =      T    write CHGCAR
   LVTOT        =      F    write LOCPOT, total local potential
   LVHAR        =      F    write LOCPOT, Hartree potential only
   LELF         =      F    write electronic localiz. function (ELF)
   LORBIT       =      0    0 simple, 1 ext, 2 COOP (PROOUT), +10 PAW based schemes


 Dipole corrections
   LMONO  =      F    monopole corrections only (constant potential shift)
   LDIPOL =      F    correct potential (dipole corrections)
   IDIPOL =      0    1-x, 2-y, 3-z, 4-all directions 
   EPSILON=  1.0000000 bulk dielectric constant

 Exchange correlation treatment:
   GGA     =    --    GGA type
   LEXCH   =     8    internal setting for exchange type
   VOSKOWN=      0    Vosko Wilk Nusair interpolation
   LHFCALC =     F    Hartree Fock is set to
   LHFONE  =     F    Hartree Fock one center treatment
   AEXX    =    0.0000 exact exchange contribution

 Linear response parameters
   LEPSILON=     F    determine dielectric tensor
   LRPA    =     F    only Hartree local field effects (RPA)
   LNABLA  =     F    use nabla operator in PAW spheres
   LVEL    =     F    velocity operator in full k-point grid
   LINTERFAST=   F  fast interpolation
   KINTER  =     0    interpolate to denser k-point grid
   CSHIFT  =0.1000    complex shift for real part using Kramers Kronig
   OMEGAMAX=  -1.0    maximum frequency
   DEG_THRESHOLD= 0.2000000E-02 threshold for treating states as degnerate
   RTIME   =   -0.100 relaxation time in fs
  (WPLASMAI=    0.000 imaginary part of plasma frequency in eV, 0.658/RTIME)
   DFIELD  = 0.0000000 0.0000000 0.0000000 field for delta impulse in time
 
 Orbital magnetization related:
   ORBITALMAG=     F  switch on orbital magnetization
   LCHIMAG   =     F  perturbation theory with respect to B field
   DQ        =  0.001000  dq finite difference perturbation B field
   LLRAUG    =     F  two centre corrections for induced B field



--------------------------------------------------------------------------------------------------------


 Static calculation
 charge density and potential will be updated during run
 spin polarized calculation
 Variant of blocked Davidson
 Davidson routine will perform the subspace rotation
 perform sub-space diagonalisation
    after iterative eigenvector-optimisation
 modified Broyden-mixing scheme, WC =      100.0
 initial mixing is a Kerker type mixing with AMIX =  0.4000 and BMIX =      1.0000
 Hartree-type preconditioning will be used
 using additional bands            8
 reciprocal scheme for non local part
 use partial core corrections
 calculate Harris-corrections to forces 
   (improved forces if not selfconsistent)
 use gradient corrections 
 use of overlap-Matrix (Vanderbilt PP)
 Methfessel and Paxton  Order N= 1 SIGMA  =   0.20


--------------------------------------------------------------------------------------------------------


  energy-cutoff  :      268.00
  volume of cell :       13.50
      direct lattice vectors                 reciprocal lattice vectors
    -1.500000000  1.500000000  1.500000000     0.000000000  0.333333333  0.333333333
     1.500000000 -1.500000000  1.500000000     0.333333333  0.000000000  0.333333333
     1.500000000  1.500000000 -1.500000000     0.333333333  0.333333333  0.000000000

  length of vectors
     2.598076211  2.598076211  2.598076211     0.471404521  0.471404521  0.471404521


 
 k-points in units of 2pi/SCALE and weight: 10x10x10                                
   0.10000000  0.10000000  0.10000000       0.008
   0.10000000  0.20000000  0.20000000       0.024
   0.10000000  0.30000000  0.30000000       0.024
   0.10000000  0.40000000  0.40000000       0.024
   0.10000000  0.50000000  0.50000000       0.012
   0.10000000  0.00000000  0.00000000       0.006
   0.20000000  0.20000000  0.30000000       0.024
   0.20000000  0.30000000  0.40000000       0.048
   0.20000000  0.40000000  0.50000000       0.048
   0.20000000 -0.10000000  0.00000000       0.024
   0.30000000  0.30000000  0.50000000       0.024
   0.30000000  0.40000000  0.60000000       0.024
   0.30000000 -0.20000000  0.00000000       0.024
   0.30000000 -0.10000000  0.10000000       0.024
   0.40000000 -0.30000000  0.00000000       0.024
   0.40000000 -0.20000000  0.10000000       0.048
   0.50000000 -0.40000000  0.00000000       0.024
   0.50000000 -0.30000000  0.10000000       0.048
   0.50000000 -0.20000000  0.20000000       0.024
  -0.40000000 -0.40000000 -0.90000000       0.024
  -0.40000000 -0.30000000 -0.80000000       0.048
  -0.30000000 -0.30000000 -0.70000000       0.008
   0.30000000  0.30000000  0.30000000       0.008
   0.30000000  0.40000000  0.40000000       0.024
   0.30000000  0.50000000  0.50000000       0.012
   0.30000000  0.00000000  0.00000000       0.006
   0.40000000  0.40000000  0.50000000       0.024
   0.40000000 -0.10000000  0.00000000       0.024
   0.50000000 -0.20000000  0.00000000       0.024
   0.50000000 -0.10000000  0.10000000       0.024
   0.60000000 -0.30000000  0.00000000       0.024
   0.60000000 -0.20000000  0.10000000       0.048
  -0.30000000 -0.30000000 -0.90000000       0.024
  -0.30000000 -0.20000000 -0.80000000       0.024
   0.50000000  0.50000000  0.50000000       0.002
   0.50000000  0.00000000  0.00000000       0.006
   0.60000000 -0.10000000  0.00000000       0.024
   0.70000000 -0.20000000  0.00000000       0.024
   0.70000000 -0.10000000  0.10000000       0.024
  -0.20000000 -0.20000000 -0.90000000       0.024
   0.70000000  0.00000000  0.00000000       0.006
   0.80000000 -0.10000000  0.00000000       0.024
  -0.10000000 -0.10000000 -0.90000000       0.008
   0.90000000  0.00000000  0.00000000       0.006
 
 k-points in reciprocal lattice and weights: 10x10x10                                
   0.05000000  0.05000000  0.05000000       0.008
   0.15000000  0.05000000  0.05000000       0.024
   0.25000000  0.05000000  0.05000000       0.024
   0.35000000  0.05000000  0.05000000       0.024
   0.45000000  0.05000000  0.05000000       0.012
  -0.05000000  0.05000000  0.05000000       0.006
   0.15000000  0.15000000  0.05000000       0.024
   0.25000000  0.15000000  0.05000000       0.048
   0.35000000  0.15000000  0.05000000       0.048
  -0.15000000  0.15000000  0.05000000       0.024
   0.25000000  0.25000000  0.05000000       0.024
   0.35000000  0.25000000  0.05000000       0.024
  -0.25000000  0.25000000  0.05000000       0.024
  -0.15000000  0.25000000  0.05000000       0.024
  -0.35000000  0.35000000  0.05000000       0.024
  -0.25000000  0.35000000  0.05000000       0.048
  -0.45000000  0.45000000  0.05000000       0.024
  -0.35000000  0.45000000  0.05000000       0.048
  -0.25000000  0.45000000  0.05000000       0.024
  -0.45000000 -0.45000000  0.05000000       0.024
  -0.35000000 -0.45000000  0.05000000       0.048
  -0.35000000 -0.35000000  0.05000000       0.008
   0.15000000  0.15000000  0.15000000       0.008
   0.25000000  0.15000000  0.15000000       0.024
   0.35000000  0.15000000  0.15000000       0.012
  -0.15000000  0.15000000  0.15000000       0.006
   0.25000000  0.25000000  0.15000000       0.024
  -0.25000000  0.25000000  0.15000000       0.024
  -0.35000000  0.35000000  0.15000000       0.024
  -0.25000000  0.35000000  0.15000000       0.024
  -0.45000000  0.45000000  0.15000000       0.024
  -0.35000000  0.45000000  0.15000000       0.048
  -0.45000000 -0.45000000  0.15000000       0.024
  -0.35000000 -0.45000000  0.15000000       0.024
   0.25000000  0.25000000  0.25000000       0.002
  -0.25000000  0.25000000  0.25000000       0.006
  -0.35000000  0.35000000  0.25000000       0.024
  -0.45000000  0.45000000  0.25000000       0.024
  -0.35000000  0.45000000  0.25000000       0.024
  -0.45000000 -0.45000000  0.25000000       0.024
  -0.35000000  0.35000000  0.35000000       0.006
  -0.45000000  0.45000000  0.35000000       0.024
  -0.45000000 -0.45000000  0.35000000       0.008
  -0.45000000  0.45000000  0.45000000       0.006
 
 position of ions in fractional coordinates (direct lattice) 
   0.00000000  0.00000000  0.00000000
 
 position of ions in cartesian coordinates  (Angst):
   0.00000000  0.00000000  0.00000000
 


--------------------------------------------------------------------------------------------------------


 k-point  1 :   0.0500 0.0500 0.0500  plane waves:     138
 k-point  2 :   0.1500 0.0500 0.0500  plane waves:     137
 k-point  3 :   0.2500 0.0500 0.0500  plane waves:     135
 k-point  4 :   0.3500 0.0500 0.0500  plane waves:     136
 k-point  5 :   0.4500 0.0500 0.0500  plane waves:     132
 k-point  6 :  -0.0500 0.0500 0.0500  plane waves:     140
 k-point  7 :   0.1500 0.1500 0.0500  plane waves:     136
 k-point  8 :   0.2500 0.1500 0.0500  plane waves:     135
 k-point  9 :   0.3500 0.1500 0.0500  plane waves:     135
 k-point 10 :  -0.1500 0.1500 0.0500  plane waves:     137
 k-point 11 :   0.2500 0.2500 0.0500  plane waves:     138
 k-point 12 :   0.3500 0.2500 0.0500  plane waves:     140
 k-point 13 :  -0.2500 0.2500 0.0500  plane waves:     136
 k-point 14 :  -0.1500 0.2500 0.0500  plane waves:     137
 k-point 15 :  -0.3500 0.3500 0.0500  plane waves:     133
 k-point 16 :  -0.2500 0.3500 0.0500  plane waves:     136
 k-point 17 :  -0.4500 0.4500 0.0500  plane waves:     136
 k-point 18 :  -0.3500 0.4500 0.0500  plane waves:     137
 k-point 19 :  -0.2500 0.4500 0.0500  plane waves:     135
 k-point 20 :  -0.4500-0.4500 0.0500  plane waves:     132
 k-point 21 :  -0.3500-0.4500 0.0500  plane waves:     134
 k-point 22 :  -0.3500-0.3500 0.0500  plane waves:     134
 k-point 23 :   0.1500 0.1500 0.1500  plane waves:     138
 k-point 24 :   0.2500 0.1500 0.1500  plane waves:     139
 k-point 25 :   0.3500 0.1500 0.1500  plane waves:     138
 k-point 26 :  -0.1500 0.1500 0.1500  plane waves:     140
 k-point 27 :   0.2500 0.2500 0.1500  plane waves:     142
 k-point 28 :  -0.2500 0.2500 0.1500  plane waves:     134
 k-point 29 :  -0.3500 0.3500 0.1500  plane waves:     131
 k-point 30 :  -0.2500 0.3500 0.1500  plane waves:     134
 k-point 31 :  -0.4500 0.4500 0.1500  plane waves:     130
 k-point 32 :  -0.3500 0.4500 0.1500  plane waves:     136
 k-point 33 :  -0.4500-0.4500 0.1500  plane waves:     132
 k-point 34 :  -0.3500-0.4500 0.1500  plane waves:     135
 k-point 35 :   0.2500 0.2500 0.2500  plane waves:     140
 k-point 36 :  -0.2500 0.2500 0.2500  plane waves:     128
 k-point 37 :  -0.3500 0.3500 0.2500  plane waves:     131
 k-point 38 :  -0.4500 0.4500 0.2500  plane waves:     129
 k-point 39 :  -0.3500 0.4500 0.2500  plane waves:     129
 k-point 40 :  -0.4500-0.4500 0.2500  plane waves:     131
 k-point 41 :  -0.3500 0.3500 0.3500  plane waves:     132
 k-point 42 :  -0.4500 0.4500 0.3500  plane waves:     127
 k-point 43 :  -0.4500-0.4500 0.3500  plane waves:     125
 k-point 44 :  -0.4500 0.4500 0.4500  plane waves:     116

 maximum and minimum number of plane-waves per node :       142      116

 maximum number of plane-waves:       142
 maximum index in each direction: 
   IXMAX=    3   IYMAX=    3   IZMAX=    3
   IXMIN=   -3   IYMIN=   -3   IZMIN=   -3


 serial   3D FFT for wavefunctions
 parallel 3D FFT for charge:
    minimum data exchange during FFTs selected (reduces bandwidth)


 total amount of memory used by VASP MPI-rank0    32099. kBytes
=======================================================================

   base      :      30000. kBytes
   nonl-proj :        914. kBytes
   fftplans  :        142. kBytes
   grid      :        320. kBytes
   one-center:         31. kBytes
   wavefun   :        692. kBytes
 
     INWAV:  cpu time    0.0001: real time    0.0001
 Broyden mixing: mesh for mixing (old mesh)
   NGX =  7   NGY =  7   NGZ =  7
  (NGX  = 20   NGY  = 20   NGZ  = 20)
  gives a total of    343 points

 initial charge density was supplied:
 charge density of overlapping atoms calculated
 number of electron       8.0000000 magnetization       3.0000000
 keeping initial charge density in first step


--------------------------------------------------------------------------------------------------------


 Maximum index for augmentation-charges          669 (set IRDMAX)


--------------------------------------------------------------------------------------------------------


 First call to EWALD:  gamma=   0.744
 Maximum number of real-space cells 3x 3x 3
 Maximum number of reciprocal cells 3x 3x 3

    FEWALD:  cpu time    0.0013: real time    0.0014


--------------------------------------- Iteration      1(   1)  ---------------------------------------


    POTLOK:  cpu time    0.0043: real time    0.0058
    SETDIJ:  cpu time    0.0054: real time    0.0055
     EDDAV:  cpu time    0.1713: real time    0.1752
       DOS:  cpu time    0.0013: real time    0.0013
    --------------------------------------------
      LOOP:  cpu time    0.1831: real time    0.1878

 eigenvalue-minimisations  :  2344
 total energy-change (2. order) : 0.1079922E+02  (-0.2629080E+03)
 number of electron       8.0000000 magnetization       3.0000000
 augmentation part        8.0000000 magnetization       3.0000000

 Free energy of the ion-electron system (eV)
  ---------------------------------------------------
  alpha Z        PSCENC =        51.19538963
  Ewald energy   TEWEN  =      -558.97799591
  -Hartree energ DENC   =      -124.96240203
  -exchange      EXHF   =         0.00000000
  -V(xc)+E(xc)   XCENC  =         4.59181164
  PAW double counting   =       553.75926685     -561.48528711
  entropy T*S    EENTRO =         0.00043094
  eigenvalues    EBANDS =        52.39716200
  atomic energy  EATOM  =       594.28084496
  Solvation  Ediel_sol  =         0.00000000
  ---------------------------------------------------
  free energy    TOTEN  =        10.79922098 eV

  energy without entropy =       10.79879003  energy(sigma->0) =       10.79907733


--------------------------------------------------------------------------------------------------------




--------------------------------------- Iteration      1(   2)  ---------------------------------------


     EDDAV:  cpu time    0.1588: real time    0.1627
       DOS:  cpu time    0.0013: real time    0.0013
    --------------------------------------------
      LOOP:  cpu time    0.1593: real time    0.1640

 eigenvalue-minimisations  :  2212
 total energy-change (2. order) :-0.1947092E+02  (-0.1772226E+02)
 number of electron       8.0000000 magnetization       3.0000000
 augmentation part        8.0000000 magnetization       3.0000000

 Free energy of the ion-electron system (eV)
  ---------------------------------------------------
  alpha Z        PSCENC =        51.19538963
  Ewald energy   TEWEN  =      -558.97799591
  -Hartree energ DENC   =      -124.96240203
  -exchange      EXHF   =         0.00000000
  -V(xc)+E(xc)   XCENC  =         4.59181164
  PAW double counting   =       553.75926685     -561.48528711
  entropy T*S    EENTRO =         0.00170092
  eigenvalues    EBANDS =        32.92496894
  atomic energy  EATOM  =       594.28084496
  Solvation  Ediel_sol  =         0.00000000
  ---------------------------------------------------
  free energy    TOTEN  =        -8.67170211 eV

  energy without entropy =       -8.67340303  energy(sigma->0) =       -8.67226908


--------------------------------------------------------------------------------------------------------




--------------------------------------- Iteration      1(   3)  ---------------------------------------


     EDDAV:  cpu time    0.1672: real time    0.1707
       DOS:  cpu time    0.0014: real time    0.0013
    --------------------------------------------
      LOOP:  cpu time    0.1686: real time    0.1721

 eigenvalue-minimisations  :  2496
 total energy-change (2. order) :-0.3385488E+00  (-0.3377788E+00)
 number of electron       8.0000000 magnetization       3.0000000
 augmentation part        8.0000000 magnetization       3.0000000

 Free energy of the ion-electron system (eV)
  ---------------------------------------------------
  alpha Z        PSCENC =        51.19538963
  Ewald energy   TEWEN  =      -558.97799591
  -Hartree energ DENC   =      -124.96240203
  -exchange      EXHF   =         0.00000000
  -V(xc)+E(xc)   XCENC  =         4.59181164
  PAW double counting   =       553.75926685     -561.48528711
  entropy T*S    EENTRO =         0.00127326
  eigenvalues    EBANDS =        32.58684776
  atomic energy  EATOM  =       594.28084496
  Solvation  Ediel_sol  =         0.00000000
  ---------------------------------------------------
  free energy    TOTEN  =        -9.01025095 eV

  energy without entropy =       -9.01152421  energy(sigma->0) =       -9.01067537


--------------------------------------------------------------------------------------------------------




--------------------------------------- Iteration      1(   4)  ---------------------------------------


     EDDAV:  cpu time    0.1636: real time    0.1675
       DOS:  cpu time    0.0012: real time    0.0013
    --------------------------------------------
      LOOP:  cpu time    0.1649: real time    0.1688

 eigenvalue-minimisations  :  2312
 total energy-change (2. order) :-0.1006653E-02  (-0.1006612E-02)
 number of electron       8.0000000 magnetization       3.0000000
 augmentation part        8.0000000 magnetization       3.0000000

 Free energy of the ion-electron system (eV)
  ---------------------------------------------------
  alpha Z        PSCENC =        51.19538963
  Ewald energy   TEWEN  =      -558.97799591
  -Hartree energ DENC   =      -124.96240203
  -exchange      EXHF   =         0.00000000
  -V(xc)+E(xc)   XCENC  =         4.59181164
  PAW double counting   =       553.75926685     -561.48528711
  entropy T*S    EENTRO =         0.00127437
  eigenvalues    EBANDS =        32.58583999
  atomic energy  EATOM  =       594.28084496
  Solvation  Ediel_sol  =         0.00000000
  ---------------------------------------------------
  free energy    TOTEN  =        -9.01125761 eV

  energy without entropy =       -9.01253198  energy(sigma->0) =       -9.01168240


--------------------------------------------------------------------------------------------------------




--------------------------------------- Iteration      1(   5)  ---------------------------------------


     EDDAV:  cpu time    0.1490: real time    0.1526
       DOS:  cpu time    0.0013: real time    0.0013
    CHARGE:  cpu time    0.0036: real time    0.0035
    MIXING:  cpu time    0.0003: real time    0.0004
    --------------------------------------------
      LOOP:  cpu time    0.1542: real time    0.1578

 eigenvalue-minimisations  :  2024
 total energy-change (2. order) :-0.5406179E-05  (-0.5406222E-05)
 number of electron       7.9999985 magnetization       2.1047032
 augmentation part        3.6027867 magnetization       1.4098763

 Broyden mixing:
  rms(total) = 0.96741E+00    rms(broyden)= 0.96666E+00
  rms(prec ) = 0.33364E+01
  weight for this iteration     100.00

 Free energy of the ion-electron system (eV)
  ---------------------------------------------------
  alpha Z        PSCENC =        51.19538963
  Ewald energy   TEWEN  =      -558.97799591
  -Hartree energ DENC   =      -124.96240203
  -exchange      EXHF   =         0.00000000
  -V(xc)+E(xc)   XCENC  =         4.59181164
  PAW double counting   =       553.75926685     -561.48528711
  entropy T*S    EENTRO =         0.00127438
  eigenvalues    EBANDS =        32.58583458
  atomic energy  EATOM  =       594.28084496
  Solvation  Ediel_sol  =         0.00000000
  ---------------------------------------------------
  free energy    TOTEN  =        -9.01126301 eV

  energy without entropy =       -9.01253739  energy(sigma->0) =       -9.01168781


--------------------------------------------------------------------------------------------------------




--------------------------------------- Iteration      1(   6)  ---------------------------------------


    POTLOK:  cpu time    0.0039: real time    0.0040
    SETDIJ:  cpu time    0.0049: real time    0.0049
     EDDAV:  cpu time    0.1637: real time    0.1676
       DOS:  cpu time    0.0013: real time    0.0013
    CHARGE:  cpu time    0.0029: real time    0.0029
    MIXING:  cpu time    0.0004: real time    0.0004
    --------------------------------------------
      LOOP:  cpu time    0.1771: real time    0.1811

 eigenvalue-minimisations  :  2360
 total energy-change (2. order) : 0.7476023E+00  (-0.1394800E+01)
 number of electron       7.9999978 magnetization       2.5207940
 augmentation part        4.4265334 magnetization       2.0462631

 Broyden mixing:
  rms(total) = 0.78142E+00    rms(broyden)= 0.78120E+00
  rms(prec ) = 0.13460E+01
  weight for this iteration     100.00

 eigenvalues of (default mixing * dielectric matrix)
  average eigenvalue GAMMA=   0.3887
  0.3887

 Free energy of the ion-electron system (eV)
  ---------------------------------------------------
  alpha Z        PSCENC =        51.19538963
  Ewald energy   TEWEN  =      -558.97799591
  -Hartree energ DENC   =      -106.64355425
  -exchange      EXHF   =         0.00000000
  -V(xc)+E(xc)   XCENC  =         3.59216000
  PAW double counting   =       572.79839214     -578.05925989
  entropy T*S    EENTRO =         0.00515129
  eigenvalues    EBANDS =        13.54521129
  atomic energy  EATOM  =       594.28084496
  Solvation  Ediel_sol  =         0.00000000
  ---------------------------------------------------
  free energy    TOTEN  =        -8.26366075 eV

  energy without entropy =       -8.26881204  energy(sigma->0) =       -8.26537784


--------------------------------------------------------------------------------------------------------




--------------------------------------- Iteration      1(   7)  ---------------------------------------


    POTLOK:  cpu time    0.0039: real time    0.0041
    SETDIJ:  cpu time    0.0048: real time    0.0048
     EDDAV:  cpu time    0.1721: real time    0.1760
       DOS:  cpu time    0.0014: real time    0.0014
    CHARGE:  cpu time    0.0031: real time    0.0032
    MIXING:  cpu time    0.0005: real time    0.0005
    --------------------------------------------
      LOOP:  cpu time    0.1859: real time    0.1900

 eigenvalue-minimisations  :  2400
 total energy-change (2. order) : 0.1689409E+00  (-0.1528789E+00)
 number of electron       7.9999980 magnetization       2.5850387
 augmentation part        4.1606322 magnetization       2.1051652

 Broyden mixing:
  rms(total) = 0.34506E+00    rms(broyden)= 0.34502E+00
  rms(prec ) = 0.41901E+00
  weight for this iteration     100.00

 eigenvalues of (default mixing * dielectric matrix)
  average eigenvalue GAMMA=   0.6910
  0.7086  0.6734

 Free energy of the ion-electron system (eV)
  ---------------------------------------------------
  alpha Z        PSCENC =        51.19538963
  Ewald energy   TEWEN  =      -558.97799591
  -Hartree energ DENC   =      -111.08188507
  -exchange      EXHF   =         0.00000000
  -V(xc)+E(xc)   XCENC  =         4.24472227
  PAW double counting   =       603.87052611     -611.04450864
  entropy T*S    EENTRO =         0.00057786
  eigenvalues    EBANDS =        19.41760894
  atomic energy  EATOM  =       594.28084496
  Solvation  Ediel_sol  =         0.00000000
  ---------------------------------------------------
  free energy    TOTEN  =        -8.09471985 eV

  energy without entropy =       -8.09529771  energy(sigma->0) =       -8.09491247


--------------------------------------------------------------------------------------------------------




--------------------------------------- Iteration      1(   8)  ---------------------------------------


    POTLOK:  cpu time    0.0042: real time    0.0043
    SETDIJ:  cpu time    0.0048: real time    0.0048
     EDDAV:  cpu time    0.1581: real time    0.1615
       DOS:  cpu time    0.0013: real time    0.0013
    CHARGE:  cpu time    0.0030: real time    0.0030
    MIXING:  cpu time    0.0004: real time    0.0004
    --------------------------------------------
      LOOP:  cpu time    0.1718: real time    0.1754

 eigenvalue-minimisations  :  2308
 total energy-change (2. order) :-0.1407009E-02  (-0.1720876E-02)
 number of electron       7.9999980 magnetization       2.6340511
 augmentation part        4.1628882 magnetization       2.1601614

 Broyden mixing:
  rms(total) = 0.14344E+00    rms(broyden)= 0.14343E+00
  rms(prec ) = 0.22817E+00
  weight for this iteration     100.00

 eigenvalues of (default mixing * dielectric matrix)
  average eigenvalue GAMMA=   1.0158
  1.7626  0.6425  0.6425

 Free energy of the ion-electron system (eV)
  ---------------------------------------------------
  alpha Z        PSCENC =        51.19538963
  Ewald energy   TEWEN  =      -558.97799591
  -Hartree energ DENC   =      -110.40441910
  -exchange      EXHF   =         0.00000000
  -V(xc)+E(xc)   XCENC  =         4.31676965
  PAW double counting   =       621.28599626     -628.99913016
  entropy T*S    EENTRO =         0.00005989
  eigenvalues    EBANDS =        19.20635793
  atomic energy  EATOM  =       594.28084496
  Solvation  Ediel_sol  =         0.00000000
  ---------------------------------------------------
  free energy    TOTEN  =        -8.09612686 eV

  energy without entropy =       -8.09618674  energy(sigma->0) =       -8.09614682


--------------------------------------------------------------------------------------------------------




--------------------------------------- Iteration      1(   9)  ---------------------------------------


    POTLOK:  cpu time    0.0039: real time    0.0039
    SETDIJ:  cpu time    0.0047: real time    0.0047
     EDDAV:  cpu time    0.1659: real time    0.1695
       DOS:  cpu time    0.0013: real time    0.0013
    CHARGE:  cpu time    0.0032: real time    0.0032
    MIXING:  cpu time    0.0005: real time    0.0004
    --------------------------------------------
      LOOP:  cpu time    0.1791: real time    0.1830

 eigenvalue-minimisations  :  2432
 total energy-change (2. order) : 0.6634263E-02  (-0.1392485E-02)
 number of electron       7.9999980 magnetization       2.5500631
 augmentation part        4.1754017 magnetization       2.0872634

 Broyden mixing:
  rms(total) = 0.46726E-01    rms(broyden)= 0.46724E-01
  rms(prec ) = 0.62283E-01
  weight for this iteration     100.00

 eigenvalues of (default mixing * dielectric matrix)
  average eigenvalue GAMMA=   1.2935
  2.4733  1.3601  0.6013  0.7392

 Free energy of the ion-electron system (eV)
  ---------------------------------------------------
  alpha Z        PSCENC =        51.19538963
  Ewald energy   TEWEN  =      -558.97799591
  -Hartree energ DENC   =      -109.19020709
  -exchange      EXHF   =         0.00000000
  -V(xc)+E(xc)   XCENC  =         4.38607743
  PAW double counting   =       649.42522264     -657.93971478
  entropy T*S    EENTRO =        -0.00045047
  eigenvalues    EBANDS =        18.73134099
  atomic energy  EATOM  =       594.28084496
  Solvation  Ediel_sol  =         0.00000000
  ---------------------------------------------------
  free energy    TOTEN  =        -8.08949259 eV

  energy without entropy =       -8.08904213  energy(sigma->0) =       -8.08934244


--------------------------------------------------------------------------------------------------------




--------------------------------------- Iteration      1(  10)  ---------------------------------------


    POTLOK:  cpu time    0.0038: real time    0.0039
    SETDIJ:  cpu time    0.0046: real time    0.0046
     EDDAV:  cpu time    0.1540: real time    0.1578
       DOS:  cpu time    0.0013: real time    0.0013
    CHARGE:  cpu time    0.0032: real time    0.0033
    MIXING:  cpu time    0.0009: real time    0.0005
    --------------------------------------------
      LOOP:  cpu time    0.1679: real time    0.1714

 eigenvalue-minimisations  :  2248
 total energy-change (2. order) :-0.5196107E-03  (-0.7146158E-03)
 number of electron       7.9999980 magnetization       2.5780650
 augmentation part        4.1805449 magnetization       2.1130379

 Broyden mixing:
  rms(total) = 0.24304E-01    rms(broyden)= 0.24261E-01
  rms(prec ) = 0.26774E-01
  weight for this iteration     100.00

 eigenvalues of (default mixing * dielectric matrix)
  average eigenvalue GAMMA=   1.1655
  2.4777  1.2677  0.7270  0.7270  0.6281

 Free energy of the ion-electron system (eV)
  ---------------------------------------------------
  alpha Z        PSCENC =        51.19538963
  Ewald energy   TEWEN  =      -558.97799591
  -Hartree energ DENC   =      -108.80128076
  -exchange      EXHF   =         0.00000000
  -V(xc)+E(xc)   XCENC  =         4.26573907
  PAW double counting   =       659.88693769     -668.65000489
  entropy T*S    EENTRO =         0.00031915
  eigenvalues    EBANDS =        18.71003885
  atomic energy  EATOM  =       594.28084496
  Solvation  Ediel_sol  =         0.00000000
  ---------------------------------------------------
  free energy    TOTEN  =        -8.09001220 eV

  energy without entropy =       -8.09033136  energy(sigma->0) =       -8.09011859


--------------------------------------------------------------------------------------------------------




--------------------------------------- Iteration      1(  11)  ---------------------------------------


    POTLOK:  cpu time    0.0035: real time    0.0040
    SETDIJ:  cpu time    0.0051: real time    0.0051
     EDDAV:  cpu time    0.1679: real time    0.1718
       DOS:  cpu time    0.0012: real time    0.0012
    CHARGE:  cpu time    0.0035: real time    0.0034
    MIXING:  cpu time    0.0004: real time    0.0005
    --------------------------------------------
      LOOP:  cpu time    0.1817: real time    0.1862

 eigenvalue-minimisations  :  2208
 total energy-change (2. order) :-0.4053368E-03  (-0.4947805E-04)
 number of electron       7.9999980 magnetization       2.5797976
 augmentation part        4.1799483 magnetization       2.1136558

 Broyden mixing:
  rms(total) = 0.65242E-02    rms(broyden)= 0.65189E-02
  rms(prec ) = 0.77434E-02
  weight for this iteration     100.00

 eigenvalues of (default mixing * dielectric matrix)
  average eigenvalue GAMMA=   1.0873
  2.3773  1.2416  0.6321  0.6818  0.7955  0.7955

 Free energy of the ion-electron system (eV)
  ---------------------------------------------------
  alpha Z        PSCENC =        51.19538963
  Ewald energy   TEWEN  =      -558.97799591
  -Hartree energ DENC   =      -108.85928198
  -exchange      EXHF   =         0.00000000
  -V(xc)+E(xc)   XCENC  =         4.29494761
  PAW double counting   =       658.51705145     -667.24052112
  entropy T*S    EENTRO =         0.00011524
  eigenvalues    EBANDS =        18.69903259
  atomic energy  EATOM  =       594.28084496
  Solvation  Ediel_sol  =         0.00000000
  ---------------------------------------------------
  free energy    TOTEN  =        -8.09041754 eV

  energy without entropy =       -8.09053278  energy(sigma->0) =       -8.09045595


--------------------------------------------------------------------------------------------------------




--------------------------------------- Iteration      1(  12)  ---------------------------------------


    POTLOK:  cpu time    0.0039: real time    0.0040
    SETDIJ:  cpu time    0.0047: real time    0.0047
     EDDAV:  cpu time    0.1172: real time    0.1214
       DOS:  cpu time    0.0014: real time    0.0013
    --------------------------------------------
      LOOP:  cpu time    0.1271: real time    0.1314

 eigenvalue-minimisations  :  1144
 total energy-change (2. order) :-0.2673982E-05  (-0.1868216E-05)
 number of electron       7.9999980 magnetization       2.5797976
 augmentation part        4.1799483 magnetization       2.1136558

 Free energy of the ion-electron system (eV)
  ---------------------------------------------------
  alpha Z        PSCENC =        51.19538963
  Ewald energy   TEWEN  =      -558.97799591
  -Hartree energ DENC   =      -108.88703242
  -exchange      EXHF   =         0.00000000
  -V(xc)+E(xc)   XCENC  =         4.29812346
  PAW double counting   =       658.10653541     -666.81121254
  entropy T*S    EENTRO =         0.00007988
  eigenvalues    EBANDS =        18.70484731
  atomic energy  EATOM  =       594.28084496
  Solvation  Ediel_sol  =         0.00000000
  ---------------------------------------------------
  free energy    TOTEN  =        -8.09042021 eV

  energy without entropy =       -8.09050010  energy(sigma->0) =       -8.09044684


--------------------------------------------------------------------------------------------------------




 average (electrostatic) potential at core
  the test charge radii are     1.0103
  (the norm of the test charge is              1.0000)
       1 -44.7084
 
 
 
 E-fermi :   4.2975     XC(G=0): -12.1579     alpha+bet :-11.4818


 spin component 1

 k-point     1 :       0.0500    0.0500    0.0500
  band No.  band energies     occupation 
      1      -2.7081      1.00000
      2       1.9822      1.00000
      3       1.9822      1.00000
      4       2.3740      1.00000
      5       3.0325      1.00000
      6       3.0325      1.00000
      7      24.7910      0.00000
      8      24.7910      0.00000
      9      27.5115      0.00000
     10      28.0708      0.00000
     11      31.4738      0.00000
     12      31.4738      0.00000

 k-point     2 :       0.1500    0.0500    0.0500
  band No.  band energies     occupation 
      1      -1.7130      1.00000
      2       1.7598      1.00000
      3       1.8832      1.00000
      4       2.8977      1.00000
      5       2.9505      1.00000
      6       3.0880      1.00000
      7      20.5647      0.00000
      8      22.8917      0.00000
      9      24.5742      0.00000
     10      28.1022      0.00000
     11      30.9789      0.00000
     12      31.7433      0.00000

 k-point     3 :       0.2500    0.0500    0.0500
  band No.  band energies     occupation 
      1      -0.4495      1.00000
      2       1.5091      1.00000
      3       1.9701      1.00000
      4       2.9910      1.00000
      5       3.1444      1.00000
      6       3.6343      1.00001
      7      16.1274      0.00000
      8      21.3023      0.00000
      9      22.4978      0.00000
     10      27.4271      0.00000
     11      30.1756      0.00000
     12      33.5872      0.00000

 k-point     4 :       0.3500    0.0500    0.0500
  band No.  band energies     occupation 
      1       0.1305      1.00000
      2       1.3216      1.00000
      3       2.8541      1.00000
      4       3.1072      1.00000
      5       3.1892      1.00000
      6       4.6360     -0.01889
      7      12.2172      0.00000
      8      20.2532      0.00000
      9      21.0943      0.00000
     10      26.9298      0.00000
     11      29.8312      0.00000
     12      35.9405      0.00000

 k-point     5 :       0.4500    0.0500    0.0500
  band No.  band energies     occupation 
      1       0.1760      1.00000
      2       1.2544      1.00000
      3       3.1052      1.00000
      4       3.2086      1.00000
      5       3.4661      1.00000
      6       5.6617     -0.00000
      7      10.1313      0.00000
      8      19.8892      0.00000
      9      20.5841      0.00000
     10      26.7736      0.00000
     11      29.7603      0.00000
     12      35.9935      0.00000

 k-point     6 :      -0.0500    0.0500    0.0500
  band No.  band energies     occupation 
      1      -3.0631      1.00000
      2       2.0754      1.00000
      3       2.0755      1.00000
      4       2.1185      1.00000
      5       3.0041      1.00000
      6       3.0995      1.00000
      7      26.3294      0.00000
      8      27.2035      0.00000
      9      27.2035      0.00000
     10      29.6579      0.00000
     11      30.8505      0.00000
     12      30.8506      0.00000

 k-point     7 :       0.1500    0.1500    0.0500
  band No.  band energies     occupation 
      1      -0.5727      1.00000
      2       1.6039      1.00000
      3       1.6154      1.00000
      4       2.9621      1.00000
      5       3.1487      1.00000
      6       3.6820      1.00006
      7      18.4711      0.00000
      8      19.0655      0.00000
      9      21.9299      0.00000
     10      29.2691      0.00000
     11      32.1765      0.00000
     12      33.4659      0.00000

 k-point     8 :       0.2500    0.1500    0.0500
  band No.  band energies     occupation 
      1       0.3943      1.00000
      2       1.3807      1.00000
      3       1.8206      1.00000
      4       3.0330      1.00000
      5       3.2249      1.00000
      6       4.8530     -0.00031
      7      14.4869      0.00000
      8      17.4298      0.00000
      9      20.4529      0.00000
     10      29.2649      0.00000
     11      32.9806      0.00000
     12      34.0569      0.00000

 k-point     9 :       0.3500    0.1500    0.0500
  band No.  band energies     occupation 
      1       0.5278      1.00000
      2       1.2727      1.00000
      3       2.4302      1.00000
      4       3.1164      1.00000
      5       3.3028      1.00000
      6       6.5527     -0.00000
      7      11.0365      0.00000
      8      16.6797      0.00000
      9      19.6902      0.00000
     10      29.0419      0.00000
     11      33.3738      0.00000
     12      34.7330      0.00000

 k-point    10 :      -0.1500    0.1500    0.0500
  band No.  band energies     occupation 
      1      -2.3636      1.00000
      2       1.9386      1.00000
      3       2.0594      1.00000
      4       2.4349      1.00000
      5       2.8596      1.00000
      6       3.1479      1.00000
      7      22.8206      0.00000
      8      25.4459      0.00000
      9      25.8671      0.00000
     10      28.9054      0.00000
     11      28.9351      0.00000
     12      29.9445      0.00000

 k-point    11 :       0.2500    0.2500    0.0500
  band No.  band energies     occupation 
      1       0.8737      1.00000
      2       1.3375      1.00000
      3       1.8065      1.00000
      4       3.1103      1.00000
      5       3.2861      1.00000
      6       6.7939     -0.00000
      7      13.1225      0.00000
      8      13.7396      0.00000
      9      19.5086      0.00000
     10      30.5315      0.00000
     11      32.9150      0.00000
     12      38.1374      0.00000

 k-point    12 :       0.3500    0.2500    0.0500
  band No.  band energies     occupation 
      1       0.9187      1.00000
      2       1.3674      1.00000
      3       1.8702      1.00000
      4       3.1793      1.00000
      5       3.2911      1.00000
      6       8.8164     -0.00000
      7      10.6138      0.00000
      8      13.1470      0.00000
      9      19.1994      0.00000
     10      30.9633      0.00000
     11      33.1113      0.00000
     12      37.5789      0.00000

 k-point    13 :      -0.2500    0.2500    0.0500
  band No.  band energies     occupation 
      1      -1.1463      1.00000
      2       1.7022      1.00000
      3       2.0096      1.00000
      4       2.8490      1.00000
      5       3.0079      1.00000
      6       3.2022      1.00000
      7      18.2755      0.00000
      8      23.4463      0.00000
      9      24.0951      0.00000
     10      27.2803      0.00000
     11      28.6652      0.00000
     12      30.8732      0.00000

 k-point    14 :      -0.1500    0.2500    0.0500
  band No.  band energies     occupation 
      1      -1.4057      1.00000
      2       1.8910      1.00000
      3       1.9054      1.00000
      4       2.7103      1.00000
      5       2.8713      1.00000
      6       3.2556      1.00000
      7      20.5357      0.00000
      8      21.3442      0.00000
      9      26.0989      0.00000
     10      26.2709      0.00000
     11      28.9657      0.00000
     12      31.9455      0.00000

 k-point    15 :      -0.3500    0.3500    0.0500
  band No.  band energies     occupation 
      1      -0.1182      1.00000
      2       1.4724      1.00000
      3       2.4177      1.00000
      4       3.0322      1.00000
      5       3.4211      1.00000
      6       3.6434      1.00002
      7      14.0156      0.00000
      8      21.9266      0.00000
      9      22.4016      0.00000
     10      26.4164      0.00000
     11      28.5320      0.00000
     12      32.5990      0.00000

 k-point    16 :      -0.2500    0.3500    0.0500
  band No.  band energies     occupation 
      1      -0.2101      1.00000
      2       1.6323      1.00000
      3       1.8862      1.00000
      4       2.7995      1.00000
      5       3.2972      1.00000
      6       3.7420      1.00031
      7      16.3897      0.00000
      8      19.3251      0.00000
      9      24.0822      0.00000
     10      26.4402      0.00000
     11      29.4467      0.00000
     12      32.4094      0.00000

 k-point    17 :      -0.4500    0.4500    0.0500
  band No.  band energies     occupation 
      1       0.1073      1.00000
      2       1.3325      1.00000
      3       2.8862      1.00000
      4       3.0740      1.00000
      5       4.0672      1.03455
      6       4.7366     -0.00404
      7      10.7205      0.00000
      8      21.1137      0.00000
      9      21.3723      0.00000
     10      26.0373      0.00000
     11      28.5602      0.00000
     12      34.0441      0.00000

 k-point    18 :      -0.3500    0.4500    0.0500
  band No.  band energies     occupation 
      1       0.3308      1.00000
      2       1.4741      1.00000
      3       2.1991      1.00000
      4       2.9764      1.00000
      5       3.5980      1.00000
      6       5.0383     -0.00000
      7      12.4360      0.00000
      8      18.1958      0.00000
      9      22.6904      0.00000
     10      26.4940      0.00000
     11      30.5945      0.00000
     12      32.2116      0.00000

 k-point    19 :      -0.2500    0.4500    0.0500
  band No.  band energies     occupation 
      1       0.6047      1.00000
      2       1.3906      1.00000
      3       1.8848      1.00000
      4       2.8939      1.00000
      5       3.4151      1.00000
      6       5.1967     -0.00000
      7      14.7967      0.00000
      8      15.2562      0.00000
      9      23.6014      0.00000
     10      26.4560      0.00000
     11      29.3963      0.00000
     12      36.3879      0.00000

 k-point    20 :      -0.4500   -0.4500    0.0500
  band No.  band energies     occupation 
      1       0.3619      1.00000
      2       1.4227      1.00000
      3       2.3927      1.00000
      4       2.9976      1.00000
      5       3.8369      1.00267
      6       6.3700     -0.00000
      7      10.2131      0.00000
      8      17.7893      0.00000
      9      22.2073      0.00000
     10      26.4895      0.00000
     11      31.5070      0.00000
     12      31.9923      0.00000

 k-point    21 :      -0.3500   -0.4500    0.0500
  band No.  band energies     occupation 
      1       0.8180      1.00000
      2       1.4059      1.00000
      3       1.8426      1.00000
      4       3.0612      1.00000
      5       3.5350      1.00000
      6       7.3602     -0.00000
      7      11.3774      0.00000
      8      14.2960      0.00000
      9      23.0126      0.00000
     10      26.9708      0.00000
     11      29.8445      0.00000
     12      35.0174      0.00000

 k-point    22 :      -0.3500   -0.3500    0.0500
  band No.  band energies     occupation 
      1       1.1665      1.00000
      2       1.4415      1.00000
      3       1.4415      1.00000
      4       3.3241      1.00000
      5       3.3242      1.00000
      6      10.0613      0.00000
      7      10.0614      0.00000
      8      12.0009      0.00000
      9      23.0512      0.00000
     10      28.4023      0.00000
     11      28.4023      0.00000
     12      34.2249      0.00000

 k-point    23 :       0.1500    0.1500    0.1500
  band No.  band energies     occupation 
      1       0.5384      1.00000
      2       1.3786      1.00000
      3       1.3786      1.00000
      4       3.1231      1.00000
      5       3.1231      1.00000
      6       4.8508     -0.00032
      7      16.9220      0.00000
      8      16.9220      0.00000
      9      17.7719      0.00000
     10      32.0609      0.00000
     11      35.0346      0.00000
     12      35.0346      0.00000

 k-point    24 :       0.2500    0.1500    0.1500
  band No.  band energies     occupation 
      1       0.9560      1.00000
      2       1.2513      1.00000
      3       1.7442      1.00000
      4       3.1611      1.00000
      5       3.1991      1.00000
      6       6.5999     -0.00000
      7      13.1523      0.00000
      8      15.9609      0.00000
      9      16.3954      0.00000
     10      32.8056      0.00000
     11      35.7391      0.00000
     12      37.2348      0.00000

 k-point    25 :       0.3500    0.1500    0.1500
  band No.  band energies     occupation 
      1       0.8945      1.00000
      2       1.2134      1.00000
      3       2.1084      1.00000
      4       3.1907      1.00000
      5       3.2201      1.00000
      6       8.3658     -0.00000
      7      10.5965      0.00000
      8      15.6392      0.00000
      9      15.9936      0.00000
     10      32.7496      0.00000
     11      36.0698      0.00000
     12      37.4547      0.00000

 k-point    26 :      -0.1500    0.1500    0.1500
  band No.  band energies     occupation 
      1      -1.7037      1.00000
      2       2.1329      1.00000
      3       2.1330      1.00000
      4       2.4471      1.00000
      5       2.5044      1.00000
      6       3.3028      1.00000
      7      22.7232      0.00000
      8      23.5147      0.00000
      9      23.5148      0.00000
     10      25.0475      0.00000
     11      31.4197      0.00000
     12      31.4198      0.00000

 k-point    27 :       0.2500    0.2500    0.1500
  band No.  band energies     occupation 
      1       1.1211      1.00000
      2       1.3721      1.00000
      3       1.6673      1.00000
      4       3.2067      1.00000
      5       3.2270      1.00000
      6       9.0045     -0.00000
      7      12.0749      0.00000
      8      12.8371      0.00000
      9      15.5454      0.00000
     10      35.1263      0.00000
     11      36.6370      0.00000
     12      39.6046      0.00000

 k-point    28 :      -0.2500    0.2500    0.1500
  band No.  band energies     occupation 
      1      -0.5906      1.00000
      2       1.9421      1.00000
      3       2.0214      1.00000
      4       2.5025      1.00000
      5       2.9412      1.00000
      6       3.5291      1.00000
      7      18.8147      0.00000
      8      21.4456      0.00000
      9      22.1205      0.00000
     10      25.1007      0.00000
     11      30.8014      0.00000
     12      32.0047      0.00000

 k-point    29 :      -0.3500    0.3500    0.1500
  band No.  band energies     occupation 
      1       0.3009      1.00000
      2       1.7576      1.00000
      3       1.8334      1.00000
      4       2.7961      1.00000
      5       3.5869      1.00000
      6       4.3236      0.39062
      7      14.5184      0.00000
      8      19.8078      0.00000
      9      21.0091      0.00000
     10      26.6462      0.00000
     11      29.7948      0.00000
     12      31.7828      0.00000

 k-point    30 :      -0.2500    0.3500    0.1500
  band No.  band energies     occupation 
      1       0.3270      1.00000
      2       1.5456      1.00000
      3       2.1317      1.00000
      4       2.6045      1.00000
      5       3.3391      1.00000
      6       4.2843      0.55584
      7      16.9915      0.00000
      8      17.3701      0.00000
      9      22.8942      0.00000
     10      23.8828      0.00000
     11      30.3382      0.00000
     12      35.1760      0.00000

 k-point    31 :      -0.4500    0.4500    0.1500
  band No.  band energies     occupation 
      1       0.4551      1.00000
      2       1.7157      1.00000
      3       1.9182      1.00000
      4       2.8479      1.00000
      5       4.0304      1.03384
      6       6.1533     -0.00000
      7      11.0229      0.00000
      8      18.8642      0.00000
      9      20.4069      0.00000
     10      28.6737      0.00000
     11      29.2756      0.00000
     12      30.8219      0.00000

 k-point    32 :      -0.3500    0.4500    0.1500
  band No.  band energies     occupation 
      1       0.7469      1.00000
      2       1.3664      1.00000
      3       1.9852      1.00000
      4       2.8638      1.00000
      5       3.7065      1.00012
      6       6.0985     -0.00000
      7      13.1173      0.00000
      8      16.0420      0.00000
      9      22.3004      0.00000
     10      25.4019      0.00000
     11      29.4223      0.00000
     12      33.2532      0.00000

 k-point    33 :      -0.4500   -0.4500    0.1500
  band No.  band energies     occupation 
      1       0.7286      1.00000
      2       1.5003      1.00000
      3       1.8383      1.00000
      4       2.9357      1.00000
      5       3.9090      1.00958
      6       7.9843     -0.00000
      7      10.5231      0.00000
      8      15.6156      0.00000
      9      21.9691      0.00000
     10      27.2986      0.00000
     11      28.1070      0.00000
     12      31.8994      0.00000

 k-point    34 :      -0.3500   -0.4500    0.1500
  band No.  band energies     occupation 
      1       1.0898      1.00000
      2       1.1136      1.00000
      3       1.7781      1.00000
      4       3.2431      1.00000
      5       3.6409      1.00002
      6       8.6732     -0.00000
      7      11.8814      0.00000
      8      12.7677      0.00000
      9      24.2879      0.00000
     10      24.9456      0.00000
     11      27.4758      0.00000
     12      31.7372      0.00000

 k-point    35 :       0.2500    0.2500    0.2500
  band No.  band energies     occupation 
      1       1.4020      1.00000
      2       1.4020      1.00000
      3       1.4022      1.00000
      4       3.2280      1.00000
      5       3.2280      1.00000
      6      11.7162      0.00000
      7      11.7162      0.00000
      8      11.7163      0.00000
      9      13.0635      0.00000
     10      40.0273      0.00000
     11      40.0274      0.00000
     12      40.0315      0.00000

 k-point    36 :      -0.2500    0.2500    0.2500
  band No.  band energies     occupation 
      1       0.2046      1.00000
      2       1.6660      1.00000
      3       2.4404      1.00000
      4       2.4406      1.00000
      5       2.9880      1.00000
      6       4.1063      1.01993
      7      19.1934      0.00000
      8      19.1935      0.00000
      9      20.2771      0.00000
     10      21.8125      0.00000
     11      34.7535      0.00000
     12      34.7536      0.00000

 k-point    37 :      -0.3500    0.3500    0.2500
  band No.  band energies     occupation 
      1       0.6887      1.00000
      2       1.2346      1.00000
      3       2.4674      1.00000
      4       2.7325      1.00000
      5       3.5046      1.00000
      6       5.4711     -0.00000
      7      15.4323      0.00000
      8      17.4392      0.00000
      9      20.0246      0.00000
     10      22.4036      0.00000
     11      32.1687      0.00000
     12      33.7354      0.00000

 k-point    38 :      -0.4500    0.4500    0.2500
  band No.  band energies     occupation 
      1       0.7143      1.00000
      2       1.1118      1.00000
      3       2.4037      1.00000
      4       2.8615      1.00000
      5       3.9649      1.02018
      6       7.8080     -0.00000
      7      11.7403      0.00000
      8      16.4399      0.00000
      9      19.6718      0.00000
     10      24.4500      0.00000
     11      28.7929      0.00000
     12      33.1409      0.00000

 k-point    39 :      -0.3500    0.4500    0.2500
  band No.  band energies     occupation 
      1       0.7885      1.00000
      2       0.8852      1.00000
      3       2.5285      1.00000
      4       3.1402      1.00000
      5       3.7512      1.00039
      6       7.5912     -0.00000
      7      14.0374      0.00000
      8      14.3586      0.00000
      9      20.8593      0.00000
     10      22.0292      0.00000
     11      28.3925      0.00000
     12      33.8341      0.00000

 k-point    40 :      -0.4500   -0.4500    0.2500
  band No.  band energies     occupation 
      1       0.7185      1.00000
      2       0.8337      1.00000
      3       2.4858      1.00000
      4       3.3485      1.00000
      5       3.8720      1.00518
      6       9.9829      0.00000
      7      11.2219      0.00000
      8      13.7602      0.00000
      9      21.0003      0.00000
     10      23.2254      0.00000
     11      26.1034      0.00000
     12      33.6361      0.00000

 k-point    41 :      -0.3500    0.3500    0.3500
  band No.  band energies     occupation 
      1       0.6520      1.00000
      2       0.8204      1.00000
      3       3.0922      1.00000
      4       3.0924      1.00000
      5       3.5350      1.00000
      6       7.1818     -0.00000
      7      15.5702      0.00000
      8      15.5702      0.00000
      9      18.9164      0.00000
     10      20.2486      0.00000
     11      28.1687      0.00000
     12      37.1179      0.00000

 k-point    42 :      -0.4500    0.4500    0.3500
  band No.  band energies     occupation 
      1       0.5298      1.00000
      2       0.5719      1.00000
      3       3.2171      1.00000
      4       3.3689      1.00000
      5       3.9019      1.00857
      6       9.6443     -0.00000
      7      12.8528      0.00000
      8      14.4839      0.00000
      9      19.0321      0.00000
     10      20.9003      0.00000
     11      24.8631      0.00000
     12      37.1407      0.00000

 k-point    43 :      -0.4500   -0.4500    0.3500
  band No.  band energies     occupation 
      1       0.4349      1.00000
      2       0.4349      1.00000
      3       3.2974      1.00000
      4       3.8250      1.00209
      5       3.8252      1.00210
      6      12.0818      0.00000
      7      12.0818      0.00000
      8      12.6837      0.00000
      9      19.9527      0.00000
     10      19.9527      0.00000
     11      23.0775      0.00000
     12      37.6567      0.00000

 k-point    44 :      -0.4500    0.4500    0.4500
  band No.  band energies     occupation 
      1       0.3029      1.00000
      2       0.3030      1.00000
      3       3.8060      1.00140
      4       3.8062      1.00140
      5       3.8847      1.00647
      6      11.7230      0.00000
      7      13.3209      0.00000
      8      13.3209      0.00000
      9      18.3446      0.00000
     10      19.1120      0.00000
     11      22.0795      0.00000
     12      39.7334      0.00000

 spin component 2

 k-point     1 :       0.0500    0.0500    0.0500
  band No.  band energies     occupation 
      1      -2.5736      1.00000
      2       4.3311      0.36021
      3       4.3311      0.36021
      4       4.7947     -0.00123
      5       6.0009     -0.00000
      6       6.0009     -0.00000
      7      24.8645      0.00000
      8      24.8645      0.00000
      9      27.6987      0.00000
     10      28.4633      0.00000
     11      31.9071      0.00000
     12      31.9071      0.00000

 k-point     2 :       0.1500    0.0500    0.0500
  band No.  band energies     occupation 
      1      -1.5490      1.00000
      2       4.0405      1.03495
      3       4.1496      0.97296
      4       5.3690     -0.00000
      5       5.8585     -0.00000
      6       6.0760     -0.00000
      7      21.0417      0.00000
      8      23.1200      0.00000
      9      25.4096      0.00000
     10      27.9342      0.00000
     11      31.6142      0.00000
     12      32.0183      0.00000

 k-point     3 :       0.2500    0.0500    0.0500
  band No.  band energies     occupation 
      1      -0.0608      1.00000
      2       3.7148      1.00015
      3       3.9237      1.01192
      4       5.8610     -0.00000
      5       6.1359     -0.00000
      6       6.1614     -0.00000
      7      16.9177      0.00000
      8      21.5501      0.00000
      9      23.2526      0.00000
     10      27.5423      0.00000
     11      30.7565      0.00000
     12      33.8082      0.00000

 k-point     4 :       0.3500    0.0500    0.0500
  band No.  band energies     occupation 
      1       1.2768      1.00000
      2       3.4720      1.00000
      3       4.0954      1.02620
      4       5.9454     -0.00000
      5       6.2346     -0.00000
      6       6.9060     -0.00000
      7      13.3679      0.00000
      8      20.4703      0.00000
      9      21.7786      0.00000
     10      27.1967      0.00000
     11      30.4256      0.00000
     12      35.9976      0.00000

 k-point     5 :       0.4500    0.0500    0.0500
  band No.  band energies     occupation 
      1       1.6940      1.00000
      2       3.3843      1.00000
      3       4.5492     -0.03529
      4       5.9787     -0.00000
      5       6.2660     -0.00000
      6       7.3402     -0.00000
      7      11.6811      0.00000
      8      20.0883      0.00000
      9      21.2320      0.00000
     10      27.0858      0.00000
     11      30.3719      0.00000
     12      35.9512      0.00000

 k-point     6 :      -0.0500    0.0500    0.0500
  band No.  band energies     occupation 
      1      -2.9317      1.00000
      2       4.4521      0.01727
      3       4.4522      0.01702
      4       4.5108     -0.03070
      5       5.9665     -0.00000
      6       6.0969     -0.00000
      7      26.1002      0.00000
      8      26.9997      0.00000
      9      26.9998      0.00000
     10      30.0747      0.00000
     11      31.7260      0.00000
     12      31.7260      0.00000

[...]
      7      12.7810      0.00000
      8      17.0365      0.00000
      9      20.2563      0.00000
     10      24.8018      0.00000
     11      29.6022      0.00000
     12      33.5949      0.00000

 k-point    39 :      -0.3500    0.4500    0.2500
  band No.  band energies     occupation 
      1       2.4575      1.00000
      2       3.0289      1.00000
      3       4.8275     -0.00058
      4       5.6017     -0.00000
      5       6.3982     -0.00000
      6       8.8871     -0.00000
      7      14.8383      0.00000
      8      15.0706      0.00000
      9      21.3760      0.00000
     10      22.5650      0.00000
     11      29.1580      0.00000
     12      34.2881      0.00000

 k-point    40 :      -0.4500   -0.4500    0.2500
  band No.  band energies     occupation 
      1       2.7302      1.00000
      2       2.7849      1.00000
      3       4.7412     -0.00371
      4       5.8625     -0.00000
      5       6.5380     -0.00000
      6      10.9122      0.00000
      7      12.2147      0.00000
      8      14.4683      0.00000
      9      21.5259      0.00000
     10      23.5821      0.00000
     11      27.0634      0.00000
     12      34.0934      0.00000

 k-point    41 :      -0.3500    0.3500    0.3500
  band No.  band energies     occupation 
      1       2.2854      1.00000
      2       3.0203      1.00000
      3       5.5027     -0.00000
      4       5.5030     -0.00000
      5       6.1655     -0.00000
      6       8.4600     -0.00000
      7      16.1557      0.00000
      8      16.1560      0.00000
      9      19.6571      0.00000
     10      20.9181      0.00000
     11      28.9309      0.00000
     12      37.5297      0.00000

 k-point    42 :      -0.4500    0.4500    0.3500
  band No.  band energies     occupation 
      1       2.4661      1.00000
      2       2.6454      1.00000
      3       5.6876     -0.00000
      4       5.8383     -0.00000
      5       6.5918     -0.00000
      6      10.5048      0.00000
      7      13.5291      0.00000
      8      14.9713      0.00000
      9      19.7947      0.00000
     10      21.4953      0.00000
     11      25.7976      0.00000
     12      37.5219      0.00000

 k-point    43 :      -0.4500   -0.4500    0.3500
  band No.  band energies     occupation 
      1       2.4621      1.00000
      2       2.4621      1.00000
      3       5.7633     -0.00000
      4       6.4722     -0.00000
      5       6.4726     -0.00000
      6      12.6896      0.00000
      7      12.6900      0.00000
      8      13.2529      0.00000
      9      20.5944      0.00000
     10      20.5945      0.00000
     11      24.1790      0.00000
     12      38.0201      0.00000

 k-point    44 :      -0.4500    0.4500    0.4500
  band No.  band energies     occupation 
      1       2.3126      1.00000
      2       2.3569      1.00000
      3       6.4457     -0.00000
      4       6.4460     -0.00000
      5       6.5760     -0.00000
      6      12.2162      0.00000
      7      13.6591      0.00000
      8      13.6595      0.00000
      9      19.2423      0.00000
     10      19.8978      0.00000
     11      23.1991      0.00000
     12      40.0043      0.00000


--------------------------------------------------------------------------------------------------------


 soft charge-density along one line, spin component           1
         0         1         2         3         4         5         6         7         8         9
 total charge-density along one line
 
 soft charge-density along one line, spin component           2
         0         1         2         3         4         5         6         7         8         9
 total charge-density along one line
 
 pseudopotential strength for first ion, spin component:           1
 -6.652   0.000   0.000   0.000   0.000   0.000   0.000   0.000   0.000   0.000  -7.154   0.000   0.000   0.000   0.000   0.000
  0.000   0.000  -6.652   0.000  -0.000   0.000   0.000   0.000   0.000   0.000   0.000   0.000  -7.154   0.000  -0.000   0.000
  0.000   0.000  -0.000   0.000  -6.773   0.000  -0.000   0.000  -0.000   0.000   0.000   0.000  -0.000   0.000  -7.272   0.000
  0.000   0.000   0.000   0.000  -0.000   0.000  -6.652   0.000  -0.000   0.000   0.000   0.000   0.000   0.000  -0.000   0.000
  0.000   0.000   0.000   0.000  -0.000   0.000  -0.000   0.000  -6.773   0.000   0.000   0.000   0.000   0.000  -0.000   0.000
 -7.154   0.000   0.000   0.000   0.000   0.000   0.000   0.000   0.000   0.000  -7.614   0.000   0.000   0.000   0.000   0.000
  0.000   0.000  -7.154   0.000  -0.000   0.000   0.000   0.000   0.000   0.000   0.000   0.000  -7.614   0.000  -0.000   0.000
  0.000   0.000  -0.000   0.000  -7.272   0.000  -0.000   0.000  -0.000   0.000   0.000   0.000  -0.000   0.000  -7.729   0.000
  0.000   0.000   0.000   0.000  -0.000   0.000  -7.154   0.000  -0.000   0.000   0.000   0.000   0.000   0.000  -0.000   0.000
  0.000   0.000   0.000   0.000  -0.000   0.000  -0.000   0.000  -7.272   0.000   0.000   0.000   0.000   0.000  -0.000   0.000
 -0.000   0.000  -0.000   0.000   0.000   0.000  -0.000   0.000  -0.000   0.000  -0.000   0.000  -0.000   0.000   0.000   0.000
 -0.000   0.000  -0.000   0.000   0.000   0.000  -0.000   0.000  -0.000   0.000  -0.000   0.000  -0.000   0.000   0.000   0.000
 -0.000   0.000  -0.000   0.000   0.000   0.000   0.000   0.000   0.000   0.000  -0.000   0.000  -0.000   0.000   0.000   0.000
  0.000   0.000  -0.000   0.000  -0.000   0.000  -0.000   0.000  -0.000   0.000   0.000   0.000  -0.000   0.000  -0.000   0.000
 -0.000   0.000   0.000   0.000   0.000   0.000  -0.000   0.000  -0.000   0.000  -0.000   0.000   0.000   0.000   0.000   0.000
 -0.000   0.000  -0.000   0.000   0.000   0.000   0.000   0.000   0.000   0.000  -0.000   0.000  -0.000   0.000   0.000   0.000
  0.000   0.000  -0.000   0.000  -0.000   0.000  -0.000   0.000  -0.000   0.000   0.000   0.000  -0.000   0.000  -0.000   0.000
 -0.000   0.000   0.000   0.000   0.000   0.000  -0.000   0.000  -0.000   0.000  -0.000   0.000   0.000   0.000   0.000   0.000
 pseudopotential strength for first ion, spin component:           2
 -4.857   0.000   0.000   0.000   0.000   0.000   0.000   0.000   0.000   0.000  -5.415   0.000   0.000   0.000   0.000   0.000
  0.000   0.000  -4.857   0.000  -0.000   0.000   0.000   0.000   0.000   0.000   0.000   0.000  -5.415   0.000  -0.000   0.000
  0.000   0.000  -0.000   0.000  -4.705   0.000  -0.000   0.000  -0.000   0.000   0.000   0.000  -0.000   0.000  -5.266   0.000
  0.000   0.000   0.000   0.000  -0.000   0.000  -4.857   0.000  -0.000   0.000   0.000   0.000   0.000   0.000  -0.000   0.000
  0.000   0.000   0.000   0.000  -0.000   0.000  -0.000   0.000  -4.705   0.000   0.000   0.000   0.000   0.000  -0.000   0.000
 -5.415   0.000   0.000   0.000   0.000   0.000   0.000   0.000   0.000   0.000  -5.930   0.000   0.000   0.000   0.000   0.000
  0.000   0.000  -5.415   0.000  -0.000   0.000   0.000   0.000   0.000   0.000   0.000   0.000  -5.930   0.000  -0.000   0.000
  0.000   0.000  -0.000   0.000  -5.266   0.000  -0.000   0.000  -0.000   0.000   0.000   0.000  -0.000   0.000  -5.784   0.000
  0.000   0.000   0.000   0.000  -0.000   0.000  -5.415   0.000  -0.000   0.000   0.000   0.000   0.000   0.000  -0.000   0.000
  0.000   0.000   0.000   0.000  -0.000   0.000  -0.000   0.000  -5.266   0.000   0.000   0.000   0.000   0.000  -0.000   0.000
  0.000   0.000   0.000   0.000  -0.000   0.000   0.000   0.000  -0.000   0.000   0.000   0.000   0.000   0.000  -0.000   0.000
  0.000   0.000   0.000   0.000  -0.000   0.000   0.000   0.000  -0.000   0.000   0.000   0.000   0.000   0.000  -0.000   0.000
 -0.000   0.000  -0.000   0.000   0.000   0.000  -0.000   0.000   0.000   0.000  -0.000   0.000  -0.000   0.000   0.000   0.000
 -0.000   0.000  -0.000   0.000  -0.000   0.000  -0.000   0.000  -0.000   0.000  -0.000   0.000  -0.000   0.000  -0.000   0.000
 -0.000   0.000  -0.000   0.000   0.000   0.000  -0.000   0.000  -0.000   0.000  -0.000   0.000  -0.000   0.000   0.000   0.000
 -0.000   0.000  -0.000   0.000   0.000   0.000  -0.000   0.000   0.000   0.000  -0.000   0.000  -0.000   0.000   0.000   0.000
 -0.000   0.000  -0.000   0.000  -0.000   0.000  -0.000   0.000  -0.000   0.000  -0.000   0.000  -0.000   0.000  -0.000   0.000
 -0.000   0.000  -0.000   0.000   0.000   0.000  -0.000   0.000  -0.000   0.000  -0.000   0.000  -0.000   0.000   0.000   0.000
 total augmentation occupancy for first ion, spin component:           1
  2.510  -0.000   0.000   0.000  -0.000  -1.189   0.000   0.000  -0.000  -0.000  -0.000   0.000   0.000   0.000   0.000   0.000
  0.000   2.510   0.000   0.000  -0.000   0.000  -1.189  -0.000   0.000   0.000  -0.000   0.000   0.000   0.000   0.000   0.000
  0.000   0.000   3.170  -0.000   0.000   0.000   0.000  -1.757  -0.000   0.000   0.000   0.000   0.000   0.000   0.000   0.000
  0.000   0.000   0.000   2.510  -0.000  -0.000   0.000  -0.000  -1.189  -0.000   0.000  -0.000   0.000   0.000   0.000   0.000
 -0.000   0.000   0.000  -0.000   3.170   0.000  -0.000   0.000   0.000  -1.757   0.000  -0.000   0.000   0.000   0.000   0.000
 -1.189   0.000  -0.000   0.000  -0.000   1.258   0.000   0.000  -0.000  -0.000  -0.000  -0.000   0.000   0.000   0.000   0.000
  0.000  -1.189  -0.000   0.000  -0.000   0.000   1.258  -0.000  -0.000  -0.000   0.000   0.000   0.000   0.000   0.000   0.000
 -0.000   0.000  -1.757   0.000   0.000  -0.000   0.000   1.597   0.000   0.000  -0.000   0.000   0.000   0.000   0.000   0.000
 -0.000   0.000  -0.000  -1.189  -0.000   0.000   0.000  -0.000   1.258  -0.000  -0.000   0.000   0.000   0.000   0.000   0.000
  0.000   0.000   0.000  -0.000  -1.757  -0.000  -0.000   0.000   0.000   1.597  -0.000   0.000   0.000   0.000   0.000   0.000
  0.000   0.000  -0.000   0.000   0.000  -0.000  -0.000  -0.000   0.000  -0.000   2.023  -0.217   0.000   0.000   0.000   0.000
 -0.000   0.000   0.000  -0.000  -0.000  -0.000   0.000  -0.000  -0.000   0.000  -0.217   0.029   0.000   0.000   0.000   0.000
  0.000   0.000   0.000   0.000   0.000   0.000   0.000   0.000   0.000   0.000   0.000   0.000   0.219  -0.000  -0.000  -0.019
  0.000   0.000   0.000   0.000   0.000   0.000   0.000   0.000   0.000   0.000   0.000   0.000  -0.000   0.219  -0.000   0.000
  0.000   0.000   0.000   0.000   0.000   0.000   0.000   0.000   0.000   0.000   0.000   0.000  -0.000  -0.000   0.219   0.000
  0.000   0.000   0.000   0.000   0.000   0.000   0.000   0.000   0.000   0.000   0.000   0.000  -0.019   0.000   0.000   0.002
  0.000   0.000   0.000   0.000   0.000   0.000   0.000   0.000   0.000   0.000   0.000   0.000   0.000  -0.019  -0.000  -0.000
  0.000   0.000   0.000   0.000   0.000   0.000   0.000   0.000   0.000   0.000   0.000   0.000  -0.000  -0.000  -0.019  -0.000
 total augmentation occupancy for first ion, spin component:           2
  2.287  -0.000  -0.000  -0.000   0.000  -0.961   0.000  -0.000   0.000  -0.000   0.000  -0.000   0.000   0.000   0.000   0.000
  0.000   2.287  -0.000   0.000   0.000  -0.000  -0.961   0.000   0.000   0.000   0.000   0.000   0.000   0.000   0.000   0.000
 -0.000   0.000   2.893   0.000   0.000  -0.000  -0.000  -1.218   0.000   0.000   0.000  -0.000   0.000   0.000   0.000   0.000
  0.000   0.000  -0.000   2.287   0.000   0.000   0.000  -0.000  -0.961   0.000   0.000   0.000   0.000   0.000   0.000   0.000
  0.000   0.000   0.000   0.000   2.893   0.000   0.000   0.000  -0.000  -1.218  -0.000  -0.000   0.000   0.000   0.000   0.000
 -0.961  -0.000   0.000   0.000  -0.000   0.175   0.000  -0.000  -0.000   0.000   0.000   0.000   0.000   0.000   0.000   0.000
 -0.000  -0.961  -0.000   0.000   0.000   0.000   0.175   0.000   0.000  -0.000   0.000  -0.000   0.000   0.000   0.000   0.000
  0.000   0.000  -1.218   0.000   0.000  -0.000   0.000   0.288   0.000   0.000  -0.000   0.000   0.000   0.000   0.000   0.000
  0.000   0.000   0.000  -0.961  -0.000  -0.000   0.000  -0.000   0.175   0.000   0.000   0.000   0.000   0.000   0.000   0.000
  0.000   0.000  -0.000   0.000  -1.218  -0.000   0.000   0.000   0.000   0.288   0.000  -0.000   0.000   0.000   0.000   0.000
 -0.000   0.000   0.000   0.000   0.000  -0.000  -0.000  -0.000   0.000  -0.000  -0.337   0.099   0.000   0.000   0.000   0.000
 -0.000   0.000  -0.000   0.000  -0.000  -0.000   0.000   0.000   0.000   0.000   0.099  -0.016   0.000   0.000   0.000   0.000
  0.000   0.000   0.000   0.000   0.000   0.000   0.000   0.000   0.000   0.000   0.000   0.000  -0.037  -0.000   0.000   0.006
  0.000   0.000   0.000   0.000   0.000   0.000   0.000   0.000   0.000   0.000   0.000   0.000   0.000  -0.037   0.000   0.000
  0.000   0.000   0.000   0.000   0.000   0.000   0.000   0.000   0.000   0.000   0.000   0.000  -0.000   0.000  -0.037   0.000
  0.000   0.000   0.000   0.000   0.000   0.000   0.000   0.000   0.000   0.000   0.000   0.000   0.006  -0.000   0.000  -0.001
  0.000   0.000   0.000   0.000   0.000   0.000   0.000   0.000   0.000   0.000   0.000   0.000   0.000   0.006  -0.000   0.000
  0.000   0.000   0.000   0.000   0.000   0.000   0.000   0.000   0.000   0.000   0.000   0.000   0.000  -0.000   0.006   0.000


------------------------ aborting loop because EDIFF is reached ----------------------------------------


    CHARGE:  cpu time    0.0033: real time    0.0034
    FORLOC:  cpu time    0.0001: real time    0.0001
    FORNL :  cpu time    0.0076: real time    0.0076
    STRESS:  cpu time    0.0282: real time    0.0282
    FORCOR:  cpu time    0.0030: real time    0.0030
    FORHAR:  cpu time    0.0004: real time    0.0005
    MIXING:  cpu time    0.0005: real time    0.0004
    OFIELD:  cpu time    0.0000: real time    0.0000

  FORCE on cell =-STRESS in cart. coord.  units (eV):
  Direction    XX          YY          ZZ          XY          YZ          ZX
  --------------------------------------------------------------------------------------
  Alpha Z    51.19539    51.19539    51.19539
  Ewald    -186.32599  -186.32599  -186.32599    -0.00000     0.00000    -0.00000
  Hartree    36.29397    36.29397    36.29397    -0.00000    -0.00000    -0.00000
  E(xc)     -39.44927   -39.44927   -39.44927     0.00020     0.00020     0.00020
  Local      53.75502    53.75502    53.75502    -0.00016    -0.00016    -0.00016
  n-local   -28.12430   -27.48682   -26.89780     1.29466    -0.72592    -1.25405
  augment    39.05763    39.05763    39.05763     0.00074     0.00074     0.00074
  Kinetic    71.66936    70.84116    70.76317    -2.77097     1.84908     1.36872
  Fock        0.00000     0.00000     0.00000     0.00000     0.00000     0.00000
  -------------------------------------------------------------------------------------
  Total      -1.88499    -1.88499    -1.88499     0.00000    -0.00000    -0.00000
  in kB    -223.71069  -223.71069  -223.71069     0.00000    -0.00000    -0.00000
  external pressure =     -223.71 kB  Pullay stress =        0.00 kB


 VOLUME and BASIS-vectors are now :
 -----------------------------------------------------------------------------
  energy-cutoff  :      268.00
  volume of cell :       13.50
      direct lattice vectors                 reciprocal lattice vectors
    -1.500000000  1.500000000  1.500000000     0.000000000  0.333333333  0.333333333
     1.500000000 -1.500000000  1.500000000     0.333333333  0.000000000  0.333333333
     1.500000000  1.500000000 -1.500000000     0.333333333  0.333333333  0.000000000

  length of vectors
     2.598076211  2.598076211  2.598076211     0.471404521  0.471404521  0.471404521


 FORCES acting on ions
    electron-ion (+dipol)            ewald-force                    non-local-force                 convergence-correction
 -----------------------------------------------------------------------------------------------
   0.869E-14 0.784E-14 0.943E-14   0.327E-15 0.197E-14 0.229E-15   0.000E+00 0.000E+00 0.000E+00   0.116E-13 0.845E-14 0.106E-13
 -----------------------------------------------------------------------------------------------
   0.869E-14 0.784E-14 0.943E-14   0.327E-15 0.197E-14 0.229E-15   0.000E+00 0.000E+00 0.000E+00   0.116E-13 0.845E-14 0.106E-13
 
 
 POSITION                                       TOTAL-FORCE (eV/Angst)
 -----------------------------------------------------------------------------------
      0.00000      0.00000      0.00000        -0.000000      0.000000      0.000000
 -----------------------------------------------------------------------------------
    total drift:                                0.000000      0.000000      0.000000


--------------------------------------------------------------------------------------------------------



  FREE ENERGIE OF THE ION-ELECTRON SYSTEM (eV)
  ---------------------------------------------------
  free  energy   TOTEN  =        -8.09042021 eV

  energy  without entropy=       -8.09050010  energy(sigma->0) =       -8.09044684
 


--------------------------------------------------------------------------------------------------------


    POTLOK:  cpu time    0.0088: real time    0.0088


--------------------------------------------------------------------------------------------------------


 writing wavefunctions
     LOOP+:  cpu time    2.1615: real time    2.2128
    4ORBIT:  cpu time    0.0000: real time    0.0000

volume of typ            1:    68.5 %
 
total charge     
 
# of ion       s       p       d       tot
------------------------------------------
    1        0.358   0.332   6.080   6.771
 
magnetization (x)
 
# of ion       s       p       d       tot
------------------------------------------
    1       -0.009  -0.048   2.711   2.654
 
orbital moment (x)
 
# of ion     s             p             d             tot
-----------------------------------------------------------------
    1     0.000000E+00 -0.595858E-09 -0.388623E-09 -0.984481E-09
 
orbital moment (y)
 
# of ion     s             p             d             tot
-----------------------------------------------------------------
    1     0.000000E+00 -0.455940E-09 -0.200440E-09 -0.656380E-09
 
orbital moment (z)
 
# of ion     s             p             d             tot
-----------------------------------------------------------------
    1     0.000000E+00  0.458585E-09  0.617094E-09  0.107568E-08
 
orbital moment (x)
 
# of ion     s             p             d             tot
-----------------------------------------------------------------
    1     0.000000E+00  0.106088E-07  0.540150E-08  0.160103E-07
 
orbital moment (y)
 
# of ion     s             p             d             tot
-----------------------------------------------------------------
    1     0.000000E+00  0.109870E-07  0.509895E-08  0.160859E-07
 
orbital moment (z)
 
# of ion     s             p             d             tot
-----------------------------------------------------------------
    1     0.000000E+00  0.323194E-08  0.495158E-08  0.818352E-08
 

 total amount of memory used by VASP MPI-rank0    32099. kBytes
=======================================================================

   base      :      30000. kBytes
   nonl-proj :        914. kBytes
   fftplans  :        142. kBytes
   grid      :        320. kBytes
   one-center:         31. kBytes
   wavefun   :        692. kBytes
 
  
  
 General timing and accounting informations for this job:
 ========================================================
  
                  Total CPU time used (sec):        2.613
                            User time (sec):        2.140
                          System time (sec):        0.473
                         Elapsed time (sec):        2.732
  
                   Maximum memory used (kb):       59504.
                   Average memory used (kb):           0.
  
                          Minor page faults:        21313
                          Major page faults:            0
                 Voluntary context switches:         1788
