PROCAR new format
# of k-points:   44         # of bands:   12         # of ions:    1

 k-point     1 :    0.05000000 0.05000000 0.05000000     weight = 0.00800000

band     1 # energy   -2.70814332 # occ.  1.00000000
 
ion      s      p      d    tot
    1  0.484  0.026  0.002  0.512
 
band     2 # energy    1.98219375 # occ.  1.00000000
 
ion      s      p      d    tot
    1  0.000  0.001  0.949  0.950
 
band     3 # energy    1.98219375 # occ.  1.00000000
 
ion      s      p      d    tot
    1  0.000  0.001  0.949  0.950
 
band     4 # energy    2.37404319 # occ.  1.00000000
 
ion      s      p      d    tot
    1  0.001  0.004  0.954  0.958
 
band     5 # energy    3.03246616 # occ.  1.00000000
 
ion      s      p      d    tot
    1  0.000  0.000  0.966  0.966
 
band     6 # energy    3.03246616 # occ.  1.00000000
 
ion      s      p      d    tot
    1  0.000  0.000  0.966  0.966
 
band     7 # energy   24.79096463 # occ.  0.00000000
 
ion      s      p      d    tot
    1  0.000  0.087  0.191  0.278
 
band     8 # energy   24.79096463 # occ.  0.00000000
 
ion      s      p      d    tot
    1  0.000  0.087  0.191  0.278
 
band     9 # energy   27.51145753 # occ.  0.00000000
 
ion      s      p      d    tot
    1  0.057  0.480  0.186  0.723
 
band    10 # energy   28.07081259 # occ.  0.00000000
 
ion      s      p      d    tot
    1  0.000  0.000  0.000  0.000
 
band    11 # energy   31.47379302 # occ.  0.00000000
 
ion      s      p      d    tot
    1  0.000  0.443  0.004  0.447
 
band    12 # energy   31.47379369 # occ.  0.00000000
 
ion      s      p      d    tot
    1  0.000  0.443  0.004  0.447
 

 k-point     2 :    0.15000000 0.05000000 0.05000000     weight = 0.02400000

band     1 # energy   -1.71298583 # occ.  1.00000000
 
ion      s      p      d    tot
    1  0.427  0.069  0.027  0.523
 
band     2 # energy    1.75983237 # occ.  1.00000000
 
ion      s      p      d    tot
    1  0.000  0.001  0.938  0.940
 
band     3 # energy    1.88316097 # occ.  1.00000000
 
ion      s      p      d    tot
    1  0.002  0.010  0.916  0.928
 
band     4 # energy    2.89768482 # occ.  1.00000000
 
ion      s      p      d    tot
    1  0.004  0.010  0.942  0.957
 
band     5 # energy    2.95045310 # occ.  1.00000000
 
ion      s      p      d    tot
    1  0.000  0.000  0.964  0.965
 
band     6 # energy    3.08796944 # occ.  1.00000000
 
ion      s      p      d    tot
    1  0.000  0.000  0.969  0.969
 
band     7 # energy   20.56473465 # occ.  0.00000000
 
ion      s      p      d    tot
    1  0.036  0.200  0.234  0.470
 
band     8 # energy   22.89169953 # occ.  0.00000000
 
ion      s      p      d    tot
    1  0.000  0.159  0.199  0.358
 
band     9 # energy   24.57423816 # occ.  0.00000000
 
ion      s      p      d    tot
    1  0.090  0.443  0.138  0.670
 
band    10 # energy   28.10221487 # occ.  0.00000000
 
ion      s      p      d    tot
    1  0.000  0.008  0.129  0.137
 
band    11 # energy   30.97885126 # occ.  0.00000000
 
ion      s      p      d    tot
    1  0.030  0.316  0.191  0.538
 
band    12 # energy   31.74328292 # occ.  0.00000000
 
ion      s      p      d    tot
    1  0.000  0.280  0.074  0.355
 

 k-point     3 :    0.25000000 0.05000000 0.05000000     weight = 0.02400000

band     1 # energy   -0.44951348 # occ.  1.00000000
 
ion      s      p      d    tot
    1  0.299  0.087  0.211  0.598
 
band     2 # energy    1.50908089 # occ.  1.00000000
 
ion      s      p      d    tot
    1  0.000  0.002  0.928  0.930
 
band     3 # energy    1.97014824 # occ.  1.00000000
 
ion      s      p      d    tot
    1  0.036  0.065  0.743  0.844
 
band     4 # energy    2.99100277 # occ.  1.00000000
 
ion      s      p      d    tot
    1  0.001  0.001  0.967  0.969
 
band     5 # energy    3.14444245 # occ.  1.00000000
 
ion      s      p      d    tot
    1  0.000  0.000  0.974  0.974
 
band     6 # energy    3.63428757 # occ.  1.00001431
 
ion      s      p      d    tot
    1  0.016  0.028  0.899  0.943
 
band     7 # energy   16.12744271 # occ.  0.00000000
 
ion      s      p      d    tot
    1  0.121  0.224  0.234  0.579
 
band     8 # energy   21.30232510 # occ.  0.00000000
 
ion      s      p      d    tot
    1  0.000  0.204  0.168  0.372
 
band     9 # energy   22.49784346 # occ.  0.00000000
 
ion      s      p      d    tot
    1  0.088  0.457  0.099  0.644
 
band    10 # energy   27.42708543 # occ.  0.00000000
 
ion      s      p      d    tot
    1  0.000  0.019  0.282  0.301
 
band    11 # energy   30.17558675 # occ.  0.00000000
 
ion      s      p      d    tot
    1  0.085  0.209  0.225  0.519
 
band    12 # energy   33.58723077 # occ.  0.00000000
 
ion      s      p      d    tot
    1  0.000  0.246  0.072  0.319
 

 k-point     4 :    0.35000000 0.05000000 0.05000000     weight = 0.02400000

band     1 # energy    0.13054516 # occ.  1.00000000
 
ion      s      p      d    tot
    1  0.130  0.026  0.608  0.764
 
band     2 # energy    1.32157844 # occ.  1.00000000
 
ion      s      p      d    tot
    1  0.000  0.003  0.920  0.923
 
band     3 # energy    2.85412191 # occ.  1.00000000
 
ion      s      p      d    tot
    1  0.054  0.138  0.586  0.778
 
band     4 # energy    3.10721644 # occ.  1.00000000
 
ion      s      p      d    tot
    1  0.000  0.025  0.925  0.950
 
band     5 # energy    3.18920116 # occ.  1.00000000
 
ion      s      p      d    tot
    1  0.000  0.000  0.978  0.978
 
band     6 # energy    4.63596103 # occ. -0.01888734
 
ion      s      p      d    tot
    1  0.047  0.127  0.648  0.822
 
band     7 # energy   12.21721197 # occ.  0.00000000
 
ion      s      p      d    tot
    1  0.242  0.147  0.273  0.662
 
band     8 # energy   20.25319108 # occ.  0.00000000
 
ion      s      p      d    tot
    1  0.000  0.227  0.137  0.364
 
band     9 # energy   21.09425507 # occ.  0.00000000
 
ion      s      p      d    tot
    1  0.083  0.491  0.053  0.627
 
band    10 # energy   26.92976618 # occ.  0.00000000
 
ion      s      p      d    tot
    1  0.000  0.019  0.364  0.383
 
band    11 # energy   29.83115382 # occ.  0.00000000
 
ion      s      p      d    tot
    1  0.137  0.127  0.265  0.529
 
band    12 # energy   35.94050224 # occ.  0.00000000
 
ion      s      p      d    tot
    1  0.029  0.038  0.081  0.148
 

 k-point     5 :    0.45000000 0.05000000 0.05000000     weight = 0.01200000

band     1 # energy    0.17603785 # occ.  1.00000000
 
ion      s      p      d    tot
    1  0.088  0.006  0.714  0.807
 
band     2 # energy    1.25435094 # occ.  1.00000000
 
ion      s      p      d    tot
    1  0.000  0.003  0.918  0.920
 
band     3 # energy    3.10523883 # occ.  1.00000000
 
ion      s      p      d    tot
    1  0.008  0.000  0.964  0.972
 
band     4 # energy    3.20863465 # occ.  1.00000000
 
ion      s      p      d    tot
    1  0.000  0.000  0.980  0.980
 
band     5 # energy    3.46614146 # occ.  1.00000003
 
ion      s      p      d    tot
    1  0.000  0.135  0.697  0.832
 
band     6 # energy    5.66165876 # occ. -0.00000000
 
ion      s      p      d    tot
    1  0.000  0.333  0.298  0.630
 
band     7 # energy   10.13131594 # occ.  0.00000000
 
ion      s      p      d    tot
    1  0.377  0.007  0.365  0.749
 
band     8 # energy   19.88918246 # occ.  0.00000000
 
ion      s      p      d    tot
    1  0.000  0.234  0.125  0.359
 
band     9 # energy   20.58408978 # occ.  0.00000000
 
ion      s      p      d    tot
    1  0.081  0.507  0.031  0.618
 
band    10 # energy   26.77359283 # occ.  0.00000000
 
ion      s      p      d    tot
    1  0.000  0.018  0.389  0.407
 
band    11 # energy   29.76034977 # occ.  0.00000000
 
ion      s      p      d    tot
    1  0.160  0.093  0.285  0.538
 
band    12 # energy   35.99349729 # occ.  0.00000000
 
ion      s      p      d    tot
    1  0.000  0.069  0.003  0.071
 

 k-point     6 :   -0.05000000 0.05000000 0.05000000     weight = 0.00600000

band     1 # energy   -3.06310332 # occ.  1.00000000
 
ion      s      p      d    tot
    1  0.502  0.009  0.000  0.511
 
band     2 # energy    2.07538384 # occ.  1.00000000
 
ion      s      p      d    tot
    1  0.000  0.001  0.954  0.955
 
band     3 # energy    2.07552174 # occ.  1.00000000
 
ion      s      p      d    tot
    1  0.000  0.001  0.954  0.955
 
band     4 # energy    2.11854641 # occ.  1.00000000
 
ion      s      p      d    tot
    1  0.000  0.000  0.957  0.957
 
band     5 # energy    3.00414376 # occ.  1.00000000
 
ion      s      p      d    tot
    1  0.000  0.000  0.964  0.964
 
band     6 # energy    3.09947631 # occ.  1.00000000
 
ion      s      p      d    tot
    1  0.000  0.000  0.969  0.969
 
band     7 # energy   26.32941792 # occ.  0.00000000
 
ion      s      p      d    tot
    1  0.000  0.000  0.096  0.096
 
band     8 # energy   27.20349623 # occ.  0.00000000
 
ion      s      p      d    tot
    1  0.000  0.024  0.098  0.122
 
band     9 # energy   27.20352285 # occ.  0.00000000
 
ion      s      p      d    tot
    1  0.000  0.024  0.098  0.122
 
band    10 # energy   29.65794198 # occ.  0.00000000
 
ion      s      p      d    tot
    1  0.017  0.354  0.109  0.480
 
band    11 # energy   30.85053464 # occ.  0.00000000
 
ion      s      p      d    tot
    1  0.000  0.486  0.159  0.646
 
band    12 # energy   30.85061192 # occ.  0.00000000
 
ion      s      p      d    tot
    1  0.000  0.486  0.159  0.646
 

 k-point     7 :    0.15000000 0.15000000 0.05000000     weight = 0.02400000

band     1 # energy   -0.57269828 # occ.  1.00000000
 
ion      s      p      d    tot
    1  0.341  0.106  0.110  0.557
 
band     2 # energy    1.60389884 # occ.  1.00000000
 
ion      s      p      d    tot
    1  0.000  0.012  0.901  0.913
 
band     3 # energy    1.61543830 # occ.  1.00000000
 
ion      s      p      d    tot
    1  0.004  0.012  0.902  0.918
 
band     4 # energy    2.96214836 # occ.  1.00000000
 
ion      s      p      d    tot
    1  0.000  0.000  0.966  0.967
 
band     5 # energy    3.14868709 # occ.  1.00000000
 
ion      s      p      d    tot
    1  0.001  0.000  0.972  0.974
 
band     6 # energy    3.68198763 # occ.  1.00006011
 
ion      s      p      d    tot
    1  0.023  0.032  0.881  0.936
 
band     7 # energy   18.47105179 # occ.  0.00000000
 
ion      s      p      d    tot
    1  0.000  0.226  0.263  0.489
 
band     8 # energy   19.06546414 # occ.  0.00000000
 
ion      s      p      d    tot
    1  0.127  0.259  0.164  0.551
 
band     9 # energy   21.92991709 # occ.  0.00000000
 
ion      s      p      d    tot
    1  0.099  0.354  0.123  0.576
 
band    10 # energy   29.26906806 # occ.  0.00000000
 
ion      s      p      d    tot
    1  0.000  0.023  0.116  0.139
 
band    11 # energy   32.17648437 # occ.  0.00000000
 
ion      s      p      d    tot
    1  0.022  0.156  0.255  0.432
 
band    12 # energy   33.46590804 # occ.  0.00000000
 
ion      s      p      d    tot
    1  0.000  0.258  0.156  0.414
 

 k-point     8 :    0.25000000 0.15000000 0.05000000     weight = 0.04800000

band     1 # energy    0.39428531 # occ.  1.00000000
 
ion      s      p      d    tot
    1  0.169  0.073  0.466  0.708
 
band     2 # energy    1.38066350 # occ.  1.00000000
 
ion      s      p      d    tot
    1  0.000  0.013  0.895  0.908
 
band     3 # energy    1.82055113 # occ.  1.00000000
 
ion      s      p      d    tot
    1  0.038  0.083  0.702  0.823
 
band     4 # energy    3.03304795 # occ.  1.00000000
 
ion      s      p      d    tot
    1  0.000  0.001  0.969  0.970
 
band     5 # energy    3.22492969 # occ.  1.00000000
 
ion      s      p      d    tot
    1  0.004  0.001  0.969  0.975
 
band     6 # energy    4.85296706 # occ. -0.00030723
 
ion      s      p      d    tot
    1  0.065  0.091  0.699  0.855
 
band     7 # energy   14.48693818 # occ.  0.00000000
 
ion      s      p      d    tot
    1  0.144  0.225  0.231  0.600
 
band     8 # energy   17.42975613 # occ.  0.00000000
 
ion      s      p      d    tot
    1  0.102  0.265  0.177  0.544
 
band     9 # energy   20.45293007 # occ.  0.00000000
 
ion      s      p      d    tot
    1  0.088  0.342  0.116  0.547
 
band    10 # energy   29.26490586 # occ.  0.00000000
 
ion      s      p      d    tot
    1  0.008  0.032  0.209  0.249
 
band    11 # energy   32.98063009 # occ.  0.00000000
 
ion      s      p      d    tot
    1  0.001  0.137  0.264  0.402
 
band    12 # energy   34.05694685 # occ.  0.00000000
 
ion      s      p      d    tot
    1  0.069  0.159  0.159  0.388
 

 k-point     9 :    0.35000000 0.15000000 0.05000000     weight = 0.04800000

band     1 # energy    0.52776356 # occ.  1.00000000
 
ion      s      p      d    tot
    1  0.072  0.025  0.718  0.814
 
band     2 # energy    1.27268756 # occ.  1.00000000
 
ion      s      p      d    tot
    1  0.000  0.013  0.895  0.908
 
band     3 # energy    2.43019037 # occ.  1.00000000
 
ion      s      p      d    tot
    1  0.010  0.118  0.691  0.820
 
band     4 # energy    3.11639200 # occ.  1.00000000
 
ion      s      p      d    tot
    1  0.004  0.001  0.968  0.973
 
band     5 # energy    3.30278955 # occ.  1.00000000
 
ion      s      p      d    tot
    1  0.002  0.012  0.954  0.968
 
band     6 # energy    6.55267103 # occ. -0.00000000
 
ion      s      p      d    tot
    1  0.050  0.246  0.402  0.697
 
band     7 # energy   11.03645124 # occ.  0.00000000
 
ion      s      p      d    tot
    1  0.289  0.106  0.292  0.687
 
band     8 # energy   16.67973108 # occ.  0.00000000
 
ion      s      p      d    tot
    1  0.108  0.280  0.159  0.547
 
band     9 # energy   19.69019484 # occ.  0.00000000
 
ion      s      p      d    tot
    1  0.083  0.347  0.106  0.536
 
band    10 # energy   29.04185948 # occ.  0.00000000
 
ion      s      p      d    tot
    1  0.015  0.027  0.263  0.305
 
band    11 # energy   33.37378423 # occ.  0.00000000
 
ion      s      p      d    tot
    1  0.049  0.150  0.265  0.464
 
band    12 # energy   34.73301571 # occ.  0.00000000
 
ion      s      p      d    tot
    1  0.022  0.063  0.119  0.203
 

 k-point    10 :   -0.15000000 0.15000000 0.05000000     weight = 0.02400000

band     1 # energy   -2.36364100 # occ.  1.00000000
 
ion      s      p      d    tot
    1  0.466  0.042  0.007  0.514
 
band     2 # energy    1.93861742 # occ.  1.00000000
 
ion      s      p      d    tot
    1  0.000  0.001  0.948  0.948
 
band     3 # energy    2.05944523 # occ.  1.00000000
 
ion      s      p      d    tot
    1  0.001  0.006  0.936  0.943
 
band     4 # energy    2.43490880 # occ.  1.00000000
 
ion      s      p      d    tot
    1  0.000  0.003  0.957  0.959
 
band     5 # energy    2.85964868 # occ.  1.00000000
 
ion      s      p      d    tot
    1  0.000  0.000  0.957  0.957
 
band     6 # energy    3.14787026 # occ.  1.00000000
 
ion      s      p      d    tot
    1  0.001  0.000  0.969  0.971
 
band     7 # energy   22.82062195 # occ.  0.00000000
 
ion      s      p      d    tot
    1  0.017  0.146  0.225  0.388
 
band     8 # energy   25.44594665 # occ.  0.00000000
 
ion      s      p      d    tot
    1  0.019  0.129  0.109  0.257
 
band     9 # energy   25.86712921 # occ.  0.00000000
 
ion      s      p      d    tot
    1  0.000  0.168  0.252  0.420
 
band    10 # energy   28.90540632 # occ.  0.00000000
 
ion      s      p      d    tot
    1  0.000  0.342  0.179  0.522
 
band    11 # energy   28.93514633 # occ.  0.00000000
 
ion      s      p      d    tot
    1  0.001  0.347  0.132  0.480
 
band    12 # energy   29.94445828 # occ.  0.00000000
 
ion      s      p      d    tot
    1  0.069  0.277  0.027  0.372
 

 k-point    11 :    0.25000000 0.25000000 0.05000000     weight = 0.02400000

band     1 # energy    0.87372598 # occ.  1.00000000
 
ion      s      p      d    tot
    1  0.060  0.029  0.747  0.836
 
band     2 # energy    1.33751619 # occ.  1.00000000
 
ion      s      p      d    tot
    1  0.000  0.045  0.823  0.868
 
band     3 # energy    1.80649612 # occ.  1.00000000
 
ion      s      p      d    tot
    1  0.022  0.094  0.708  0.823
 
band     4 # energy    3.11032886 # occ.  1.00000000
 
ion      s      p      d    tot
    1  0.000  0.002  0.971  0.973
 
band     5 # energy    3.28605734 # occ.  1.00000000
 
ion      s      p      d    tot
    1  0.005  0.004  0.965  0.974
 
band     6 # energy    6.79386739 # occ. -0.00000000
 
ion      s      p      d    tot
    1  0.096  0.185  0.454  0.736
 
band     7 # energy   13.12254718 # occ.  0.00000000
 
ion      s      p      d    tot
    1  0.000  0.303  0.283  0.586
 
band     8 # energy   13.73961581 # occ.  0.00000000
 
ion      s      p      d    tot
    1  0.366  0.142  0.129  0.637
 
band     9 # energy   19.50863000 # occ.  0.00000000
 
ion      s      p      d    tot
    1  0.087  0.325  0.131  0.543
 
band    10 # energy   30.53152232 # occ.  0.00000000
 
ion      s      p      d    tot
    1  0.000  0.049  0.172  0.221
 
band    11 # energy   32.91498378 # occ.  0.00000000
 
ion      s      p      d    tot
    1  0.026  0.068  0.218  0.312
 
band    12 # energy   38.13735478 # occ.  0.00000000
 
ion      s      p      d    tot
    1  0.000  0.180  0.160  0.340
 

 k-point    12 :    0.35000000 0.25000000 0.05000000     weight = 0.02400000

band     1 # energy    0.91865139 # occ.  1.00000000
 
ion      s      p      d    tot
    1  0.036  0.017  0.811  0.864
 
band     2 # energy    1.36736903 # occ.  1.00000000
 
ion      s      p      d    tot
    1  0.000  0.050  0.816  0.866
 
band     3 # energy    1.87024030 # occ.  1.00000000
 
ion      s      p      d    tot
    1  0.000  0.096  0.737  0.833
 
band     4 # energy    3.17933217 # occ.  1.00000000
 
ion      s      p      d    tot
    1  0.001  0.003  0.970  0.974
 
band     5 # energy    3.29112032 # occ.  1.00000000
 
ion      s      p      d    tot
    1  0.000  0.007  0.967  0.975
 
band     6 # energy    8.81636688 # occ. -0.00000000
 
ion      s      p      d    tot
    1  0.000  0.325  0.309  0.634
 
band     7 # energy   10.61382872 # occ.  0.00000000
 
ion      s      p      d    tot
    1  0.233  0.149  0.292  0.674
 
band     8 # energy   13.14701504 # occ.  0.00000000
 
ion      s      p      d    tot
    1  0.286  0.172  0.167  0.625
 
band     9 # energy   19.19937222 # occ.  0.00000000
 
ion      s      p      d    tot
    1  0.088  0.322  0.135  0.546
 
band    10 # energy   30.96325470 # occ.  0.00000000
 
ion      s      p      d    tot
    1  0.007  0.048  0.188  0.243
 
band    11 # energy   33.11129259 # occ.  0.00000000
 
ion      s      p      d    tot
    1  0.000  0.053  0.144  0.197
 
band    12 # energy   37.57890486 # occ.  0.00000000
 
ion      s      p      d    tot
    1  0.004  0.165  0.347  0.515
 

 k-point    13 :   -0.25000000 0.25000000 0.05000000     weight = 0.02400000

band     1 # energy   -1.14627167 # occ.  1.00000000
 
ion      s      p      d    tot
    1  0.379  0.085  0.079  0.543
 
band     2 # energy    1.70224223 # occ.  1.00000000
 
ion      s      p      d    tot
    1  0.000  0.001  0.938  0.938
 
band     3 # energy    2.00959141 # occ.  1.00000000
 
ion      s      p      d    tot
    1  0.016  0.034  0.840  0.890
 
band     4 # energy    2.84900308 # occ.  1.00000000
 
ion      s      p      d    tot
    1  0.000  0.002  0.958  0.960
 
band     5 # energy    3.00789597 # occ.  1.00000000
 
ion      s      p      d    tot
    1  0.000  0.005  0.961  0.966
 
band     6 # energy    3.20224536 # occ.  1.00000000
 
ion      s      p      d    tot
    1  0.006  0.002  0.962  0.970
 
band     7 # energy   18.27550237 # occ.  0.00000000
 
ion      s      p      d    tot
    1  0.080  0.224  0.235  0.539
 
band     8 # energy   23.44628845 # occ.  0.00000000
 
ion      s      p      d    tot
    1  0.022  0.181  0.077  0.280
 
band     9 # energy   24.09512768 # occ.  0.00000000
 
ion      s      p      d    tot
    1  0.000  0.365  0.230  0.596
 
band    10 # energy   27.28028918 # occ.  0.00000000
 
ion      s      p      d    tot
    1  0.000  0.185  0.289  0.474
 
band    11 # energy   28.66522756 # occ.  0.00000000
 
ion      s      p      d    tot
    1  0.065  0.255  0.171  0.491
 
band    12 # energy   30.87323358 # occ.  0.00000000
 
ion      s      p      d    tot
    1  0.081  0.154  0.085  0.320
 

 k-point    14 :   -0.15000000 0.25000000 0.05000000     weight = 0.02400000

band     1 # energy   -1.40568773 # occ.  1.00000000
 
ion      s      p      d    tot
    1  0.405  0.082  0.041  0.528
 
band     2 # energy    1.89095474 # occ.  1.00000000
 
ion      s      p      d    tot
    1  0.003  0.007  0.927  0.936
 
band     3 # energy    1.90536653 # occ.  1.00000000
 
ion      s      p      d    tot
    1  0.000  0.008  0.920  0.929
 
band     4 # energy    2.71026236 # occ.  1.00000000
 
ion      s      p      d    tot
    1  0.000  0.000  0.952  0.953
 
band     5 # energy    2.87126253 # occ.  1.00000000
 
ion      s      p      d    tot
    1  0.002  0.009  0.948  0.959
 
band     6 # energy    3.25563752 # occ.  1.00000000
 
ion      s      p      d    tot
    1  0.010  0.002  0.957  0.969
 
band     7 # energy   20.53565374 # occ.  0.00000000
 
ion      s      p      d    tot
    1  0.000  0.178  0.265  0.443
 
band     8 # energy   21.34418159 # occ.  0.00000000
 
ion      s      p      d    tot
    1  0.095  0.274  0.169  0.538
 
band     9 # energy   26.09892023 # occ.  0.00000000
 
ion      s      p      d    tot
    1  0.000  0.099  0.217  0.316
 
band    10 # energy   26.27090426 # occ.  0.00000000
 
ion      s      p      d    tot
    1  0.001  0.454  0.088  0.543
 
band    11 # energy   28.96567271 # occ.  0.00000000
 
ion      s      p      d    tot
    1  0.084  0.118  0.211  0.413
 
band    12 # energy   31.94546206 # occ.  0.00000000
 
ion      s      p      d    tot
    1  0.000  0.310  0.036  0.346
 

 k-point    15 :   -0.35000000 0.35000000 0.05000000     weight = 0.02400000

band     1 # energy   -0.11819600 # occ.  1.00000000
 
ion      s      p      d    tot
    1  0.205  0.054  0.429  0.688
 
band     2 # energy    1.47235120 # occ.  1.00000000
 
ion      s      p      d    tot
    1  0.000  0.001  0.929  0.930
 
band     3 # energy    2.41768879 # occ.  1.00000000
 
ion      s      p      d    tot
    1  0.056  0.109  0.624  0.789
 
band     4 # energy    3.03215517 # occ.  1.00000000
 
ion      s      p      d    tot
    1  0.000  0.016  0.941  0.957
 
band     5 # energy    3.42109949 # occ.  1.00000001
 
ion      s      p      d    tot
    1  0.041  0.057  0.799  0.896
 
band     6 # energy    3.64336110 # occ.  1.00001898
 
ion      s      p      d    tot
    1  0.000  0.004  0.974  0.978
 
band     7 # energy   14.01562437 # occ.  0.00000000
 
ion      s      p      d    tot
    1  0.179  0.196  0.250  0.624
 
band     8 # energy   21.92655589 # occ.  0.00000000
 
ion      s      p      d    tot
    1  0.019  0.212  0.046  0.277
 
band     9 # energy   22.40156384 # occ.  0.00000000
 
ion      s      p      d    tot
    1  0.000  0.491  0.136  0.627
 
band    10 # energy   26.41644686 # occ.  0.00000000
 
ion      s      p      d    tot
    1  0.000  0.100  0.399  0.499
 
band    11 # energy   28.53199986 # occ.  0.00000000
 
ion      s      p      d    tot
    1  0.146  0.122  0.235  0.502
 
band    12 # energy   32.59897307 # occ.  0.00000000
 
ion      s      p      d    tot
    1  0.062  0.114  0.140  0.316
 

 k-point    16 :   -0.25000000 0.35000000 0.05000000     weight = 0.04800000

band     1 # energy   -0.21012457 # occ.  1.00000000
 
ion      s      p      d    tot
    1  0.273  0.098  0.236  0.607
 
band     2 # energy    1.63232286 # occ.  1.00000000
 
ion      s      p      d    tot
    1  0.000  0.010  0.907  0.917
 
band     3 # energy    1.88623978 # occ.  1.00000000
 
ion      s      p      d    tot
    1  0.019  0.042  0.816  0.877
 
band     4 # energy    2.79947056 # occ.  1.00000000
 
ion      s      p      d    tot
    1  0.000  0.005  0.952  0.957
 
band     5 # energy    3.29722967 # occ.  1.00000000
 
ion      s      p      d    tot
    1  0.008  0.002  0.964  0.973
 
band     6 # energy    3.74201816 # occ.  1.00030688
 
ion      s      p      d    tot
    1  0.040  0.040  0.837  0.918
 
band     7 # energy   16.38972866 # occ.  0.00000000
 
ion      s      p      d    tot
    1  0.104  0.237  0.234  0.575
 
band     8 # energy   19.32514631 # occ.  0.00000000
 
ion      s      p      d    tot
    1  0.078  0.270  0.182  0.530
 
band     9 # energy   24.08223499 # occ.  0.00000000
 
ion      s      p      d    tot
    1  0.000  0.389  0.072  0.462
 
band    10 # energy   26.44015464 # occ.  0.00000000
 
ion      s      p      d    tot
    1  0.025  0.112  0.265  0.402
 
band    11 # energy   29.44668497 # occ.  0.00000000
 
ion      s      p      d    tot
    1  0.057  0.125  0.256  0.438
 
band    12 # energy   32.40942360 # occ.  0.00000000
 
ion      s      p      d    tot
    1  0.069  0.168  0.151  0.389
 

 k-point    17 :   -0.45000000 0.45000000 0.05000000     weight = 0.02400000

band     1 # energy    0.10728017 # occ.  1.00000000
 
ion      s      p      d    tot
    1  0.101  0.007  0.688  0.796
 
band     2 # energy    1.33254036 # occ.  1.00000000
 
ion      s      p      d    tot
    1  0.000  0.001  0.924  0.925
 
band     3 # energy    2.88623245 # occ.  1.00000000
 
ion      s      p      d    tot
    1  0.008  0.046  0.853  0.908
 
band     4 # energy    3.07404457 # occ.  1.00000000
 
ion      s      p      d    tot
    1  0.005  0.006  0.956  0.966
 
band     5 # energy    4.06719427 # occ.  1.03454893
 
ion      s      p      d    tot
    1  0.000  0.001  0.988  0.989
 
band     6 # energy    4.73659648 # occ. -0.00404469
 
ion      s      p      d    tot
    1  0.039  0.351  0.196  0.587
 
band     7 # energy   10.72053854 # occ.  0.00000000
 
ion      s      p      d    tot
    1  0.326  0.062  0.331  0.719
 
band     8 # energy   21.11368267 # occ.  0.00000000
 
ion      s      p      d    tot
    1  0.018  0.226  0.027  0.271
 
band     9 # energy   21.37225915 # occ.  0.00000000
 
ion      s      p      d    tot
    1  0.000  0.545  0.073  0.617
 
band    10 # energy   26.03734936 # occ.  0.00000000
 
ion      s      p      d    tot
    1  0.000  0.071  0.455  0.527
 
band    11 # energy   28.56021413 # occ.  0.00000000
 
ion      s      p      d    tot
    1  0.197  0.044  0.288  0.529
 
band    12 # energy   34.04410573 # occ.  0.00000000
 
ion      s      p      d    tot
    1  0.015  0.069  0.113  0.197
 

 k-point    18 :   -0.35000000 0.45000000 0.05000000     weight = 0.04800000

band     1 # energy    0.33080043 # occ.  1.00000000
 
ion      s      p      d    tot
    1  0.113  0.033  0.626  0.772
 
band     2 # energy    1.47408515 # occ.  1.00000000
 
ion      s      p      d    tot
    1  0.001  0.008  0.910  0.919
 
band     3 # energy    2.19905670 # occ.  1.00000000
 
ion      s      p      d    tot
    1  0.021  0.088  0.720  0.829
 
band     4 # energy    2.97635274 # occ.  1.00000000
 
ion      s      p      d    tot
    1  0.002  0.007  0.953  0.962
 
band     5 # energy    3.59799298 # occ.  1.00000442
 
ion      s      p      d    tot
    1  0.012  0.021  0.923  0.956
 
band     6 # energy    5.03834534 # occ. -0.00000107
 
ion      s      p      d    tot
    1  0.078  0.165  0.529  0.773
 
band     7 # energy   12.43598087 # occ.  0.00000000
 
ion      s      p      d    tot
    1  0.221  0.170  0.262  0.653
 
band     8 # energy   18.19580224 # occ.  0.00000000
 
ion      s      p      d    tot
    1  0.077  0.302  0.158  0.536
 
band     9 # energy   22.69037624 # occ.  0.00000000
 
ion      s      p      d    tot
    1  0.000  0.402  0.035  0.437
 
band    10 # energy   26.49395519 # occ.  0.00000000
 
ion      s      p      d    tot
    1  0.057  0.040  0.365  0.462
 
band    11 # energy   30.59454915 # occ.  0.00000000
 
ion      s      p      d    tot
    1  0.002  0.168  0.232  0.401
 
band    12 # energy   32.21163669 # occ.  0.00000000
 
ion      s      p      d    tot
    1  0.110  0.067  0.213  0.389
 

 k-point    19 :   -0.25000000 0.45000000 0.05000000     weight = 0.02400000

band     1 # energy    0.60466344 # occ.  1.00000000
 
ion      s      p      d    tot
    1  0.134  0.068  0.537  0.738
 
band     2 # energy    1.39058185 # occ.  1.00000000
 
ion      s      p      d    tot
    1  0.000  0.027  0.850  0.878
 
band     3 # energy    1.88476038 # occ.  1.00000000
 
ion      s      p      d    tot
    1  0.012  0.055  0.805  0.872
 
band     4 # energy    2.89386795 # occ.  1.00000000
 
ion      s      p      d    tot
    1  0.000  0.005  0.956  0.961
 
band     5 # energy    3.41506260 # occ.  1.00000000
 
ion      s      p      d    tot
    1  0.016  0.006  0.947  0.968
 
band     6 # energy    5.19670611 # occ. -0.00000000
 
ion      s      p      d    tot
    1  0.095  0.126  0.586  0.807
 
band     7 # energy   14.79667066 # occ.  0.00000000
 
ion      s      p      d    tot
    1  0.000  0.294  0.280  0.574
 
band     8 # energy   15.25615948 # occ.  0.00000000
 
ion      s      p      d    tot
    1  0.280  0.206  0.132  0.617
 
band     9 # energy   23.60143080 # occ.  0.00000000
 
ion      s      p      d    tot
    1  0.013  0.416  0.071  0.500
 
band    10 # energy   26.45603323 # occ.  0.00000000
 
ion      s      p      d    tot
    1  0.000  0.087  0.234  0.321
 
band    11 # energy   29.39626300 # occ.  0.00000000
 
ion      s      p      d    tot
    1  0.093  0.040  0.298  0.431
 
band    12 # energy   36.38794442 # occ.  0.00000000
 
ion      s      p      d    tot
    1  0.000  0.231  0.130  0.361
 

 k-point    20 :   -0.45000000-0.45000000 0.05000000     weight = 0.02400000

band     1 # energy    0.36190145 # occ.  1.00000000
 
ion      s      p      d    tot
    1  0.073  0.012  0.729  0.814
 
band     2 # energy    1.42266451 # occ.  1.00000000
 
ion      s      p      d    tot
    1  0.000  0.006  0.913  0.920
 