<?xml version="1.0" encoding="ISO-8859-1"?>
<modeling>
 <generator>
  <i name="program" type="string">vasp </i>
  <i name="version" type="string">5.4.4.18Apr17-6-g9f103f2a35  </i>
  <i name="subversion" type="string">(build May 18 2018 14:42:58) complex            parallel </i>
  <i name="platform" type="string">LinuxIFC </i>
  <i name="date" type="string">2020 06 30 </i>
  <i name="time" type="string">16:51:08 </i>
 </generator>
 <incar>
  <i type="string" name="SYSTEM"> bcc Fe</i>
  <i type="string" name="PREC">normal</i>
  <i type="int" name="ISPIN">     2</i>
  <i name="EDIFF">      0.00010000</i>
  <i name="ENCUT">    268.00000000</i>
  <v name="RWIGS">      1.30200000</v>
  <v name="MAGMOM">      3.00000000</v>
  <v type="int" name="KPOINT_BSE">    -1     0     0     0</v>
 </incar>
 <structure name="primitive_cell" >
  <crystal>
   <varray name="basis" >
    <v>      -1.50000000       1.50000000       1.50000000 </v>
    <v>       1.50000000      -1.50000000       1.50000000 </v>
    <v>       1.50000000       1.50000000      -1.50000000 </v>
   </varray>
   <i name="volume">     13.50000000 </i>
   <varray name="rec_basis" >
    <v>       0.00000000       0.33333333       0.33333333 </v>
    <v>       0.33333333       0.00000000       0.33333333 </v>
    <v>       0.33333333       0.33333333       0.00000000 </v>
   </varray>
  </crystal>
  <varray name="positions" >
   <v>       0.00000000       0.00000000       0.00000000 </v>
  </varray>
 </structure>
 <varray name="primitive_index" >
  <v type="int" >        1 </v>
 </varray>
 <kpoints>
  <generation param="Monkhorst-Pack">
   <v type="int" name="divisions">      10       10       10 </v>
   <v name="usershift">      0.00000000       0.00000000       0.00000000 </v>
   <v name="genvec1">      0.10000000       0.00000000       0.00000000 </v>
   <v name="genvec2">      0.00000000       0.10000000       0.00000000 </v>
   <v name="genvec3">      0.00000000       0.00000000       0.10000000 </v>
   <v name="shift">      0.50000000       0.50000000       0.50000000 </v>
  </generation>
  <varray name="kpointlist" >
   <v>       0.05000000       0.05000000       0.05000000 </v>
   <v>       0.15000000       0.05000000       0.05000000 </v>
   <v>       0.25000000       0.05000000       0.05000000 </v>
   <v>       0.35000000       0.05000000       0.05000000 </v>
   <v>       0.45000000       0.05000000       0.05000000 </v>
   <v>      -0.05000000       0.05000000       0.05000000 </v>
   <v>       0.15000000       0.15000000       0.05000000 </v>
   <v>       0.25000000       0.15000000       0.05000000 </v>
   <v>       0.35000000       0.15000000       0.05000000 </v>
   <v>      -0.15000000       0.15000000       0.05000000 </v>
   <v>       0.25000000       0.25000000       0.05000000 </v>
   <v>       0.35000000       0.25000000       0.05000000 </v>
   <v>      -0.25000000       0.25000000       0.05000000 </v>
   <v>      -0.15000000       0.25000000       0.05000000 </v>
   <v>      -0.35000000       0.35000000       0.05000000 </v>
   <v>      -0.25000000       0.35000000       0.05000000 </v>
   <v>      -0.45000000       0.45000000       0.05000000 </v>
   <v>      -0.35000000       0.45000000       0.05000000 </v>
   <v>      -0.25000000       0.45000000       0.05000000 </v>
   <v>      -0.45000000      -0.45000000       0.05000000 </v>
   <v>      -0.35000000      -0.45000000       0.05000000 </v>
   <v>      -0.35000000      -0.35000000       0.05000000 </v>
   <v>       0.15000000       0.15000000       0.15000000 </v>
   <v>       0.25000000       0.15000000       0.15000000 </v>
   <v>       0.35000000       0.15000000       0.15000000 </v>
   <v>      -0.15000000       0.15000000       0.15000000 </v>
   <v>       0.25000000       0.25000000       0.15000000 </v>
   <v>      -0.25000000       0.25000000       0.15000000 </v>
   <v>      -0.35000000       0.35000000       0.15000000 </v>
   <v>      -0.25000000       0.35000000       0.15000000 </v>
   <v>      -0.45000000       0.45000000       0.15000000 </v>
   <v>      -0.35000000       0.45000000       0.15000000 </v>
   <v>      -0.45000000      -0.45000000       0.15000000 </v>
   <v>      -0.35000000      -0.45000000       0.15000000 </v>
   <v>       0.25000000       0.25000000       0.25000000 </v>
   <v>      -0.25000000       0.25000000       0.25000000 </v>
   <v>      -0.35000000       0.35000000       0.25000000 </v>
   <v>      -0.45000000       0.45000000       0.25000000 </v>
   <v>      -0.35000000       0.45000000       0.25000000 </v>
   <v>      -0.45000000      -0.45000000       0.25000000 </v>
   <v>      -0.35000000       0.35000000       0.35000000 </v>
   <v>      -0.45000000       0.45000000       0.35000000 </v>
   <v>      -0.45000000      -0.45000000       0.35000000 </v>
   <v>      -0.45000000       0.45000000       0.45000000 </v>
  </varray>
  <varray name="weights" >
   <v>       0.00800000 </v>
   <v>       0.02400000 </v>
   <v>       0.02400000 </v>
   <v>       0.02400000 </v>
   <v>       0.01200000 </v>
   <v>       0.00600000 </v>
   <v>       0.02400000 </v>
   <v>       0.04800000 </v>
   <v>       0.04800000 </v>
   <v>       0.02400000 </v>
   <v>       0.02400000 </v>
   <v>       0.02400000 </v>
   <v>       0.02400000 </v>
   <v>       0.02400000 </v>
   <v>       0.02400000 </v>
   <v>       0.04800000 </v>
   <v>       0.02400000 </v>
   <v>       0.04800000 </v>
   <v>       0.02400000 </v>
   <v>       0.02400000 </v>
   <v>       0.04800000 </v>
   <v>       0.00800000 </v>
   <v>       0.00800000 </v>
   <v>       0.02400000 </v>
   <v>       0.01200000 </v>
   <v>       0.00600000 </v>
   <v>       0.02400000 </v>
   <v>       0.02400000 </v>
   <v>       0.02400000 </v>
   <v>       0.02400000 </v>
   <v>       0.02400000 </v>
   <v>       0.04800000 </v>
   <v>       0.02400000 </v>
   <v>       0.02400000 </v>
   <v>       0.00200000 </v>
   <v>       0.00600000 </v>
   <v>       0.02400000 </v>
   <v>       0.02400000 </v>
   <v>       0.02400000 </v>
   <v>       0.02400000 </v>
   <v>       0.00600000 </v>
   <v>       0.02400000 </v>
   <v>       0.00800000 </v>
   <v>       0.00600000 </v>
  </varray>
 </kpoints>
 <parameters>
  <separator name="general" >
   <i type="string" name="SYSTEM">bcc Fe</i>
   <i type="logical" name="LCOMPAT"> F  </i>
  </separator>
  <separator name="electronic" >
   <i type="string" name="PREC">normal</i>
   <i name="ENMAX">    268.00000000</i>
   <i name="ENAUG">    511.36800000</i>
   <i name="EDIFF">      0.00010000</i>
   <i type="int" name="IALGO">    38</i>
   <i type="int" name="IWAVPR">    10</i>
   <i type="int" name="NBANDS">    12</i>
   <i name="NELECT">      8.00000000</i>
   <i type="int" name="TURBO">     0</i>
   <i type="int" name="IRESTART">     0</i>
   <i type="int" name="NREBOOT">     0</i>
   <i type="int" name="NMIN">     0</i>
   <i name="EREF">      0.00000000</i>
   <separator name="electronic smearing" >
    <i type="int" name="ISMEAR">     1</i>
    <i name="SIGMA">      0.20000000</i>
    <i name="KSPACING">      0.50000000</i>
    <i type="logical" name="KGAMMA"> T  </i>
   </separator>
   <separator name="electronic projectors" >
    <i type="logical" name="LREAL"> F  </i>
    <v name="ROPT">      0.00000000</v>
    <i type="int" name="LMAXPAW">  -100</i>
    <i type="int" name="LMAXMIX">     2</i>
    <i type="logical" name="NLSPLINE"> F  </i>
   </separator>
   <separator name="electronic startup" >
    <i type="int" name="ISTART">     0</i>
    <i type="int" name="ICHARG">     2</i>
    <i type="int" name="INIWAV">     1</i>
   </separator>
   <separator name="electronic spin" >
    <i type="int" name="ISPIN">     2</i>
    <i type="logical" name="LNONCOLLINEAR"> F  </i>
    <v name="MAGMOM">      3.00000000</v>
    <i name="NUPDOWN">     -1.00000000</i>
    <i type="logical" name="LSORBIT"> F  </i>
    <v name="SAXIS">      0.00000000      0.00000000      1.00000000</v>
    <i type="logical" name="LSPIRAL"> F  </i>
    <v name="QSPIRAL">      0.00000000      0.00000000      0.00000000</v>
    <i type="logical" name="LZEROZ"> F  </i>
   </separator>
   <separator name="electronic exchange-correlation" >
    <i type="logical" name="LASPH"> F  </i>
    <i type="logical" name="LMETAGGA"> F  </i>
   </separator>
   <separator name="electronic convergence" >
    <i type="int" name="NELM">    60</i>
    <i type="int" name="NELMDL">    -5</i>
    <i type="int" name="NELMIN">     2</i>
    <i name="ENINI">    268.00000000</i>
    <separator name="electronic convergence detail" >
     <i type="logical" name="LDIAG"> T  </i>
     <i type="logical" name="LSUBROT"> F  </i>
     <i name="WEIMIN">      0.00000000</i>
     <i name="EBREAK">      0.00000208</i>
     <i name="DEPER">      0.30000000</i>
     <i type="int" name="NRMM">     4</i>
     <i name="TIME">      0.40000000</i>
    </separator>
   </separator>
   <separator name="electronic mixer" >
    <i name="AMIX">      0.40000000</i>
    <i name="BMIX">      1.00000000</i>
    <i name="AMIN">      0.10000000</i>
    <i name="AMIX_MAG">      1.60000000</i>
    <i name="BMIX_MAG">      1.00000000</i>
    <separator name="electronic mixer details" >
     <i type="int" name="IMIX">     4</i>
     <i type="logical" name="MIXFIRST"> F  </i>
     <i type="int" name="MAXMIX">   -45</i>
     <i name="WC">    100.00000000</i>
     <i type="int" name="INIMIX">     1</i>
     <i type="int" name="MIXPRE">     1</i>
     <i type="int" name="MREMOVE">     5</i>
    </separator>
   </separator>
   <separator name="electronic dipolcorrection" >
    <i type="logical" name="LDIPOL"> F  </i>
    <i type="logical" name="LMONO"> F  </i>
    <i type="int" name="IDIPOL">     0</i>
    <i name="EPSILON">      1.00000000</i>
    <v name="DIPOL">   -100.00000000   -100.00000000   -100.00000000</v>
    <i name="EFIELD">      0.00000000</i>
   </separator>
  </separator>
  <separator name="grids" >
   <i type="int" name="NGX">    10</i>
   <i type="int" name="NGY">    10</i>
   <i type="int" name="NGZ">    10</i>
   <i type="int" name="NGXF">    20</i>
   <i type="int" name="NGYF">    20</i>
   <i type="int" name="NGZF">    20</i>
   <i type="logical" name="ADDGRID"> F  </i>
  </separator>
  <separator name="ionic" >
   <i type="int" name="NSW">     0</i>
   <i type="int" name="IBRION">    -1</i>
   <i type="int" name="MDALGO">     0</i>
   <i type="int" name="ISIF">     2</i>
   <i name="PSTRESS">      0.00000000</i>
   <i name="EDIFFG">      0.00100000</i>
   <i type="int" name="NFREE">     0</i>
   <i name="POTIM">      0.50000000</i>
   <i name="SMASS">     -3.00000000</i>
   <i name="SCALEE">      1.00000000</i>
  </separator>
  <separator name="ionic md" >
   <i name="TEBEG">      0.00010000</i>
   <i name="TEEND">      0.00010000</i>
   <i type="int" name="NBLOCK">     1</i>
   <i type="int" name="KBLOCK">     1</i>
   <i type="int" name="NPACO">   256</i>
   <i name="APACO">     16.00000000</i>
  </separator>
  <separator name="symmetry" >
   <i type="int" name="ISYM">     2</i>
   <i name="SYMPREC">      0.00001000</i>
  </separator>
  <separator name="dos" >
   <i type="int" name="LORBIT">     0</i>
   <v name="RWIGS">      1.30200000</v>
   <i type="int" name="NEDOS">   301</i>
   <i name="EMIN">     10.00000000</i>
   <i name="EMAX">    -10.00000000</i>
   <i name="EFERMI">      0.00000000</i>
  </separator>
  <separator name="writing" >
   <i type="int" name="NWRITE">     2</i>
   <i type="logical" name="LWAVE"> T  </i>
   <i type="logical" name="LDOWNSAMPLE"> F  </i>
   <i type="logical" name="LCHARG"> T  </i>
   <i type="logical" name="LPARD"> F  </i>
   <i type="logical" name="LVTOT"> F  </i>
   <i type="logical" name="LVHAR"> F  </i>
   <i type="logical" name="LELF"> F  </i>
   <i type="logical" name="LOPTICS"> F  </i>
   <v name="STM">      0.00000000      0.00000000      0.00000000      0.00000000      0.00000000      0.00000000      0.00000000</v>
  </separator>
  <separator name="performance" >
   <i type="int" name="NPAR">     4</i>
   <i type="int" name="NSIM">     4</i>
   <i type="int" name="NBLK">    -1</i>
   <i type="logical" name="LPLANE"> T  </i>
   <i type="logical" name="LSCALAPACK"> T  </i>
   <i type="logical" name="LSCAAWARE"> F  </i>
   <i type="logical" name="LSCALU"> F  </i>
   <i type="logical" name="LASYNC"> F  </i>
   <i type="logical" name="LORBITALREAL"> F  </i>
  </separator>
  <separator name="miscellaneous" >
   <i type="int" name="IDIOT">     3</i>
   <i type="int" name="ISPECIAL">     0</i>
   <i type="logical" name="LMUSIC"> F  </i>
   <v name="POMASS">     55.84700000</v>
   <v name="DARWINR">      0.00000000</v>
   <v name="DARWINV">      1.00000000</v>
   <i type="logical" name="LCORR"> T  </i>
  </separator>
  <i type="logical" name="GGA_COMPAT"> T  </i>
  <i type="logical" name="LBERRY"> F  </i>
  <i type="int" name="ICORELEVEL">     0</i>
  <i type="logical" name="LDAU"> F  </i>
  <i type="int" name="I_CONSTRAINED_M">     0</i>
  <separator name="electronic exchange-correlation" >
   <i type="string" name="GGA">--</i>
   <i type="int" name="VOSKOWN">     0</i>
   <i type="logical" name="LHFCALC"> F  </i>
   <i type="string" name="PRECFOCK"></i>
   <i type="logical" name="LSYMGRAD"> F  </i>
   <i type="logical" name="LHFONE"> F  </i>
   <i type="logical" name="LRHFCALC"> F  </i>
   <i type="logical" name="LTHOMAS"> F  </i>
   <i type="logical" name="LMODELHF"> F  </i>
   <i name="ENCUT4O">     -1.00000000</i>
   <i type="int" name="EXXOEP">     0</i>
   <i type="int" name="FOURORBIT">     0</i>
   <i name="AEXX">      0.00000000</i>
   <i name="HFALPHA">      0.00000000</i>
   <i name="MCALPHA">      0.00000000</i>
   <i name="ALDAX">      1.00000000</i>
   <i name="AGGAX">      1.00000000</i>
   <i name="ALDAC">      1.00000000</i>
   <i name="AGGAC">      1.00000000</i>
   <i type="int" name="NKREDX">     1</i>
   <i type="int" name="NKREDY">     1</i>
   <i type="int" name="NKREDZ">     1</i>
   <i type="logical" name="SHIFTRED"> F  </i>
   <i type="logical" name="ODDONLY"> F  </i>
   <i type="logical" name="EVENONLY"> F  </i>
   <i type="int" name="LMAXFOCK">     0</i>
   <i type="int" name="NMAXFOCKAE">     0</i>
   <i type="logical" name="LFOCKAEDFT"> F  </i>
   <i name="HFSCREEN">      0.00000000</i>
   <i name="HFSCREENC">      0.00000000</i>
   <i type="int" name="NBANDSGWLOW">     0</i>
  </separator>
  <separator name="vdW DFT" >
   <i type="logical" name="LUSE_VDW"> F  </i>
   <i name="Zab_VDW">     -0.84910000</i>
   <i name="PARAM1">      0.12340000</i>
   <i name="PARAM2">      1.00000000</i>
   <i name="PARAM3">      0.00000000</i>
  </separator>
  <separator name="model GW" >
   <i type="int" name="MODEL_GW">     0</i>
   <i name="MODEL_EPS0">      8.10000000</i>
   <i name="MODEL_ALPHA">      1.00000000</i>
  </separator>
  <separator name="linear response parameters" >
   <i type="logical" name="LEPSILON"> F  </i>
   <i type="logical" name="LRPA"> F  </i>
   <i type="logical" name="LNABLA"> F  </i>
   <i type="logical" name="LVEL"> F  </i>
   <i type="int" name="KINTER">     0</i>
   <i name="CSHIFT">      0.10000000</i>
   <i name="OMEGAMAX">     -1.00000000</i>
   <i name="DEG_THRESHOLD">      0.00200000</i>
   <i name="RTIME">     -0.10000000</i>
   <i name="WPLASMAI">      0.00000000</i>
   <v name="DFIELD">      0.00000000      0.00000000      0.00000000</v>
   <v name="WPLASMA">      0.00000000      0.00000000      0.00000000      0.00000000      0.00000000      0.00000000      0.00000000      0.00000000      0.00000000</v>
  </separator>
  <separator name="orbital magnetization" >
   <i type="logical" name="NUCIND"> F  </i>
   <v name="MAGPOS">      0.00000000      0.00000000      0.00000000</v>
   <i type="logical" name="LNICSALL"> T  </i>
   <i type="logical" name="ORBITALMAG"> F  </i>
   <i type="logical" name="LMAGBLOCH"> F  </i>
   <i type="logical" name="LCHIMAG"> F  </i>
   <i type="logical" name="LGAUGE"> T  </i>
   <i type="int" name="MAGATOM">     0</i>
   <v name="MAGDIPOL">      0.00000000      0.00000000      0.00000000</v>
   <v name="AVECCONST">      0.00000000      0.00000000      0.00000000</v>
  </separator>
  <separator name="response functions" >
   <i type="logical" name="LADDER"> F  </i>
   <i type="logical" name="LRPAFORCE"> F  </i>
   <i type="logical" name="LFXC"> F  </i>
   <i type="logical" name="LHARTREE"> T  </i>
   <i type="int" name="IBSE">     0</i>
   <v type="int" name="KPOINT">    -1     0     0     0</v>
   <i type="logical" name="LTCTE"> F  </i>
   <i type="logical" name="LTETE"> F  </i>
   <i type="logical" name="LTRIPLET"> F  </i>
   <i type="logical" name="LFXCEPS"> F  </i>
   <i type="logical" name="LFXHEG"> F  </i>
   <i type="int" name="NATURALO">     2</i>
   <i type="logical" name="L2ORDER"> F  </i>
   <i type="logical" name="LMP2LT"> F  </i>
   <i type="logical" name="LUSEW"> F  </i>
   <i name="ENCUTGW">     -2.00000000</i>
   <i name="ENCUTGWSOFT">     -2.00000000</i>
   <i name="ENCUTLF">     -1.00000000</i>
   <i type="int" name="LMAXMP2">    -1</i>
   <i name="SCISSOR">      0.00000000</i>
   <i type="int" name="NOMEGA">     0</i>
   <i type="int" name="NOMEGAR">     0</i>
   <i type="int" name="NBANDSGW">    -1</i>
   <i type="int" name="NBANDSO">    -1</i>
   <i type="int" name="NBANDSV">    -1</i>
   <i type="int" name="NELM">     1</i>
   <i type="int" name="NELMHF">     1</i>
   <i type="int" name="DIM">     3</i>
   <i type="int" name="ANTIRES">     0</i>
   <i name="OMEGAMAX">    -30.00000000</i>
   <i name="OMEGAMIN">    -30.00000000</i>
   <i name="OMEGATL">   -200.00000000</i>
   <i type="int" name="OMEGAGRID">   140</i>
   <i name="CSHIFT">     -0.10000000</i>
   <i type="logical" name="SELFENERGY"> F  </i>
   <i type="logical" name="LSPECTRAL"> F  </i>
   <i type="logical" name="LSPECTRALGW"> F  </i>
   <i type="logical" name="LSINGLES"> F  </i>
   <i type="logical" name="LFERMIGW"> F  </i>
   <i type="logical" name="ODDONLYGW"> F  </i>
   <i type="logical" name="EVENONLYGW"> F  </i>
   <i type="int" name="NKREDLFX">     1</i>
   <i type="int" name="NKREDLFY">     1</i>
   <i type="int" name="NKREDLFZ">     1</i>
   <i type="int" name="MAXMEM">  2800</i>
   <i type="int" name="TELESCOPE">     0</i>
   <i type="int" name="TAUPAR">     1</i>
   <i type="int" name="OMEGAPAR">    -1</i>
   <i name="LAMBDA">      1.00000000</i>
  </separator>
  <separator name="External order field" >
   <i name="OFIELD_KAPPA">      0.00000000</i>
   <v name="OFIELD_K">      0.00000000      0.00000000      0.00000000</v>
   <i name="OFIELD_Q6_NEAR">      0.00000000</i>
   <i name="OFIELD_Q6_FAR">      0.00000000</i>
   <i name="OFIELD_A">      0.00000000</i>
  </separator>
 </parameters>
 <atominfo>
  <atoms>       1 </atoms>
  <types>       1 </types>
  <array name="atoms" >
   <dimension dim="1">ion</dimension>
   <field type="string">element</field>
   <field type="int">atomtype</field>
   <set>
    <rc><c>Fe</c><c>   1</c></rc>
   </set>
  </array>
  <array name="atomtypes" >
   <dimension dim="1">type</dimension>
   <field type="int">atomspertype</field>
   <field type="string">element</field>
   <field>mass</field>
   <field>valence</field>
   <field type="string">pseudopotential</field>
   <set>
    <rc><c>   1</c><c>Fe</c><c>     55.84700000</c><c>      8.00000000</c><c>  PAW_PBE Fe 06Sep2000                  </c></rc>
   </set>
  </array>
 </atominfo>
 <structure name="initialpos" >
  <crystal>
   <varray name="basis" >
    <v>      -1.50000000       1.50000000       1.50000000 </v>
    <v>       1.50000000      -1.50000000       1.50000000 </v>
    <v>       1.50000000       1.50000000      -1.50000000 </v>
   </varray>
   <i name="volume">     13.50000000 </i>
   <varray name="rec_basis" >
    <v>       0.00000000       0.33333333       0.33333333 </v>
    <v>       0.33333333       0.00000000       0.33333333 </v>
    <v>       0.33333333       0.33333333       0.00000000 </v>
   </varray>
  </crystal>
  <varray name="positions" >
   <v>       0.00000000       0.00000000       0.00000000 </v>
  </varray>
 </structure>
 <calculation>
  <scstep>
   <time name="dav">    0.17    0.18</time>
   <time name="total">    0.18    0.19</time>
   <energy>
    <i name="alphaZ">     51.19538963 </i>
    <i name="ewald">   -558.97799591 </i>
    <i name="hartreedc">   -124.96240203 </i>
    <i name="XCdc">      4.59181164 </i>
    <i name="pawpsdc">    553.75926685 </i>
    <i name="pawaedc">   -561.48528711 </i>
    <i name="eentropy">      0.00043094 </i>
    <i name="bandstr">     52.39716200 </i>
    <i name="atom">    594.28084496 </i>
    <i name="e_fr_energy">     10.79922098 </i>
    <i name="e_wo_entrp">     10.79879003 </i>
    <i name="e_0_energy">     10.79907733 </i>
   </energy>
  </scstep>
  <scstep>
   <time name="dav">    0.16    0.16</time>
   <time name="total">    0.16    0.16</time>
   <energy>
    <i name="e_fr_energy">     -8.67170211 </i>
    <i name="e_wo_entrp">     -8.67340303 </i>
    <i name="e_0_energy">     -8.67226908 </i>
   </energy>
  </scstep>
  <scstep>
   <time name="dav">    0.17    0.17</time>
   <time name="total">    0.17    0.17</time>
   <energy>
    <i name="e_fr_energy">     -9.01025095 </i>
    <i name="e_wo_entrp">     -9.01152421 </i>
    <i name="e_0_energy">     -9.01067537 </i>
   </energy>
  </scstep>
  <scstep>
   <time name="dav">    0.16    0.17</time>
   <time name="total">    0.16    0.17</time>
   <energy>
    <i name="e_fr_energy">     -9.01125761 </i>
    <i name="e_wo_entrp">     -9.01253198 </i>
    <i name="e_0_energy">     -9.01168240 </i>
   </energy>
  </scstep>
  <scstep>
   <time name="dav">    0.15    0.15</time>
   <time name="total">    0.15    0.16</time>
   <energy>
    <i name="e_fr_energy">     -9.01126301 </i>
    <i name="e_wo_entrp">     -9.01253739 </i>
    <i name="e_0_energy">     -9.01168781 </i>
   </energy>
  </scstep>
  <scstep>
   <time name="dav">    0.16    0.17</time>
   <time name="total">    0.18    0.18</time>
   <energy>
    <i name="e_fr_energy">     -8.26366075 </i>
    <i name="e_wo_entrp">     -8.26881204 </i>
    <i name="e_0_energy">     -8.26537784 </i>
   </energy>
  </scstep>
  <scstep>
   <time name="dav">    0.17    0.18</time>
   <time name="total">    0.19    0.19</time>
   <energy>
    <i name="e_fr_energy">     -8.09471985 </i>
    <i name="e_wo_entrp">     -8.09529771 </i>
    <i name="e_0_energy">     -8.09491247 </i>
   </energy>
  </scstep>
  <scstep>
   <time name="dav">    0.16    0.16</time>
   <time name="total">    0.17    0.18</time>
   <energy>
    <i name="e_fr_energy">     -8.09612686 </i>
    <i name="e_wo_entrp">     -8.09618674 </i>
    <i name="e_0_energy">     -8.09614682 </i>
   </energy>
  </scstep>
  <scstep>
   <time name="dav">    0.17    0.17</time>
   <time name="total">    0.18    0.18</time>
   <energy>
    <i name="e_fr_energy">     -8.08949259 </i>
    <i name="e_wo_entrp">     -8.08904213 </i>
    <i name="e_0_energy">     -8.08934244 </i>
   </energy>
  </scstep>
  <scstep>
   <time name="dav">    0.15    0.16</time>
   <time name="total">    0.17    0.17</time>
   <energy>
    <i name="e_fr_energy">     -8.09001220 </i>
    <i name="e_wo_entrp">     -8.09033136 </i>
    <i name="e_0_energy">     -8.09011859 </i>
   </energy>
  </scstep>
  <scstep>
   <time name="dav">    0.17    0.17</time>
   <time name="total">    0.18    0.19</time>
   <energy>
    <i name="e_fr_energy">     -8.09041754 </i>
    <i name="e_wo_entrp">     -8.09053278 </i>
    <i name="e_0_energy">     -8.09045595 </i>
   </energy>
  </scstep>
  <scstep>
   <time name="dav">    0.12    0.12</time>
   <time name="total">    0.13    0.13</time>
   <energy>
    <i name="alphaZ">     51.19538963 </i>
    <i name="ewald">   -558.97799591 </i>
    <i name="hartreedc">   -108.88703242 </i>
    <i name="XCdc">      4.29812346 </i>
    <i name="pawpsdc">    658.10653541 </i>
    <i name="pawaedc">   -666.81121254 </i>
    <i name="eentropy">      0.00007988 </i>
    <i name="bandstr">     18.70484731 </i>
    <i name="atom">    594.28084496 </i>
    <i name="e_fr_energy">     -8.09042021 </i>
    <i name="e_wo_entrp">     -8.09050010 </i>
    <i name="e_0_energy">     -8.09044684 </i>
   </energy>
  </scstep>
  <structure>
   <crystal>
    <varray name="basis" >
     <v>      -1.50000000       1.50000000       1.50000000 </v>
     <v>       1.50000000      -1.50000000       1.50000000 </v>
     <v>       1.50000000       1.50000000      -1.50000000 </v>
    </varray>
    <i name="volume">     13.50000000 </i>
    <varray name="rec_basis" >
     <v>       0.00000000       0.33333333       0.33333333 </v>
     <v>       0.33333333       0.00000000       0.33333333 </v>
     <v>       0.33333333       0.33333333       0.00000000 </v>
    </varray>
   </crystal>
   <varray name="positions" >
    <v>       0.00000000       0.00000000       0.00000000 </v>
   </varray>
  </structure>
  <varray name="forces" >
   <v>      -0.00000000       0.00000000       0.00000000 </v>
  </varray>
  <varray name="stress" >
   <v>    -223.71068913       0.00000000      -0.00000000 </v>
   <v>       0.00000000    -223.71068913      -0.00000000 </v>
   <v>       0.00000000      -0.00000000    -223.71068913 </v>
  </varray>
  <energy>
   <i name="e_fr_energy">     -8.09042021 </i>
   <i name="e_wo_entrp">     -8.09044684 </i>
   <i name="e_0_energy">      0.00007988 </i>
  </energy>
  <time name="totalsc">    2.16    2.21</time>
  <eigenvalues>
   <array>
    <dimension dim="1">band</dimension>
    <dimension dim="2">kpoint</dimension>
    <dimension dim="3">spin</dimension>
    <field>eigene</field>
    <field>occ</field>
    <set>
     <set comment="spin 1">
      <set comment="kpoint 1">
       <r>   -2.7081    1.0000 </r>
       <r>    1.9822    1.0000 </r>
       <r>    1.9822    1.0000 </r>
       <r>    2.3740    1.0000 </r>
       <r>    3.0325    1.0000 </r>
       <r>    3.0325    1.0000 </r>
       <r>   24.7910    0.0000 </r>
       <r>   24.7910    0.0000 </r>
       <r>   27.5115    0.0000 </r>
       <r>   28.0708    0.0000 </r>
       <r>   31.4738    0.0000 </r>
       <r>   31.4738    0.0000 </r>
      </set>
      <set comment="kpoint 2">
       <r>   -1.7130    1.0000 </r>
       <r>    1.7598    1.0000 </r>
       <r>    1.8832    1.0000 </r>
       <r>    2.8977    1.0000 </r>
       <r>    2.9505    1.0000 </r>
       <r>    3.0880    1.0000 </r>
       <r>   20.5647    0.0000 </r>
       <r>   22.8917    0.0000 </r>
       <r>   24.5742    0.0000 </r>
       <r>   28.1022    0.0000 </r>
       <r>   30.9789    0.0000 </r>
       <r>   31.7433    0.0000 </r>
      </set>
      <set comment="kpoint 3">
       <r>   -0.4495    1.0000 </r>
       <r>    1.5091    1.0000 </r>
       <r>    1.9701    1.0000 </r>
       <r>    2.9910    1.0000 </r>
       <r>    3.1444    1.0000 </r>
       <r>    3.6343    1.0000 </r>
       <r>   16.1274    0.0000 </r>
       <r>   21.3023    0.0000 </r>
       <r>   22.4978    0.0000 </r>
       <r>   27.4271    0.0000 </r>
       <r>   30.1756    0.0000 </r>
       <r>   33.5872    0.0000 </r>
      </set>
      <set comment="kpoint 4">
       <r>    0.1305    1.0000 </r>
       <r>    1.3216    1.0000 </r>
       <r>    2.8541    1.0000 </r>
       <r>    3.1072    1.0000 </r>
       <r>    3.1892    1.0000 </r>
       <r>    4.6360   -0.0189 </r>
       <r>   12.2172    0.0000 </r>
       <r>   20.2532    0.0000 </r>
       <r>   21.0943    0.0000 </r>
       <r>   26.9298    0.0000 </r>
       <r>   29.8312    0.0000 </r>
       <r>   35.9405    0.0000 </r>
      </set>
      <set comment="kpoint 5">
       <r>    0.1760    1.0000 </r>
       <r>    1.2544    1.0000 </r>
       <r>    3.1052    1.0000 </r>
       <r>    3.2086    1.0000 </r>
       <r>    3.4661    1.0000 </r>
       <r>    5.6617   -0.0000 </r>
       <r>   10.1313    0.0000 </r>
       <r>   19.8892    0.0000 </r>
       <r>   20.5841    0.0000 </r>
       <r>   26.7736    0.0000 </r>
       <r>   29.7603    0.0000 </r>
       <r>   35.9935    0.0000 </r>
      </set>
      <set comment="kpoint 6">
       <r>   -3.0631    1.0000 </r>
       <r>    2.0754    1.0000 </r>
       <r>    2.0755    1.0000 </r>
       <r>    2.1185    1.0000 </r>
       <r>    3.0041    1.0000 </r>
       <r>    3.0995    1.0000 </r>
       <r>   26.3294    0.0000 </r>
       <r>   27.2035    0.0000 </r>
       <r>   27.2035    0.0000 </r>
       <r>   29.6579    0.0000 </r>
       <r>   30.8505    0.0000 </r>
       <r>   30.8506    0.0000 </r>
      </set>
      <set comment="kpoint 7">
       <r>   -0.5727    1.0000 </r>
       <r>    1.6039    1.0000 </r>
       <r>    1.6154    1.0000 </r>
       <r>    2.9621    1.0000 </r>
       <r>    3.1487    1.0000 </r>
       <r>    3.6820    1.0001 </r>
       <r>   18.4711    0.0000 </r>
       <r>   19.0655    0.0000 </r>
       <r>   21.9299    0.0000 </r>
       <r>   29.2691    0.0000 </r>
       <r>   32.1765    0.0000 </r>
       <r>   33.4659    0.0000 </r>
      </set>
      <set comment="kpoint 8">
       <r>    0.3943    1.0000 </r>
       <r>    1.3807    1.0000 </r>
       <r>    1.8206    1.0000 </r>
       <r>    3.0330    1.0000 </r>
       <r>    3.2249    1.0000 </r>
       <r>    4.8530   -0.0003 </r>
       <r>   14.4869    0.0000 </r>
       <r>   17.4298    0.0000 </r>
       <r>   20.4529    0.0000 </r>
       <r>   29.2649    0.0000 </r>
       <r>   32.9806    0.0000 </r>
       <r>   34.0569    0.0000 </r>
      </set>
      <set comment="kpoint 9">
       <r>    0.5278    1.0000 </r>
       <r>    1.2727    1.0000 </r>
       <r>    2.4302    1.0000 </r>
       <r>    3.1164    1.0000 </r>
       <r>    3.3028    1.0000 </r>
       <r>    6.5527   -0.0000 </r>
       <r>   11.0365    0.0000 </r>
       <r>   16.6797    0.0000 </r>
       <r>   19.6902    0.0000 </r>
       <r>   29.0419    0.0000 </r>
       <r>   33.3738    0.0000 </r>
       <r>   34.7330    0.0000 </r>
      </set>
      <set comment="kpoint 10">
       <r>   -2.3636    1.0000 </r>
       <r>    1.9386    1.0000 </r>
       <r>    2.0594    1.0000 </r>
       <r>    2.4349    1.0000 </r>
       <r>    2.8596    1.0000 </r>
       <r>    3.1479    1.0000 </r>
       <r>   22.8206    0.0000 </r>
       <r>   25.4459    0.0000 </r>
       <r>   25.8671    0.0000 </r>
       <r>   28.9054    0.0000 </r>
       <r>   28.9351    0.0000 </r>
       <r>   29.9445    0.0000 </r>
      </set>
      <set comment="kpoint 11">
       <r>    0.8737    1.0000 </r>
       <r>    1.3375    1.0000 </r>
       <r>    1.8065    1.0000 </r>
       <r>    3.1103    1.0000 </r>
       <r>    3.2861    1.0000 </r>
       <r>    6.7939   -0.0000 </r>
       <r>   13.1225    0.0000 </r>
       <r>   13.7396    0.0000 </r>
       <r>   19.5086    0.0000 </r>
       <r>   30.5315    0.0000 </r>
       <r>   32.9150    0.0000 </r>
       <r>   38.1374    0.0000 </r>
      </set>
      <set comment="kpoint 12">
       <r>    0.9187    1.0000 </r>
       <r>    1.3674    1.0000 </r>
       <r>    1.8702    1.0000 </r>
       <r>    3.1793    1.0000 </r>
       <r>    3.2911    1.0000 </r>
       <r>    8.8164   -0.0000 </r>
       <r>   10.6138    0.0000 </r>
       <r>   13.1470    0.0000 </r>
       <r>   19.1994    0.0000 </r>
       <r>   30.9633    0.0000 </r>
       <r>   33.1113    0.0000 </r>
       <r>   37.5789    0.0000 </r>
      </set>
      <set comment="kpoint 13">
       <r>   -1.1463    1.0000 </r>
       <r>    1.7022    1.0000 </r>
       <r>    2.0096    1.0000 </r>
       <r>    2.8490    1.0000 </r>
       <r>    3.0079    1.0000 </r>
       <r>    3.2022    1.0000 </r>
       <r>   18.2755    0.0000 </r>
       <r>   23.4463    0.0000 </r>
       <r>   24.0951    0.0000 </r>
       <r>   27.2803    0.0000 </r>
       <r>   28.6652    0.0000 </r>
       <r>   30.8732    0.0000 </r>
      </set>
      <set comment="kpoint 14">
       <r>   -1.4057    1.0000 </r>
       <r>    1.8910    1.0000 </r>
       <r>    1.9054    1.0000 </r>
       <r>    2.7103    1.0000 </r>
       <r>    2.8713    1.0000 </r>
       <r>    3.2556    1.0000 </r>
       <r>   20.5357    0.0000 </r>
       <r>   21.3442    0.0000 </r>
       <r>   26.0989    0.0000 </r>
       <r>   26.2709    0.0000 </r>
       <r>   28.9657    0.0000 </r>
       <r>   31.9455    0.0000 </r>
      </set>
      <set comment="kpoint 15">
       <r>   -0.1182    1.0000 </r>
       <r>    1.4724    1.0000 </r>
       <r>    2.4177    1.0000 </r>
       <r>    3.0322    1.0000 </r>
       <r>    3.4211    1.0000 </r>
       <r>    3.6434    1.0000 </r>
       <r>   14.0156    0.0000 </r>
       <r>   21.9266    0.0000 </r>
       <r>   22.4016    0.0000 </r>
       <r>   26.4164    0.0000 </r>
       <r>   28.5320    0.0000 </r>
       <r>   32.5990    0.0000 </r>
      </set>
      <set comment="kpoint 16">
       <r>   -0.2101    1.0000 </r>
       <r>    1.6323    1.0000 </r>
       <r>    1.8862    1.0000 </r>
       <r>    2.7995    1.0000 </r>
       <r>    3.2972    1.0000 </r>
       <r>    3.7420    1.0003 </r>
       <r>   16.3897    0.0000 </r>
       <r>   19.3251    0.0000 </r>
       <r>   24.0822    0.0000 </r>
       <r>   26.4402    0.0000 </r>
       <r>   29.4467    0.0000 </r>
       <r>   32.4094    0.0000 </r>
      </set>
      <set comment="kpoint 17">
       <r>    0.1073    1.0000 </r>
       <r>    1.3325    1.0000 </r>
       <r>    2.8862    1.0000 </r>
       <r>    3.0740    1.0000 </r>
       <r>    4.0672    1.0345 </r>
       <r>    4.7366   -0.0040 </r>
       <r>   10.7205    0.0000 </r>
       <r>   21.1137    0.0000 </r>
       <r>   21.3723    0.0000 </r>
       <r>   26.0373    0.0000 </r>
       <r>   28.5602    0.0000 </r>
       <r>   34.0441    0.0000 </r>
      </set>
      <set comment="kpoint 18">
       <r>    0.3308    1.0000 </r>
       <r>    1.4741    1.0000 </r>
       <r>    2.1991    1.0000 </r>
       <r>    2.9764    1.0000 </r>
       <r>    3.5980    1.0000 </r>
       <r>    5.0383   -0.0000 </r>
       <r>   12.4360    0.0000 </r>
       <r>   18.1958    0.0000 </r>
       <r>   22.6904    0.0000 </r>
       <r>   26.4940    0.0000 </r>
       <r>   30.5945    0.0000 </r>
       <r>   32.2116    0.0000 </r>
      </set>
      <set comment="kpoint 19">
       <r>    0.6047    1.0000 </r>
       <r>    1.3906    1.0000 </r>
       <r>    1.8848    1.0000 </r>
       <r>    2.8939    1.0000 </r>
       <r>    3.4151    1.0000 </r>
       <r>    5.1967   -0.0000 </r>
       <r>   14.7967    0.0000 </r>
       <r>   15.2562    0.0000 </r>
       <r>   23.6014    0.0000 </r>
       <r>   26.4560    0.0000 </r>
       <r>   29.3963    0.0000 </r>
       <r>   36.3879    0.0000 </r>
      </set>
      <set comment="kpoint 20">
       <r>    0.3619    1.0000 </r>
       <r>    1.4227    1.0000 </r>
       <r>    2.3927    1.0000 </r>
       <r>    2.9976    1.0000 </r>
       <r>    3.8369    1.0027 </r>
       <r>    6.3700   -0.0000 </r>
       <r>   10.2131    0.0000 </r>
       <r>   17.7893    0.0000 </r>
       <r>   22.2073    0.0000 </r>
       <r>   26.4895    0.0000 </r>
       <r>   31.5070    0.0000 </r>
       <r>   31.9923    0.0000 </r>
      </set>
      <set comment="kpoint 21">
       <r>    0.8180    1.0000 </r>
       <r>    1.4059    1.0000 </r>
       <r>    1.8426    1.0000 </r>
       <r>    3.0612    1.0000 </r>
       <r>    3.5350    1.0000 </r>
       <r>    7.3602   -0.0000 </r>
       <r>   11.3774    0.0000 </r>
       <r>   14.2960    0.0000 </r>
       <r>   23.0126    0.0000 </r>
       <r>   26.9708    0.0000 </r>
       <r>   29.8445    0.0000 </r>
       <r>   35.0174    0.0000 </r>
      </set>
      <set comment="kpoint 22">
       <r>    1.1665    1.0000 </r>
       <r>    1.4415    1.0000 </r>
       <r>    1.4415    1.0000 </r>
       <r>    3.3241    1.0000 </r>
       <r>    3.3242    1.0000 </r>
       <r>   10.0613    0.0000 </r>
       <r>   10.0614    0.0000 </r>
       <r>   12.0009    0.0000 </r>
       <r>   23.0512    0.0000 </r>
       <r>   28.4023    0.0000 </r>
       <r>   28.4023    0.0000 </r>
       <r>   34.2249    0.0000 </r>
      </set>
      <set comment="kpoint 23">
       <r>    0.5384    1.0000 </r>
       <r>    1.3786    1.0000 </r>
       <r>    1.3786    1.0000 </r>
       <r>    3.1231    1.0000 </r>
       <r>    3.1231    1.0000 </r>
       <r>    4.8508   -0.0003 </r>
       <r>   16.9220    0.0000 </r>
       <r>   16.9220    0.0000 </r>
       <r>   17.7719    0.0000 </r>
       <r>   32.0609    0.0000 </r>
       <r>   35.0346    0.0000 </r>
       <r>   35.0346    0.0000 </r>
      </set>
      <set comment="kpoint 24">
       <r>    0.9560    1.0000 </r>
       <r>    1.2513    1.0000 </r>
       <r>    1.7442    1.0000 </r>
       <r>    3.1611    1.0000 </r>
       <r>    3.1991    1.0000 </r>
       <r>    6.5999   -0.0000 </r>
       <r>   13.1523    0.0000 </r>
       <r>   15.9609    0.0000 </r>
       <r>   16.3954    0.0000 </r>
       <r>   32.8056    0.0000 </r>
       <r>   35.7391    0.0000 </r>
       <r>   37.2348    0.0000 </r>
      </set>
      <set comment="kpoint 25">
       <r>    0.8945    1.0000 </r>
       <r>    1.2134    1.0000 </r>
       <r>    2.1084    1.0000 </r>
       <r>    3.1907    1.0000 </r>
       <r>    3.2201    1.0000 </r>
       <r>    8.3658   -0.0000 </r>
       <r>   10.5965    0.0000 </r>
       <r>   15.6392    0.0000 </r>
       <r>   15.9936    0.0000 </r>
       <r>   32.7496    0.0000 </r>
       <r>   36.0698    0.0000 </r>
       <r>   37.4547    0.0000 </r>
      </set>
      <set comment="kpoint 26">
       <r>   -1.7037    1.0000 </r>
       <r>    2.1329    1.0000 </r>
       <r>    2.1330    1.0000 </r>
       <r>    2.4471    1.0000 </r>
       <r>    2.5044    1.0000 </r>
       <r>    3.3028    1.0000 </r>
       <r>   22.7232    0.0000 </r>
       <r>   23.5147    0.0000 </r>
       <r>   23.5148    0.0000 </r>
       <r>   25.0475    0.0000 </r>
       <r>   31.4197    0.0000 </r>
       <r>   31.4198    0.0000 </r>
      </set>
      <set comment="kpoint 27">
       <r>    1.1211    1.0000 </r>
       <r>    1.3721    1.0000 </r>
       <r>    1.6673    1.0000 </r>
       <r>    3.2067    1.0000 </r>
       <r>    3.2270    1.0000 </r>
       <r>    9.0045   -0.0000 </r>
       <r>   12.0749    0.0000 </r>
       <r>   12.8371    0.0000 </r>
       <r>   15.5454    0.0000 </r>
       <r>   35.1263    0.0000 </r>
       <r>   36.6370    0.0000 </r>
       <r>   39.6046    0.0000 </r>
      </set>
      <set comment="kpoint 28">
       <r>   -0.5906    1.0000 </r>
       <r>    1.9421    1.0000 </r>
       <r>    2.0214    1.0000 </r>
       <r>    2.5025    1.0000 </r>
       <r>    2.9412    1.0000 </r>
       <r>    3.5291    1.0000 </r>
       <r>   18.8147    0.0000 </r>
       <r>   21.4456    0.0000 </r>
       <r>   22.1205    0.0000 </r>
       <r>   25.1007    0.0000 </r>
       <r>   30.8014    0.0000 </r>
       <r>   32.0047    0.0000 </r>
      </set>
      <set comment="kpoint 29">
       <r>    0.3009    1.0000 </r>
       <r>    1.7576    1.0000 </r>
       <r>    1.8334    1.0000 </r>
       <r>    2.7961    1.0000 </r>
       <r>    3.5869    1.0000 </r>
       <r>    4.3236    0.3906 </r>
       <r>   14.5184    0.0000 </r>
       <r>   19.8078    0.0000 </r>
       <r>   21.0091    0.0000 </r>
       <r>   26.6462    0.0000 </r>
       <r>   29.7948    0.0000 </r>
       <r>   31.7828    0.0000 </r>
      </set>
      <set comment="kpoint 30">
       <r>    0.3270    1.0000 </r>
       <r>    1.5456    1.0000 </r>
       <r>    2.1317    1.0000 </r>
       <r>    2.6045    1.0000 </r>
       <r>    3.3391    1.0000 </r>
       <r>    4.2843    0.5558 </r>
       <r>   16.9915    0.0000 </r>
       <r>   17.3701    0.0000 </r>
       <r>   22.8942    0.0000 </r>
       <r>   23.8828    0.0000 </r>
       <r>   30.3382    0.0000 </r>
       <r>   35.1760    0.0000 </r>
      </set>
      <set comment="kpoint 31">
       <r>    0.4551    1.0000 </r>
       <r>    1.7157    1.0000 </r>
       <r>    1.9182    1.0000 </r>
       <r>    2.8479    1.0000 </r>
       <r>    4.0304    1.0338 </r>
       <r>    6.1533   -0.0000 </r>
       <r>   11.0229    0.0000 </r>
       <r>   18.8642    0.0000 </r>
       <r>   20.4069    0.0000 </r>
       <r>   28.6737    0.0000 </r>
       <r>   29.2756    0.0000 </r>
       <r>   30.8219    0.0000 </r>
      </set>
      <set comment="kpoint 32">
       <r>    0.7469    1.0000 </r>
       <r>    1.3664    1.0000 </r>
       <r>    1.9852    1.0000 </r>
       <r>    2.8638    1.0000 </r>
       <r>    3.7065    1.0001 </r>
       <r>    6.0985   -0.0000 </r>
       <r>   13.1173    0.0000 </r>
       <r>   16.0420    0.0000 </r>
       <r>   22.3004    0.0000 </r>
       <r>   25.4019    0.0000 </r>
       <r>   29.4223    0.0000 </r>
       <r>   33.2532    0.0000 </r>
      </set>
      <set comment="kpoint 33">
       <r>    0.7286    1.0000 </r>
       <r>    1.5003    1.0000 </r>
       <r>    1.8383    1.0000 </r>
       <r>    2.9357    1.0000 </r>
       <r>    3.9090    1.0096 </r>
       <r>    7.9843   -0.0000 </r>
       <r>   10.5231    0.0000 </r>
       <r>   15.6156    0.0000 </r>
       <r>   21.9691    0.0000 </r>
       <r>   27.2986    0.0000 </r>
       <r>   28.1070    0.0000 </r>
       <r>   31.8994    0.0000 </r>
      </set>
      <set comment="kpoint 34">
       <r>    1.0898    1.0000 </r>
       <r>    1.1136    1.0000 </r>
       <r>    1.7781    1.0000 </r>
       <r>    3.2431    1.0000 </r>
       <r>    3.6409    1.0000 </r>
       <r>    8.6732   -0.0000 </r>
       <r>   11.8814    0.0000 </r>
       <r>   12.7677    0.0000 </r>
       <r>   24.2879    0.0000 </r>
       <r>   24.9456    0.0000 </r>
       <r>   27.4758    0.0000 </r>
       <r>   31.7372    0.0000 </r>
      </set>
      <set comment="kpoint 35">
       <r>    1.4020    1.0000 </r>
       <r>    1.4020    1.0000 </r>
       <r>    1.4022    1.0000 </r>
       <r>    3.2280    1.0000 </r>
       <r>    3.2280    1.0000 </r>
       <r>   11.7162    0.0000 </r>
       <r>   11.7162    0.0000 </r>
       <r>   11.7163    0.0000 </r>
       <r>   13.0635    0.0000 </r>
       <r>   40.0273    0.0000 </r>
       <r>   40.0274    0.0000 </r>
       <r>   40.0315    0.0000 </r>
      </set>
      <set comment="kpoint 36">
       <r>    0.2046    1.0000 </r>
       <r>    1.6660    1.0000 </r>
       <r>    2.4404    1.0000 </r>
       <r>    2.4406    1.0000 </r>
       <r>    2.9880    1.0000 </r>
       <r>    4.1063    1.0199 </r>
       <r>   19.1934    0.0000 </r>
       <r>   19.1935    0.0000 </r>
       <r>   20.2771    0.0000 </r>
       <r>   21.8125    0.0000 </r>
       <r>   34.7535    0.0000 </r>
       <r>   34.7536    0.0000 </r>
      </set>
      <set comment="kpoint 37">
       <r>    0.6887    1.0000 </r>
       <r>    1.2346    1.0000 </r>
       <r>    2.4674    1.0000 </r>
       <r>    2.7325    1.0000 </r>
       <r>    3.5046    1.0000 </r>
       <r>    5.4711   -0.0000 </r>
       <r>   15.4323    0.0000 </r>
       <r>   17.4392    0.0000 </r>
       <r>   20.0246    0.0000 </r>
       <r>   22.4036    0.0000 </r>
       <r>   32.1687    0.0000 </r>
       <r>   33.7354    0.0000 </r>
      </set>
      <set comment="kpoint 38">
       <r>    0.7143    1.0000 </r>
       <r>    1.1118    1.0000 </r>
       <r>    2.4037    1.0000 </r>
       <r>    2.8615    1.0000 </r>
       <r>    3.9649    1.0202 </r>
       <r>    7.8080   -0.0000 </r>
       <r>   11.7403    0.0000 </r>
       <r>   16.4399    0.0000 </r>
       <r>   19.6718    0.0000 </r>
       <r>   24.4500    0.0000 </r>
       <r>   28.7929    0.0000 </r>
       <r>   33.1409    0.0000 </r>
      </set>
      <set comment="kpoint 39">
       <r>    0.7885    1.0000 </r>
       <r>    0.8852    1.0000 </r>
       <r>    2.5285    1.0000 </r>
       <r>    3.1402    1.0000 </r>
       <r>    3.7512    1.0004 </r>
       <r>    7.5912   -0.0000 </r>
       <r>   14.0374    0.0000 </r>
       <r>   14.3586    0.0000 </r>
       <r>   20.8593    0.0000 </r>
       <r>   22.0292    0.0000 </r>
       <r>   28.3925    0.0000 </r>
       <r>   33.8341    0.0000 </r>
      </set>
      <set comment="kpoint 40">
       <r>    0.7185    1.0000 </r>
       <r>    0.8337    1.0000 </r>
       <r>    2.4858    1.0000 </r>
       <r>    3.3485    1.0000 </r>
       <r>    3.8720    1.0052 </r>
       <r>    9.9829    0.0000 </r>
       <r>   11.2219    0.0000 </r>
       <r>   13.7602    0.0000 </r>
       <r>   21.0003    0.0000 </r>
       <r>   23.2254    0.0000 </r>
       <r>   26.1034    0.0000 </r>
       <r>   33.6361    0.0000 </r>
      </set>
      <set comment="kpoint 41">
       <r>    0.6520    1.0000 </r>
       <r>    0.8204    1.0000 </r>
       <r>    3.0922    1.0000 </r>
       <r>    3.0924    1.0000 </r>
       <r>    3.5350    1.0000 </r>
       <r>    7.1818   -0.0000 </r>
       <r>   15.5702    0.0000 </r>
       <r>   15.5702    0.0000 </r>
       <r>   18.9164    0.0000 </r>
       <r>   20.2486    0.0000 </r>
       <r>   28.1687    0.0000 </r>
       <r>   37.1179    0.0000 </r>
      </set>
      <set comment="kpoint 42">
       <r>    0.5298    1.0000 </r>
       <r>    0.5719    1.0000 </r>
       <r>    3.2171    1.0000 </r>
       <r>    3.3689    1.0000 </r>
       <r>    3.9019    1.0086 </r>
       <r>    9.6443   -0.0000 </r>
       <r>   12.8528    0.0000 </r>
       <r>   14.4839    0.0000 </r>
       <r>   19.0321    0.0000 </r>
       <r>   20.9003    0.0000 </r>
       <r>   24.8631    0.0000 </r>
       <r>   37.1407    0.0000 </r>
      </set>
      <set comment="kpoint 43">
       <r>    0.4349    1.0000 </r>
       <r>    0.4349    1.0000 </r>
       <r>    3.2974    1.0000 </r>
       <r>    3.8250    1.0021 </r>
       <r>    3.8252    1.0021 </r>
       <r>   12.0818    0.0000 </r>
       <r>   12.0818    0.0000 </r>
       <r>   12.6837    0.0000 </r>
       <r>   19.9527    0.0000 </r>
       <r>   19.9527    0.0000 </r>
       <r>   23.0775    0.0000 </r>
       <r>   37.6567    0.0000 </r>
      </set>
      <set comment="kpoint 44">
       <r>    0.3029    1.0000 </r>
       <r>    0.3030    1.0000 </r>
       <r>    3.8060    1.0014 </r>
       <r>    3.8062    1.0014 </r>
       <r>    3.8847    1.0065 </r>
       <r>   11.7230    0.0000 </r>
       <r>   13.3209    0.0000 </r>
       <r>   13.3209    0.0000 </r>
       <r>   18.3446    0.0000 </r>
       <r>   19.1120    0.0000 </r>
       <r>   22.0795    0.0000 </r>
       <r>   39.7334    0.0000 </r>
      </set>
     </set>
     <set comment="spin 2">
      <set comment="kpoint 1">
       <r>   -2.5736    1.0000 </r>
       <r>    4.3311    0.3602 </r>
       <r>    4.3311    0.3602 </r>
       <r>    4.7947   -0.0012 </r>
       <r>    6.0009   -0.0000 </r>
       <r>    6.0009   -0.0000 </r>
       <r>   24.8645    0.0000 </r>
       <r>   24.8645    0.0000 </r>
       <r>   27.6987    0.0000 </r>
       <r>   28.4633    0.0000 </r>
       <r>   31.9071    0.0000 </r>
       <r>   31.9071    0.0000 </r>
      </set>
      <set comment="kpoint 2">
       <r>   -1.5490    1.0000 </r>
       <r>    4.0405    1.0349 </r>
       <r>    4.1496    0.9730 </r>
       <r>    5.3690   -0.0000 </r>
       <r>    5.8585   -0.0000 </r>
       <r>    6.0760   -0.0000 </r>
       <r>   21.0417    0.0000 </r>
       <r>   23.1200    0.0000 </r>
       <r>   25.4096    0.0000 </r>
       <r>   27.9342    0.0000 </r>
       <r>   31.6142    0.0000 </r>
       <r>   32.0183    0.0000 </r>
      </set>
      <set comment="kpoint 3">
       <r>   -0.0608    1.0000 </r>
       <r>    3.7148    1.0002 </r>
       <r>    3.9237    1.0119 </r>
       <r>    5.8610   -0.0000 </r>
       <r>    6.1359   -0.0000 </r>
       <r>    6.1614   -0.0000 </r>
       <r>   16.9177    0.0000 </r>
       <r>   21.5501    0.0000 </r>
       <r>   23.2526    0.0000 </r>
       <r>   27.5423    0.0000 </r>
       <r>   30.7565    0.0000 </r>
       <r>   33.8082    0.0000 </r>
      </set>
      <set comment="kpoint 4">
       <r>    1.2768    1.0000 </r>
       <r>    3.4720    1.0000 </r>
       <r>    4.0954    1.0262 </r>
       <r>    5.9454   -0.0000 </r>
       <r>    6.2346   -0.0000 </r>
       <r>    6.9060   -0.0000 </r>
       <r>   13.3679    0.0000 </r>
       <r>   20.4703    0.0000 </r>
       <r>   21.7786    0.0000 </r>
       <r>   27.1967    0.0000 </r>
       <r>   30.4256    0.0000 </r>
       <r>   35.9976    0.0000 </r>
      </set>
      <set comment="kpoint 5">
       <r>    1.6940    1.0000 </r>
       <r>    3.3843    1.0000 </r>
       <r>    4.5492   -0.0353 </r>
       <r>    5.9787   -0.0000 </r>
       <r>    6.2660   -0.0000 </r>
       <r>    7.3402   -0.0000 </r>
       <r>   11.6811    0.0000 </r>
       <r>   20.0883    0.0000 </r>
       <r>   21.2320    0.0000 </r>
       <r>   27.0858    0.0000 </r>
       <r>   30.3719    0.0000 </r>
       <r>   35.9512    0.0000 </r>
      </set>
      <set comment="kpoint 6">
       <r>   -2.9317    1.0000 </r>
       <r>    4.4521    0.0173 </r>
       <r>    4.4522    0.0170 </r>
       <r>    4.5108   -0.0307 </r>
       <r>    5.9665   -0.0000 </r>
       <r>    6.0969   -0.0000 </r>
       <r>   26.1002    0.0000 </r>
       <r>   26.9997    0.0000 </r>
       <r>   26.9998    0.0000 </r>
       <r>   30.0747    0.0000 </r>
       <r>   31.7260    0.0000 </r>
       <r>   31.7260    0.0000 </r>
      </set>
      <set comment="kpoint 7">
       <r>   -0.3050    1.0000 </r>
       <r>    3.7821    1.0008 </r>
       <r>    3.7896    1.0010 </r>
       <r>    5.8586   -0.0000 </r>
       <r>    6.1130   -0.0000 </r>
       <r>    6.1800   -0.0000 </r>
       <r>   19.0384    0.0000 </r>
       <r>   19.6699    0.0000 </r>
       <r>   22.5830    0.0000 </r>
       <r>   29.1083    0.0000 </r>
       <r>   32.5533    0.0000 </r>
       <r>   33.8819    0.0000 </r>
      </set>
      <set comment="kpoint 8">
       <r>    1.1691    1.0000 </r>
       <r>    3.4757    1.0000 </r>
       <r>    3.6298    1.0000 </r>
       <r>    5.9188   -0.0000 </r>
       <r>    6.2349   -0.0000 </r>
       <r>    7.1125   -0.0000 </r>
       <r>   15.3563    0.0000 </r>
       <r>   18.0493    0.0000 </r>
       <r>   21.0270    0.0000 </r>
       <r>   29.2928    0.0000 </r>
       <r>   33.3062    0.0000 </r>
       <r>   34.4388    0.0000 </r>
      </set>
      <set comment="kpoint 9">
       <r>    2.0299    1.0000 </r>
       <r>    3.3399    1.0000 </r>
       <r>    3.8672    1.0048 </r>
       <r>    6.0074   -0.0000 </r>
       <r>    6.2807   -0.0000 </r>
       <r>    8.1920   -0.0000 </r>
       <r>   12.3068    0.0000 </r>
       <r>   17.2916    0.0000 </r>
       <r>   20.2274    0.0000 </r>
       <r>   29.1731    0.0000 </r>
       <r>   33.8399    0.0000 </r>
       <r>   34.8029    0.0000 </r>
      </set>
      <set comment="kpoint 10">
       <r>   -2.2232    1.0000 </r>
       <r>    4.2723    0.6059 </r>
       <r>    4.3932    0.1419 </r>
       <r>    4.8689   -0.0002 </r>
       <r>    5.7523   -0.0000 </r>
       <r>    6.1552   -0.0000 </r>
       <r>   23.1074    0.0000 </r>
       <r>   25.4843    0.0000 </r>
       <r>   26.1490    0.0000 </r>
       <r>   29.3659    0.0000 </r>
       <r>   29.5345    0.0000 </r>
       <r>   30.3711    0.0000 </r>
      </set>
      <set comment="kpoint 11">
       <r>    2.3085    1.0000 </r>
       <r>    3.2444    1.0000 </r>
       <r>    3.5082    1.0000 </r>
       <r>    6.0090   -0.0000 </r>
       <r>    6.2617   -0.0000 </r>
       <r>    8.5424   -0.0000 </r>
       <r>   14.0490    0.0000 </r>
       <r>   14.5824    0.0000 </r>
       <r>   20.0745    0.0000 </r>
       <r>   30.5300    0.0000 </r>
       <r>   33.0951    0.0000 </r>
       <r>   38.4025    0.0000 </r>
      </set>
      <set comment="kpoint 12">
       <r>    2.6820    1.0000 </r>
       <r>    3.2554    1.0000 </r>
       <r>    3.4839    1.0000 </r>
       <r>    6.0933   -0.0000 </r>
       <r>    6.2367   -0.0000 </r>
       <r>   10.0511    0.0000 </r>
       <r>   11.8508    0.0000 </r>
       <r>   14.0143    0.0000 </r>
       <r>   19.7719    0.0000 </r>
       <r>   31.0049    0.0000 </r>
       <r>   33.1105    0.0000 </r>
       <r>   38.1500    0.0000 </r>
      </set>
      <set comment="kpoint 13">
       <r>   -0.9203    1.0000 </r>
       <r>    3.9664    1.0205 </r>
       <r>    4.1731    0.9297 </r>
       <r>    5.5286   -0.0000 </r>
       <r>    5.6697   -0.0000 </r>
       <r>    6.2111   -0.0000 </r>
       <r>   18.9338    0.0000 </r>
       <r>   23.5206    0.0000 </r>
       <r>   24.7337    0.0000 </r>
       <r>   27.7476    0.0000 </r>
       <r>   29.1868    0.0000 </r>
       <r>   31.1126    0.0000 </r>
      </set>
      <set comment="kpoint 14">
       <r>   -1.2230    1.0000 </r>
       <r>    4.1638    0.9484 </r>
       <r>    4.1955    0.8755 </r>
       <r>    5.3451   -0.0000 </r>
       <r>    5.5098   -0.0000 </r>
       <r>    6.2654   -0.0000 </r>
       <r>   20.9824    0.0000 </r>
       <r>   21.9014    0.0000 </r>
       <r>   26.2535    0.0000 </r>
       <r>   26.8523    0.0000 </r>
       <r>   29.3328    0.0000 </r>
       <r>   32.2743    0.0000 </r>
      </set>
      <set comment="kpoint 15">
       <r>    0.6114    1.0000 </r>
       <r>    3.6728    1.0000 </r>
       <r>    4.0447    1.0352 </r>
       <r>    5.7918   -0.0000 </r>
       <r>    6.2757   -0.0000 </r>
       <r>    6.2904   -0.0000 </r>
       <r>   14.9864    0.0000 </r>
       <r>   21.9788    0.0000 </r>
       <r>   23.0911    0.0000 </r>
       <r>   26.9005    0.0000 </r>
       <r>   29.0805    0.0000 </r>
       <r>   32.8278    0.0000 </r>
      </set>
      <set comment="kpoint 16">
       <r>    0.2218    1.0000 </r>
       <r>    3.8319    1.0024 </r>
       <r>    3.9716    1.0217 </r>
       <r>    5.5357   -0.0000 </r>
       <r>    6.0576   -0.0000 </r>
       <r>    6.4135   -0.0000 </r>
       <r>   17.1630    0.0000 </r>
       <r>   19.8951    0.0000 </r>
       <r>   24.4848    0.0000 </r>
       <r>   26.7701    0.0000 </r>
       <r>   29.8425    0.0000 </r>
       <r>   32.7829    0.0000 </r>
      </set>
      <set comment="kpoint 17">
       <r>    1.5321    1.0000 </r>
       <r>    3.4966    1.0000 </r>
       <r>    4.4714   -0.0058 </r>
       <r>    5.8873   -0.0000 </r>
       <r>    6.4858   -0.0000 </r>
       <r>    6.7893   -0.0000 </r>
       <r>   12.1403    0.0000 </r>
       <r>   21.1381    0.0000 </r>
       <r>   22.0129    0.0000 </r>
       <r>   26.5715    0.0000 </r>
       <r>   29.1615    0.0000 </r>
       <r>   34.0941    0.0000 </r>
      </set>
      <set comment="kpoint 18">
       <r>    1.5272    1.0000 </r>
       <r>    3.6164    1.0000 </r>
       <r>    3.9024    1.0086 </r>
       <r>    5.7245   -0.0000 </r>
       <r>    6.3675   -0.0000 </r>
       <r>    7.1324   -0.0000 </r>
       <r>   13.5402    0.0000 </r>
       <r>   18.7667    0.0000 </r>
       <r>   23.0274    0.0000 </r>
       <r>   26.9339    0.0000 </r>
       <r>   30.9096    0.0000 </r>
       <r>   32.5855    0.0000 </r>
      </set>
      <set comment="kpoint 19">
       <r>    1.5594    1.0000 </r>
       <r>    3.4605    1.0000 </r>
       <r>    3.8760    1.0056 </r>
       <r>    5.6174   -0.0000 </r>
       <r>    6.2652   -0.0000 </r>
       <r>    7.3380   -0.0000 </r>
       <r>   15.6534    0.0000 </r>
       <r>   16.0288    0.0000 </r>
       <r>   24.0695    0.0000 </r>
       <r>   26.6299    0.0000 </r>
       <r>   29.7805    0.0000 </r>
       <r>   36.7055    0.0000 </r>
      </set>
      <set comment="kpoint 20">
       <r>    1.9437    1.0000 </r>
       <r>    3.5692    1.0000 </r>
       <r>    4.0584    1.0353 </r>
       <r>    5.7820   -0.0000 </r>
       <r>    6.5273   -0.0000 </r>
       <r>    7.8068   -0.0000 </r>
       <r>   11.7075    0.0000 </r>
       <r>   18.3506    0.0000 </r>
       <r>   22.5132    0.0000 </r>
       <r>   26.9759    0.0000 </r>
       <r>   32.0219    0.0000 </r>
       <r>   32.0285    0.0000 </r>
      </set>
      <set comment="kpoint 21">
       <r>    2.4376    1.0000 </r>
       <r>    3.3769    1.0000 </r>
       <r>    3.6842    1.0001 </r>
       <r>    5.8079   -0.0000 </r>
       <r>    6.3031   -0.0000 </r>
       <r>    8.8693   -0.0000 </r>
       <r>   12.5376    0.0000 </r>
       <r>   15.0909    0.0000 </r>
       <r>   23.4660    0.0000 </r>
       <r>   27.2139    0.0000 </r>
       <r>   29.9986    0.0000 </r>
       <r>   35.7912    0.0000 </r>
      </set>
      <set comment="kpoint 22">
       <r>    3.1089    1.0000 </r>
       <r>    3.2591    1.0000 </r>
       <r>    3.2591    1.0000 </r>
       <r>    6.0793   -0.0000 </r>
       <r>    6.0795   -0.0000 </r>
       <r>   11.2126    0.0000 </r>
       <r>   11.2126    0.0000 </r>
       <r>   13.0390    0.0000 </r>
       <r>   23.5764    0.0000 </r>
       <r>   28.5174    0.0000 </r>
       <r>   28.5177    0.0000 </r>
       <r>   35.1945    0.0000 </r>
      </set>
      <set comment="kpoint 23">
       <r>    1.0334    1.0000 </r>
       <r>    3.4510    1.0000 </r>
       <r>    3.4510    1.0000 </r>
       <r>    6.1078   -0.0000 </r>
       <r>    6.1078   -0.0000 </r>
       <r>    7.1439   -0.0000 </r>
       <r>   17.5483    0.0000 </r>
       <r>   17.5483    0.0000 </r>
       <r>   18.5652    0.0000 </r>
       <r>   31.6969    0.0000 </r>
       <r>   35.2634    0.0000 </r>
       <r>   35.2634    0.0000 </r>
      </set>
      <set comment="kpoint 24">
       <r>    2.2451    1.0000 </r>
       <r>    3.2515    1.0000 </r>
       <r>    3.3551    1.0000 </r>
       <r>    6.1381   -0.0000 </r>
       <r>    6.2426   -0.0000 </r>
       <r>    8.4208   -0.0000 </r>
       <r>   14.0750    0.0000 </r>
       <r>   16.6107    0.0000 </r>
       <r>   17.1154    0.0000 </r>
       <r>   32.6452    0.0000 </r>
       <r>   36.0428    0.0000 </r>
       <r>   37.2644    0.0000 </r>
      </set>
      <set comment="kpoint 25">
       <r>    2.5382    1.0000 </r>
       <r>    3.1870    1.0000 </r>
       <r>    3.5990    1.0000 </r>
       <r>    6.1659   -0.0000 </r>
       <r>    6.2844   -0.0000 </r>
       <r>    9.6272   -0.0000 </r>
       <r>   11.8915    0.0000 </r>
       <r>   16.2937    0.0000 </r>
       <r>   16.6967    0.0000 </r>
       <r>   32.6723    0.0000 </r>
       <r>   36.5236    0.0000 </r>
       <r>   37.4330    0.0000 </r>
      </set>
      <set comment="kpoint 26">
       <r>   -1.5436    1.0000 </r>
       <r>    4.4615    0.0050 </r>
       <r>    4.4617    0.0048 </r>
       <r>    4.8919   -0.0001 </r>
       <r>    5.2702   -0.0000 </r>
       <r>    6.3230   -0.0000 </r>
       <r>   22.8240    0.0000 </r>
       <r>   24.0892    0.0000 </r>
       <r>   24.0893    0.0000 </r>
       <r>   25.4844    0.0000 </r>
       <r>   31.6924    0.0000 </r>
       <r>   31.6925    0.0000 </r>
      </set>
      <set comment="kpoint 27">
       <r>    2.8965    1.0000 </r>
       <r>    3.1625    1.0000 </r>
       <r>    3.2717    1.0000 </r>
       <r>    6.2287   -0.0000 </r>
       <r>    6.2760   -0.0000 </r>
       <r>   10.3101    0.0000 </r>
       <r>   13.0385    0.0000 </r>
       <r>   13.7312    0.0000 </r>
       <r>   16.2448    0.0000 </r>
       <r>   34.9816    0.0000 </r>
       <r>   36.6109    0.0000 </r>
       <r>   39.7615    0.0000 </r>
      </set>
      <set comment="kpoint 28">
       <r>   -0.3077    1.0000 </r>
       <r>    4.2660    0.6313 </r>
       <r>    4.3118    0.4397 </r>
       <r>    5.0763   -0.0000 </r>
       <r>    5.4513   -0.0000 </r>
       <r>    6.4546   -0.0000 </r>
       <r>   19.4567    0.0000 </r>
       <r>   22.1232    0.0000 </r>
       <r>   22.4143    0.0000 </r>
       <r>   25.5405    0.0000 </r>
       <r>   31.2226    0.0000 </r>
       <r>   32.3060    0.0000 </r>
      </set>
      <set comment="kpoint 29">
       <r>    1.1239    1.0000 </r>
       <r>    3.8158    1.0017 </r>
       <r>    4.0737    1.0335 </r>
       <r>    5.3711   -0.0000 </r>
       <r>    6.2070   -0.0000 </r>
       <r>    6.7410   -0.0000 </r>
       <r>   15.4295    0.0000 </r>
       <r>   20.4853    0.0000 </r>
       <r>   21.3150    0.0000 </r>
       <r>   27.0169    0.0000 </r>
       <r>   30.2738    0.0000 </r>
       <r>   32.1639    0.0000 </r>
      </set>
      <set comment="kpoint 30">
       <r>    0.9662    1.0000 </r>
       <r>    3.8239    1.0020 </r>
       <r>    4.3626    0.2400 </r>
       <r>    5.1088   -0.0000 </r>
       <r>    5.9643   -0.0000 </r>
       <r>    6.7674   -0.0000 </r>
       <r>   17.7417    0.0000 </r>
       <r>   18.0749    0.0000 </r>
       <r>   23.2591    0.0000 </r>
       <r>   24.3443    0.0000 </r>
       <r>   30.7805    0.0000 </r>
       <r>   35.4742    0.0000 </r>
      </set>
      <set comment="kpoint 31">
       <r>    2.0046    1.0000 </r>
       <r>    3.7165    1.0002 </r>
       <r>    3.9249    1.0121 </r>
       <r>    5.5019   -0.0000 </r>
       <r>    6.7442   -0.0000 </r>
       <r>    7.6457   -0.0000 </r>
       <r>   12.3179    0.0000 </r>
       <r>   19.4993    0.0000 </r>
       <r>   20.7159    0.0000 </r>
       <r>   28.9263    0.0000 </r>
       <r>   29.7782    0.0000 </r>
       <r>   31.2607    0.0000 </r>
      </set>
      <set comment="kpoint 32">
       <r>    2.1049    1.0000 </r>
       <r>    3.3988    1.0000 </r>
       <r>    4.1879    0.8952 </r>
       <r>    5.4201   -0.0000 </r>
       <r>    6.3780   -0.0000 </r>
       <r>    7.8530   -0.0000 </r>
       <r>   14.0930    0.0000 </r>
       <r>   16.7629    0.0000 </r>
       <r>   22.6870    0.0000 </r>
       <r>   25.7684    0.0000 </r>
       <r>   29.8613    0.0000 </r>
       <r>   33.9522    0.0000 </r>
      </set>
      <set comment="kpoint 33">
       <r>    2.5152    1.0000 </r>
       <r>    3.3343    1.0000 </r>
       <r>    4.0329    1.0342 </r>
       <r>    5.5141   -0.0000 </r>
       <r>    6.5970   -0.0000 </r>
       <r>    9.1694   -0.0000 </r>
       <r>   11.8385    0.0000 </r>
       <r>   16.3190    0.0000 </r>
       <r>   22.3541    0.0000 </r>
       <r>   27.4606    0.0000 </r>
       <r>   28.6697    0.0000 </r>
       <r>   32.6958    0.0000 </r>
      </set>
      <set comment="kpoint 34">
       <r>    2.8714    1.0000 </r>
       <r>    3.0922    1.0000 </r>
       <r>    3.8944    1.0076 </r>
       <r>    5.8324   -0.0000 </r>
       <r>    6.2928   -0.0000 </r>
       <r>    9.9405    0.0000 </r>
       <r>   12.8894    0.0000 </r>
       <r>   13.6651    0.0000 </r>
       <r>   24.5767    0.0000 </r>
       <r>   25.3229    0.0000 </r>
       <r>   27.9577    0.0000 </r>
       <r>   32.5541    0.0000 </r>
      </set>
      <set comment="kpoint 35">
       <r>    3.1477    1.0000 </r>
       <r>    3.1477    1.0000 </r>
       <r>    3.1477    1.0000 </r>
       <r>    6.2963   -0.0000 </r>
       <r>    6.2963   -0.0000 </r>
       <r>   12.6917    0.0000 </r>
       <r>   12.6917    0.0000 </r>
       <r>   12.6919    0.0000 </r>
       <r>   13.8994    0.0000 </r>
       <r>   39.6851    0.0000 </r>
       <r>   39.6851    0.0000 </r>
       <r>   39.6853    0.0000 </r>
      </set>
      <set comment="kpoint 36">
       <r>    0.7459    1.0000 </r>
       <r>    4.1317    0.9971 </r>
       <r>    4.7502   -0.0031 </r>
       <r>    4.7504   -0.0031 </r>
       <r>    5.5223   -0.0000 </r>
       <r>    6.7115   -0.0000 </r>
       <r>   19.8890    0.0000 </r>
       <r>   19.8892    0.0000 </r>
       <r>   20.7258    0.0000 </r>
       <r>   22.2912    0.0000 </r>
       <r>   35.0358    0.0000 </r>
       <r>   35.0359    0.0000 </r>
      </set>
      <set comment="kpoint 37">
       <r>    1.8388    1.0000 </r>
       <r>    3.4908    1.0000 </r>
       <r>    4.7857   -0.0015 </r>
       <r>    5.1307   -0.0000 </r>
       <r>    6.1129   -0.0000 </r>
       <r>    7.3695   -0.0000 </r>
       <r>   16.2232    0.0000 </r>
       <r>   18.0977    0.0000 </r>
       <r>   20.5658    0.0000 </r>
       <r>   22.8980    0.0000 </r>
       <r>   32.8264    0.0000 </r>
       <r>   34.1843    0.0000 </r>
      </set>
      <set comment="kpoint 38">
       <r>    2.5114    1.0000 </r>
       <r>    3.0749    1.0000 </r>
       <r>    4.7119   -0.0063 </r>
       <r>    5.2928   -0.0000 </r>
       <r>    6.6665   -0.0000 </r>
       <r>    9.0322   -0.0000 </r>
       <r>   12.7810    0.0000 </r>
       <r>   17.0365    0.0000 </r>
       <r>   20.2563    0.0000 </r>
       <r>   24.8018    0.0000 </r>
       <r>   29.6022    0.0000 </r>
       <r>   33.5949    0.0000 </r>
      </set>
      <set comment="kpoint 39">
       <r>    2.4575    1.0000 </r>
       <r>    3.0289    1.0000 </r>
       <r>    4.8275   -0.0006 </r>
       <r>    5.6017   -0.0000 </r>
       <r>    6.3982   -0.0000 </r>
       <r>    8.8871   -0.0000 </r>
       <r>   14.8383    0.0000 </r>
       <r>   15.0706    0.0000 </r>
       <r>   21.3760    0.0000 </r>
       <r>   22.5650    0.0000 </r>
       <r>   29.1580    0.0000 </r>
       <r>   34.2881    0.0000 </r>
      </set>
      <set comment="kpoint 40">
       <r>    2.7302    1.0000 </r>
       <r>    2.7849    1.0000 </r>
       <r>    4.7412   -0.0037 </r>
       <r>    5.8625   -0.0000 </r>
       <r>    6.5380   -0.0000 </r>
       <r>   10.9122    0.0000 </r>
       <r>   12.2147    0.0000 </r>
       <r>   14.4683    0.0000 </r>
       <r>   21.5259    0.0000 </r>
       <r>   23.5821    0.0000 </r>
       <r>   27.0634    0.0000 </r>
       <r>   34.0934    0.0000 </r>
      </set>
      <set comment="kpoint 41">
       <r>    2.2854    1.0000 </r>
       <r>    3.0203    1.0000 </r>
       <r>    5.5027   -0.0000 </r>
       <r>    5.5030   -0.0000 </r>
       <r>    6.1655   -0.0000 </r>
       <r>    8.4600   -0.0000 </r>
       <r>   16.1557    0.0000 </r>
       <r>   16.1560    0.0000 </r>
       <r>   19.6571    0.0000 </r>
       <r>   20.9181    0.0000 </r>
       <r>   28.9309    0.0000 </r>
       <r>   37.5297    0.0000 </r>
      </set>
      <set comment="kpoint 42">
       <r>    2.4661    1.0000 </r>
       <r>    2.6454    1.0000 </r>
       <r>    5.6876   -0.0000 </r>
       <r>    5.8383   -0.0000 </r>
       <r>    6.5918   -0.0000 </r>
       <r>   10.5048    0.0000 </r>
       <r>   13.5291    0.0000 </r>
       <r>   14.9713    0.0000 </r>
       <r>   19.7947    0.0000 </r>
       <r>   21.4953    0.0000 </r>
       <r>   25.7976    0.0000 </r>
       <r>   37.5219    0.0000 </r>
      </set>
      <set comment="kpoint 43">
       <r>    2.4621    1.0000 </r>
       <r>    2.4621    1.0000 </r>
       <r>    5.7633   -0.0000 </r>
       <r>    6.4722   -0.0000 </r>
       <r>    6.4726   -0.0000 </r>
       <r>   12.6896    0.0000 </r>
       <r>   12.6900    0.0000 </r>
       <r>   13.2529    0.0000 </r>
       <r>   20.5944    0.0000 </r>
       <r>   20.5945    0.0000 </r>
       <r>   24.1790    0.0000 </r>
       <r>   38.0201    0.0000 </r>
      </set>
      <set comment="kpoint 44">
       <r>    2.3126    1.0000 </r>
       <r>    2.3569    1.0000 </r>
       <r>    6.4457   -0.0000 </r>
       <r>    6.4460   -0.0000 </r>
       <r>    6.5760   -0.0000 </r>
       <r>   12.2162    0.0000 </r>
       <r>   13.6591    0.0000 </r>
       <r>   13.6595    0.0000 </r>
       <r>   19.2423    0.0000 </r>
       <r>   19.8978    0.0000 </r>
       <r>   23.1991    0.0000 </r>
       <r>   40.0043    0.0000 </r>
      </set>
     </set>
    </set>
   </array>
  </eigenvalues>
  <separator name="orbital magnetization" >
   <v name="MAGDIPOLOUT">      0.00000000      0.00000000      0.00000000</v>
  </separator>
  <dos>
   <i name="efermi">      4.29751519 </i>
   <total>
    <array>
     <dimension dim="1">gridpoints</dimension>
     <dimension dim="2">spin</dimension>
     <field>energy</field>
     <field>total</field>
     <field>integrated</field>
     <set>
      <set comment="spin 1">
       <r>    -5.2178     0.0000     0.0000 </r>
       <r>    -5.0598     0.0000     0.0000 </r>
       <r>    -4.9018     0.0000     0.0000 </r>
       <r>    -4.7438    -0.0000    -0.0000 </r>
       <r>    -4.5858    -0.0000    -0.0000 </r>
       <r>    -4.4278    -0.0000    -0.0000 </r>
       <r>    -4.2698    -0.0000    -0.0000 </r>
       <r>    -4.1117    -0.0000    -0.0000 </r>
       <r>    -3.9537    -0.0000    -0.0000 </r>
       <r>    -3.7957    -0.0000    -0.0000 </r>
       <r>    -3.6377    -0.0000    -0.0000 </r>
       <r>    -3.4797    -0.0002    -0.0000 </r>
       <r>    -3.3217    -0.0011    -0.0002 </r>
       <r>    -3.1637     0.0061     0.0007 </r>
       <r>    -3.0056     0.0217     0.0042 </r>
       <r>    -2.8476     0.0146     0.0065 </r>
       <r>    -2.6896     0.0234     0.0102 </r>
       <r>    -2.5316     0.0247     0.0141 </r>
       <r>    -2.3736     0.0700     0.0251 </r>
       <r>    -2.2156     0.0771     0.0373 </r>
       <r>    -2.0576     0.0049     0.0381 </r>
       <r>    -1.8995    -0.0040     0.0375 </r>
       <r>    -1.7415     0.0711     0.0487 </r>
       <r>    -1.5835     0.1078     0.0658 </r>
       <r>    -1.4255     0.0784     0.0782 </r>
       <r>    -1.2675     0.0935     0.0929 </r>
       <r>    -1.1095     0.0974     0.1083 </r>
       <r>    -0.9515     0.0484     0.1160 </r>
       <r>    -0.7935    -0.0091     0.1145 </r>
       <r>    -0.6354     0.0910     0.1289 </r>
       <r>    -0.4774     0.2315     0.1655 </r>
       <r>    -0.3194     0.1707     0.1925 </r>
       <r>    -0.1614     0.2265     0.2283 </r>
       <r>    -0.0034     0.1965     0.2593 </r>
       <r>     0.1546     0.2260     0.2950 </r>
       <r>     0.3126     0.5962     0.3892 </r>
       <r>     0.4707     0.9183     0.5343 </r>
       <r>     0.6287     0.8711     0.6720 </r>
       <r>     0.7867     1.0573     0.8390 </r>
       <r>     0.9447     0.9636     0.9913 </r>
       <r>     1.1027     0.5540     1.0788 </r>
       <r>     1.2607     0.9512     1.2291 </r>
       <r>     1.4187     1.8069     1.5147 </r>
       <r>     1.5768     1.5386     1.7578 </r>
       <r>     1.7348     1.2796     1.9600 </r>
       <r>     1.8928     2.0056     2.2769 </r>
       <r>     2.0508     1.7788     2.5580 </r>
       <r>     2.2088     0.7443     2.6756 </r>
       <r>     2.3668     0.5538     2.7631 </r>
       <r>     2.5248     0.9541     2.9138 </r>
       <r>     2.6828     0.6178     3.0115 </r>
       <r>     2.8409     1.1665     3.1958 </r>
       <r>     2.9989     2.3367     3.5650 </r>
       <r>     3.1569     2.9445     4.0303 </r>
       <r>     3.3149     2.7043     4.4576 </r>
       <r>     3.4729     1.4634     4.6889 </r>
       <r>     3.6309     1.1253     4.8667 </r>
       <r>     3.7889     1.1842     5.0538 </r>
       <r>     3.9470     0.8328     5.1854 </r>
       <r>     4.1050     0.4307     5.2534 </r>
       <r>     4.2630     0.1993     5.2849 </r>
       <r>     4.4210     0.1516     5.3089 </r>
       <r>     4.5790     0.0728     5.3204 </r>
       <r>     4.7370     0.1930     5.3509 </r>
       <r>     4.8950     0.3193     5.4013 </r>
       <r>     5.0531     0.2939     5.4478 </r>
       <r>     5.2111     0.2019     5.4797 </r>
       <r>     5.3691     0.0891     5.4938 </r>
       <r>     5.5271     0.0939     5.5086 </r>
       <r>     5.6851     0.0823     5.5216 </r>
       <r>     5.8431     0.0161     5.5241 </r>
       <r>     6.0011     0.0561     5.5330 </r>
       <r>     6.1591     0.2537     5.5731 </r>
       <r>     6.3172     0.1942     5.6038 </r>
       <r>     6.4752     0.1717     5.6309 </r>
       <r>     6.6332     0.2943     5.6774 </r>
       <r>     6.7912     0.1934     5.7080 </r>
       <r>     6.9492     0.0628     5.7179 </r>
       <r>     7.1072     0.0016     5.7181 </r>
       <r>     7.2652     0.0710     5.7294 </r>
       <r>     7.4233     0.1945     5.7601 </r>
       <r>     7.5813     0.1488     5.7836 </r>
       <r>     7.7393     0.1068     5.8005 </r>
       <r>     7.8973     0.1285     5.8208 </r>
       <r>     8.0553     0.1174     5.8393 </r>
       <r>     8.2133     0.0370     5.8452 </r>
       <r>     8.3713     0.0291     5.8498 </r>
       <r>     8.5294     0.0392     5.8560 </r>
       <r>     8.6874     0.0926     5.8706 </r>
       <r>     8.8454     0.1563     5.8953 </r>
       <r>     9.0034     0.1360     5.9168 </r>
       <r>     9.1614     0.0714     5.9281 </r>
       <r>     9.3194     0.0000     5.9281 </r>
       <r>     9.4774    -0.0001     5.9281 </r>
       <r>     9.6354     0.0667     5.9386 </r>
       <r>     9.7935     0.0724     5.9500 </r>
       <r>     9.9515     0.0768     5.9622 </r>
       <r>    10.1095     0.1965     5.9932 </r>
       <r>    10.2675     0.1717     6.0204 </r>
       <r>    10.4255     0.0706     6.0315 </r>
       <r>    10.5835     0.1888     6.0613 </r>
       <r>    10.7415     0.2373     6.0988 </r>
       <r>    10.8996     0.1144     6.1169 </r>
       <r>    11.0576     0.2432     6.1553 </r>
       <r>    11.2156     0.2621     6.1967 </r>
       <r>    11.3736     0.2198     6.2315 </r>
       <r>    11.5316     0.1457     6.2545 </r>
       <r>    11.6896     0.0834     6.2677 </r>
       <r>    11.8476     0.1778     6.2958 </r>
       <r>    12.0057     0.1997     6.3273 </r>
       <r>    12.1637     0.2270     6.3632 </r>
       <r>    12.3217     0.1766     6.3911 </r>
       <r>    12.4797     0.1841     6.4202 </r>
       <r>    12.6377     0.1238     6.4398 </r>
       <r>    12.7957     0.1954     6.4706 </r>
       <r>    12.9537     0.2538     6.5107 </r>
       <r>    13.1117     0.3710     6.5694 </r>
       <r>    13.2698     0.4234     6.6363 </r>
       <r>    13.4278     0.0932     6.6510 </r>
       <r>    13.5858    -0.0007     6.6509 </r>
       <r>    13.7438     0.1294     6.6713 </r>
       <r>    13.9018     0.1805     6.6998 </r>
       <r>    14.0598     0.1722     6.7271 </r>
       <r>    14.2178     0.1721     6.7543 </r>
       <r>    14.3759     0.3376     6.8076 </r>
       <r>    14.5339     0.4759     6.8828 </r>
       <r>    14.6919     0.2344     6.9198 </r>
       <r>    14.8499     0.0804     6.9325 </r>
       <r>    15.0079     0.0333     6.9378 </r>
       <r>    15.1659     0.0191     6.9408 </r>
       <r>    15.3239     0.1014     6.9569 </r>
       <r>    15.4820     0.2027     6.9889 </r>
       <r>    15.6400     0.2988     7.0361 </r>
       <r>    15.7980     0.1350     7.0574 </r>
       <r>    15.9560     0.1581     7.0824 </r>
       <r>    16.1140     0.3522     7.1381 </r>
       <r>    16.2720     0.2235     7.1734 </r>
       <r>    16.4300     0.3201     7.2240 </r>
       <r>    16.5880     0.2912     7.2700 </r>
       <r>    16.7461     0.1865     7.2995 </r>
       <r>    16.9041     0.1453     7.3224 </r>
       <r>    17.0621     0.1305     7.3430 </r>
       <r>    17.2201     0.0419     7.3497 </r>
       <r>    17.3781     0.2101     7.3829 </r>
       <r>    17.5361     0.3368     7.4361 </r>
       <r>    17.6941     0.1133     7.4540 </r>
       <r>    17.8522     0.1014     7.4700 </r>
       <r>    18.0102     0.0463     7.4773 </r>
       <r>    18.1682     0.1356     7.4987 </r>
       <r>    18.3262     0.2830     7.5435 </r>
       <r>    18.4842     0.1708     7.5704 </r>
       <r>    18.6422     0.0558     7.5793 </r>
       <r>    18.8002     0.1018     7.5953 </r>
       <r>    18.9583     0.2424     7.6336 </r>
       <r>    19.1163     0.2971     7.6806 </r>
       <r>    19.2743     0.3211     7.7313 </r>
       <r>    19.4323     0.2485     7.7706 </r>
       <r>    19.5903     0.2041     7.8028 </r>
       <r>    19.7483     0.3430     7.8570 </r>
       <r>    19.9063     0.3007     7.9045 </r>
       <r>    20.0644     0.1888     7.9344 </r>
       <r>    20.2224     0.1320     7.9552 </r>
       <r>    20.3804     0.2651     7.9971 </r>
       <r>    20.5384     0.4479     8.0679 </r>
       <r>    20.6964     0.2650     8.1098 </r>
       <r>    20.8544     0.1435     8.1324 </r>
       <r>    21.0124     0.3563     8.1887 </r>
       <r>    21.1704     0.3605     8.2457 </r>
       <r>    21.3285     0.3031     8.2936 </r>
       <r>    21.4865     0.3034     8.3415 </r>
       <r>    21.6445     0.0673     8.3522 </r>
       <r>    21.8025     0.0293     8.3568 </r>
       <r>    21.9605     0.2969     8.4037 </r>
       <r>    22.1185     0.4063     8.4679 </r>
       <r>    22.2765     0.3672     8.5259 </r>
       <r>    22.4346     0.4018     8.5894 </r>
       <r>    22.5926     0.2668     8.6316 </r>
       <r>    22.7506     0.2693     8.6741 </r>
       <r>    22.9086     0.3946     8.7365 </r>
       <r>    23.0666     0.3921     8.7984 </r>
       <r>    23.2246     0.2058     8.8310 </r>
       <r>    23.3826     0.1108     8.8485 </r>
       <r>    23.5407     0.1750     8.8761 </r>
       <r>    23.6987     0.1430     8.8987 </r>
       <r>    23.8567     0.0715     8.9100 </r>
       <r>    24.0147     0.1871     8.9396 </r>
       <r>    24.1727     0.3043     8.9877 </r>
       <r>    24.3307     0.1915     9.0179 </r>
       <r>    24.4887     0.1548     9.0424 </r>
       <r>    24.6467     0.1417     9.0648 </r>
       <r>    24.8048     0.1377     9.0865 </r>
       <r>    24.9628     0.2294     9.1228 </r>
       <r>    25.1208     0.1854     9.1521 </r>
       <r>    25.2788     0.1049     9.1686 </r>
       <r>    25.4368     0.2396     9.2065 </r>
       <r>    25.5948     0.1836     9.2355 </r>
       <r>    25.7528     0.0163     9.2381 </r>
       <r>    25.9109     0.0921     9.2526 </r>
       <r>    26.0689     0.2419     9.2909 </r>
       <r>    26.2269     0.2641     9.3326 </r>
       <r>    26.3849     0.3905     9.3943 </r>
       <r>    26.5429     0.6724     9.5006 </r>
       <r>    26.7009     0.3318     9.5530 </r>
       <r>    26.8589     0.1442     9.5758 </r>
       <r>    27.0170     0.2664     9.6179 </r>
       <r>    27.1750     0.1886     9.6477 </r>
       <r>    27.3330     0.2489     9.6870 </r>
       <r>    27.4910     0.3012     9.7346 </r>
       <r>    27.6490     0.1298     9.7551 </r>
       <r>    27.8070    -0.0114     9.7533 </r>
       <r>    27.9650     0.0208     9.7566 </r>
       <r>    28.1230     0.1969     9.7877 </r>
       <r>    28.2811     0.1891     9.8176 </r>
       <r>    28.4391     0.1900     9.8476 </r>
       <r>    28.5971     0.3268     9.8992 </r>
       <r>    28.7551     0.3335     9.9519 </r>
       <r>    28.9131     0.3501    10.0072 </r>
       <r>    29.0711     0.4032    10.0709 </r>
       <r>    29.2291     0.3658    10.1287 </r>
       <r>    29.3872     0.6083    10.2249 </r>
       <r>    29.5452     0.4861    10.3017 </r>
       <r>    29.7032     0.1774    10.3297 </r>
       <r>    29.8612     0.4044    10.3936 </r>
       <r>    30.0192     0.3371    10.4469 </r>
       <r>    30.1772     0.1101    10.4643 </r>
       <r>    30.3352     0.1214    10.4834 </r>
       <r>    30.4933     0.1730    10.5108 </r>
       <r>    30.6513     0.2738    10.5540 </r>
       <r>    30.8093     0.3292    10.6061 </r>
       <r>    30.9673     0.4204    10.6725 </r>
       <r>    31.1253     0.1912    10.7027 </r>
       <r>    31.2833     0.0006    10.7028 </r>
       <r>    31.4413     0.1017    10.7189 </r>
       <r>    31.5993     0.1934    10.7494 </r>
       <r>    31.7574     0.2605    10.7906 </r>
       <r>    31.9154     0.3992    10.8537 </r>
       <r>    32.0734     0.4469    10.9243 </r>
       <r>    32.2314     0.4517    10.9956 </r>
       <r>    32.3894     0.3290    11.0476 </r>
       <r>    32.5474     0.1967    11.0787 </r>
       <r>    32.7054     0.1418    11.1011 </r>
[...]
      </set>
      <set comment="kpoint 27">
       <set comment="band 1">
        <r>  0.0323  0.0777  0.6738 </r>
       </set>
       <set comment="band 2">
        <r>  0.0000  0.0912  0.7048 </r>
       </set>
       <set comment="band 3">
        <r>  0.0037  0.1230  0.6433 </r>
       </set>
       <set comment="band 4">
        <r>  0.0000  0.0002  0.9750 </r>
       </set>
       <set comment="band 5">
        <r>  0.0002  0.0001  0.9767 </r>
       </set>
       <set comment="band 6">
        <r>  0.0543  0.1853  0.4986 </r>
       </set>
       <set comment="band 7">
        <r>  0.0000  0.2581  0.3806 </r>
       </set>
       <set comment="band 8">
        <r>  0.3848  0.0936  0.1793 </r>
       </set>
       <set comment="band 9">
        <r>  0.1917  0.2382  0.1625 </r>
       </set>
       <set comment="band 10">
        <r>  0.0000  0.0178  0.0825 </r>
       </set>
       <set comment="band 11">
        <r>  0.0017  0.0258  0.1125 </r>
       </set>
       <set comment="band 12">
        <r>  0.0003  0.0602  0.0984 </r>
       </set>
      </set>
      <set comment="kpoint 28">
       <set comment="band 1">
        <r>  0.3379  0.1216  0.0514 </r>
       </set>
       <set comment="band 2">
        <r>  0.0007  0.0214  0.8583 </r>
       </set>
       <set comment="band 3">
        <r>  0.0000  0.0104  0.9109 </r>
       </set>
       <set comment="band 4">
        <r>  0.0001  0.0047  0.9109 </r>
       </set>
       <set comment="band 5">
        <r>  0.0000  0.0050  0.9516 </r>
       </set>
       <set comment="band 6">
        <r>  0.0209  0.0058  0.9371 </r>
       </set>
       <set comment="band 7">
        <r>  0.0510  0.2077  0.2769 </r>
       </set>
       <set comment="band 8">
        <r>  0.0000  0.3384  0.2577 </r>
       </set>
       <set comment="band 9">
        <r>  0.0737  0.0981  0.1861 </r>
       </set>
       <set comment="band 10">
        <r>  0.0528  0.2726  0.1197 </r>
       </set>
       <set comment="band 11">
        <r>  0.0000  0.2015  0.2236 </r>
       </set>
       <set comment="band 12">
        <r>  0.0689  0.1959  0.0759 </r>
       </set>
      </set>
      <set comment="kpoint 29">
       <set comment="band 1">
        <r>  0.2225  0.1339  0.2165 </r>
       </set>
       <set comment="band 2">
        <r>  0.0032  0.0678  0.7275 </r>
       </set>
       <set comment="band 3">
        <r>  0.0000  0.0103  0.9017 </r>
       </set>
       <set comment="band 4">
        <r>  0.0004  0.0152  0.9121 </r>
       </set>
       <set comment="band 5">
        <r>  0.0000  0.0056  0.9652 </r>
       </set>
       <set comment="band 6">
        <r>  0.0473  0.0419  0.8318 </r>
       </set>
       <set comment="band 7">
        <r>  0.1419  0.2004  0.2979 </r>
       </set>
       <set comment="band 8">
        <r>  0.0000  0.4097  0.2024 </r>
       </set>
       <set comment="band 9">
        <r>  0.0855  0.0970  0.1722 </r>
       </set>
       <set comment="band 10">
        <r>  0.0148  0.2385  0.1541 </r>
       </set>
       <set comment="band 11">
        <r>  0.0000  0.1532  0.3188 </r>
       </set>
       <set comment="band 12">
        <r>  0.1283  0.0866  0.1860 </r>
       </set>
      </set>
      <set comment="kpoint 30">
       <set comment="band 1">
        <r>  0.2381  0.1523  0.1570 </r>
       </set>
       <set comment="band 2">
        <r>  0.0000  0.0206  0.8230 </r>
       </set>
       <set comment="band 3">
        <r>  0.0001  0.0260  0.8769 </r>
       </set>
       <set comment="band 4">
        <r>  0.0000  0.0103  0.9153 </r>
       </set>
       <set comment="band 5">
        <r>  0.0008  0.0058  0.9573 </r>
       </set>
       <set comment="band 6">
        <r>  0.0547  0.0341  0.8365 </r>
       </set>
       <set comment="band 7">
        <r>  0.0000  0.2550  0.3236 </r>
       </set>
       <set comment="band 8">
        <r>  0.1593  0.2596  0.1757 </r>
       </set>
       <set comment="band 9">
        <r>  0.0000  0.1165  0.2926 </r>
       </set>
       <set comment="band 10">
        <r>  0.0794  0.3197  0.0559 </r>
       </set>
       <set comment="band 11">
        <r>  0.0562  0.1084  0.2772 </r>
       </set>
       <set comment="band 12">
        <r>  0.0000  0.2502  0.0784 </r>
       </set>
      </set>
      <set comment="kpoint 31">
       <set comment="band 1">
        <r>  0.1109  0.0454  0.5597 </r>
       </set>
       <set comment="band 2">
        <r>  0.0025  0.1774  0.5093 </r>
       </set>
       <set comment="band 3">
        <r>  0.0000  0.0105  0.8961 </r>
       </set>
       <set comment="band 4">
        <r>  0.0121  0.0041  0.9172 </r>
       </set>
       <set comment="band 5">
        <r>  0.0000  0.0011  0.9848 </r>
       </set>
       <set comment="band 6">
        <r>  0.0278  0.1881  0.5822 </r>
       </set>
       <set comment="band 7">
        <r>  0.2625  0.0858  0.3938 </r>
       </set>
       <set comment="band 8">
        <r>  0.0000  0.4525  0.1521 </r>
       </set>
       <set comment="band 9">
        <r>  0.0855  0.1043  0.1647 </r>
       </set>
       <set comment="band 10">
        <r>  0.0002  0.1551  0.1790 </r>
       </set>
       <set comment="band 11">
        <r>  0.0000  0.1344  0.3566 </r>
       </set>
       <set comment="band 12">
        <r>  0.0655  0.1738  0.2156 </r>
       </set>
      </set>
      <set comment="kpoint 32">
       <set comment="band 1">
        <r>  0.1180  0.1190  0.4132 </r>
       </set>
       <set comment="band 2">
        <r>  0.0009  0.0609  0.7240 </r>
       </set>
       <set comment="band 3">
        <r>  0.0016  0.0290  0.8585 </r>
       </set>
       <set comment="band 4">
        <r>  0.0039  0.0120  0.9171 </r>
       </set>
       <set comment="band 5">
        <r>  0.0079  0.0059  0.9551 </r>
       </set>
       <set comment="band 6">
        <r>  0.0717  0.1293  0.6324 </r>
       </set>
       <set comment="band 7">
        <r>  0.1545  0.2069  0.3030 </r>
       </set>
       <set comment="band 8">
        <r>  0.0957  0.2902  0.2119 </r>
       </set>
       <set comment="band 9">
        <r>  0.0330  0.1790  0.2034 </r>
       </set>
       <set comment="band 10">
        <r>  0.0215  0.2266  0.1562 </r>
       </set>
       <set comment="band 11">
        <r>  0.0363  0.1232  0.2914 </r>
       </set>
       <set comment="band 12">
        <r>  0.0708  0.2560  0.2298 </r>
       </set>
      </set>
      <set comment="kpoint 33">
       <set comment="band 1">
        <r>  0.0579  0.0388  0.6601 </r>
       </set>
       <set comment="band 2">
        <r>  0.0000  0.1450  0.5626 </r>
       </set>
       <set comment="band 3">
        <r>  0.0089  0.0160  0.8666 </r>
       </set>
       <set comment="band 4">
        <r>  0.0137  0.0063  0.9136 </r>
       </set>
       <set comment="band 5">
        <r>  0.0000  0.0113  0.9627 </r>
       </set>
       <set comment="band 6">
        <r>  0.0000  0.2822  0.4443 </r>
       </set>
       <set comment="band 7">
        <r>  0.2786  0.0789  0.3902 </r>
       </set>
       <set comment="band 8">
        <r>  0.0941  0.3078  0.1945 </r>
       </set>
       <set comment="band 9">
        <r>  0.0379  0.1885  0.1870 </r>
       </set>
       <set comment="band 10">
        <r>  0.0000  0.0754  0.2270 </r>
       </set>
       <set comment="band 11">
        <r>  0.0017  0.3091  0.2039 </r>
       </set>
       <set comment="band 12">
        <r>  0.1355  0.2093  0.2624 </r>
       </set>
      </set>
      <set comment="kpoint 34">
       <set comment="band 1">
        <r>  0.0315  0.1011  0.5905 </r>
       </set>
       <set comment="band 2">
        <r>  0.0000  0.0626  0.7111 </r>
       </set>
       <set comment="band 3">
        <r>  0.0262  0.0212  0.8193 </r>
       </set>
       <set comment="band 4">
        <r>  0.0000  0.0162  0.9319 </r>
       </set>
       <set comment="band 5">
        <r>  0.0042  0.0131  0.9448 </r>
       </set>
       <set comment="band 6">
        <r>  0.0553  0.2377  0.4432 </r>
       </set>
       <set comment="band 7">
        <r>  0.0000  0.3110  0.3562 </r>
       </set>
       <set comment="band 8">
        <r>  0.3440  0.1239  0.1933 </r>
       </set>
       <set comment="band 9">
        <r>  0.0000  0.0880  0.2807 </r>
       </set>
       <set comment="band 10">
        <r>  0.0206  0.2419  0.1425 </r>
       </set>
       <set comment="band 11">
        <r>  0.0000  0.3110  0.1667 </r>
       </set>
       <set comment="band 12">
        <r>  0.2390  0.0973  0.2750 </r>
       </set>
      </set>
      <set comment="kpoint 35">
       <set comment="band 1">
        <r>  0.0000  0.0995  0.6921 </r>
       </set>
       <set comment="band 2">
        <r>  0.0000  0.0995  0.6921 </r>
       </set>
       <set comment="band 3">
        <r>  0.0000  0.0995  0.6921 </r>
       </set>
       <set comment="band 4">
        <r>  0.0000  0.0000  0.9781 </r>
       </set>
       <set comment="band 5">
        <r>  0.0000  0.0000  0.9781 </r>
       </set>
       <set comment="band 6">
        <r>  0.0000  0.2556  0.3878 </r>
       </set>
       <set comment="band 7">
        <r>  0.0000  0.2556  0.3878 </r>
       </set>
       <set comment="band 8">
        <r>  0.0000  0.2555  0.3878 </r>
       </set>
       <set comment="band 9">
        <r>  0.6823  0.0000  0.0000 </r>
       </set>
       <set comment="band 10">
        <r>  0.0000  0.0000  0.0000 </r>
       </set>
       <set comment="band 11">
        <r>  0.0000  0.0000  0.0000 </r>
       </set>
       <set comment="band 12">
        <r>  0.0000  0.0000  0.0000 </r>
       </set>
      </set>
      <set comment="kpoint 36">
       <set comment="band 1">
        <r>  0.2523  0.1563  0.1246 </r>
       </set>
       <set comment="band 2">
        <r>  0.0000  0.0000  0.8505 </r>
       </set>
       <set comment="band 3">
        <r>  0.0000  0.0244  0.8927 </r>
       </set>
       <set comment="band 4">
        <r>  0.0000  0.0245  0.8927 </r>
       </set>
       <set comment="band 5">
        <r>  0.0000  0.0000  0.9601 </r>
       </set>
       <set comment="band 6">
        <r>  0.0603  0.0222  0.8505 </r>
       </set>
       <set comment="band 7">
        <r>  0.0000  0.3829  0.2327 </r>
       </set>
       <set comment="band 8">
        <r>  0.0000  0.3829  0.2327 </r>
       </set>
       <set comment="band 9">
        <r>  0.0000  0.0000  0.3964 </r>
       </set>
       <set comment="band 10">
        <r>  0.2473  0.1636  0.0291 </r>
       </set>
       <set comment="band 11">
        <r>  0.0000  0.2559  0.0609 </r>
       </set>
       <set comment="band 12">
        <r>  0.0000  0.2559  0.0609 </r>
       </set>
      </set>
      <set comment="kpoint 37">
       <set comment="band 1">
        <r>  0.1331  0.1494  0.3239 </r>
       </set>
       <set comment="band 2">
        <r>  0.0000  0.0129  0.8047 </r>
       </set>
       <set comment="band 3">
        <r>  0.0000  0.0236  0.8934 </r>
       </set>
       <set comment="band 4">
        <r>  0.0029  0.0250  0.8897 </r>
       </set>
       <set comment="band 5">
        <r>  0.0000  0.0040  0.9646 </r>
       </set>
       <set comment="band 6">
        <r>  0.1089  0.0913  0.6464 </r>
       </set>
       <set comment="band 7">
        <r>  0.0786  0.2919  0.2511 </r>
       </set>
       <set comment="band 8">
        <r>  0.0000  0.4252  0.1877 </r>
       </set>
       <set comment="band 9">
        <r>  0.0869  0.0311  0.3244 </r>
       </set>
       <set comment="band 10">
        <r>  0.1284  0.1724  0.1566 </r>
       </set>
       <set comment="band 11">
        <r>  0.0583  0.3073  0.1834 </r>
       </set>
       <set comment="band 12">
        <r>  0.0000  0.1141  0.3006 </r>
       </set>
      </set>
      <set comment="kpoint 38">
       <set comment="band 1">
        <r>  0.0453  0.0699  0.6104 </r>
       </set>
       <set comment="band 2">
        <r>  0.0000  0.0705  0.6865 </r>
       </set>
       <set comment="band 3">
        <r>  0.0000  0.0222  0.8931 </r>
       </set>
       <set comment="band 4">
        <r>  0.0229  0.0138  0.8775 </r>
       </set>
       <set comment="band 5">
        <r>  0.0000  0.0011  0.9826 </r>
       </set>
       <set comment="band 6">
        <r>  0.0674  0.2502  0.4085 </r>
       </set>
       <set comment="band 7">
        <r>  0.1936  0.1899  0.3059 </r>
       </set>
       <set comment="band 8">
        <r>  0.0000  0.4556  0.1436 </r>
       </set>
       <set comment="band 9">
        <r>  0.1198  0.0264  0.3100 </r>
       </set>
       <set comment="band 10">
        <r>  0.0316  0.1190  0.2413 </r>
       </set>
       <set comment="band 11">
        <r>  0.1272  0.3767  0.1227 </r>
       </set>
       <set comment="band 12">
        <r>  0.0000  0.1091  0.3111 </r>
       </set>
      </set>
      <set comment="kpoint 39">
       <set comment="band 1">
        <r>  0.0414  0.1041  0.5493 </r>
       </set>
       <set comment="band 2">
        <r>  0.0000  0.0178  0.7785 </r>
       </set>
       <set comment="band 3">
        <r>  0.0123  0.0233  0.8702 </r>
       </set>
       <set comment="band 4">
        <r>  0.0000  0.0265  0.9066 </r>
       </set>
       <set comment="band 5">
        <r>  0.0054  0.0046  0.9604 </r>
       </set>
       <set comment="band 6">
        <r>  0.1157  0.2024  0.4241 </r>
       </set>
       <set comment="band 7">
        <r>  0.0000  0.3623  0.2648 </r>
       </set>
       <set comment="band 8">
        <r>  0.1615  0.2965  0.1615 </r>
       </set>
       <set comment="band 9">
        <r>  0.0000  0.0762  0.3751 </r>
       </set>
       <set comment="band 10">
        <r>  0.1499  0.1443  0.1739 </r>
       </set>
       <set comment="band 11">
        <r>  0.1506  0.3231  0.1296 </r>
       </set>
       <set comment="band 12">
        <r>  0.0674  0.0658  0.2740 </r>
       </set>
      </set>
      <set comment="kpoint 40">
       <set comment="band 1">
        <r>  0.0074  0.0343  0.7303 </r>
       </set>
       <set comment="band 2">
        <r>  0.0000  0.0669  0.6834 </r>
       </set>
       <set comment="band 3">
        <r>  0.0224  0.0221  0.8529 </r>
       </set>
       <set comment="band 4">
        <r>  0.0051  0.0217  0.9136 </r>
       </set>
       <set comment="band 5">
        <r>  0.0000  0.0092  0.9642 </r>
       </set>
       <set comment="band 6">
        <r>  0.0000  0.3603  0.2994 </r>
       </set>
       <set comment="band 7">
        <r>  0.1994  0.2032  0.2786 </r>
       </set>
       <set comment="band 8">
        <r>  0.1061  0.3334  0.1760 </r>
       </set>
       <set comment="band 9">
        <r>  0.0438  0.0829  0.3287 </r>
       </set>
       <set comment="band 10">
        <r>  0.0000  0.0815  0.3130 </r>
       </set>
       <set comment="band 11">
        <r>  0.2602  0.3868  0.0410 </r>
       </set>
       <set comment="band 12">
        <r>  0.0804  0.0530  0.2753 </r>
       </set>
      </set>
      <set comment="kpoint 41">
       <set comment="band 1">
        <r>  0.0452  0.1038  0.5378 </r>
       </set>
       <set comment="band 2">
        <r>  0.0000  0.0000  0.8053 </r>
       </set>
       <set comment="band 3">
        <r>  0.0000  0.0318  0.8946 </r>
       </set>
       <set comment="band 4">
        <r>  0.0000  0.0318  0.8945 </r>
       </set>
       <set comment="band 5">
        <r>  0.0000  0.0000  0.9726 </r>
       </set>
       <set comment="band 6">
        <r>  0.1516  0.1832  0.4007 </r>
       </set>
       <set comment="band 7">
        <r>  0.0000  0.4529  0.1460 </r>
       </set>
       <set comment="band 8">
        <r>  0.0000  0.4529  0.1460 </r>
       </set>
       <set comment="band 9">
        <r>  0.0000  0.0000  0.4957 </r>
       </set>
       <set comment="band 10">
        <r>  0.2965  0.0317  0.1762 </r>
       </set>
       <set comment="band 11">
        <r>  0.1925  0.2596  0.1468 </r>
       </set>
       <set comment="band 12">
        <r>  0.0000  0.0000  0.2949 </r>
       </set>
      </set>
      <set comment="kpoint 42">
       <set comment="band 1">
        <r>  0.0070  0.0483  0.6948 </r>
       </set>
       <set comment="band 2">
        <r>  0.0002  0.0099  0.7759 </r>
       </set>
       <set comment="band 3">
        <r>  0.0000  0.0239  0.9139 </r>
       </set>
       <set comment="band 4">
        <r>  0.0091  0.0262  0.8970 </r>
       </set>
       <set comment="band 5">
        <r>  0.0000  0.0010  0.9808 </r>
       </set>
       <set comment="band 6">
        <r>  0.0976  0.3136  0.2356 </r>
       </set>
       <set comment="band 7">
        <r>  0.0802  0.3636  0.1679 </r>
       </set>
       <set comment="band 8">
        <r>  0.0000  0.4794  0.0970 </r>
       </set>
       <set comment="band 9">
        <r>  0.0611  0.0042  0.4480 </r>
       </set>
       <set comment="band 10">
        <r>  0.0975  0.0635  0.3183 </r>
       </set>
       <set comment="band 11">
        <r>  0.3576  0.2373  0.0791 </r>
       </set>
       <set comment="band 12">
        <r>  0.0000  0.0490  0.2323 </r>
       </set>
      </set>
      <set comment="kpoint 43">
       <set comment="band 1">
        <r>  0.0000  0.0173  0.7580 </r>
       </set>
       <set comment="band 2">
        <r>  0.0000  0.0173  0.7580 </r>
       </set>
       <set comment="band 3">
        <r>  0.0072  0.0236  0.9032 </r>
       </set>
       <set comment="band 4">
        <r>  0.0000  0.0094  0.9617 </r>
       </set>
       <set comment="band 5">
        <r>  0.0000  0.0094  0.9617 </r>
       </set>
       <set comment="band 6">
        <r>  0.0000  0.4401  0.1507 </r>
       </set>
       <set comment="band 7">
        <r>  0.0000  0.4401  0.1507 </r>
       </set>
       <set comment="band 8">
        <r>  0.1695  0.3301  0.0952 </r>
       </set>
       <set comment="band 9">
        <r>  0.0000  0.0533  0.4339 </r>
       </set>
       <set comment="band 10">
        <r>  0.0000  0.0533  0.4339 </r>
       </set>
       <set comment="band 11">
        <r>  0.5498  0.1816  0.0036 </r>
       </set>
       <set comment="band 12">
        <r>  0.0141  0.0484  0.1943 </r>
       </set>
      </set>
      <set comment="kpoint 44">
       <set comment="band 1">
        <r>  0.0005  0.0117  0.7620 </r>
       </set>
       <set comment="band 2">
        <r>  0.0000  0.0000  0.7838 </r>
       </set>
       <set comment="band 3">
        <r>  0.0000  0.0097  0.9604 </r>
       </set>
       <set comment="band 4">
        <r>  0.0000  0.0097  0.9604 </r>
       </set>
       <set comment="band 5">
        <r>  0.0000  0.0000  0.9824 </r>
       </set>
       <set comment="band 6">
        <r>  0.0543  0.4310  0.0817 </r>
       </set>
       <set comment="band 7">
        <r>  0.0000  0.5111  0.0300 </r>
       </set>
       <set comment="band 8">
        <r>  0.0000  0.5111  0.0300 </r>
       </set>
       <set comment="band 9">
        <r>  0.0000  0.0000  0.5461 </r>
       </set>
       <set comment="band 10">
        <r>  0.0502  0.0144  0.4614 </r>
       </set>
       <set comment="band 11">
        <r>  0.6413  0.0753  0.0183 </r>
       </set>
       <set comment="band 12">
        <r>  0.0000  0.0000  0.0694 </r>
       </set>
      </set>
     </set>
    </set>
   </array>
  </projected>
 </calculation>
 <structure name="finalpos" >
  <crystal>
   <varray name="basis" >
    <v>      -1.50000000       1.50000000       1.50000000 </v>
    <v>       1.50000000      -1.50000000       1.50000000 </v>
    <v>       1.50000000       1.50000000      -1.50000000 </v>
   </varray>
   <i name="volume">     13.50000000 </i>
   <varray name="rec_basis" >
    <v>       0.00000000       0.33333333       0.33333333 </v>
    <v>       0.33333333       0.00000000       0.33333333 </v>
    <v>       0.33333333       0.33333333       0.00000000 </v>
   </varray>
  </crystal>
  <varray name="positions" >
   <v>       0.00000000       0.00000000       0.00000000 </v>
  </varray>
 </structure>
</modeling>
