   1   1   1   0
  0.1529104E+02  0.2708235E-09  0.2708235E-09  0.2708235E-09  0.5000000E-15
  1.000000000000000E-004
  CAR 
 BCC W                                   
     30.58909948     -3.45585933 3001      8.22702362      1.00000000
     -3.456  0.0000E+00  0.0000E+00
     -3.445  0.0000E+00  0.0000E+00
     -3.433  0.0000E+00  0.0000E+00
     -3.422  0.0000E+00  0.0000E+00
     -3.410  0.0000E+00  0.0000E+00
     -3.399  0.0000E+00  0.0000E+00
     -3.388  0.0000E+00  0.0000E+00
     -3.376  0.0000E+00  0.0000E+00
     -3.365  0.0000E+00  0.0000E+00
     -3.354  0.0000E+00  0.0000E+00
     -3.342  0.0000E+00  0.0000E+00
     -3.331  0.0000E+00  0.0000E+00
     -3.320  0.0000E+00  0.0000E+00
     -3.308  0.0000E+00  0.0000E+00
     -3.297  0.0000E+00  0.0000E+00
     -3.286  0.0000E+00  0.0000E+00
     -3.274  0.0000E+00  0.0000E+00
     -3.263  0.0000E+00  0.0000E+00
     -3.252  0.0000E+00  0.0000E+00
     -3.240  0.0000E+00  0.0000E+00
     -3.229  0.0000E+00  0.0000E+00
     -3.218  0.0000E+00  0.0000E+00
     -3.206  0.0000E+00  0.0000E+00
     -3.195  0.0000E+00  0.0000E+00
     -3.183  0.0000E+00  0.0000E+00
     -3.172  0.0000E+00  0.0000E+00
     -3.161  0.0000E+00  0.0000E+00
     -3.149  0.0000E+00  0.0000E+00
     -3.138  0.0000E+00  0.0000E+00
     -3.127  0.0000E+00  0.0000E+00
     -3.115  0.0000E+00  0.0000E+00
     -3.104  0.0000E+00  0.0000E+00
     -3.093  0.0000E+00  0.0000E+00
     -3.081  0.0000E+00  0.0000E+00
     -3.070  0.0000E+00  0.0000E+00
     -3.059 -0.3827E-28 -0.4343E-30
     -3.047 -0.5578E-28 -0.1067E-29
     -3.036 -0.1356E-27 -0.2606E-29
     -3.025 -0.3274E-27 -0.6322E-29
     -3.013 -0.7855E-27 -0.1524E-28
     -3.002 -0.1872E-26 -0.3648E-28
     -2.991 -0.4433E-26 -0.8679E-28
     -2.979 -0.1043E-25 -0.2051E-27
     -2.968 -0.2437E-25 -0.4817E-27
     -2.957 -0.5659E-25 -0.1124E-26
     -2.945 -0.1305E-24 -0.2605E-26
     -2.934 -0.2992E-24 -0.6000E-26
     -2.922 -0.6810E-24 -0.1373E-25
     -2.911 -0.1540E-23 -0.3121E-25
     -2.900 -0.3461E-23 -0.7049E-25
     -2.888 -0.7726E-23 -0.1582E-24
     -2.877 -0.1713E-22 -0.3526E-24
     -2.866 -0.3775E-22 -0.7810E-24
     -2.854 -0.8262E-22 -0.1719E-23
     -2.843 -0.1796E-21 -0.3757E-23
     -2.832 -0.3881E-21 -0.8161E-23
     -2.820 -0.8328E-21 -0.1761E-22
     -2.809 -0.1775E-20 -0.3776E-22
     -2.798 -0.3760E-20 -0.8043E-22
     -2.786 -0.7912E-20 -0.1702E-21
     -2.775 -0.1654E-19 -0.3579E-21
     -2.764 -0.3434E-19 -0.7476E-21
     -2.752 -0.7084E-19 -0.1552E-20
     -2.741 -0.1452E-18 -0.3199E-20
     -2.730 -0.2956E-18 -0.6553E-20
     -2.718 -0.5978E-18 -0.1334E-19
     -2.707 -0.1201E-17 -0.2697E-19
     -2.696 -0.2397E-17 -0.5417E-19
     -2.684 -0.4753E-17 -0.1081E-18
     -2.673 -0.9363E-17 -0.2144E-18
     -2.661 -0.1832E-16 -0.4223E-18
     -2.650 -0.3561E-16 -0.8264E-18
     -2.639 -0.6144E-16 -0.1524E-17
     -2.627 -0.1319E-15 -0.3021E-17
     -2.616 -0.2441E-15 -0.5791E-17
     -2.605 -0.4612E-15 -0.1102E-16
     -2.593 -0.8656E-15 -0.2085E-16
     -2.582 -0.1621E-14 -0.3924E-16
     -2.571 -0.3000E-14 -0.7328E-16
     -2.559 -0.5529E-14 -0.1360E-15
     -2.548 -0.1012E-13 -0.2509E-15
     -2.537 -0.1840E-13 -0.4597E-15
     -2.525 -0.3322E-13 -0.8366E-15
     -2.514 -0.5956E-13 -0.1513E-14
     -2.503 -0.1061E-12 -0.2717E-14
     -2.491 -0.1878E-12 -0.4849E-14
     -2.480 -0.3302E-12 -0.8595E-14
     -2.469 -0.5765E-12 -0.1514E-13
     -2.457 -0.9999E-12 -0.2649E-13
     -2.446 -0.1723E-11 -0.4603E-13
     -2.435 -0.2948E-11 -0.7949E-13
     -2.423 -0.5011E-11 -0.1363E-12
     -2.412 -0.8459E-11 -0.2323E-12
     -2.400 -0.1419E-10 -0.3933E-12
     -2.389 -0.2363E-10 -0.6615E-12
     -2.378 -0.3909E-10 -0.1105E-11
     -2.366 -0.6423E-10 -0.1834E-11
     -2.355 -0.1048E-09 -0.3024E-11
     -2.344 -0.1699E-09 -0.4952E-11
     -2.332 -0.2736E-09 -0.8057E-11
     -2.321 -0.4375E-09 -0.1302E-10
     -2.310 -0.6948E-09 -0.2091E-10
     -2.298 -0.1096E-08 -0.3334E-10
     -2.287 -0.1717E-08 -0.5282E-10
     -2.276 -0.2671E-08 -0.8313E-10
     -2.264 -0.4127E-08 -0.1300E-09
     -2.253 -0.6333E-08 -0.2018E-09
     -2.242 -0.9650E-08 -0.3113E-09
     -2.230 -0.1460E-07 -0.4771E-09
     -2.219 -0.2195E-07 -0.7262E-09
     -2.208 -0.3276E-07 -0.1098E-08
     -2.196 -0.4855E-07 -0.1649E-08
     -2.185 -0.7146E-07 -0.2460E-08
     -2.173 -0.1044E-06 -0.3645E-08
     -2.162 -0.1516E-06 -0.5365E-08
     -2.151 -0.2184E-06 -0.7844E-08
     -2.139 -0.3125E-06 -0.1139E-07
     -2.128 -0.4439E-06 -0.1643E-07
     -2.117 -0.6262E-06 -0.2353E-07
     -2.105 -0.8770E-06 -0.3349E-07
     -2.094 -0.1219E-05 -0.4732E-07
     -2.083 -0.1683E-05 -0.6643E-07
     -2.071 -0.2307E-05 -0.9261E-07
     -2.060 -0.3138E-05 -0.1282E-06
     -2.049 -0.4238E-05 -0.1763E-06
     -2.037 -0.5682E-05 -0.2408E-06
     -2.026 -0.7560E-05 -0.3266E-06
     -2.015 -0.9984E-05 -0.4399E-06
     -2.003 -0.1309E-04 -0.5884E-06
     -1.992 -0.1702E-04 -0.7816E-06
     -1.981 -0.2198E-04 -0.1031E-05
     -1.969 -0.2815E-04 -0.1350E-05
     -1.958 -0.3578E-04 -0.1756E-05
     -1.947 -0.4511E-04 -0.2268E-05
     -1.935 -0.5643E-04 -0.2909E-05
     -1.924 -0.7002E-04 -0.3703E-05
     -1.912 -0.8616E-04 -0.4681E-05
     -1.901 -0.1051E-03 -0.5875E-05
     -1.890 -0.1272E-03 -0.7318E-05
     -1.878 -0.1526E-03 -0.9050E-05
     -1.867 -0.1814E-03 -0.1111E-04
     -1.856 -0.2137E-03 -0.1353E-04
     -1.844 -0.2494E-03 -0.1636E-04
     -1.833 -0.2882E-03 -0.1963E-04
     -1.822 -0.3297E-03 -0.2338E-04
     -1.810 -0.3732E-03 -0.2761E-04
     -1.799 -0.4177E-03 -0.3235E-04
     -1.788 -0.4621E-03 -0.3760E-04
     -1.776 -0.5047E-03 -0.4332E-04
     -1.765 -0.5437E-03 -0.4949E-04
     -1.754 -0.5769E-03 -0.5604E-04
     -1.742 -0.6017E-03 -0.6287E-04
     -1.731 -0.6153E-03 -0.6985E-04
     -1.720 -0.6145E-03 -0.7683E-04
     -1.708 -0.5961E-03 -0.8359E-04
     -1.697 -0.5566E-03 -0.8991E-04
     -1.686 -0.4923E-03 -0.9549E-04
     -1.674 -0.3998E-03 -0.1000E-03
     -1.663 -0.2757E-03 -0.1032E-03
     -1.651 -0.1165E-03 -0.1045E-03
     -1.640  0.8079E-04 -0.1036E-03
     -1.629  0.3188E-03 -0.9995E-04
     -1.617  0.6000E-03 -0.9314E-04
     -1.606  0.9263E-03 -0.8262E-04
     -1.595  0.1299E-02 -0.6788E-04
     -1.583  0.1720E-02 -0.4835E-04
     -1.572  0.2190E-02 -0.2350E-04
     -1.561  0.2709E-02  0.7247E-05
     -1.549  0.3278E-02  0.4445E-04
     -1.538  0.3897E-02  0.8868E-04
     -1.527  0.4567E-02  0.1405E-03
     -1.515  0.5286E-02  0.2005E-03
     -1.504  0.6057E-02  0.2692E-03
     -1.493  0.6878E-02  0.3473E-03
     -1.481  0.7750E-02  0.4352E-03
     -1.470  0.8673E-02  0.5337E-03
     -1.459  0.9647E-02  0.6431E-03
     -1.447  0.1067E-01  0.7642E-03
     -1.436  0.1174E-01  0.8975E-03
     -1.425  0.1286E-01  0.1043E-02
     -1.413  0.1401E-01  0.1202E-02
     -1.402  0.1521E-01  0.1375E-02
     -1.390  0.1642E-01  0.1561E-02
     -1.379  0.1766E-01  0.1762E-02
     -1.368  0.1890E-01  0.1976E-02
     -1.356  0.2014E-01  0.2205E-02
     -1.345  0.2135E-01  0.2447E-02
     -1.334  0.2252E-01  0.2703E-02
     -1.322  0.2363E-01  0.2971E-02
     -1.311  0.2467E-01  0.3251E-02
     -1.300  0.2562E-01  0.3541E-02
     -1.288  0.2646E-01  0.3842E-02
     -1.277  0.2718E-01  0.4150E-02
     -1.266  0.2777E-01  0.4465E-02
     -1.254  0.2822E-01  0.4785E-02
     -1.243  0.2855E-01  0.5109E-02
     -1.232  0.2874E-01  0.5435E-02
     -1.220  0.2881E-01  0.5762E-02
     -1.209  0.2879E-01  0.6089E-02
     -1.198  0.2868E-01  0.6415E-02
     -1.186  0.2851E-01  0.6738E-02
     -1.175  0.2832E-01  0.7060E-02
     -1.163  0.2814E-01  0.7379E-02
     -1.152  0.2801E-01  0.7697E-02
     -1.141  0.2794E-01  0.8014E-02
     -1.129  0.2799E-01  0.8332E-02
     -1.118  0.2817E-01  0.8651E-02
     -1.107  0.2851E-01  0.8975E-02
     -1.095  0.2904E-01  0.9304E-02
     -1.084  0.2975E-01  0.9642E-02
     -1.073  0.3067E-01  0.9990E-02
     -1.061  0.3178E-01  0.1035E-01
     -1.050  0.3307E-01  0.1073E-01
     -1.039  0.3452E-01  0.1112E-01
     -1.027  0.3612E-01  0.1153E-01
     -1.016  0.3782E-01  0.1196E-01
     -1.005  0.3961E-01  0.1241E-01
     -0.993  0.4142E-01  0.1288E-01
     -0.982  0.4324E-01  0.1337E-01
     -0.971  0.4501E-01  0.1388E-01
     -0.959  0.4670E-01  0.1441E-01
     -0.948  0.4826E-01  0.1496E-01
     -0.937  0.4967E-01  0.1552E-01
     -0.925  0.5089E-01  0.1610E-01
     -0.914  0.5189E-01  0.1669E-01
     -0.902  0.5266E-01  0.1728E-01
     -0.891  0.5317E-01  0.1789E-01
     -0.880  0.5343E-01  0.1849E-01
     -0.868  0.5342E-01  0.1910E-01
     -0.857  0.5316E-01  0.1970E-01
     -0.846  0.5264E-01  0.2030E-01
     -0.834  0.5188E-01  0.2089E-01
     -0.823  0.5091E-01  0.2147E-01
     -0.812  0.4976E-01  0.2203E-01
     -0.800  0.4844E-01  0.2258E-01
     -0.789  0.4702E-01  0.2311E-01
     -0.778  0.4551E-01  0.2363E-01
     -0.766  0.4398E-01  0.2413E-01
     -0.755  0.4247E-01  0.2461E-01
     -0.744  0.4102E-01  0.2508E-01
     -0.732  0.3970E-01  0.2553E-01
     -0.721  0.3855E-01  0.2597E-01
     -0.710  0.3762E-01  0.2639E-01
     -0.698  0.3696E-01  0.2681E-01
     -0.687  0.3659E-01  0.2723E-01
     -0.676  0.3656E-01  0.2764E-01
     -0.664  0.3689E-01  0.2806E-01
     -0.653  0.3759E-01  0.2849E-01
     -0.641  0.3867E-01  0.2893E-01
     -0.630  0.4011E-01  0.2938E-01
     -0.619  0.4191E-01  0.2986E-01
     -0.607  0.4404E-01  0.3036E-01
     -0.596  0.4645E-01  0.3088E-01
     -0.585  0.4911E-01  0.3144E-01
     -0.573  0.5196E-01  0.3203E-01
     -0.562  0.5495E-01  0.3265E-01
     -0.551  0.5801E-01  0.3331E-01
     -0.539  0.6110E-01  0.3401E-01
     -0.528  0.6414E-01  0.3473E-01
     -0.517  0.6708E-01  0.3549E-01
     -0.505  0.6987E-01  0.3629E-01
     -0.494  0.7246E-01  0.3711E-01
     -0.483  0.7482E-01  0.3796E-01
     -0.471  0.7689E-01  0.3883E-01
     -0.460  0.7867E-01  0.3972E-01
     -0.449  0.8012E-01  0.4063E-01
     -0.437  0.8123E-01  0.4156E-01
     -0.426  0.8200E-01  0.4249E-01
     -0.415  0.8242E-01  0.4342E-01
     -0.403  0.8249E-01  0.4436E-01
     -0.392  0.8222E-01  0.4529E-01
     -0.380  0.8162E-01  0.4622E-01
     -0.369  0.8070E-01  0.4713E-01
     -0.358  0.7948E-01  0.4803E-01
     -0.346  0.7797E-01  0.4892E-01
     -0.335  0.7621E-01  0.4978E-01
     -0.324  0.7422E-01  0.5063E-01
     -0.312  0.7202E-01  0.5144E-01
     -0.301  0.6967E-01  0.5223E-01
     -0.290  0.6719E-01  0.5300E-01
     -0.278  0.6463E-01  0.5373E-01
     -0.267  0.6204E-01  0.5443E-01
     -0.256  0.5948E-01  0.5511E-01
     -0.244  0.5699E-01  0.5576E-01
     -0.233  0.5463E-01  0.5638E-01
     -0.222  0.5246E-01  0.5697E-01
     -0.210  0.5054E-01  0.5755E-01
     -0.199  0.4893E-01  0.5810E-01
     -0.188  0.4766E-01  0.5864E-01
     -0.176  0.4680E-01  0.5917E-01
     -0.165  0.4637E-01  0.5970E-01
     -0.153  0.4641E-01  0.6023E-01
     -0.142  0.4694E-01  0.6076E-01
     -0.131  0.4798E-01  0.6130E-01
     -0.119  0.4952E-01  0.6186E-01
     -0.108  0.5155E-01  0.6245E-01
     -0.097  0.5405E-01  0.6306E-01
     -0.085  0.5700E-01  0.6371E-01
     -0.074  0.6033E-01  0.6439E-01
     -0.063  0.6401E-01  0.6512E-01
     -0.051  0.6796E-01  0.6589E-01
     -0.040  0.7211E-01  0.6671E-01
     -0.029  0.7638E-01  0.6758E-01
     -0.017  0.8069E-01  0.6849E-01
     -0.006  0.8496E-01  0.6946E-01
      0.005  0.8910E-01  0.7047E-01
      0.017  0.9302E-01  0.7152E-01
      0.028  0.9666E-01  0.7262E-01
      0.039  0.9995E-01  0.7375E-01
      0.051  0.1028E+00  0.7492E-01
      0.062  0.1052E+00  0.7612E-01
      0.073  0.1072E+00  0.7733E-01
      0.085  0.1086E+00  0.7856E-01
      0.096  0.1096E+00  0.7981E-01
      0.108  0.1100E+00  0.8106E-01
      0.119  0.1101E+00  0.8231E-01
      0.130  0.1097E+00  0.8355E-01
      0.142  0.1090E+00  0.8479E-01
      0.153  0.1079E+00  0.8601E-01
      0.164  0.1067E+00  0.8722E-01
      0.176  0.1054E+00  0.8842E-01
      0.187  0.1039E+00  0.8960E-01
      0.198  0.1025E+00  0.9076E-01
      0.210  0.1011E+00  0.9191E-01
      0.221  0.9970E-01  0.9304E-01
      0.232  0.9846E-01  0.9416E-01
      0.244  0.9732E-01  0.9526E-01
      0.255  0.9630E-01  0.9635E-01
      0.266  0.9539E-01  0.9744E-01
      0.278  0.9454E-01  0.9851E-01
      0.289  0.9375E-01  0.9957E-01
      0.300  0.9295E-01  0.1006E+00
      0.312  0.9212E-01  0.1017E+00
      0.323  0.9122E-01  0.1027E+00
      0.334  0.9019E-01  0.1037E+00
      0.346  0.8903E-01  0.1047E+00
      0.357  0.8771E-01  0.1057E+00
      0.369  0.8623E-01  0.1067E+00
      0.380  0.8460E-01  0.1077E+00
      0.391  0.8283E-01  0.1086E+00
      0.403  0.8098E-01  0.1095E+00
      0.414  0.7909E-01  0.1104E+00
      0.425  0.7723E-01  0.1113E+00
      0.437  0.7547E-01  0.1122E+00
      0.448  0.7390E-01  0.1130E+00
      0.459  0.7258E-01  0.1138E+00
      0.471  0.7162E-01  0.1146E+00
      0.482  0.7107E-01  0.1154E+00
      0.493  0.7102E-01  0.1163E+00
      0.505  0.7153E-01  0.1171E+00
      0.516  0.7263E-01  0.1179E+00
      0.527  0.7435E-01  0.1187E+00
      0.539  0.7672E-01  0.1196E+00
      0.550  0.7973E-01  0.1205E+00
      0.561  0.8335E-01  0.1215E+00
      0.573  0.8754E-01  0.1224E+00
      0.584  0.9224E-01  0.1235E+00
      0.595  0.9739E-01  0.1246E+00
      0.607  0.1029E+00  0.1258E+00
      0.618  0.1086E+00  0.1270E+00
      0.630  0.1145E+00  0.1283E+00
      0.641  0.1205E+00  0.1297E+00
      0.652  0.1263E+00  0.1311E+00
      0.664  0.1320E+00  0.1326E+00
      0.675  0.1374E+00  0.1342E+00
      0.686  0.1423E+00  0.1358E+00
      0.698  0.1468E+00  0.1374E+00
      0.709  0.1506E+00  0.1391E+00
      0.720  0.1539E+00  0.1409E+00
      0.732  0.1564E+00  0.1427E+00
      0.743  0.1582E+00  0.1445E+00
      0.754  0.1592E+00  0.1463E+00
      0.766  0.1596E+00  0.1481E+00
      0.777  0.1592E+00  0.1499E+00
      0.788  0.1582E+00  0.1517E+00
      0.800  0.1566E+00  0.1535E+00
      0.811  0.1544E+00  0.1552E+00
      0.822  0.1519E+00  0.1569E+00
      0.834  0.1490E+00  0.1586E+00
      0.845  0.1460E+00  0.1603E+00
      0.857  0.1428E+00  0.1619E+00
      0.868  0.1397E+00  0.1635E+00
      0.879  0.1366E+00  0.1650E+00
      0.891  0.1338E+00  0.1666E+00
      0.902  0.1312E+00  0.1680E+00
      0.913  0.1289E+00  0.1695E+00
      0.925  0.1270E+00  0.1710E+00
      0.936  0.1255E+00  0.1724E+00
      0.947  0.1243E+00  0.1738E+00
      0.959  0.1236E+00  0.1752E+00
      0.970  0.1231E+00  0.1766E+00
      0.981  0.1229E+00  0.1780E+00
      0.993  0.1230E+00  0.1794E+00
      1.004  0.1232E+00  0.1808E+00
      1.015  0.1235E+00  0.1822E+00
      1.027  0.1238E+00  0.1836E+00
      1.038  0.1241E+00  0.1850E+00
      1.049  0.1242E+00  0.1864E+00
      1.061  0.1242E+00  0.1878E+00
      1.072  0.1241E+00  0.1892E+00
      1.083  0.1237E+00  0.1906E+00
      1.095  0.1231E+00  0.1920E+00
      1.106  0.1224E+00  0.1934E+00
      1.118  0.1215E+00  0.1948E+00
      1.129  0.1206E+00  0.1962E+00
      1.140  0.1196E+00  0.1975E+00
      1.152  0.1188E+00  0.1989E+00
      1.163  0.1181E+00  0.2002E+00
      1.174  0.1176E+00  0.2015E+00
      1.186  0.1176E+00  0.2029E+00
      1.197  0.1180E+00  0.2042E+00
      1.208  0.1189E+00  0.2056E+00
      1.220  0.1205E+00  0.2069E+00
      1.231  0.1229E+00  0.2083E+00
      1.242  0.1260E+00  0.2097E+00
      1.254  0.1300E+00  0.2112E+00
      1.265  0.1347E+00  0.2128E+00
      1.276  0.1403E+00  0.2143E+00
      1.288  0.1467E+00  0.2160E+00
      1.299  0.1539E+00  0.2178E+00
      1.310  0.1617E+00  0.2196E+00
      1.322  0.1700E+00  0.2215E+00
      1.333  0.1787E+00  0.2235E+00
      1.344  0.1877E+00  0.2257E+00
      1.356  0.1968E+00  0.2279E+00
      1.367  0.2057E+00  0.2302E+00
      1.379  0.2144E+00  0.2327E+00
      1.390  0.2226E+00  0.2352E+00
      1.401  0.2301E+00  0.2378E+00
      1.413  0.2369E+00  0.2405E+00
      1.424  0.2427E+00  0.2433E+00
      1.435  0.2475E+00  0.2461E+00
      1.447  0.2512E+00  0.2489E+00
      1.458  0.2537E+00  0.2518E+00
      1.469  0.2550E+00  0.2547E+00
      1.481  0.2553E+00  0.2576E+00
      1.492  0.2544E+00  0.2605E+00
      1.503  0.2527E+00  0.2633E+00
      1.515  0.2501E+00  0.2662E+00
      1.526  0.2469E+00  0.2690E+00
      1.537  0.2432E+00  0.2717E+00
      1.549  0.2393E+00  0.2745E+00
      1.560  0.2354E+00  0.2771E+00
      1.571  0.2317E+00  0.2798E+00
      1.583  0.2284E+00  0.2824E+00
      1.594  0.2256E+00  0.2849E+00
      1.605  0.2238E+00  0.2875E+00
      1.617  0.2229E+00  0.2900E+00
      1.628  0.2232E+00  0.2925E+00
      1.640  0.2247E+00  0.2951E+00
      1.651  0.2277E+00  0.2976E+00
      1.662  0.2323E+00  0.3003E+00
      1.674  0.2384E+00  0.3030E+00
      1.685  0.2462E+00  0.3058E+00
      1.696  0.2556E+00  0.3087E+00
      1.708  0.2668E+00  0.3117E+00
      1.719  0.2796E+00  0.3149E+00
      1.730  0.2940E+00  0.3182E+00
      1.742  0.3099E+00  0.3217E+00
      1.753  0.3274E+00  0.3255E+00
      1.764  0.3461E+00  0.3294E+00
      1.776  0.3661E+00  0.3335E+00
      1.787  0.3871E+00  0.3379E+00
      1.798  0.4089E+00  0.3426E+00
      1.810  0.4314E+00  0.3475E+00
      1.821  0.4544E+00  0.3526E+00
      1.832  0.4774E+00  0.3580E+00
      1.844  0.5005E+00  0.3637E+00
      1.855  0.5231E+00  0.3697E+00
      1.867  0.5451E+00  0.3758E+00
      1.878  0.5663E+00  0.3823E+00
      1.889  0.5863E+00  0.3889E+00
      1.901  0.6049E+00  0.3958E+00
      1.912  0.6219E+00  0.4028E+00
      1.923  0.6371E+00  0.4101E+00
      1.935  0.6503E+00  0.4175E+00
      1.946  0.6615E+00  0.4250E+00
      1.957  0.6705E+00  0.4326E+00
      1.969  0.6773E+00  0.4403E+00
      1.980  0.6819E+00  0.4480E+00
      1.991  0.6845E+00  0.4558E+00
      2.003  0.6851E+00  0.4635E+00
      2.014  0.6839E+00  0.4713E+00
      2.025  0.6812E+00  0.4790E+00
      2.037  0.6772E+00  0.4867E+00
      2.048  0.6721E+00  0.4943E+00
      2.059  0.6663E+00  0.5019E+00
      2.071  0.6602E+00  0.5094E+00
      2.082  0.6540E+00  0.5168E+00
      2.093  0.6481E+00  0.5242E+00
      2.105  0.6427E+00  0.5315E+00
      2.116  0.6382E+00  0.5387E+00
      2.128  0.6348E+00  0.5459E+00
      2.139  0.6326E+00  0.5531E+00
      2.150  0.6318E+00  0.5603E+00
      2.162  0.6325E+00  0.5674E+00
      2.173  0.6347E+00  0.5746E+00
      2.184  0.6384E+00  0.5819E+00
      2.196  0.6434E+00  0.5892E+00
      2.207  0.6497E+00  0.5966E+00
      2.218  0.6570E+00  0.6040E+00
      2.230  0.6651E+00  0.6116E+00
      2.241  0.6736E+00  0.6192E+00
      2.252  0.6825E+00  0.6270E+00
      2.264  0.6913E+00  0.6348E+00
      2.275  0.6997E+00  0.6427E+00
      2.286  0.7075E+00  0.6508E+00
      2.298  0.7145E+00  0.6589E+00
      2.309  0.7203E+00  0.6671E+00
      2.320  0.7249E+00  0.6753E+00
      2.332  0.7281E+00  0.6835E+00
      2.343  0.7298E+00  0.6918E+00
      2.354  0.7299E+00  0.7001E+00
      2.366  0.7286E+00  0.7084E+00
      2.377  0.7259E+00  0.7166E+00
      2.389  0.7220E+00  0.7248E+00
      2.400  0.7170E+00  0.7329E+00
      2.411  0.7113E+00  0.7410E+00
      2.423  0.7051E+00  0.7490E+00
      2.434  0.6987E+00  0.7569E+00
      2.445  0.6925E+00  0.7648E+00
      2.457  0.6868E+00  0.7726E+00
      2.468  0.6820E+00  0.7803E+00
      2.479  0.6785E+00  0.7880E+00
      2.491  0.6765E+00  0.7957E+00
      2.502  0.6764E+00  0.8034E+00
      2.513  0.6783E+00  0.8111E+00
      2.525  0.6824E+00  0.8188E+00
      2.536  0.6888E+00  0.8266E+00
      2.547  0.6975E+00  0.8346E+00
      2.559  0.7084E+00  0.8426E+00
      2.570  0.7213E+00  0.8508E+00
      2.581  0.7361E+00  0.8591E+00
      2.593  0.7523E+00  0.8677E+00
      2.604  0.7697E+00  0.8764E+00
      2.615  0.7878E+00  0.8854E+00
      2.627  0.8061E+00  0.8945E+00
      2.638  0.8242E+00  0.9039E+00
      2.650  0.8416E+00  0.9134E+00
      2.661  0.8579E+00  0.9231E+00
      2.672  0.8726E+00  0.9330E+00
      2.684  0.8854E+00  0.9431E+00
      2.695  0.8959E+00  0.9533E+00
      2.706  0.9040E+00  0.9635E+00
      2.718  0.9093E+00  0.9738E+00
      2.729  0.9119E+00  0.9842E+00
      2.740  0.9118E+00  0.9945E+00
      2.752  0.9090E+00  0.1005E+01
      2.763  0.9037E+00  0.1015E+01
      2.774  0.8962E+00  0.1025E+01
      2.786  0.8867E+00  0.1035E+01
      2.797  0.8755E+00  0.1045E+01
      2.808  0.8632E+00  0.1055E+01
      2.820  0.8500E+00  0.1065E+01
      2.831  0.8366E+00  0.1074E+01
      2.842  0.8232E+00  0.1084E+01
      2.854  0.8104E+00  0.1093E+01
      2.865  0.7987E+00  0.1102E+01
      2.877  0.7884E+00  0.1111E+01
      2.888  0.7799E+00  0.1120E+01
      2.899  0.7736E+00  0.1128E+01
      2.911  0.7698E+00  0.1137E+01
      2.922  0.7688E+00  0.1146E+01
      2.933  0.7706E+00  0.1155E+01
      2.945  0.7755E+00  0.1163E+01
      2.956  0.7835E+00  0.1172E+01
      2.967  0.7945E+00  0.1181E+01
      2.979  0.8084E+00  0.1190E+01
      2.990  0.8251E+00  0.1200E+01
      3.001  0.8444E+00  0.1209E+01
      3.013  0.8659E+00  0.1219E+01
      3.024  0.8894E+00  0.1229E+01
      3.035  0.9143E+00  0.1240E+01
      3.047  0.9403E+00  0.1250E+01
      3.058  0.9669E+00  0.1261E+01
      3.069  0.9937E+00  0.1273E+01
      3.081  0.1020E+01  0.1284E+01
      3.092  0.1046E+01  0.1296E+01
      3.103  0.1070E+01  0.1308E+01
      3.115  0.1093E+01  0.1321E+01
      3.126  0.1113E+01  0.1333E+01
      3.138  0.1132E+01  0.1346E+01
      3.149  0.1147E+01  0.1359E+01
      3.160  0.1160E+01  0.1372E+01
      3.172  0.1169E+01  0.1386E+01
      3.183  0.1175E+01  0.1399E+01
      3.194  0.1178E+01  0.1412E+01
      3.206  0.1178E+01  0.1426E+01
      3.217  0.1174E+01  0.1439E+01
      3.228  0.1168E+01  0.1452E+01
      3.240  0.1158E+01  0.1465E+01
      3.251  0.1146E+01  0.1478E+01
      3.262  0.1132E+01  0.1491E+01
      3.274  0.1117E+01  0.1504E+01
      3.285  0.1099E+01  0.1516E+01
      3.296  0.1081E+01  0.1529E+01
      3.308  0.1063E+01  0.1541E+01
      3.319  0.1045E+01  0.1553E+01
      3.330  0.1027E+01  0.1564E+01
      3.342  0.1010E+01  0.1576E+01
      3.353  0.9954E+00  0.1587E+01
      3.364  0.9825E+00  0.1598E+01
      3.376  0.9722E+00  0.1609E+01
      3.387  0.9645E+00  0.1620E+01
      3.399  0.9600E+00  0.1631E+01
      3.410  0.9585E+00  0.1642E+01
      3.421  0.9603E+00  0.1653E+01
      3.433  0.9652E+00  0.1664E+01
      3.444  0.9731E+00  0.1675E+01
      3.455  0.9836E+00  0.1686E+01
      3.467  0.9962E+00  0.1697E+01
      3.478  0.1011E+01  0.1709E+01
      3.489  0.1026E+01  0.1720E+01
      3.501  0.1042E+01  0.1732E+01
      3.512  0.1058E+01  0.1744E+01
      3.523  0.1072E+01  0.1756E+01
      3.535  0.1085E+01  0.1769E+01
      3.546  0.1096E+01  0.1781E+01
      3.557  0.1103E+01  0.1794E+01
      3.569  0.1108E+01  0.1806E+01
      3.580  0.1108E+01  0.1819E+01
      3.591  0.1104E+01  0.1831E+01
      3.603  0.1095E+01  0.1844E+01
      3.614  0.1082E+01  0.1856E+01
      3.625  0.1065E+01  0.1868E+01
      3.637  0.1043E+01  0.1880E+01
      3.648  0.1017E+01  0.1891E+01
      3.660  0.9882E+00  0.1903E+01
      3.671  0.9560E+00  0.1913E+01
      3.682  0.9214E+00  0.1924E+01
      3.694  0.8849E+00  0.1934E+01
      3.705  0.8472E+00  0.1944E+01
      3.716  0.8088E+00  0.1953E+01
      3.728  0.7705E+00  0.1962E+01
      3.739  0.7327E+00  0.1970E+01
      3.750  0.6962E+00  0.1978E+01
      3.762  0.6612E+00  0.1985E+01
      3.773  0.6283E+00  0.1992E+01
      3.784  0.5979E+00  0.1999E+01
      3.796  0.5702E+00  0.2006E+01
      3.807  0.5454E+00  0.2012E+01
      3.818  0.5237E+00  0.2018E+01
      3.830  0.5051E+00  0.2023E+01
      3.841  0.4896E+00  0.2029E+01
      3.852  0.4771E+00  0.2034E+01
      3.864  0.4675E+00  0.2040E+01
      3.875  0.4605E+00  0.2045E+01
      3.887  0.4558E+00  0.2050E+01
      3.898  0.4532E+00  0.2055E+01
      3.909  0.4523E+00  0.2060E+01
      3.921  0.4526E+00  0.2066E+01
      3.932  0.4538E+00  0.2071E+01
      3.943  0.4554E+00  0.2076E+01
      3.955  0.4571E+00  0.2081E+01
      3.966  0.4583E+00  0.2086E+01
      3.977  0.4589E+00  0.2091E+01
      3.989  0.4584E+00  0.2097E+01
      4.000  0.4566E+00  0.2102E+01
      4.011  0.4533E+00  0.2107E+01
      4.023  0.4483E+00  0.2112E+01
      4.034  0.4417E+00  0.2117E+01
      4.045  0.4333E+00  0.2122E+01
      4.057  0.4233E+00  0.2127E+01
      4.068  0.4119E+00  0.2132E+01
      4.079  0.3992E+00  0.2136E+01
      4.091  0.3856E+00  0.2140E+01
      4.102  0.3713E+00  0.2145E+01
      4.113  0.3566E+00  0.2149E+01
      4.125  0.3420E+00  0.2153E+01
      4.136  0.3277E+00  0.2156E+01
      4.148  0.3142E+00  0.2160E+01
      4.159  0.3018E+00  0.2163E+01
      4.170  0.2908E+00  0.2167E+01
      4.182  0.2814E+00  0.2170E+01
      4.193  0.2740E+00  0.2173E+01
      4.204  0.2687E+00  0.2176E+01
      4.216  0.2658E+00  0.2179E+01
      4.227  0.2654E+00  0.2182E+01
      4.238  0.2676E+00  0.2185E+01
      4.250  0.2725E+00  0.2188E+01
      4.261  0.2802E+00  0.2191E+01
      4.272  0.2907E+00  0.2195E+01
      4.284  0.3041E+00  0.2198E+01
      4.295  0.3203E+00  0.2202E+01
      4.306  0.3396E+00  0.2205E+01
      4.318  0.3617E+00  0.2210E+01
      4.329  0.3868E+00  0.2214E+01
      4.340  0.4147E+00  0.2219E+01
      4.352  0.4456E+00  0.2224E+01
      4.363  0.4792E+00  0.2229E+01
      4.374  0.5156E+00  0.2235E+01
      4.386  0.5546E+00  0.2241E+01
      4.397  0.5961E+00  0.2248E+01
      4.409  0.6399E+00  0.2255E+01
      4.420  0.6857E+00  0.2263E+01
      4.431  0.7333E+00  0.2271E+01
      4.443  0.7824E+00  0.2280E+01
      4.454  0.8326E+00  0.2290E+01
      4.465  0.8836E+00  0.2300E+01
      4.477  0.9350E+00  0.2310E+01
      4.488  0.9862E+00  0.2322E+01
      4.499  0.1037E+01  0.2333E+01
      4.511  0.1087E+01  0.2346E+01
      4.522  0.1136E+01  0.2359E+01
      4.533  0.1183E+01  0.2372E+01
      4.545  0.1228E+01  0.2386E+01
      4.556  0.1271E+01  0.2400E+01
      4.567  0.1312E+01  0.2415E+01
      4.579  0.1350E+01  0.2431E+01
      4.590  0.1386E+01  0.2446E+01
      4.601  0.1420E+01  0.2462E+01
      4.613  0.1452E+01  0.2479E+01
      4.624  0.1481E+01  0.2496E+01
      4.635  0.1509E+01  0.2513E+01
      4.647  0.1536E+01  0.2530E+01
      4.658  0.1562E+01  0.2548E+01
      4.670  0.1587E+01  0.2566E+01
      4.681  0.1612E+01  0.2584E+01
      4.692  0.1637E+01  0.2603E+01
      4.704  0.1662E+01  0.2622E+01
      4.715  0.1688E+01  0.2641E+01
      4.726  0.1714E+01  0.2660E+01
      4.738  0.1741E+01  0.2680E+01
      4.749  0.1768E+01  0.2700E+01
      4.760  0.1795E+01  0.2721E+01
      4.772  0.1822E+01  0.2741E+01
      4.783  0.1849E+01  0.2762E+01
      4.794  0.1874E+01  0.2783E+01
      4.806  0.1898E+01  0.2805E+01
      4.817  0.1920E+01  0.2827E+01
      4.828  0.1939E+01  0.2849E+01
      4.840  0.1954E+01  0.2871E+01
      4.851  0.1966E+01  0.2893E+01
      4.862  0.1973E+01  0.2916E+01
      4.874  0.1975E+01  0.2938E+01
      4.885  0.1972E+01  0.2960E+01
      4.897  0.1963E+01  0.2983E+01
      4.908  0.1949E+01  0.3005E+01
      4.919  0.1930E+01  0.3027E+01
      4.931  0.1905E+01  0.3048E+01
      4.942  0.1876E+01  0.3070E+01
      4.953  0.1842E+01  0.3091E+01
      4.965  0.1804E+01  0.3111E+01
      4.976  0.1763E+01  0.3131E+01
      4.987  0.1720E+01  0.3151E+01
      4.999  0.1675E+01  0.3170E+01
      5.010  0.1629E+01  0.3188E+01
      5.021  0.1583E+01  0.3206E+01
      5.033  0.1537E+01  0.3223E+01
      5.044  0.1492E+01  0.3240E+01
      5.055  0.1448E+01  0.3257E+01
      5.067  0.1407E+01  0.3273E+01
      5.078  0.1369E+01  0.3288E+01
      5.089  0.1333E+01  0.3303E+01
      5.101  0.1300E+01  0.3318E+01
      5.112  0.1270E+01  0.3333E+01
      5.123  0.1243E+01  0.3347E+01
      5.135  0.1219E+01  0.3361E+01
      5.146  0.1199E+01  0.3374E+01
      5.158  0.1180E+01  0.3388E+01
      5.169  0.1164E+01  0.3401E+01
      5.180  0.1151E+01  0.3414E+01
      5.192  0.1139E+01  0.3427E+01
      5.203  0.1128E+01  0.3440E+01
      5.214  0.1119E+01  0.3452E+01
      5.226  0.1111E+01  0.3465E+01
      5.237  0.1104E+01  0.3477E+01
      5.248  0.1098E+01  0.3490E+01
      5.260  0.1092E+01  0.3502E+01
      5.271  0.1086E+01  0.3515E+01
      5.282  0.1081E+01  0.3527E+01
      5.294  0.1076E+01  0.3539E+01
      5.305  0.1071E+01  0.3551E+01
      5.316  0.1067E+01  0.3563E+01
      5.328  0.1063E+01  0.3575E+01
      5.339  0.1060E+01  0.3587E+01
      5.350  0.1057E+01  0.3599E+01
      5.362  0.1055E+01  0.3611E+01
      5.373  0.1054E+01  0.3623E+01
      5.384  0.1054E+01  0.3635E+01
      5.396  0.1055E+01  0.3647E+01
      5.407  0.1056E+01  0.3659E+01
      5.419  0.1058E+01  0.3671E+01
      5.430  0.1060E+01  0.3683E+01
      5.441  0.1063E+01  0.3695E+01
      5.453  0.1065E+01  0.3707E+01
      5.464  0.1068E+01  0.3720E+01
      5.475  0.1070E+01  0.3732E+01
      5.487  0.1071E+01  0.3744E+01
      5.498  0.1071E+01  0.3756E+01
      5.509  0.1070E+01  0.3768E+01
      5.521  0.1068E+01  0.3780E+01
      5.532  0.1064E+01  0.3792E+01
      5.543  0.1058E+01  0.3804E+01
      5.555  0.1050E+01  0.3816E+01
      5.566  0.1041E+01  0.3828E+01
      5.577  0.1030E+01  0.3840E+01
      5.589  0.1017E+01  0.3851E+01
      5.600  0.1003E+01  0.3863E+01
      5.611  0.9875E+00  0.3874E+01
      5.623  0.9715E+00  0.3885E+01
      5.634  0.9551E+00  0.3896E+01
      5.645  0.9386E+00  0.3906E+01
      5.657  0.9224E+00  0.3917E+01
      5.668  0.9068E+00  0.3927E+01
      5.680  0.8923E+00  0.3937E+01
      5.691  0.8791E+00  0.3947E+01
      5.702  0.8677E+00  0.3957E+01
      5.714  0.8582E+00  0.3967E+01
      5.725  0.8509E+00  0.3976E+01
      5.736  0.8461E+00  0.3986E+01
      5.748  0.8440E+00  0.3996E+01
      5.759  0.8446E+00  0.4005E+01
      5.770  0.8483E+00  0.4015E+01
      5.782  0.8551E+00  0.4025E+01
      5.793  0.8651E+00  0.4034E+01
      5.804  0.8785E+00  0.4044E+01
      5.816  0.8952E+00  0.4055E+01
      5.827  0.9154E+00  0.4065E+01
      5.838  0.9391E+00  0.4076E+01
      5.850  0.9663E+00  0.4087E+01
      5.861  0.9970E+00  0.4098E+01
      5.872  0.1031E+01  0.4110E+01
      5.884  0.1068E+01  0.4122E+01
      5.895  0.1109E+01  0.4134E+01
      5.907  0.1152E+01  0.4147E+01