    1    1    1    1
  0.1529104E+02  0.2708235E-09  0.2708235E-09  0.2708235E-09  0.5000000E-15
  1.000000000000000E-004
  CAR 
 BCC W                                   
      6    250      8
 
  0.2500000E-01  0.2500000E-01  0.2500000E-01  0.1000000E-02
    1       -1.332889   1.000000
    2        6.796210   1.000000
    3        6.796210   1.000000
    4        7.107325   1.000000
    5       10.425801  -0.000000
    6       10.425801  -0.000000
    7       23.721312   0.000000
    8       24.026317   0.000000
 
  0.7500000E-01  0.2500000E-01  0.2500000E-01  0.3000000E-02
    1       -0.974404   1.000000
    2        6.573929   1.000000
    3        6.708138   1.000000
    4        7.503748   1.000002
    5       10.141931  -0.000000
    6       10.462953  -0.000000
    7       23.990970   0.000000
    8       24.637605   0.000000
 
  0.1250000E+00  0.2500000E-01  0.2500000E-01  0.3000000E-02
    1       -0.414366   1.000000
    2        6.251126   1.000000
    3        6.550848   1.000000
    4        8.121471   0.884963
    5        9.885924  -0.000000
    6       10.521148  -0.000000
    7       24.348403   0.000000
    8       25.517842   0.000000
 
  0.1750000E+00  0.2500000E-01  0.2500000E-01  0.3000000E-02
    1        0.279666   1.000000
    2        5.877888   1.000000
    3        6.338239   1.000000
    4        8.947530  -0.000002
    5        9.801623  -0.000000
    6       10.608190  -0.000000
    7       24.410002   0.000000
    8       26.273170   0.000000
 
  0.2250000E+00  0.2500000E-01  0.2500000E-01  0.3000000E-02
    1        0.987851   1.000000
    2        5.498042   1.000000
    3        6.203926   1.000000
    4        9.840721  -0.000000
    5       10.022051  -0.000000
    6       10.732181  -0.000000
    7       23.870563   0.000000
    8       25.579549   0.000000
 
  0.2750000E+00  0.2500000E-01  0.2500000E-01  0.3000000E-02
    1        1.537384   1.000000
    2        5.148391   1.000000
    3        6.362157   1.000000
    4       10.105084  -0.000000
    5       10.895874  -0.000000
    6       11.137845  -0.000000
    7       22.937913   0.000000
    8       24.151234   0.000000
 
  0.3250000E+00  0.2500000E-01  0.2500000E-01  0.3000000E-02
    1        1.807117   1.000000
    2        4.854930   1.000000
    3        6.934367   1.000000
    4       10.351020  -0.000000
    5       11.085426  -0.000000
    6       12.364491  -0.000000
    7       21.955206   0.000000
    8       22.571338   0.000000
 
  0.3750000E+00  0.2500000E-01  0.2500000E-01  0.3000000E-02
    1        1.856258   1.000000
    2        4.632883   1.000000
    3        7.799128   1.004965
    4       10.517509  -0.000000
    5       11.263749  -0.000000
    6       13.535196  -0.000000
    7       21.128447   0.000000
    8       21.150419   0.000000
 
  0.4250000E+00  0.2500000E-01  0.2500000E-01  0.3000000E-02
    1        1.824837   1.000000
    2        4.495505   1.000000
    3        8.657410  -0.004747
    4       10.524795  -0.000000
    5       11.403342  -0.000000
    6       14.443089   0.000000
    7       20.135200   0.000000
    8       20.581855   0.000000
 
  0.4750000E+00  0.2500000E-01  0.2500000E-01  0.1500000E-02
    1        1.804883   1.000000
    2        4.449025   1.000000
    3        9.067359  -0.000000
    4       10.455263  -0.000000
    5       11.454479  -0.000000
    6       14.799101   0.000000
    7       19.757280   0.000000
    8       20.390330   0.000000
 
 -0.2500000E-01  0.2500000E-01  0.2500000E-01  0.7500000E-03
    1       -1.455859   1.000000
    2        6.875944   1.000000
    3        6.876090   1.000000
    4        6.911801   1.000000
    5       10.412218  -0.000000
    6       10.547109  -0.000000
    7       23.715103   0.000000
    8       23.716945   0.000000
 
  0.7500000E-01  0.7500000E-01  0.2500000E-01  0.3000000E-02
    1       -0.520275   1.000000
    2        6.358606   1.000000
    3        6.455724   1.000000
    4        8.077633   0.975205
    5        9.972305  -0.000000
    6       10.470468  -0.000000
    7       24.301454   0.000000
    8       25.352355   0.000000
 
  0.1250000E+00  0.7500000E-01  0.2500000E-01  0.6000000E-02
    1        0.108281   1.000000
    2        6.020826   1.000000
    3        6.214415   1.000000
    4        8.856472  -0.000040
    5        9.798036  -0.000000
    6       10.596449  -0.000000
    7       24.688144   0.000000
    8       25.859095   0.000000
 
  0.1750000E+00  0.7500000E-01  0.2500000E-01  0.6000000E-02
    1        0.828215   1.000000
    2        5.644778   1.000000
    3        6.003562   1.000000
    4        9.718014  -0.000000
    5        9.888697  -0.000000
    6       10.752148  -0.000000
    7       24.490163   0.000000
    8       25.912532   0.000000
 
  0.2250000E+00  0.7500000E-01  0.2500000E-01  0.6000000E-02
    1        1.493777   1.000000
    2        5.286986   1.000000
    3        5.968896   1.000000
    4        9.909085  -0.000000
    5       10.920726  -0.000000
    6       10.969726  -0.000000
    7       23.602727   0.000000
    8       24.917114   0.000000
 
  0.2750000E+00  0.7500000E-01  0.2500000E-01  0.6000000E-02
    1        1.924712   1.000000
    2        4.976757   1.000000
    3        6.300735   1.000000
    4       10.148544  -0.000000
    5       11.092804  -0.000000
    6       12.190288  -0.000000
    7       22.521615   0.000000
    8       23.414722   0.000000
 
  0.3250000E+00  0.7500000E-01  0.2500000E-01  0.6000000E-02
    1        2.071718   1.000000
    2        4.732597   1.000000
    3        7.017855   1.000000
    4       10.388075  -0.000000
    5       11.260794  -0.000000
    6       13.415309  -0.000000
    7       21.408472   0.000000
    8       22.013448   0.000000
 
  0.3750000E+00  0.7500000E-01  0.2500000E-01  0.6000000E-02
    1        2.062008   1.000000
    2        4.563889   1.000000
    3        7.880058   1.017056
    4       10.507907  -0.000000
    5       11.426997  -0.000000
    6       14.477752   0.000000
    7       20.250821   0.000000
    8       21.160162   0.000000
 
  0.4250000E+00  0.7500000E-01  0.2500000E-01  0.6000000E-02
    1        2.026808   1.000000
    2        4.478479   1.000000
    3        8.519102  -0.029376
    4       10.479907  -0.000000
    5       11.558443  -0.000000
    6       15.132339   0.000000
    7       19.501463   0.000000
    8       20.764950   0.000000
 
 -0.7500000E-01  0.7500000E-01  0.2500000E-01  0.3000000E-02
    1       -1.210852   1.000000
    2        6.737600   1.000000
    3        6.847804   1.000000
    4        7.149593   1.000000
    5       10.141045  -0.000000
    6       10.595969  -0.000000
    7       23.927478   0.000000
    8       24.141454   0.000000
 
  0.1250000E+00  0.1250000E+00  0.2500000E-01  0.3000000E-02
    1        0.776419   1.000000
    2        5.780684   1.000000
    3        5.838483   1.000000
    4        9.699243  -0.000000
    5        9.799469  -0.000000
    6       10.796831  -0.000000
    7       25.207007   0.000000
    8       25.340506   0.000000
 
  0.1750000E+00  0.1250000E+00  0.2500000E-01  0.6000000E-02
    1        1.494216   1.000000
    2        5.437322   1.000000
    3        5.648890   1.000000
    4        9.731678  -0.000000
    5       10.915081  -0.000000
    6       11.005386  -0.000000
    7       24.233907   0.000000
    8       25.401546   0.000000
 
  0.2250000E+00  0.1250000E+00  0.2500000E-01  0.6000000E-02
    1        2.091240   1.000000
    2        5.112538   1.000000
    3        5.728116   1.000000
    4        9.901311  -0.000000
    5       11.179359  -0.000000
    6       12.153668  -0.000000
    7       22.985504   0.000000
    8       24.494153   0.000000
 
  0.2750000E+00  0.1250000E+00  0.2500000E-01  0.6000000E-02
    1        2.397876   1.000000
    2        4.859154   1.000000
    3        6.191496   1.000000
    4       10.151959  -0.000000
    5       11.317625  -0.000000
    6       13.433457  -0.000000
    7       21.690495   0.000000
    8       23.159557   0.000000
 
  0.3250000E+00  0.1250000E+00  0.2500000E-01  0.6000000E-02
    1        2.450881   1.000000
    2        4.678032   1.000000
    3        6.938099   1.000000
    4       10.377314  -0.000000
    5       11.446987  -0.000000
    6       14.632457   0.000000
    7       20.362551   0.000000
    8       22.111864   0.000000
 
  0.3750000E+00  0.1250000E+00  0.2500000E-01  0.6000000E-02
    1        2.413419   1.000000
    2        4.568671   1.000000
    3        7.643750   1.000148
    4       10.455860  -0.000000
    5       11.618221  -0.000000
    6       15.545297   0.000000
    7       19.274593   0.000000
    8       21.498613   0.000000
 
  0.4250000E+00  0.1250000E+00  0.2500000E-01  0.3000000E-02
    1        2.390779   1.000000
    2        4.532124   1.000000
    3        7.945496   1.031489
    4       10.444025  -0.000000
    5       11.718298  -0.000000
    6       15.901652   0.000000
    7       18.843294   0.000000
    8       21.291780   0.000000
 
 -0.1250000E+00  0.1250000E+00  0.2500000E-01  0.3000000E-02
    1       -0.743117   1.000000
    2        6.467188   1.000000
    3        6.748737   1.000000
    4        7.640845   1.000137
    5        9.821243  -0.000000
    6       10.636172  -0.000000
    7       24.257144   0.000000
    8       24.963736   0.000000
 
 -0.7500000E-01  0.1250000E+00  0.2500000E-01  0.3000000E-02
    1       -0.854974   1.000000
    2        6.626492   1.000000
    3        6.736449   1.000000
    4        7.481466   1.000001
    5        9.767298  -0.000000
    6       10.714929  -0.000000
    7       24.272605   0.000000
    8       24.785050   0.000000
 
  0.1750000E+00  0.1750000E+00  0.2500000E-01  0.3000000E-02
    1        2.174517   1.000000
    2        5.209862   1.000000
    3        5.453920   1.000000
    4        9.797204  -0.000000
    5       11.220509  -0.000000
    6       12.153503  -0.000000
    7       23.193283   0.000000
    8       25.202519   0.000000
 
  0.2250000E+00  0.1750000E+00  0.2500000E-01  0.6000000E-02
    1        2.684308   1.000000
    2        4.968407   1.000000
    3        5.603540   1.000000
    4        9.975000  -0.000000
    5       11.360676  -0.000000
    6       13.477930  -0.000000
    7       21.894456   0.000000
    8       24.359586   0.000000
 
  0.2750000E+00  0.1750000E+00  0.2500000E-01  0.6000000E-02
    1        2.888870   1.000000
    2        4.798931   1.000000
    3        6.103874   1.000000
    4       10.223601  -0.000000
    5       11.441939  -0.000000
    6       14.794006   0.000000
    7       20.482530   0.000000
    8       23.219057   0.000000
 
  0.3250000E+00  0.1750000E+00  0.2500000E-01  0.6000000E-02
    1        2.894140   1.000000
    2        4.695415   1.000000
    3        6.742334   1.000000
    4       10.420865  -0.000000
    5       11.550158  -0.000000
    6       15.951679   0.000000
    7       19.153542   0.000000
    8       22.371424   0.000000
 
  0.3750000E+00  0.1750000E+00  0.2500000E-01  0.6000000E-02
    1        2.860373   1.000000
    2        4.645995   1.000000
    3        7.184567   1.000000
    4       10.475999  -0.000000
    5       11.704224  -0.000000
    6       16.691825   0.000000
    7       18.294728   0.000000
    8       21.886674   0.000000
 
 -0.1750000E+00  0.1750000E+00  0.2500000E-01  0.3000000E-02
    1       -0.103300   1.000000
    2        6.117287   1.000000
    3        6.557787   1.000000
    4        8.352602   0.067862
    5        9.629231  -0.000000
    6       10.693906  -0.000000
    7       24.462576   0.000000
    8       26.132777   0.000000
 
 -0.1250000E+00  0.1750000E+00  0.2500000E-01  0.6000000E-02
    1       -0.298949   1.000000
    2        6.344215   1.000000
    3        6.575141   1.000000
    4        8.082698   0.967198
    5        9.448149  -0.000000
    6       10.819908  -0.000000
    7       24.659925   0.000000
    8       25.588757   0.000000
 
  0.2250000E+00  0.2250000E+00  0.2500000E-01  0.3000000E-02
    1        3.113740   1.000000
    2        4.869552   1.000000
    3        5.718542   1.000000
    4       10.152653  -0.000000
    5       11.438971  -0.000000
    6       14.862285   0.000000
    7       20.538194   0.000000
    8       23.957007   0.000000
 
  0.2750000E+00  0.2250000E+00  0.2500000E-01  0.6000000E-02
    1        3.287107   1.000000
    2        4.831253   1.000000
    3        6.067315   1.000000
    4       10.395996  -0.000000
    5       11.462817  -0.000000
    6       16.198288   0.000000
    7       19.125637   0.000000
    8       23.021239   0.000000
 
  0.3250000E+00  0.2250000E+00  0.2500000E-01  0.6000000E-02
    1        3.307195   1.000000
    2        4.823197   1.000000
    3        6.439719   1.000000
    4       10.579526  -0.000000
    5       11.547884  -0.000000
    6       17.289417   0.000000
    7       18.001280   0.000000
    8       22.165576   0.000000
 
  0.3750000E+00  0.2250000E+00  0.2500000E-01  0.3000000E-02
    1        3.300431   1.000000
    2        4.823017   1.000000
    3        6.596924   1.000000
    4       10.632994  -0.000000
    5       11.629443  -0.000000
    6       17.489082   0.000000
    7       17.833979   0.000000
    8       21.777578   0.000000
 
 -0.2250000E+00  0.2250000E+00  0.2500000E-01  0.3000000E-02
    1        0.615533   1.000000
    2        5.738480   1.000000
    3        6.349297   1.000000
    4        9.270662  -0.000000
    5        9.648674  -0.000000
    6       10.786880  -0.000000
    7       24.174239   0.000000
    8       26.080918   0.000000
 
 -0.1750000E+00  0.2250000E+00  0.2500000E-01  0.6000000E-02
    1        0.390871   1.000000
    2        5.983034   1.000000
    3        6.354791   1.000000
    4        8.903874  -0.000009
    5        9.334765  -0.000000
    6       10.937176  -0.000000
    7       24.655667   0.000000
    8       26.118563   0.000000
 
 -0.1250000E+00  0.2250000E+00  0.2500000E-01  0.3000000E-02
    1        0.316131   1.000000
    2        6.162929   1.000000
    3        6.260463   1.000000
    4        8.813268  -0.000136
    5        9.186357  -0.000000
    6       11.006886  -0.000000
    7       25.205811   0.000000
    8       25.551042   0.000000
 
  0.2750000E+00  0.2750000E+00  0.2500000E-01  0.3000000E-02
    1        3.504034   1.000000
    2        4.974152   1.000000
    3        6.052295   1.000000
    4       10.657128  -0.000000
    5       11.440553  -0.000000
    6       17.450881   0.000000
    7       17.994224   0.000000
    8       22.174891   0.000000
 
  0.3250000E+00  0.2750000E+00  0.2500000E-01  0.6000000E-02
    1        3.574526   1.000000
    2        5.121169   1.000000
    3        6.032750   1.000000
    4       10.871308  -0.000000
    5       11.436533  -0.000000
    6       17.037530   0.000000
    7       18.731937   0.000000
    8       21.260957   0.000000
 
 -0.2750000E+00  0.2750000E+00  0.2500000E-01  0.3000000E-02
    1        1.262416   1.000000
    2        5.367504   1.000000
    3        6.319373   1.000000
    4        9.841906  -0.000000
    5       10.357905  -0.000000
    6       10.915576  -0.000000
    7       23.344753   0.000000
    8       24.995773   0.000000
 
 -0.2250000E+00  0.2750000E+00  0.2500000E-01  0.6000000E-02
    1        1.097202   1.000000
    2        5.609136   1.000000
    3        6.186097   1.000000
    4        9.428160  -0.000000
    5        9.935732  -0.000000
    6       11.064397  -0.000000
    7       23.896198   0.000000
    8       25.678099   0.000000
 
 -0.1750000E+00  0.2750000E+00  0.2500000E-01  0.6000000E-02
    1        1.023048   1.000000
    2        5.830146   1.000000
    3        6.019609   1.000000
    4        9.137309  -0.000000
    5        9.767202  -0.000000
    6       11.179925  -0.000000
    7       24.541246   0.000000
    8       25.731335   0.000000
 
  0.3250000E+00  0.3250000E+00  0.2500000E-01  0.1000000E-02
    1        3.657105   1.000000
    2        5.561386   1.000000
    3        5.561455   1.000000
    4       11.196423  -0.000000
    5       11.196480  -0.000000
    6       16.699681   0.000000
    7       20.051345   0.000000
    8       20.051566   0.000000
 
 -0.3250000E+00  0.3250000E+00  0.2500000E-01  0.3000000E-02
    1        1.672384   1.000000
    2        5.039936   1.000000
    3        6.661443   1.000000
    4       10.126190  -0.000000
    5       11.073095  -0.000000
    6       11.564592  -0.000000
    7       22.325738   0.000000
    8       23.519196   0.000000
 
 -0.2750000E+00  0.3250000E+00  0.2500000E-01  0.6000000E-02
    1        1.648998   1.000000
    2        5.262542   1.000000
    3        6.277155   1.000000
    4        9.706341  -0.000000
    5       11.080841  -0.000000
    6       11.211181  -0.000000
    7       22.809811   0.000000
    8       24.530725   0.000000
 
 -0.2250000E+00  0.3250000E+00  0.2500000E-01  0.6000000E-02
    1        1.684404   1.000000
    2        5.462468   1.000000
    3        5.942384   1.000000
    4        9.304976  -0.000000
    5       10.874370  -0.000000
    6       11.344364  -0.000000
    7       23.328339   0.000000
    8       25.424611   0.000000
 
 -0.1750000E+00  0.3250000E+00  0.2500000E-01  0.3000000E-02
    1        1.708186   1.000000
    2        5.542304   1.000000
    3        5.813119   1.000000
    4        9.138278  -0.000000
    5       10.816706  -0.000000
    6       11.400672  -0.000000
    7       23.592708   0.000000
    8       25.785919   0.000000
 
 -0.3750000E+00  0.3750000E+00  0.2500000E-01  0.3000000E-02
    1        1.813526   1.000000
    2        4.775533   1.000000
    3        7.376781   1.000000
    4       10.380717  -0.000000
    5       11.247338  -0.000000
    6       12.788651  -0.000000
    7       21.377678   0.000000
    8       22.057847   0.000000
 
 -0.3250000E+00  0.3750000E+00  0.2500000E-01  0.6000000E-02
    1        1.920784   1.000000
    2        4.971622   1.000000
    3        6.749453   1.000000
    4       10.042594  -0.000000
    5       11.327599  -0.000000
    6       12.335032  -0.000000
    7       21.764764   0.000000
    8       23.103618   0.000000
 
 -0.2750000E+00  0.3750000E+00  0.2500000E-01  0.6000000E-02
    1        2.122989   1.000000
    2        5.160422   1.000000
    3        6.146855   1.000000
    4        9.617439  -0.000000
    5       11.385885  -0.000000
    6       12.179582  -0.000000
    7       22.180496   0.000000
    8       24.279766   0.000000
 
 -0.2250000E+00  0.3750000E+00  0.2500000E-01  0.6000000E-02
    1        2.299273   1.000000
    2        5.223515   1.000000
    3        5.823933   1.000000
    4        9.323154  -0.000000
    5       11.392470  -0.000000
    6       12.174515  -0.000000
    7       22.478366   0.000000
    8       25.338602   0.000000
 
 -0.4250000E+00  0.4250000E+00  0.2500000E-01  0.3000000E-02
    1        1.806541   1.000000
    2        4.591433   1.000000
    3        8.238530   0.451401
    4       10.475370  -0.000000
    5       11.445768  -0.000000
    6       13.871591   0.000000
    7       20.559493   0.000000
    8       20.963046   0.000000
 
 -0.3750000E+00  0.4250000E+00  0.2500000E-01  0.6000000E-02
    1        1.968289   1.000000
    2        4.753448   1.000000
    3        7.482525   1.000001
    4       10.273554  -0.000000
    5       11.538161  -0.000000
    6       13.518054  -0.000000
    7       20.842171   0.000000
    8       21.831081   0.000000
 
 -0.3250000E+00  0.4250000E+00  0.2500000E-01  0.6000000E-02
    1        2.275661   1.000000
    2        4.933636   1.000000
    3        6.673684   1.000000
    4        9.949813  -0.000000
    5       11.528756  -0.000000
    6       13.432922  -0.000000
    7       21.127697   0.000000
    8       22.965464   0.000000
 
 -0.2750000E+00  0.4250000E+00  0.2500000E-01  0.6000000E-02
    1        2.631788   1.000000
    2        5.015276   1.000000
    3        6.074018   1.000000
    4        9.635387  -0.000000
    5       11.473170  -0.000000
    6       13.478500  -0.000000
    7       21.370071   0.000000
    8       24.195986   0.000000
 
 -0.2250000E+00  0.4250000E+00  0.2500000E-01  0.3000000E-02
    1        2.813182   1.000000
    2        4.976263   1.000000
    3        5.889106   1.000000
    4        9.503933  -0.000000
    5       11.450660  -0.000000
    6       13.511663  -0.000000
    7       21.470050   0.000000
    8       24.959932   0.000000
 
 -0.4750000E+00  0.4750000E+00  0.2500000E-01  0.3000000E-02
    1        1.773768   1.000000
    2        4.497198   1.000000
    3        8.903209  -0.000009
    4       10.388713  -0.000000
    5       11.606408  -0.000000
    6       14.549188   0.000000
    7       19.944583   0.000000
    8       20.498494   0.000000
 
 -0.4250000E+00  0.4750000E+00  0.2500000E-01  0.6000000E-02
    1        1.934136   1.000000
    2        4.618830   1.000000
    3        8.189471   0.655834
    4       10.265976  -0.000000
    5       11.834650  -0.000000
    6       14.438810   0.000000
    7       20.038879   0.000000
    8       21.080111   0.000000
 
 -0.3750000E+00  0.4750000E+00  0.2500000E-01  0.6000000E-02
    1        2.264472   1.000000
    2        4.779643   1.000000
    3        7.316574   1.000000
    4       10.094070  -0.000000
    5       11.812797  -0.000000
    6       14.548679   0.000000
    7       20.113777   0.000000
    8       22.011741   0.000000
 
 -0.3250000E+00  0.4750000E+00  0.2500000E-01  0.6000000E-02
    1        2.705064   1.000000
    2        4.893863   1.000000
    3        6.531510   1.000000
    4        9.919473  -0.000000
    5       11.616077  -0.000000
    6       14.764556   0.000000
    7       20.208555   0.000000
    8       23.100427   0.000000
 
 -0.2750000E+00  0.4750000E+00  0.2500000E-01  0.6000000E-02
    1        3.093152   1.000000
    2        4.860997   1.000000
    3        6.083934   1.000000
    4        9.801621  -0.000000
    5       11.458196  -0.000000
    6       14.915416   0.000000
    7       20.287342   0.000000
    8       23.990444   0.000000
 
 -0.4750000E+00 -0.4750000E+00  0.2500000E-01  0.3000000E-02
    1        1.913098   1.000000
    2        4.573060   1.000000
    3        8.510618  -0.031097
    4       10.189162  -0.000000
    5       11.989793  -0.000000
    6       14.800852   0.000000
    7       19.685432   0.000000
    8       20.857481   0.000000
 
 -0.4250000E+00 -0.4750000E+00  0.2500000E-01  0.6000000E-02
    1        2.226537   1.000000
    2        4.701255   1.000000
    3        7.776241   1.003237
    4       10.044109  -0.000000
    5       12.128827  -0.000000
    6       15.251434   0.000000
    7       19.385868   0.000000
    8       21.562745   0.000000
 
 -0.3750000E+00 -0.4750000E+00  0.2500000E-01  0.6000000E-02
    1        2.672757   1.000000
    2        4.825948   1.000000
    3        6.973573   1.000000
    4       10.000935  -0.000000
    5       11.929446  -0.000000
    6       15.803118   0.000000
    7       19.155901   0.000000
    8       22.387693   0.000000
 
 -0.3250000E+00 -0.4750000E+00  0.2500000E-01  0.6000000E-02
    1        3.154084   1.000000
    2        4.862217   1.000000
    3        6.326522   1.000000
    4       10.056946  -0.000000
    5       11.599510  -0.000000
    6       16.224819   0.000000
    7       19.059014   0.000000
    8       22.985646   0.000000
 
 -0.2750000E+00 -0.4750000E+00  0.2500000E-01  0.3000000E-02
    1        3.406992   1.000000
    2        4.818362   1.000000
    3        6.079798   1.000000
    4       10.114095  -0.000000
    5       11.431729  -0.000000
    6       16.377364   0.000000
    7       19.047750   0.000000
    8       23.166384   0.000000
 
 -0.4250000E+00 -0.4250000E+00  0.2500000E-01  0.3000000E-02
    1        2.650262   1.000000
    2        4.803205   1.000000
    3        7.157667   1.000000
    4        9.984676  -0.000000
    5       12.123966  -0.000000
    6       16.233335   0.000000
    7       18.694911   0.000000
    8       22.123204   0.000000
 
 -0.3750000E+00 -0.4250000E+00  0.2500000E-01  0.6000000E-02
    1        3.138904   1.000000
    2        4.886103   1.000000
    3        6.494773   1.000000
    4       10.142136  -0.000000
    5       11.854219  -0.000000
    6       17.158018   0.000000
    7       18.177384   0.000000
    8       22.288907   0.000000
 
 -0.3250000E+00 -0.4250000E+00  0.2500000E-01  0.6000000E-02
    1        3.533447   1.000000
    2        4.919850   1.000000
    3        6.011025   1.000000
    4       10.413044  -0.000000
    5       11.502266  -0.000000
    6       17.555276   0.000000
    7       18.132275   0.000000
    8       22.115478   0.000000
 
 -0.3750000E+00 -0.3750000E+00  0.2500000E-01  0.3000000E-02
    1        3.556497   1.000000
    2        5.000502   1.000000
    3        5.957372   1.000000
    4       10.518306  -0.000000
    5       11.590589  -0.000000
    6       17.424972   0.000000
    7       18.487984   0.000000
    8       21.537245   0.000000
 
 -0.3250000E+00 -0.3750000E+00  0.2500000E-01  0.3000000E-02
    1        3.735656   1.000000
    2        5.148421   1.000000
    3        5.618764   1.000000
    4       10.850107  -0.000000
    5       11.308954  -0.000000
    6       17.153266   0.000000
    7       19.268294   0.000000
    8       20.905030   0.000000
 
  0.7500000E-01  0.7500000E-01  0.7500000E-01  0.1000000E-02
    1        0.011941   1.000000
    2        6.091511   1.000000
    3        6.091511   1.000000
    4        8.861236  -0.000035
    5       10.225555  -0.000000
    6       10.225555  -0.000000
    7       24.637182   0.000000
    8       25.948301   0.000000
 
  0.1250000E+00  0.7500000E-01  0.7500000E-01  0.3000000E-02
    1        0.692133   1.000000
    2        5.707865   1.000000
    3        5.823131   1.000000
    4        9.817335  -0.000000
    5       10.099289  -0.000000
    6       10.472220  -0.000000
    7       25.006266   0.000000
    8       26.029174   0.000000
 
  0.1750000E+00  0.7500000E-01  0.7500000E-01  0.3000000E-02
    1        1.420773   1.000000
    2        5.344668   1.000000
    3        5.643711   1.000000
    4       10.108440  -0.000000
    5       10.707241  -0.000000
    6       10.952543  -0.000000
    7       24.452640   0.000000
    8       25.448684   0.000000
 
  0.2250000E+00  0.7500000E-01  0.7500000E-01  0.3000000E-02
    1        2.019855   1.000000
    2        5.028296   1.000000
    3        5.739251   1.000000
    4       10.251409  -0.000000
    5       10.932019  -0.000000
    6       12.180682  -0.000000
    7       23.442325   0.000000
    8       23.919962   0.000000
 
  0.2750000E+00  0.7500000E-01  0.7500000E-01  0.3000000E-02
    1        2.319085   1.000000
    2        4.770919   1.000000
    3        6.268067   1.000000
    4       10.445030  -0.000000
    5       11.138536  -0.000000
    6       13.439081  -0.000000
    7       22.135518   0.000000
    8       22.446156   0.000000
 
  0.3250000E+00  0.7500000E-01  0.7500000E-01  0.3000000E-02
    1        2.366151   1.000000
    2        4.581903   1.000000
    3        7.114633   1.000000
    4       10.601386  -0.000000
    5       11.318515  -0.000000
    6       14.601709   0.000000
    7       20.512951   0.000000
    8       21.637359   0.000000
 
  0.3750000E+00  0.7500000E-01  0.7500000E-01  0.3000000E-02
    1        2.326727   1.000000
    2        4.466544   1.000000
    3        7.933042   1.028970
    4       10.655492  -0.000000
    5       11.441460  -0.000000
    6       15.467450   0.000000
    7       19.342613   0.000000
    8       21.111472   0.000000
 
  0.4250000E+00  0.7500000E-01  0.7500000E-01  0.1500000E-02
    1        2.303747   1.000000
    2        4.428921   1.000000
    3        8.294105   0.233082
    4       10.644790  -0.000000
    5       11.487052  -0.000000
    6       15.800030   0.000000
    7       18.905339   0.000000
    8       20.928973   0.000000
 
 -0.7500000E-01  0.7500000E-01  0.7500000E-01  0.7500000E-03
    1       -0.968826   1.000000
    2        6.847583   1.000000
    3        6.847712   1.000000
    4        7.147503   1.000000
    5        9.686777  -0.000000
    6       10.815454  -0.000000
    7       24.529086   0.000000
    8       24.558870   0.000000
 
  0.1250000E+00  0.1250000E+00  0.7500000E-01  0.3000000E-02
    1        1.401500   1.000000
    2        5.427584   1.000000
    3        5.456435   1.000000
    4       10.179613  -0.000000
    5       10.638813  -0.000000
    6       10.953116  -0.000000
    7       25.192714   0.000000
    8       25.432803   0.000000
 
  0.1750000E+00  0.1250000E+00  0.7500000E-01  0.6000000E-02
    1        2.120079   1.000000
    2        5.115389   1.000000
    3        5.315866   1.000000
    4       10.260786  -0.000000
    5       10.902442  -0.000000
    6       12.203397  -0.000000
    7       24.026833   0.000000
    8       24.831680   0.000000
 
  0.2250000E+00  0.1250000E+00  0.7500000E-01  0.6000000E-02
    1        2.630378   1.000000
    2        4.852022   1.000000
    3        5.537938   1.000000
    4       10.413161  -0.000000
    5       11.126693  -0.000000
    6       13.507400  -0.000000
    7       22.506508   0.000000
    8       23.506840   0.000000
 
  0.2750000E+00  0.1250000E+00  0.7500000E-01  0.6000000E-02
    1        2.799965   1.000000
    2        4.656480   1.000000
    3        6.201114   1.000000
    4       10.592923  -0.000000
    5       11.306047  -0.000000
    6       14.766874   0.000000
    7       20.761447   0.000000
    8       22.485724   0.000000
 
  0.3250000E+00  0.1250000E+00  0.7500000E-01  0.6000000E-02
    1        2.779752   1.000000
    2        4.526569   1.000000
    3        7.035615   1.000000
    4       10.723462  -0.000000
    5       11.442718  -0.000000
    6       15.821197   0.000000
    7       19.269638   0.000000
    8       21.796286   0.000000
 