       N       E                     dE             d eps       ncg     rms          rms(c)
DAV:   1    -0.981609784740E+01   -0.98161E+01   -0.18484E+03  5192   0.290E+02
DAV:   2    -0.141871709178E+02   -0.43711E+01   -0.40918E+01  4600   0.504E+01
DAV:   3    -0.142106429629E+02   -0.23472E-01   -0.23434E-01  5520   0.369E+00
DAV:   4    -0.142106538038E+02   -0.10841E-04   -0.10841E-04  4992   0.569E-02
DAV:   5    -0.142106538136E+02   -0.98140E-08   -0.95502E-08  4528   0.124E-03
DAV:   6    -0.142106538138E+02   -0.15893E-09   -0.50527E-10  2912   0.687E-05
   1 F= -.14210654E+02 E0= -.14210638E+02  d E =-.477974E-04
