PROCAR new format
# of k-points:  250         # of bands:    8         # of ions:    1

 k-point     1 :    0.02500000 0.02500000 0.02500000     weight = 0.00100000

band     1 # energy   -1.33288881 # occ.  2.00000000
 
ion      s      p      d    tot
    1  0.616  0.008  0.000  0.624
 
band     2 # energy    6.79620966 # occ.  2.00000000
 
ion      s      p      d    tot
    1  0.000  0.001  0.922  0.923
 
band     3 # energy    6.79620966 # occ.  2.00000000
 
ion      s      p      d    tot
    1  0.000  0.001  0.922  0.923
 
band     4 # energy    7.10732506 # occ.  2.00000000
 
ion      s      p      d    tot
    1  0.000  0.003  0.922  0.926
 
band     5 # energy   10.42580095 # occ. -0.00000000
 
ion      s      p      d    tot
    1  0.000  0.000  0.866  0.866
 
band     6 # energy   10.42580095 # occ. -0.00000000
 
ion      s      p      d    tot
    1  0.000  0.000  0.866  0.866
 
band     7 # energy   23.72131178 # occ.  0.00000000
 
ion      s      p      d    tot
    1  0.000  0.000  0.000  0.000
 
band     8 # energy   24.02631659 # occ.  0.00000000
 
ion      s      p      d    tot
    1  0.000  0.000  0.024  0.024
 

 k-point     2 :    0.07500000 0.02500000 0.02500000     weight = 0.00300000

band     1 # energy   -0.97440423 # occ.  2.00000000
 
ion      s      p      d    tot
    1  0.600  0.023  0.002  0.625
 
band     2 # energy    6.57392882 # occ.  2.00000000
 
ion      s      p      d    tot
    1  0.000  0.001  0.913  0.914
 
band     3 # energy    6.70813754 # occ.  2.00000000
 
ion      s      p      d    tot
    1  0.000  0.006  0.903  0.909
 
band     4 # energy    7.50374805 # occ.  2.00000395
 
ion      s      p      d    tot
    1  0.000  0.009  0.912  0.921
 
band     5 # energy   10.14193097 # occ. -0.00000000
 
ion      s      p      d    tot
    1  0.000  0.000  0.853  0.853
 
band     6 # energy   10.46295324 # occ. -0.00000000
 
ion      s      p      d    tot
    1  0.000  0.000  0.865  0.866
 
band     7 # energy   23.99097003 # occ.  0.00000000
 
ion      s      p      d    tot
    1  0.000  0.000  0.009  0.009
 
band     8 # energy   24.63760463 # occ.  0.00000000
 
ion      s      p      d    tot
    1  0.000  0.002  0.046  0.047
 

 k-point     3 :    0.12500000 0.02500000 0.02500000     weight = 0.00300000

band     1 # energy   -0.41436628 # occ.  2.00000000
 
ion      s      p      d    tot
    1  0.573  0.045  0.011  0.628
 
band     2 # energy    6.25112608 # occ.  2.00000000
 
ion      s      p      d    tot
    1  0.000  0.001  0.902  0.903
 
band     3 # energy    6.55084820 # occ.  2.00000000
 
ion      s      p      d    tot
    1  0.002  0.017  0.863  0.881
 
band     4 # energy    8.12147118 # occ.  1.76992613
 
ion      s      p      d    tot
    1  0.001  0.017  0.897  0.915
 
band     5 # energy    9.88592367 # occ. -0.00000000
 
ion      s      p      d    tot
    1  0.000  0.000  0.851  0.851
 
band     6 # energy   10.52114768 # occ. -0.00000000
 
ion      s      p      d    tot
    1  0.000  0.001  0.865  0.865
 
band     7 # energy   24.34840312 # occ.  0.00000000
 
ion      s      p      d    tot
    1  0.000  0.006  0.040  0.046
 
band     8 # energy   25.51784217 # occ.  0.00000000
 
ion      s      p      d    tot
    1  0.000  0.005  0.064  0.069
 

 k-point     4 :    0.17500000 0.02500000 0.02500000     weight = 0.00300000

band     1 # energy    0.27966598 # occ.  2.00000000
 
ion      s      p      d    tot
    1  0.531  0.068  0.037  0.636
 
band     2 # energy    5.87788826 # occ.  2.00000000
 
ion      s      p      d    tot
    1  0.000  0.001  0.892  0.893
 
band     3 # energy    6.33823904 # occ.  2.00000000
 
ion      s      p      d    tot
    1  0.007  0.040  0.793  0.840
 
band     4 # energy    8.94753040 # occ. -0.00000435
 
ion      s      p      d    tot
    1  0.001  0.026  0.881  0.908
 
band     5 # energy    9.80162289 # occ. -0.00000000
 
ion      s      p      d    tot
    1  0.000  0.001  0.863  0.865
 
band     6 # energy   10.60819033 # occ. -0.00000000
 
ion      s      p      d    tot
    1  0.000  0.001  0.865  0.867
 
band     7 # energy   24.41000151 # occ.  0.00000000
 
ion      s      p      d    tot
    1  0.000  0.032  0.084  0.116
 
band     8 # energy   26.27316992 # occ.  0.00000000
 
ion      s      p      d    tot
    1  0.027  0.067  0.246  0.340
 

 k-point     5 :    0.22500000 0.02500000 0.02500000     weight = 0.00300000

band     1 # energy    0.98785051 # occ.  2.00000000
 
ion      s      p      d    tot
    1  0.469  0.079  0.103  0.652
 
band     2 # energy    5.49804213 # occ.  2.00000000
 
ion      s      p      d    tot
    1  0.000  0.002  0.884  0.886
 
band     3 # energy    6.20392608 # occ.  2.00000000
 
ion      s      p      d    tot
    1  0.024  0.085  0.682  0.791
 
band     4 # energy    9.84072118 # occ. -0.00000000
 
ion      s      p      d    tot
    1  0.002  0.010  0.874  0.886
 
band     5 # energy   10.02205090 # occ. -0.00000000
 
ion      s      p      d    tot
    1  0.000  0.031  0.870  0.901
 
band     6 # energy   10.73218059 # occ. -0.00000000
 
ion      s      p      d    tot
    1  0.000  0.002  0.870  0.871
 
band     7 # energy   23.87056316 # occ.  0.00000000
 
ion      s      p      d    tot
    1  0.000  0.074  0.101  0.175
 
band     8 # energy   25.57954871 # occ.  0.00000000
 
ion      s      p      d    tot
    1  0.094  0.140  0.262  0.497
 

 k-point     6 :    0.27500000 0.02500000 0.02500000     weight = 0.00300000

band     1 # energy    1.53738404 # occ.  2.00000000
 
ion      s      p      d    tot
    1  0.383  0.068  0.231  0.681
 
band     2 # energy    5.14839074 # occ.  2.00000000
 
ion      s      p      d    tot
    1  0.000  0.002  0.879  0.881
 
band     3 # energy    6.36215689 # occ.  2.00000000
 
ion      s      p      d    tot
    1  0.057  0.161  0.518  0.735
 
band     4 # energy   10.10508371 # occ. -0.00000000
 
ion      s      p      d    tot
    1  0.002  0.010  0.887  0.899
 
band     5 # energy   10.89587426 # occ. -0.00000000
 
ion      s      p      d    tot
    1  0.000  0.002  0.880  0.882
 
band     6 # energy   11.13784466 # occ. -0.00000000
 
ion      s      p      d    tot
    1  0.001  0.045  0.858  0.904
 
band     7 # energy   22.93791292 # occ.  0.00000000
 
ion      s      p      d    tot
    1  0.000  0.104  0.089  0.193
 
band     8 # energy   24.15123359 # occ.  0.00000000
 
ion      s      p      d    tot
    1  0.175  0.162  0.267  0.604
 

 k-point     7 :    0.32500000 0.02500000 0.02500000     weight = 0.00300000

band     1 # energy    1.80711665 # occ.  2.00000000
 
ion      s      p      d    tot
    1  0.292  0.041  0.383  0.715
 
band     2 # energy    4.85492966 # occ.  2.00000000
 
ion      s      p      d    tot
    1  0.000  0.002  0.875  0.877
 
band     3 # energy    6.93436671 # occ.  2.00000000
 
ion      s      p      d    tot
    1  0.084  0.260  0.335  0.678
 
band     4 # energy   10.35101952 # occ. -0.00000000
 
ion      s      p      d    tot
    1  0.004  0.023  0.881  0.908
 
band     5 # energy   11.08542591 # occ. -0.00000000
 
ion      s      p      d    tot
    1  0.000  0.002  0.895  0.897
 
band     6 # energy   12.36449147 # occ. -0.00000000
 
ion      s      p      d    tot
    1  0.001  0.046  0.862  0.909
 
band     7 # energy   21.95520615 # occ.  0.00000000
 
ion      s      p      d    tot
    1  0.000  0.121  0.064  0.185
 
band     8 # energy   22.57133762 # occ.  0.00000000
 
ion      s      p      d    tot
    1  0.255  0.140  0.299  0.693
 

 k-point     8 :    0.37500000 0.02500000 0.02500000     weight = 0.00300000

band     1 # energy    1.85625829 # occ.  2.00000000
 
ion      s      p      d    tot
    1  0.228  0.018  0.492  0.739
 
band     2 # energy    4.63288318 # occ.  2.00000000
 
ion      s      p      d    tot
    1  0.000  0.002  0.874  0.876
 
band     3 # energy    7.79912790 # occ.  2.00993026
 
ion      s      p      d    tot
    1  0.076  0.361  0.196  0.633
 
band     4 # energy   10.51750854 # occ. -0.00000000
 
ion      s      p      d    tot
    1  0.010  0.038  0.859  0.907
 
band     5 # energy   11.26374874 # occ. -0.00000000
 
ion      s      p      d    tot
    1  0.000  0.001  0.915  0.916
 
band     6 # energy   13.53519568 # occ. -0.00000000
 
ion      s      p      d    tot
    1  0.000  0.040  0.883  0.923
 
band     7 # energy   21.12844737 # occ.  0.00000000
 
ion      s      p      d    tot
    1  0.000  0.130  0.036  0.166
 
band     8 # energy   21.15041939 # occ.  0.00000000
 
ion      s      p      d    tot
    1  0.333  0.089  0.356  0.777
 

 k-point     9 :    0.42500000 0.02500000 0.02500000     weight = 0.00300000

band     1 # energy    1.82483713 # occ.  2.00000000
 
ion      s      p      d    tot
    1  0.195  0.006  0.549  0.750
 
band     2 # energy    4.49550506 # occ.  2.00000000
 
ion      s      p      d    tot
    1  0.000  0.002  0.873  0.875
 
band     3 # energy    8.65740998 # occ. -0.00949358
 
ion      s      p      d    tot
    1  0.035  0.461  0.099  0.595
 
band     4 # energy   10.52479544 # occ. -0.00000000
 
ion      s      p      d    tot
    1  0.027  0.033  0.845  0.905
 
band     5 # energy   11.40334239 # occ. -0.00000000
 
ion      s      p      d    tot
    1  0.000  0.000  0.933  0.933
 
band     6 # energy   14.44308862 # occ.  0.00000000
 
ion      s      p      d    tot
    1  0.000  0.025  0.917  0.943
 
band     7 # energy   20.13520006 # occ.  0.00000000
 
ion      s      p      d    tot
    1  0.397  0.031  0.421  0.848
 
band     8 # energy   20.58185483 # occ.  0.00000000
 
ion      s      p      d    tot
    1  0.000  0.135  0.014  0.148
 

 k-point    10 :    0.47500000 0.02500000 0.02500000     weight = 0.00150000

band     1 # energy    1.80488280 # occ.  2.00000000
 
ion      s      p      d    tot
    1  0.185  0.003  0.566  0.754
 
band     2 # energy    4.44902540 # occ.  2.00000000
 
ion      s      p      d    tot
    1  0.000  0.002  0.873  0.875
 
band     3 # energy    9.06735938 # occ. -0.00000005
 
ion      s      p      d    tot
    1  0.000  0.534  0.032  0.566
 
band     4 # energy   10.45526271 # occ. -0.00000000
 
ion      s      p      d    tot
    1  0.048  0.000  0.867  0.916
 
band     5 # energy   11.45447867 # occ. -0.00000000
 
ion      s      p      d    tot
    1  0.000  0.000  0.940  0.940
 
band     6 # energy   14.79910071 # occ.  0.00000000
 
ion      s      p      d    tot
    1  0.000  0.017  0.937  0.954
 
band     7 # energy   19.75727988 # occ.  0.00000000
 
ion      s      p      d    tot
    1  0.423  0.003  0.451  0.877
 
band     8 # energy   20.39032980 # occ.  0.00000000
 
ion      s      p      d    tot
    1  0.000  0.136  0.005  0.141
 

 k-point    11 :   -0.02500000 0.02500000 0.02500000     weight = 0.00075000

band     1 # energy   -1.45585933 # occ.  2.00000000
 
ion      s      p      d    tot
    1  0.621  0.003  0.000  0.624
 
band     2 # energy    6.87594377 # occ.  2.00000000
 
ion      s      p      d    tot
    1  0.000  0.001  0.926  0.926
 
band     3 # energy    6.87609001 # occ.  2.00000000
 
ion      s      p      d    tot
    1  0.000  0.001  0.926  0.926
 
band     4 # energy    6.91180139 # occ.  2.00000000
 
ion      s      p      d    tot
    1  0.000  0.000  0.928  0.928
 
band     5 # energy   10.41221826 # occ. -0.00000000
 
ion      s      p      d    tot
    1  0.000  0.000  0.866  0.866
 
band     6 # energy   10.54710875 # occ. -0.00000000
 
ion      s      p      d    tot
    1  0.000  0.000  0.874  0.874
 
band     7 # energy   23.71510273 # occ.  0.00000000
 
ion      s      p      d    tot
    1  0.000  0.000  0.003  0.003
 
band     8 # energy   23.71694490 # occ.  0.00000000
 
ion      s      p      d    tot
    1  0.000  0.000  0.008  0.008
 

 k-point    12 :    0.07500000 0.07500000 0.02500000     weight = 0.00300000

band     1 # energy   -0.52027497 # occ.  2.00000000
 
ion      s      p      d    tot
    1  0.579  0.041  0.008  0.627
 
band     2 # energy    6.35860587 # occ.  2.00000000
 
ion      s      p      d    tot
    1  0.000  0.004  0.896  0.901
 
band     3 # energy    6.45572414 # occ.  2.00000000
 
ion      s      p      d    tot
    1  0.000  0.008  0.885  0.893
 
band     4 # energy    8.07763287 # occ.  1.95041001
 
ion      s      p      d    tot
    1  0.001  0.019  0.895  0.915
 
band     5 # energy    9.97230456 # occ. -0.00000000
 
ion      s      p      d    tot
    1  0.000  0.000  0.848  0.848
 
band     6 # energy   10.47046813 # occ. -0.00000000
 
ion      s      p      d    tot
    1  0.000  0.001  0.867  0.868
 
band     7 # energy   24.30145372 # occ.  0.00000000
 
ion      s      p      d    tot
    1  0.000  0.001  0.009  0.010
 
band     8 # energy   25.35235451 # occ.  0.00000000
 
ion      s      p      d    tot
    1  0.001  0.012  0.102  0.115
 

 k-point    13 :    0.12500000 0.07500000 0.02500000     weight = 0.00600000

band     1 # energy    0.10828071 # occ.  2.00000000
 
ion      s      p      d    tot
    1  0.546  0.064  0.022  0.632
 
band     2 # energy    6.02082604 # occ.  2.00000000
 
ion      s      p      d    tot
    1  0.000  0.006  0.882  0.889
 
band     3 # energy    6.21441457 # occ.  2.00000000
 
ion      s      p      d    tot
    1  0.001  0.020  0.844  0.866
 
band     4 # energy    8.85647168 # occ. -0.00008008
 
ion      s      p      d    tot
    1  0.002  0.031  0.874  0.907
 
band     5 # energy    9.79803634 # occ. -0.00000000
 
ion      s      p      d    tot
    1  0.000  0.000  0.851  0.852
 
band     6 # energy   10.59644935 # occ. -0.00000000
 
ion      s      p      d    tot
    1  0.001  0.001  0.873  0.874
 
band     7 # energy   24.68814367 # occ.  0.00000000
 
ion      s      p      d    tot
    1  0.000  0.010  0.043  0.053
 
band     8 # energy   25.85909494 # occ.  0.00000000
 
ion      s      p      d    tot
    1  0.005  0.042  0.137  0.185
 

 k-point    14 :    0.17500000 0.07500000 0.02500000     weight = 0.00600000

band     1 # energy    0.82821523 # occ.  2.00000000
 
ion      s      p      d    tot
    1  0.497  0.084  0.061  0.642
 
band     2 # energy    5.64477803 # occ.  2.00000000
 
ion      s      p      d    tot
    1  0.000  0.007  0.873  0.880
 
band     3 # energy    6.00356159 # occ.  2.00000000
 
ion      s      p      d    tot
    1  0.009  0.046  0.772  0.828
 
band     4 # energy    9.71801426 # occ. -0.00000000
 
ion      s      p      d    tot
    1  0.003  0.014  0.857  0.873
 
band     5 # energy    9.88869717 # occ. -0.00000000
 
ion      s      p      d    tot
    1  0.001  0.033  0.857  0.891
 
band     6 # energy   10.75214763 # occ. -0.00000000
 
ion      s      p      d    tot
    1  0.001  0.001  0.880  0.882
 
band     7 # energy   24.49016294 # occ.  0.00000000
 
ion      s      p      d    tot
    1  0.004  0.060  0.102  0.165
 
band     8 # energy   25.91253242 # occ.  0.00000000
 
ion      s      p      d    tot
    1  0.044  0.101  0.222  0.368
 

 k-point    15 :    0.22500000 0.07500000 0.02500000     weight = 0.00600000

band     1 # energy    1.49377663 # occ.  2.00000000
 
ion      s      p      d    tot
    1  0.424  0.087  0.153  0.664
 
band     2 # energy    5.28698594 # occ.  2.00000000
 
ion      s      p      d    tot
    1  0.000  0.008  0.866  0.874
 
band     3 # energy    5.96889646 # occ.  2.00000000
 
ion      s      p      d    tot
    1  0.031  0.099  0.650  0.780
 
band     4 # energy    9.90908481 # occ. -0.00000000
 
ion      s      p      d    tot
    1  0.001  0.004  0.876  0.880
 
band     5 # energy   10.92072614 # occ. -0.00000000
 
ion      s      p      d    tot
    1  0.002  0.001  0.888  0.891
 
band     6 # energy   10.96972581 # occ. -0.00000000
 
ion      s      p      d    tot
    1  0.004  0.061  0.830  0.895
 
band     7 # energy   23.60272670 # occ.  0.00000000
 
ion      s      p      d    tot
    1  0.016  0.103  0.109  0.229
 
band     8 # energy   24.91711393 # occ.  0.00000000
 
ion      s      p      d    tot
    1  0.116  0.155  0.251  0.522
 

 k-point    16 :    0.27500000 0.07500000 0.02500000     weight = 0.00600000

band     1 # energy    1.92471241 # occ.  2.00000000
 
ion      s      p      d    tot
    1  0.330  0.065  0.303  0.698
 
band     2 # energy    4.97675708 # occ.  2.00000000
 
ion      s      p      d    tot
    1  0.000  0.009  0.863  0.871
 
band     3 # energy    6.30073506 # occ.  2.00000000
 
ion      s      p      d    tot
    1  0.065  0.184  0.475  0.724
 
band     4 # energy   10.14854403 # occ. -0.00000000
 
ion      s      p      d    tot
    1  0.002  0.011  0.882  0.895
 
band     5 # energy   11.09280355 # occ. -0.00000000
 
ion      s      p      d    tot
    1  0.004  0.001  0.898  0.903
 
band     6 # energy   12.19028772 # occ. -0.00000000
 
ion      s      p      d    tot
    1  0.004  0.072  0.817  0.892
 
band     7 # energy   22.52161527 # occ.  0.00000000
 
ion      s      p      d    tot
    1  0.054  0.123  0.111  0.288
 
band     8 # energy   23.41472153 # occ.  0.00000000
 
ion      s      p      d    tot
    1  0.167  0.159  0.246  0.571
 

 k-point    17 :    0.32500000 0.07500000 0.02500000     weight = 0.00600000

band     1 # energy    2.07171848 # occ.  2.00000000
 
ion      s      p      d    tot
    1  0.249  0.037  0.444  0.729
 
band     2 # energy    4.73259727 # occ.  2.00000000
 
ion      s      p      d    tot
    1  0.000  0.009  0.861  0.870
 
band     3 # energy    7.01785472 # occ.  2.00000000
 
ion      s      p      d    tot
    1  0.078  0.282  0.315  0.675
 
band     4 # energy   10.38807480 # occ. -0.00000000
 
ion      s      p      d    tot
    1  0.006  0.021  0.877  0.904
 
band     5 # energy   11.26079369 # occ. -0.00000000
 
ion      s      p      d    tot
    1  0.005  0.003  0.907  0.915
 
band     6 # energy   13.41530893 # occ. -0.00000000
 
ion      s      p      d    tot
    1  0.003  0.076  0.817  0.895
 
band     7 # energy   21.40847190 # occ.  0.00000000
 
ion      s      p      d    tot
    1  0.203  0.116  0.208  0.527
 
band     8 # energy   22.01344773 # occ.  0.00000000
 
ion      s      p      d    tot
    1  0.101  0.139  0.163  0.403
 

 k-point    18 :    0.37500000 0.07500000 0.02500000     weight = 0.00600000

band     1 # energy    2.06200823 # occ.  2.00000000
 
ion      s      p      d    tot
    1  0.200  0.019  0.527  0.746
 
band     2 # energy    4.56388860 # occ.  2.00000000
 
ion      s      p      d    tot
    1  0.000  0.009  0.860  0.870
 
band     3 # energy    7.88005787 # occ.  2.03411258
 
ion      s      p      d    tot
    1  0.052  0.372  0.216  0.639
 
band     4 # energy   10.50790728 # occ. -0.00000000
 
ion      s      p      d    tot
    1  0.018  0.025  0.863  0.906
 
band     5 # energy   11.42699730 # occ. -0.00000000
 
ion      s      p      d    tot
    1  0.004  0.010  0.910  0.924
 
band     6 # energy   14.47775249 # occ.  0.00000000
 
ion      s      p      d    tot
    1  0.001  0.071  0.833  0.905
 
band     7 # energy   20.25082148 # occ.  0.00000000
 
ion      s      p      d    tot
    1  0.362  0.065  0.342  0.770
 
band     8 # energy   21.16016152 # occ.  0.00000000
 
ion      s      p      d    tot
    1  0.016  0.137  0.060  0.212
 

 k-point    19 :    0.42500000 0.07500000 0.02500000     weight = 0.00600000

band     1 # energy    2.02680805 # occ.  2.00000000
 
ion      s      p      d    tot
    1  0.180  0.012  0.562  0.754
 
band     2 # energy    4.47847903 # occ.  2.00000000
 
ion      s      p      d    tot
    1  0.000  0.009  0.860  0.869
 
band     3 # energy    8.51910212 # occ. -0.05875209
 
ion      s      p      d    tot
    1  0.009  0.446  0.159  0.615
 
band     4 # energy   10.47990725 # occ. -0.00000000
 
ion      s      p      d    tot
    1  0.041  0.007  0.862  0.910
 
band     5 # energy   11.55844305 # occ. -0.00000000
 
ion      s      p      d    tot
    1  0.001  0.023  0.904  0.928
 
band     6 # energy   15.13233882 # occ.  0.00000000
 
ion      s      p      d    tot
    1  0.000  0.061  0.854  0.915
 
band     7 # energy   19.50146273 # occ.  0.00000000
 
ion      s      p      d    tot
    1  0.423  0.019  0.398  0.840
 
band     8 # energy   20.76494986 # occ.  0.00000000
 
ion      s      p      d    tot
    1  0.004  0.139  0.033  0.175
 

 k-point    20 :   -0.07500000 0.07500000 0.02500000     weight = 0.00300000

band     1 # energy   -1.21085169 # occ.  2.00000000
 
ion      s      p      d    tot
    1  0.611  0.013  0.001  0.624
 
band     2 # energy    6.73760003 # occ.  2.00000000
 
ion      s      p      d    tot
    1  0.000  0.001  0.920  0.921
 
band     3 # energy    6.84780374 # occ.  2.00000000
 
ion      s      p      d    tot
    1  0.000  0.004  0.914  0.918
 
band     4 # energy    7.14959338 # occ.  2.00000000
 
ion      s      p      d    tot
    1  0.000  0.003  0.921  0.925
 
band     5 # energy   10.14104495 # occ. -0.00000000
 
ion      s      p      d    tot
    1  0.000  0.000  0.850  0.850
 
band     6 # energy   10.59596949 # occ. -0.00000000
 
ion      s      p      d    tot
    1  0.000  0.000  0.874  0.875
 
band     7 # energy   23.92747778 # occ.  0.00000000
 
ion      s      p      d    tot
    1  0.000  0.000  0.018  0.018
 
band     8 # energy   24.14145361 # occ.  0.00000000
 
ion      s      p      d    tot
    1  0.000  0.000  0.012  0.012
 

 k-point    21 :    0.12500000 0.12500000 0.02500000     weight = 0.00300000

band     1 # energy    0.77641932 # occ.  2.00000000
 
ion      s      p      d    tot
    1  0.507  0.086  0.046  0.638
 
band     2 # energy    5.78068418 # occ.  2.00000000
 
ion      s      p      d    tot
    1  0.003  0.016  0.854  0.873
 
band     3 # energy    5.83848308 # occ.  2.00000000
 
ion      s      p      d    tot
    1  0.000  0.025  0.821  0.847
 
band     4 # energy    9.69924298 # occ. -0.00000000
 
ion      s      p      d    tot
    1  0.000  0.000  0.855  0.855
 
band     5 # energy    9.79946899 # occ. -0.00000000
 
ion      s      p      d    tot
    1  0.004  0.050  0.844  0.898
 
band     6 # energy   10.79683116 # occ. -0.00000000
 
ion      s      p      d    tot
    1  0.002  0.001  0.886  0.889
 
band     7 # energy   25.20700720 # occ.  0.00000000
 
ion      s      p      d    tot
    1  0.000  0.016  0.071  0.087
 
band     8 # energy   25.34050608 # occ.  0.00000000
 
ion      s      p      d    tot
    1  0.025  0.105  0.160  0.290
 

 k-point    22 :    0.17500000 0.12500000 0.02500000     weight = 0.00600000

band     1 # energy    1.49421579 # occ.  2.00000000
 
ion      s      p      d    tot
    1  0.451  0.101  0.100  0.651
 
band     2 # energy    5.43732174 # occ.  2.00000000
 
ion      s      p      d    tot
    1  0.001  0.023  0.829  0.853
 
band     3 # energy    5.64888977 # occ.  2.00000000
 
ion      s      p      d    tot
    1  0.011  0.049  0.768  0.828
 
band     4 # energy    9.73167757 # occ. -0.00000000
 
ion      s      p      d    tot
    1  0.000  0.001  0.863  0.865
 
band     5 # energy   10.91508058 # occ. -0.00000000
 
ion      s      p      d    tot
    1  0.005  0.068  0.820  0.892
 
band     6 # energy   11.00538624 # occ. -0.00000000
 
ion      s      p      d    tot
    1  0.006  0.003  0.891  0.899
 
band     7 # energy   24.23390736 # occ.  0.00000000
 
ion      s      p      d    tot
    1  0.052  0.128  0.136  0.316
 
band     8 # energy   25.40154602 # occ.  0.00000000
 
ion      s      p      d    tot
    1  0.025  0.088  0.194  0.306
 

 k-point    23 :    0.22500000 0.12500000 0.02500000     weight = 0.00600000

band     1 # energy    2.09124039 # occ.  2.00000000
 
ion      s      p      d    tot
    1  0.368  0.093  0.217  0.679
 
band     2 # energy    5.11253772 # occ.  2.00000000
 
ion      s      p      d    tot
    1  0.000  0.024  0.827  0.851
 
band     3 # energy    5.72811634 # occ.  2.00000000
 
ion      s      p      d    tot
    1  0.037  0.108  0.635  0.781
 
band     4 # energy    9.90131148 # occ. -0.00000000
 
ion      s      p      d    tot
    1  0.000  0.005  0.872  0.877
 
band     5 # energy   11.17935908 # occ. -0.00000000
 
ion      s      p      d    tot
    1  0.007  0.001  0.907  0.915
 
band     6 # energy   12.15366807 # occ. -0.00000000
 
ion      s      p      d    tot
    1  0.008  0.089  0.784  0.881
 
band     7 # energy   22.98550409 # occ.  0.00000000
 
ion      s      p      d    tot
    1  0.108  0.140  0.140  0.388
 
band     8 # energy   24.49415260 # occ.  0.00000000
 
ion      s      p      d    tot
    1  0.071  0.154  0.228  0.452
 

 k-point    24 :    0.27500000 0.12500000 0.02500000     weight = 0.00600000

band     1 # energy    2.39787611 # occ.  2.00000000
 
ion      s      p      d    tot
    1  0.273  0.064  0.378  0.716
 
band     2 # energy    4.85915363 # occ.  2.00000000
 
ion      s      p      d    tot
    1  0.000  0.024  0.829  0.854
 
band     3 # energy    6.19149604 # occ.  2.00000000
 
ion      s      p      d    tot
    1  0.066  0.197  0.461  0.725
 
band     4 # energy   10.15195857 # occ. -0.00000000
 
ion      s      p      d    tot
    1  0.002  0.011  0.876  0.889
 
band     5 # energy   11.31762532 # occ. -0.00000000
 
ion      s      p      d    tot
    1  0.012  0.002  0.910  0.924
 
band     6 # energy   13.43345676 # occ. -0.00000000
 
ion      s      p      d    tot
    1  0.007  0.105  0.763  0.875
 
band     7 # energy   21.69049465 # occ.  0.00000000
 
ion      s      p      d    tot
    1  0.213  0.134  0.189  0.537
 
band     8 # energy   23.15955659 # occ.  0.00000000
 
ion      s      p      d    tot
    1  0.062  0.161  0.179  0.402
 

 k-point    25 :    0.32500000 0.12500000 0.02500000     weight = 0.00600000

band     1 # energy    2.45088143 # occ.  2.00000000
 
ion      s      p      d    tot
    1  0.205  0.040  0.497  0.742
 
band     2 # energy    4.67803198 # occ.  2.00000000
 
ion      s      p      d    tot
    1  0.000  0.024  0.832  0.856
 
band     3 # energy    6.93809922 # occ.  2.00000000
 
ion      s      p      d    tot
    1  0.061  0.283  0.340  0.684
 
band     4 # energy   10.37731350 # occ. -0.00000000
 
ion      s      p      d    tot
    1  0.009  0.018  0.871  0.898
 
band     5 # energy   11.44698682 # occ. -0.00000000
 
ion      s      p      d    tot
    1  0.014  0.008  0.905  0.927
 
band     6 # energy   14.63245723 # occ.  0.00000000
 
ion      s      p      d    tot
    1  0.005  0.113  0.754  0.873
 
band     7 # energy   20.36255139 # occ.  0.00000000
 
ion      s      p      d    tot
    1  0.334  0.101  0.266  0.701
 
band     8 # energy   22.11186448 # occ.  0.00000000
 
ion      s      p      d    tot
    1  0.022  0.152  0.119  0.293
 

 k-point    26 :    0.37500000 0.12500000 0.02500000     weight = 0.00600000

band     1 # energy    2.41341933 # occ.  2.00000000
 
ion      s      p      d    tot
    1  0.172  0.027  0.554  0.754
 
band     2 # energy    4.56867128 # occ.  2.00000000
 
ion      s      p      d    tot
    1  0.000  0.024  0.834  0.858
 
band     3 # energy    7.64374977 # occ.  2.00029587
 
ion      s      p      d    tot
    1  0.024  0.350  0.287  0.661
 
band     4 # energy   10.45586048 # occ. -0.00000000
 
ion      s      p      d    tot
    1  0.028  0.011  0.862  0.901
 
band     5 # energy   11.61822124 # occ. -0.00000000
 
ion      s      p      d    tot
    1  0.007  0.028  0.890  0.926
 
band     6 # energy   15.54529654 # occ.  0.00000000
 
ion      s      p      d    tot
    1  0.002  0.115  0.756  0.872
 
band     7 # energy   19.27459316 # occ.  0.00000000
 
ion      s      p      d    tot
    1  0.416  0.049  0.322  0.787
 
band     8 # energy   21.49861292 # occ.  0.00000000
 
ion      s      p      d    tot
    1  0.007  0.149  0.090  0.245
 

 k-point    27 :    0.42500000 0.12500000 0.02500000     weight = 0.00300000

band     1 # energy    2.39077887 # occ.  2.00000000
 
ion      s      p      d    tot
    1  0.162  0.024  0.571  0.757
 
band     2 # energy    4.53212368 # occ.  2.00000000
 
ion      s      p      d    tot
    1  0.000  0.024  0.834  0.858
 
band     3 # energy    7.94549577 # occ.  2.06297890
 
ion      s      p      d    tot
    1  0.000  0.380  0.273  0.654
 
band     4 # energy   10.44402495 # occ. -0.00000000
 
ion      s      p      d    tot
    1  0.043  0.001  0.859  0.902
 
band     5 # energy   11.71829760 # occ. -0.00000000
 
ion      s      p      d    tot
    1  0.000  0.043  0.881  0.924
 
band     6 # energy   15.90165203 # occ.  0.00000000
 
ion      s      p      d    tot
    1  0.000  0.114  0.758  0.872
 
band     7 # energy   18.84329366 # occ.  0.00000000
 
ion      s      p      d    tot
    1  0.448  0.021  0.345  0.813
 
band     8 # energy   21.29178007 # occ.  0.00000000
 
ion      s      p      d    tot
    1  0.004  0.149  0.082  0.234
 

 k-point    28 :   -0.12500000 0.12500000 0.02500000     weight = 0.00300000

band     1 # energy   -0.74311667 # occ.  2.00000000
 
ion      s      p      d    tot
    1  0.589  0.033  0.005  0.626
 
band     2 # energy    6.46718799 # occ.  2.00000000
 
ion      s      p      d    tot
    1  0.000  0.001  0.910  0.911
 
band     3 # energy    6.74873714 # occ.  2.00000000
 
ion      s      p      d    tot
    1  0.001  0.013  0.883  0.897
 
band     4 # energy    7.64084476 # occ.  2.00027346
 
ion      s      p      d    tot
    1  0.000  0.009  0.911  0.920
 
band     5 # energy    9.82124312 # occ. -0.00000000
 
ion      s      p      d    tot
    1  0.000  0.000  0.840  0.840
 
band     6 # energy   10.63617196 # occ. -0.00000000
 
ion      s      p      d    tot
    1  0.000  0.001  0.872  0.873
 
band     7 # energy   24.25714446 # occ.  0.00000000
 
ion      s      p      d    tot
    1  0.000  0.003  0.041  0.044
 
band     8 # energy   24.96373597 # occ.  0.00000000
 
ion      s      p      d    tot
    1  0.000  0.000  0.030  0.030
 

 k-point    29 :   -0.07500000 0.12500000 0.02500000     weight = 0.00300000

band     1 # energy   -0.85497437 # occ.  2.00000000
 