<?xml version="1.0" encoding="ISO-8859-1"?>
<modeling>
 <generator>
  <i name="program" type="string">vasp </i>
  <i name="version" type="string">5.4.4.18Apr17-6-g9f103f2a35  </i>
  <i name="subversion" type="string">(build Jul 01 2019 03:25:34) complex            parallel </i>
  <i name="platform" type="string">LinuxIFC </i>
  <i name="date" type="string">2020 07 08 </i>
  <i name="time" type="string">21:00:09 </i>
 </generator>
 <incar>
  <i type="string" name="SYSTEM"> BCC W</i>
  <i type="string" name="PREC">normal</i>
  <i type="int" name="ICHARG">    11</i>
  <i name="EDIFF">      0.00010000</i>
  <i name="ENCUT">    224.00000000</i>
  <i type="int" name="NEDOS">  3001</i>
  <v name="RWIGS">      1.45500000</v>
  <i type="logical" name="LCHARG"> F  </i>
  <v type="int" name="KPOINT_BSE">    -1     0     0     0</v>
 </incar>
 <structure name="primitive_cell" >
  <crystal>
   <varray name="basis" >
    <v>      -1.56360000       1.56360000       1.56360000 </v>
    <v>       1.56360000      -1.56360000       1.56360000 </v>
    <v>       1.56360000       1.56360000      -1.56360000 </v>
   </varray>
   <i name="volume">     15.29103832 </i>
   <varray name="rec_basis" >
    <v>       0.00000000       0.31977488       0.31977488 </v>
    <v>       0.31977488       0.00000000       0.31977488 </v>
    <v>       0.31977488       0.31977488       0.00000000 </v>
   </varray>
  </crystal>
  <varray name="positions" >
   <v>       0.00000000       0.00000000       0.00000000 </v>
  </varray>
 </structure>
 <varray name="primitive_index" >
  <v type="int" >        1 </v>
 </varray>
 <kpoints>
  <generation param="Monkhorst-Pack">
   <v type="int" name="divisions">      20       20       20 </v>
   <v name="usershift">      0.00000000       0.00000000       0.00000000 </v>
   <v name="genvec1">      0.05000000       0.00000000       0.00000000 </v>
   <v name="genvec2">      0.00000000       0.05000000       0.00000000 </v>
   <v name="genvec3">      0.00000000       0.00000000       0.05000000 </v>
   <v name="shift">      0.50000000       0.50000000       0.50000000 </v>
  </generation>
  <varray name="kpointlist" >
   <v>       0.02500000       0.02500000       0.02500000 </v>
   <v>       0.07500000       0.02500000       0.02500000 </v>
   <v>       0.12500000       0.02500000       0.02500000 </v>
   <v>       0.17500000       0.02500000       0.02500000 </v>
   <v>       0.22500000       0.02500000       0.02500000 </v>
   <v>       0.27500000       0.02500000       0.02500000 </v>
   <v>       0.32500000       0.02500000       0.02500000 </v>
   <v>       0.37500000       0.02500000       0.02500000 </v>
   <v>       0.42500000       0.02500000       0.02500000 </v>
   <v>       0.47500000       0.02500000       0.02500000 </v>
   <v>      -0.02500000       0.02500000       0.02500000 </v>
   <v>       0.07500000       0.07500000       0.02500000 </v>
   <v>       0.12500000       0.07500000       0.02500000 </v>
   <v>       0.17500000       0.07500000       0.02500000 </v>
   <v>       0.22500000       0.07500000       0.02500000 </v>
   <v>       0.27500000       0.07500000       0.02500000 </v>
   <v>       0.32500000       0.07500000       0.02500000 </v>
   <v>       0.37500000       0.07500000       0.02500000 </v>
   <v>       0.42500000       0.07500000       0.02500000 </v>
   <v>      -0.07500000       0.07500000       0.02500000 </v>
   <v>       0.12500000       0.12500000       0.02500000 </v>
   <v>       0.17500000       0.12500000       0.02500000 </v>
   <v>       0.22500000       0.12500000       0.02500000 </v>
   <v>       0.27500000       0.12500000       0.02500000 </v>
   <v>       0.32500000       0.12500000       0.02500000 </v>
   <v>       0.37500000       0.12500000       0.02500000 </v>
   <v>       0.42500000       0.12500000       0.02500000 </v>
   <v>      -0.12500000       0.12500000       0.02500000 </v>
   <v>      -0.07500000       0.12500000       0.02500000 </v>
   <v>       0.17500000       0.17500000       0.02500000 </v>
   <v>       0.22500000       0.17500000       0.02500000 </v>
   <v>       0.27500000       0.17500000       0.02500000 </v>
   <v>       0.32500000       0.17500000       0.02500000 </v>
   <v>       0.37500000       0.17500000       0.02500000 </v>
   <v>      -0.17500000       0.17500000       0.02500000 </v>
   <v>      -0.12500000       0.17500000       0.02500000 </v>
   <v>       0.22500000       0.22500000       0.02500000 </v>
   <v>       0.27500000       0.22500000       0.02500000 </v>
   <v>       0.32500000       0.22500000       0.02500000 </v>
   <v>       0.37500000       0.22500000       0.02500000 </v>
   <v>      -0.22500000       0.22500000       0.02500000 </v>
   <v>      -0.17500000       0.22500000       0.02500000 </v>
   <v>      -0.12500000       0.22500000       0.02500000 </v>
   <v>       0.27500000       0.27500000       0.02500000 </v>
   <v>       0.32500000       0.27500000       0.02500000 </v>
   <v>      -0.27500000       0.27500000       0.02500000 </v>
   <v>      -0.22500000       0.27500000       0.02500000 </v>
   <v>      -0.17500000       0.27500000       0.02500000 </v>
   <v>       0.32500000       0.32500000       0.02500000 </v>
   <v>      -0.32500000       0.32500000       0.02500000 </v>
   <v>      -0.27500000       0.32500000       0.02500000 </v>
   <v>      -0.22500000       0.32500000       0.02500000 </v>
   <v>      -0.17500000       0.32500000       0.02500000 </v>
   <v>      -0.37500000       0.37500000       0.02500000 </v>
   <v>      -0.32500000       0.37500000       0.02500000 </v>
   <v>      -0.27500000       0.37500000       0.02500000 </v>
   <v>      -0.22500000       0.37500000       0.02500000 </v>
   <v>      -0.42500000       0.42500000       0.02500000 </v>
   <v>      -0.37500000       0.42500000       0.02500000 </v>
   <v>      -0.32500000       0.42500000       0.02500000 </v>
   <v>      -0.27500000       0.42500000       0.02500000 </v>
   <v>      -0.22500000       0.42500000       0.02500000 </v>
   <v>      -0.47500000       0.47500000       0.02500000 </v>
   <v>      -0.42500000       0.47500000       0.02500000 </v>
   <v>      -0.37500000       0.47500000       0.02500000 </v>
   <v>      -0.32500000       0.47500000       0.02500000 </v>
   <v>      -0.27500000       0.47500000       0.02500000 </v>
   <v>      -0.47500000      -0.47500000       0.02500000 </v>
   <v>      -0.42500000      -0.47500000       0.02500000 </v>
   <v>      -0.37500000      -0.47500000       0.02500000 </v>
   <v>      -0.32500000      -0.47500000       0.02500000 </v>
   <v>      -0.27500000      -0.47500000       0.02500000 </v>
   <v>      -0.42500000      -0.42500000       0.02500000 </v>
   <v>      -0.37500000      -0.42500000       0.02500000 </v>
   <v>      -0.32500000      -0.42500000       0.02500000 </v>
   <v>      -0.37500000      -0.37500000       0.02500000 </v>
   <v>      -0.32500000      -0.37500000       0.02500000 </v>
   <v>       0.07500000       0.07500000       0.07500000 </v>
   <v>       0.12500000       0.07500000       0.07500000 </v>
   <v>       0.17500000       0.07500000       0.07500000 </v>
   <v>       0.22500000       0.07500000       0.07500000 </v>
   <v>       0.27500000       0.07500000       0.07500000 </v>
   <v>       0.32500000       0.07500000       0.07500000 </v>
   <v>       0.37500000       0.07500000       0.07500000 </v>
   <v>       0.42500000       0.07500000       0.07500000 </v>
   <v>      -0.07500000       0.07500000       0.07500000 </v>
   <v>       0.12500000       0.12500000       0.07500000 </v>
   <v>       0.17500000       0.12500000       0.07500000 </v>
   <v>       0.22500000       0.12500000       0.07500000 </v>
   <v>       0.27500000       0.12500000       0.07500000 </v>
   <v>       0.32500000       0.12500000       0.07500000 </v>
   <v>       0.37500000       0.12500000       0.07500000 </v>
   <v>      -0.12500000       0.12500000       0.07500000 </v>
   <v>       0.17500000       0.17500000       0.07500000 </v>
   <v>       0.22500000       0.17500000       0.07500000 </v>
   <v>       0.27500000       0.17500000       0.07500000 </v>
   <v>       0.32500000       0.17500000       0.07500000 </v>
   <v>       0.37500000       0.17500000       0.07500000 </v>
   <v>      -0.17500000       0.17500000       0.07500000 </v>
   <v>      -0.12500000       0.17500000       0.07500000 </v>
   <v>       0.22500000       0.22500000       0.07500000 </v>
   <v>       0.27500000       0.22500000       0.07500000 </v>
   <v>       0.32500000       0.22500000       0.07500000 </v>
   <v>      -0.22500000       0.22500000       0.07500000 </v>
   <v>      -0.17500000       0.22500000       0.07500000 </v>
   <v>       0.27500000       0.27500000       0.07500000 </v>
   <v>       0.32500000       0.27500000       0.07500000 </v>
   <v>      -0.27500000       0.27500000       0.07500000 </v>
   <v>      -0.22500000       0.27500000       0.07500000 </v>
   <v>      -0.17500000       0.27500000       0.07500000 </v>
   <v>      -0.32500000       0.32500000       0.07500000 </v>
   <v>      -0.27500000       0.32500000       0.07500000 </v>
   <v>      -0.22500000       0.32500000       0.07500000 </v>
   <v>      -0.37500000       0.37500000       0.07500000 </v>
   <v>      -0.32500000       0.37500000       0.07500000 </v>
   <v>      -0.27500000       0.37500000       0.07500000 </v>
   <v>      -0.22500000       0.37500000       0.07500000 </v>
   <v>      -0.42500000       0.42500000       0.07500000 </v>
   <v>      -0.37500000       0.42500000       0.07500000 </v>
   <v>      -0.32500000       0.42500000       0.07500000 </v>
   <v>      -0.27500000       0.42500000       0.07500000 </v>
   <v>      -0.47500000       0.47500000       0.07500000 </v>
   <v>      -0.42500000       0.47500000       0.07500000 </v>
   <v>      -0.37500000       0.47500000       0.07500000 </v>
   <v>      -0.32500000       0.47500000       0.07500000 </v>
   <v>      -0.27500000       0.47500000       0.07500000 </v>
   <v>      -0.47500000      -0.47500000       0.07500000 </v>
   <v>      -0.42500000      -0.47500000       0.07500000 </v>
   <v>      -0.37500000      -0.47500000       0.07500000 </v>
   <v>      -0.32500000      -0.47500000       0.07500000 </v>
   <v>      -0.42500000      -0.42500000       0.07500000 </v>
   <v>      -0.37500000      -0.42500000       0.07500000 </v>
   <v>      -0.32500000      -0.42500000       0.07500000 </v>
   <v>      -0.37500000      -0.37500000       0.07500000 </v>
   <v>       0.12500000       0.12500000       0.12500000 </v>
   <v>       0.17500000       0.12500000       0.12500000 </v>
   <v>       0.22500000       0.12500000       0.12500000 </v>
   <v>       0.27500000       0.12500000       0.12500000 </v>
   <v>       0.32500000       0.12500000       0.12500000 </v>
   <v>       0.37500000       0.12500000       0.12500000 </v>
   <v>      -0.12500000       0.12500000       0.12500000 </v>
   <v>       0.17500000       0.17500000       0.12500000 </v>
   <v>       0.22500000       0.17500000       0.12500000 </v>
   <v>       0.27500000       0.17500000       0.12500000 </v>
   <v>       0.32500000       0.17500000       0.12500000 </v>
   <v>      -0.17500000       0.17500000       0.12500000 </v>
   <v>       0.22500000       0.22500000       0.12500000 </v>
   <v>       0.27500000       0.22500000       0.12500000 </v>
   <v>       0.32500000       0.22500000       0.12500000 </v>
   <v>      -0.22500000       0.22500000       0.12500000 </v>
   <v>      -0.17500000       0.22500000       0.12500000 </v>
   <v>       0.27500000       0.27500000       0.12500000 </v>
   <v>      -0.27500000       0.27500000       0.12500000 </v>
   <v>      -0.22500000       0.27500000       0.12500000 </v>
   <v>      -0.32500000       0.32500000       0.12500000 </v>
   <v>      -0.27500000       0.32500000       0.12500000 </v>
   <v>      -0.22500000       0.32500000       0.12500000 </v>
   <v>      -0.37500000       0.37500000       0.12500000 </v>
   <v>      -0.32500000       0.37500000       0.12500000 </v>
   <v>      -0.27500000       0.37500000       0.12500000 </v>
   <v>      -0.42500000       0.42500000       0.12500000 </v>
   <v>      -0.37500000       0.42500000       0.12500000 </v>
   <v>      -0.32500000       0.42500000       0.12500000 </v>
   <v>      -0.27500000       0.42500000       0.12500000 </v>
   <v>      -0.47500000       0.47500000       0.12500000 </v>
   <v>      -0.42500000       0.47500000       0.12500000 </v>
   <v>      -0.37500000       0.47500000       0.12500000 </v>
   <v>      -0.32500000       0.47500000       0.12500000 </v>
   <v>      -0.47500000      -0.47500000       0.12500000 </v>
   <v>      -0.42500000      -0.47500000       0.12500000 </v>
   <v>      -0.37500000      -0.47500000       0.12500000 </v>
   <v>      -0.32500000      -0.47500000       0.12500000 </v>
   <v>      -0.42500000      -0.42500000       0.12500000 </v>
   <v>      -0.37500000      -0.42500000       0.12500000 </v>
   <v>      -0.37500000      -0.37500000       0.12500000 </v>
   <v>       0.17500000       0.17500000       0.17500000 </v>
   <v>       0.22500000       0.17500000       0.17500000 </v>
   <v>       0.27500000       0.17500000       0.17500000 </v>
   <v>       0.32500000       0.17500000       0.17500000 </v>
   <v>      -0.17500000       0.17500000       0.17500000 </v>
   <v>       0.22500000       0.22500000       0.17500000 </v>
   <v>       0.27500000       0.22500000       0.17500000 </v>
   <v>      -0.22500000       0.22500000       0.17500000 </v>
   <v>       0.27500000       0.27500000       0.17500000 </v>
   <v>      -0.27500000       0.27500000       0.17500000 </v>
   <v>      -0.22500000       0.27500000       0.17500000 </v>
   <v>      -0.32500000       0.32500000       0.17500000 </v>
   <v>      -0.27500000       0.32500000       0.17500000 </v>
   <v>      -0.37500000       0.37500000       0.17500000 </v>
   <v>      -0.32500000       0.37500000       0.17500000 </v>
   <v>      -0.27500000       0.37500000       0.17500000 </v>
   <v>      -0.42500000       0.42500000       0.17500000 </v>
   <v>      -0.37500000       0.42500000       0.17500000 </v>
   <v>      -0.32500000       0.42500000       0.17500000 </v>
   <v>      -0.47500000       0.47500000       0.17500000 </v>
   <v>      -0.42500000       0.47500000       0.17500000 </v>
   <v>      -0.37500000       0.47500000       0.17500000 </v>
   <v>      -0.32500000       0.47500000       0.17500000 </v>
   <v>      -0.47500000      -0.47500000       0.17500000 </v>
   <v>      -0.42500000      -0.47500000       0.17500000 </v>
   <v>      -0.37500000      -0.47500000       0.17500000 </v>
   <v>      -0.42500000      -0.42500000       0.17500000 </v>
   <v>      -0.37500000      -0.42500000       0.17500000 </v>
   <v>       0.22500000       0.22500000       0.22500000 </v>
   <v>       0.27500000       0.22500000       0.22500000 </v>
   <v>      -0.22500000       0.22500000       0.22500000 </v>
   <v>      -0.27500000       0.27500000       0.22500000 </v>
   <v>      -0.32500000       0.32500000       0.22500000 </v>
   <v>      -0.27500000       0.32500000       0.22500000 </v>
   <v>      -0.37500000       0.37500000       0.22500000 </v>
   <v>      -0.32500000       0.37500000       0.22500000 </v>
   <v>      -0.42500000       0.42500000       0.22500000 </v>
   <v>      -0.37500000       0.42500000       0.22500000 </v>
   <v>      -0.32500000       0.42500000       0.22500000 </v>
   <v>      -0.47500000       0.47500000       0.22500000 </v>
   <v>      -0.42500000       0.47500000       0.22500000 </v>
   <v>      -0.37500000       0.47500000       0.22500000 </v>
   <v>      -0.47500000      -0.47500000       0.22500000 </v>
   <v>      -0.42500000      -0.47500000       0.22500000 </v>
   <v>      -0.37500000      -0.47500000       0.22500000 </v>
   <v>      -0.42500000      -0.42500000       0.22500000 </v>
   <v>      -0.27500000       0.27500000       0.27500000 </v>
   <v>      -0.32500000       0.32500000       0.27500000 </v>
   <v>      -0.37500000       0.37500000       0.27500000 </v>
   <v>      -0.32500000       0.37500000       0.27500000 </v>
   <v>      -0.42500000       0.42500000       0.27500000 </v>
   <v>      -0.37500000       0.42500000       0.27500000 </v>
   <v>      -0.47500000       0.47500000       0.27500000 </v>
   <v>      -0.42500000       0.47500000       0.27500000 </v>
   <v>      -0.37500000       0.47500000       0.27500000 </v>
   <v>      -0.47500000      -0.47500000       0.27500000 </v>
   <v>      -0.42500000      -0.47500000       0.27500000 </v>
   <v>      -0.42500000      -0.42500000       0.27500000 </v>
   <v>      -0.32500000       0.32500000       0.32500000 </v>
   <v>      -0.37500000       0.37500000       0.32500000 </v>
   <v>      -0.42500000       0.42500000       0.32500000 </v>
   <v>      -0.37500000       0.42500000       0.32500000 </v>
   <v>      -0.47500000       0.47500000       0.32500000 </v>
   <v>      -0.42500000       0.47500000       0.32500000 </v>
   <v>      -0.47500000      -0.47500000       0.32500000 </v>
   <v>      -0.42500000      -0.47500000       0.32500000 </v>
   <v>      -0.37500000       0.37500000       0.37500000 </v>
   <v>      -0.42500000       0.42500000       0.37500000 </v>
   <v>      -0.47500000       0.47500000       0.37500000 </v>
   <v>      -0.42500000       0.47500000       0.37500000 </v>
   <v>      -0.47500000      -0.47500000       0.37500000 </v>
   <v>      -0.42500000       0.42500000       0.42500000 </v>
   <v>      -0.47500000       0.47500000       0.42500000 </v>
   <v>      -0.47500000      -0.47500000       0.42500000 </v>
   <v>      -0.47500000       0.47500000       0.47500000 </v>
  </varray>
  <varray name="weights" >
   <v>       0.00100000 </v>
   <v>       0.00300000 </v>
   <v>       0.00300000 </v>
   <v>       0.00300000 </v>
   <v>       0.00300000 </v>
   <v>       0.00300000 </v>
   <v>       0.00300000 </v>
   <v>       0.00300000 </v>
   <v>       0.00300000 </v>
   <v>       0.00150000 </v>
   <v>       0.00075000 </v>
   <v>       0.00300000 </v>
   <v>       0.00600000 </v>
   <v>       0.00600000 </v>
   <v>       0.00600000 </v>
   <v>       0.00600000 </v>
   <v>       0.00600000 </v>
   <v>       0.00600000 </v>
   <v>       0.00600000 </v>
   <v>       0.00300000 </v>
   <v>       0.00300000 </v>
   <v>       0.00600000 </v>
   <v>       0.00600000 </v>
   <v>       0.00600000 </v>
   <v>       0.00600000 </v>
   <v>       0.00600000 </v>
   <v>       0.00300000 </v>
   <v>       0.00300000 </v>
   <v>       0.00300000 </v>
   <v>       0.00300000 </v>
   <v>       0.00600000 </v>
   <v>       0.00600000 </v>
   <v>       0.00600000 </v>
   <v>       0.00600000 </v>
   <v>       0.00300000 </v>
   <v>       0.00600000 </v>
   <v>       0.00300000 </v>
   <v>       0.00600000 </v>
   <v>       0.00600000 </v>
   <v>       0.00300000 </v>
   <v>       0.00300000 </v>
   <v>       0.00600000 </v>
   <v>       0.00300000 </v>
   <v>       0.00300000 </v>
   <v>       0.00600000 </v>
   <v>       0.00300000 </v>
   <v>       0.00600000 </v>
   <v>       0.00600000 </v>
   <v>       0.00100000 </v>
   <v>       0.00300000 </v>
   <v>       0.00600000 </v>
   <v>       0.00600000 </v>
   <v>       0.00300000 </v>
   <v>       0.00300000 </v>
   <v>       0.00600000 </v>
   <v>       0.00600000 </v>
   <v>       0.00600000 </v>
   <v>       0.00300000 </v>
   <v>       0.00600000 </v>
   <v>       0.00600000 </v>
   <v>       0.00600000 </v>
   <v>       0.00300000 </v>
   <v>       0.00300000 </v>
   <v>       0.00600000 </v>
   <v>       0.00600000 </v>
   <v>       0.00600000 </v>
   <v>       0.00600000 </v>
   <v>       0.00300000 </v>
   <v>       0.00600000 </v>
   <v>       0.00600000 </v>
   <v>       0.00600000 </v>
   <v>       0.00300000 </v>
   <v>       0.00300000 </v>
   <v>       0.00600000 </v>
   <v>       0.00600000 </v>
   <v>       0.00300000 </v>
   <v>       0.00300000 </v>
   <v>       0.00100000 </v>
   <v>       0.00300000 </v>
   <v>       0.00300000 </v>
   <v>       0.00300000 </v>
   <v>       0.00300000 </v>
   <v>       0.00300000 </v>
   <v>       0.00300000 </v>
   <v>       0.00150000 </v>
   <v>       0.00075000 </v>
   <v>       0.00300000 </v>
   <v>       0.00600000 </v>
   <v>       0.00600000 </v>
   <v>       0.00600000 </v>
   <v>       0.00600000 </v>
   <v>       0.00600000 </v>
   <v>       0.00300000 </v>
   <v>       0.00300000 </v>
   <v>       0.00600000 </v>
   <v>       0.00600000 </v>
   <v>       0.00600000 </v>
   <v>       0.00300000 </v>
   <v>       0.00300000 </v>
   <v>       0.00300000 </v>
   <v>       0.00300000 </v>
   <v>       0.00600000 </v>
   <v>       0.00600000 </v>
   <v>       0.00300000 </v>
   <v>       0.00600000 </v>
   <v>       0.00300000 </v>
   <v>       0.00300000 </v>
   <v>       0.00300000 </v>
   <v>       0.00600000 </v>
   <v>       0.00300000 </v>
   <v>       0.00300000 </v>
   <v>       0.00600000 </v>
   <v>       0.00600000 </v>
   <v>       0.00300000 </v>
   <v>       0.00600000 </v>
   <v>       0.00600000 </v>
   <v>       0.00300000 </v>
   <v>       0.00300000 </v>
   <v>       0.00600000 </v>
   <v>       0.00600000 </v>
   <v>       0.00600000 </v>
   <v>       0.00300000 </v>
   <v>       0.00600000 </v>
   <v>       0.00600000 </v>
   <v>       0.00600000 </v>
   <v>       0.00300000 </v>
   <v>       0.00300000 </v>
   <v>       0.00600000 </v>
   <v>       0.00600000 </v>
   <v>       0.00600000 </v>
   <v>       0.00300000 </v>
   <v>       0.00600000 </v>
   <v>       0.00300000 </v>
   <v>       0.00300000 </v>
   <v>       0.00100000 </v>
   <v>       0.00300000 </v>
   <v>       0.00300000 </v>
   <v>       0.00300000 </v>
   <v>       0.00300000 </v>
   <v>       0.00150000 </v>
   <v>       0.00075000 </v>
   <v>       0.00300000 </v>
   <v>       0.00600000 </v>
   <v>       0.00600000 </v>
   <v>       0.00600000 </v>
   <v>       0.00300000 </v>
   <v>       0.00300000 </v>
   <v>       0.00600000 </v>
   <v>       0.00300000 </v>
   <v>       0.00300000 </v>
   <v>       0.00300000 </v>
   <v>       0.00300000 </v>
   <v>       0.00300000 </v>
   <v>       0.00600000 </v>
   <v>       0.00300000 </v>
   <v>       0.00600000 </v>
   <v>       0.00300000 </v>
   <v>       0.00300000 </v>
   <v>       0.00600000 </v>
   <v>       0.00600000 </v>
   <v>       0.00300000 </v>
   <v>       0.00600000 </v>
   <v>       0.00600000 </v>
   <v>       0.00300000 </v>
   <v>       0.00300000 </v>
   <v>       0.00600000 </v>
   <v>       0.00600000 </v>
   <v>       0.00600000 </v>
   <v>       0.00300000 </v>
   <v>       0.00600000 </v>
   <v>       0.00600000 </v>
   <v>       0.00300000 </v>
   <v>       0.00300000 </v>
   <v>       0.00600000 </v>
   <v>       0.00100000 </v>
   <v>       0.00100000 </v>
   <v>       0.00300000 </v>
   <v>       0.00300000 </v>
   <v>       0.00150000 </v>
   <v>       0.00075000 </v>
   <v>       0.00300000 </v>
   <v>       0.00600000 </v>
   <v>       0.00300000 </v>
   <v>       0.00100000 </v>
   <v>       0.00300000 </v>
   <v>       0.00300000 </v>
   <v>       0.00300000 </v>
   <v>       0.00600000 </v>
   <v>       0.00300000 </v>
   <v>       0.00600000 </v>
   <v>       0.00300000 </v>
   <v>       0.00300000 </v>
   <v>       0.00600000 </v>
   <v>       0.00600000 </v>
   <v>       0.00300000 </v>
   <v>       0.00600000 </v>
   <v>       0.00600000 </v>
   <v>       0.00300000 </v>
   <v>       0.00300000 </v>
   <v>       0.00600000 </v>
   <v>       0.00600000 </v>
   <v>       0.00300000 </v>
   <v>       0.00300000 </v>
   <v>       0.00100000 </v>
   <v>       0.00150000 </v>
   <v>       0.00075000 </v>
   <v>       0.00300000 </v>
   <v>       0.00300000 </v>
   <v>       0.00300000 </v>
   <v>       0.00300000 </v>
   <v>       0.00600000 </v>
   <v>       0.00300000 </v>
   <v>       0.00600000 </v>
   <v>       0.00300000 </v>
   <v>       0.00300000 </v>
   <v>       0.00600000 </v>
   <v>       0.00600000 </v>
   <v>       0.00300000 </v>
   <v>       0.00600000 </v>
   <v>       0.00300000 </v>
   <v>       0.00300000 </v>
   <v>       0.00075000 </v>
   <v>       0.00300000 </v>
   <v>       0.00300000 </v>
   <v>       0.00300000 </v>
   <v>       0.00300000 </v>
   <v>       0.00600000 </v>
   <v>       0.00300000 </v>
   <v>       0.00600000 </v>
   <v>       0.00300000 </v>
   <v>       0.00300000 </v>
   <v>       0.00600000 </v>
   <v>       0.00100000 </v>
   <v>       0.00075000 </v>
   <v>       0.00300000 </v>
   <v>       0.00300000 </v>
   <v>       0.00300000 </v>
   <v>       0.00300000 </v>
   <v>       0.00600000 </v>
   <v>       0.00300000 </v>
   <v>       0.00300000 </v>
   <v>       0.00075000 </v>
   <v>       0.00300000 </v>
   <v>       0.00300000 </v>
   <v>       0.00300000 </v>
   <v>       0.00300000 </v>
   <v>       0.00075000 </v>
   <v>       0.00300000 </v>
   <v>       0.00100000 </v>
   <v>       0.00075000 </v>
  </varray>
 </kpoints>
 <parameters>
  <separator name="general" >
   <i type="string" name="SYSTEM">BCC W</i>
   <i type="logical" name="LCOMPAT"> F  </i>
  </separator>
  <separator name="electronic" >
   <i type="string" name="PREC">normal</i>
   <i name="ENMAX">    224.00000000</i>
   <i name="ENAUG">    373.43800000</i>
   <i name="EDIFF">      0.00010000</i>
   <i type="int" name="IALGO">    38</i>
   <i type="int" name="IWAVPR">    10</i>
   <i type="int" name="NBANDS">     8</i>
   <i name="NELECT">      6.00000000</i>
   <i type="int" name="TURBO">     0</i>
   <i type="int" name="IRESTART">     0</i>
   <i type="int" name="NREBOOT">     0</i>
   <i type="int" name="NMIN">     0</i>
   <i name="EREF">      0.00000000</i>
   <separator name="electronic smearing" >
    <i type="int" name="ISMEAR">     1</i>
    <i name="SIGMA">      0.20000000</i>
    <i name="KSPACING">      0.50000000</i>
    <i type="logical" name="KGAMMA"> T  </i>
   </separator>
   <separator name="electronic projectors" >
    <i type="logical" name="LREAL"> F  </i>
    <v name="ROPT">      0.00000000</v>
    <i type="int" name="LMAXPAW">  -100</i>
    <i type="int" name="LMAXMIX">     2</i>
    <i type="logical" name="NLSPLINE"> F  </i>
   </separator>
   <separator name="electronic startup" >
    <i type="int" name="ISTART">     0</i>
    <i type="int" name="ICHARG">    11</i>
    <i type="int" name="INIWAV">     1</i>
   </separator>
   <separator name="electronic spin" >
    <i type="int" name="ISPIN">     1</i>
    <i type="logical" name="LNONCOLLINEAR"> F  </i>
    <v name="MAGMOM">      1.00000000</v>
    <i name="NUPDOWN">     -1.00000000</i>
    <i type="logical" name="LSORBIT"> F  </i>
    <v name="SAXIS">      0.00000000      0.00000000      1.00000000</v>
    <i type="logical" name="LSPIRAL"> F  </i>
    <v name="QSPIRAL">      0.00000000      0.00000000      0.00000000</v>
    <i type="logical" name="LZEROZ"> F  </i>
   </separator>
   <separator name="electronic exchange-correlation" >
    <i type="logical" name="LASPH"> F  </i>
    <i type="logical" name="LMETAGGA"> F  </i>
   </separator>
   <separator name="electronic convergence" >
    <i type="int" name="NELM">    60</i>
    <i type="int" name="NELMDL">    -5</i>
    <i type="int" name="NELMIN">     2</i>
    <i name="ENINI">    224.00000000</i>
    <separator name="electronic convergence detail" >
     <i type="logical" name="LDIAG"> T  </i>
     <i type="logical" name="LSUBROT"> F  </i>
     <i name="WEIMIN">      0.00000000</i>
     <i name="EBREAK">      0.00000313</i>
     <i name="DEPER">      0.30000000</i>
     <i type="int" name="NRMM">     4</i>
     <i name="TIME">      0.40000000</i>
    </separator>
   </separator>
   <separator name="electronic mixer" >
    <i name="AMIX">      0.40000000</i>
    <i name="BMIX">      1.00000000</i>
    <i name="AMIN">      0.10000000</i>
    <i name="AMIX_MAG">      1.60000000</i>
    <i name="BMIX_MAG">      1.00000000</i>
    <separator name="electronic mixer details" >
     <i type="int" name="IMIX">     4</i>
     <i type="logical" name="MIXFIRST"> F  </i>
     <i type="int" name="MAXMIX">   -45</i>
     <i name="WC">    100.00000000</i>
     <i type="int" name="INIMIX">     1</i>
     <i type="int" name="MIXPRE">     1</i>
     <i type="int" name="MREMOVE">     5</i>
    </separator>
   </separator>
   <separator name="electronic dipolcorrection" >
    <i type="logical" name="LDIPOL"> F  </i>
    <i type="logical" name="LMONO"> F  </i>
    <i type="int" name="IDIPOL">     0</i>
    <i name="EPSILON">      1.00000000</i>
    <v name="DIPOL">   -100.00000000   -100.00000000   -100.00000000</v>
    <i name="EFIELD">      0.00000000</i>
   </separator>
  </separator>
  <separator name="grids" >
   <i type="int" name="NGX">    10</i>
   <i type="int" name="NGY">    10</i>
   <i type="int" name="NGZ">    10</i>
   <i type="int" name="NGXF">    20</i>
   <i type="int" name="NGYF">    20</i>
   <i type="int" name="NGZF">    20</i>
   <i type="logical" name="ADDGRID"> F  </i>
  </separator>
  <separator name="ionic" >
   <i type="int" name="NSW">     0</i>
   <i type="int" name="IBRION">    -1</i>
   <i type="int" name="MDALGO">     0</i>
   <i type="int" name="ISIF">     2</i>
   <i name="PSTRESS">      0.00000000</i>
   <i name="EDIFFG">      0.00100000</i>
   <i type="int" name="NFREE">     0</i>
   <i name="POTIM">      0.50000000</i>
   <i name="SMASS">     -3.00000000</i>
   <i name="SCALEE">      1.00000000</i>
  </separator>
  <separator name="ionic md" >
   <i name="TEBEG">      0.00010000</i>
   <i name="TEEND">      0.00010000</i>
   <i type="int" name="NBLOCK">     1</i>
   <i type="int" name="KBLOCK">     1</i>
   <i type="int" name="NPACO">   256</i>
   <i name="APACO">     16.00000000</i>
  </separator>
  <separator name="symmetry" >
   <i type="int" name="ISYM">     2</i>
   <i name="SYMPREC">      0.00001000</i>
  </separator>
  <separator name="dos" >
   <i type="int" name="LORBIT">     0</i>
   <v name="RWIGS">      1.45500000</v>
   <i type="int" name="NEDOS">  3001</i>
   <i name="EMIN">     10.00000000</i>
   <i name="EMAX">    -10.00000000</i>
   <i name="EFERMI">      0.00000000</i>
  </separator>
  <separator name="writing" >
   <i type="int" name="NWRITE">     2</i>
   <i type="logical" name="LWAVE"> T  </i>
   <i type="logical" name="LDOWNSAMPLE"> F  </i>
   <i type="logical" name="LCHARG"> F  </i>
   <i type="logical" name="LPARD"> F  </i>
   <i type="logical" name="LVTOT"> F  </i>
   <i type="logical" name="LVHAR"> F  </i>
   <i type="logical" name="LELF"> F  </i>
   <i type="logical" name="LOPTICS"> F  </i>
   <v name="STM">      0.00000000      0.00000000      0.00000000      0.00000000      0.00000000      0.00000000      0.00000000</v>
  </separator>
  <separator name="performance" >
   <i type="int" name="NPAR">     4</i>
   <i type="int" name="NSIM">     4</i>
   <i type="int" name="NBLK">    -1</i>
   <i type="logical" name="LPLANE"> T  </i>
   <i type="logical" name="LSCALAPACK"> T  </i>
   <i type="logical" name="LSCAAWARE"> F  </i>
   <i type="logical" name="LSCALU"> F  </i>
   <i type="logical" name="LASYNC"> F  </i>
   <i type="logical" name="LORBITALREAL"> F  </i>
  </separator>
  <separator name="miscellaneous" >
   <i type="int" name="IDIOT">     3</i>
   <i type="int" name="ISPECIAL">     0</i>
   <i type="logical" name="LMUSIC"> F  </i>
   <v name="POMASS">    183.85000000</v>
   <v name="DARWINR">      0.00000000</v>
   <v name="DARWINV">      1.00000000</v>
   <i type="logical" name="LCORR"> T  </i>
  </separator>
  <i type="logical" name="GGA_COMPAT"> T  </i>
  <i type="logical" name="LBERRY"> F  </i>
  <i type="int" name="ICORELEVEL">     0</i>
  <i type="logical" name="LDAU"> F  </i>
  <i type="int" name="I_CONSTRAINED_M">     0</i>
  <separator name="electronic exchange-correlation" >
   <i type="string" name="GGA">--</i>
   <i type="int" name="VOSKOWN">     0</i>
   <i type="logical" name="LHFCALC"> F  </i>
   <i type="string" name="PRECFOCK"></i>
   <i type="logical" name="LSYMGRAD"> F  </i>
   <i type="logical" name="LHFONE"> F  </i>
   <i type="logical" name="LRHFCALC"> F  </i>
   <i type="logical" name="LTHOMAS"> F  </i>
   <i type="logical" name="LMODELHF"> F  </i>
   <i name="ENCUT4O">     -1.00000000</i>
   <i type="int" name="EXXOEP">     0</i>
   <i type="int" name="FOURORBIT">     0</i>
   <i name="AEXX">      0.00000000</i>
   <i name="HFALPHA">      0.00000000</i>
   <i name="MCALPHA">      0.00000000</i>
   <i name="ALDAX">      1.00000000</i>
   <i name="AGGAX">      1.00000000</i>
   <i name="ALDAC">      1.00000000</i>
   <i name="AGGAC">      1.00000000</i>
   <i type="int" name="NKREDX">     1</i>
   <i type="int" name="NKREDY">     1</i>
   <i type="int" name="NKREDZ">     1</i>
   <i type="logical" name="SHIFTRED"> F  </i>
   <i type="logical" name="ODDONLY"> F  </i>
   <i type="logical" name="EVENONLY"> F  </i>
   <i type="int" name="LMAXFOCK">     0</i>
   <i type="int" name="NMAXFOCKAE">     0</i>
   <i type="logical" name="LFOCKAEDFT"> F  </i>
   <i name="HFSCREEN">      0.00000000</i>
   <i name="HFSCREENC">      0.00000000</i>
   <i type="int" name="NBANDSGWLOW">     0</i>
  </separator>
  <separator name="vdW DFT" >
   <i type="logical" name="LUSE_VDW"> F  </i>
   <i name="Zab_VDW">     -0.84910000</i>
   <i name="PARAM1">      0.12340000</i>
   <i name="PARAM2">      1.00000000</i>
   <i name="PARAM3">      0.00000000</i>
  </separator>
  <separator name="model GW" >
   <i type="int" name="MODEL_GW">     0</i>
   <i name="MODEL_EPS0">      9.17462299</i>
   <i name="MODEL_ALPHA">      1.00000000</i>
  </separator>
  <separator name="linear response parameters" >
   <i type="logical" name="LEPSILON"> F  </i>
   <i type="logical" name="LRPA"> F  </i>
   <i type="logical" name="LNABLA"> F  </i>
   <i type="logical" name="LVEL"> F  </i>
   <i type="int" name="KINTER">     0</i>
   <i name="CSHIFT">      0.10000000</i>
   <i name="OMEGAMAX">     -1.00000000</i>
   <i name="DEG_THRESHOLD">      0.00200000</i>
   <i name="RTIME">     -0.10000000</i>
   <i name="WPLASMAI">      0.00000000</i>
   <v name="DFIELD">      0.00000000      0.00000000      0.00000000</v>
   <v name="WPLASMA">      0.00000000      0.00000000      0.00000000      0.00000000      0.00000000      0.00000000      0.00000000      0.00000000      0.00000000</v>
  </separator>
  <separator name="orbital magnetization" >
   <i type="logical" name="NUCIND"> F  </i>
   <v name="MAGPOS">      0.00000000      0.00000000      0.00000000</v>
   <i type="logical" name="LNICSALL"> T  </i>
   <i type="logical" name="ORBITALMAG"> F  </i>
   <i type="logical" name="LMAGBLOCH"> F  </i>
   <i type="logical" name="LCHIMAG"> F  </i>
   <i type="logical" name="LGAUGE"> T  </i>
   <i type="int" name="MAGATOM">     0</i>
   <v name="MAGDIPOL">      0.00000000      0.00000000      0.00000000</v>
   <v name="AVECCONST">      0.00000000      0.00000000      0.00000000</v>
  </separator>
  <separator name="response functions" >
   <i type="logical" name="LADDER"> F  </i>
   <i type="logical" name="LRPAFORCE"> F  </i>
   <i type="logical" name="LFXC"> F  </i>
   <i type="logical" name="LHARTREE"> T  </i>
   <i type="int" name="IBSE">     0</i>
   <v type="int" name="KPOINT">    -1     0     0     0</v>
   <i type="logical" name="LTCTE"> F  </i>
   <i type="logical" name="LTETE"> F  </i>
   <i type="logical" name="LTRIPLET"> F  </i>
   <i type="logical" name="LFXCEPS"> F  </i>
   <i type="logical" name="LFXHEG"> F  </i>
   <i type="int" name="NATURALO">     2</i>
   <i type="logical" name="L2ORDER"> F  </i>
   <i type="logical" name="LMP2LT"> F  </i>
   <i type="logical" name="LUSEW"> F  </i>
   <i name="ENCUTGW">     -2.00000000</i>
   <i name="ENCUTGWSOFT">     -2.00000000</i>
   <i name="ENCUTLF">     -1.00000000</i>
   <i type="int" name="LMAXMP2">    -1</i>
   <i name="SCISSOR">      0.00000000</i>
   <i type="int" name="NOMEGA">     0</i>
   <i type="int" name="NOMEGAR">     0</i>
   <i type="int" name="NBANDSGW">    -1</i>
   <i type="int" name="NBANDSO">    -1</i>
   <i type="int" name="NBANDSV">    -1</i>
   <i type="int" name="NELM">     1</i>
   <i type="int" name="NELMHF">     1</i>
   <i type="int" name="DIM">     3</i>
   <i type="int" name="ANTIRES">     0</i>
   <i name="OMEGAMAX">    -30.00000000</i>
   <i name="OMEGAMIN">    -30.00000000</i>
   <i name="OMEGATL">   -200.00000000</i>
   <i type="int" name="OMEGAGRID">   140</i>
   <i name="CSHIFT">     -0.10000000</i>
   <i type="logical" name="SELFENERGY"> F  </i>
   <i type="logical" name="LSPECTRAL"> F  </i>
   <i type="logical" name="LSPECTRALGW"> F  </i>
   <i type="logical" name="LSINGLES"> F  </i>
   <i type="logical" name="LFERMIGW"> F  </i>
   <i type="logical" name="ODDONLYGW"> F  </i>
   <i type="logical" name="EVENONLYGW"> F  </i>
   <i type="int" name="NKREDLFX">     1</i>
   <i type="int" name="NKREDLFY">     1</i>
   <i type="int" name="NKREDLFZ">     1</i>
   <i type="int" name="MAXMEM">  2800</i>
   <i type="int" name="TELESCOPE">     0</i>
   <i type="int" name="TAUPAR">     1</i>
   <i type="int" name="OMEGAPAR">    -1</i>
   <i name="LAMBDA">      1.00000000</i>
  </separator>
  <separator name="External order field" >
   <i name="OFIELD_KAPPA">      0.00000000</i>
   <v name="OFIELD_K">      0.00000000      0.00000000      0.00000000</v>
   <i name="OFIELD_Q6_NEAR">      0.00000000</i>
   <i name="OFIELD_Q6_FAR">      0.00000000</i>
   <i name="OFIELD_A">      0.00000000</i>
  </separator>
 </parameters>
 <atominfo>
  <atoms>       1 </atoms>
  <types>       1 </types>
  <array name="atoms" >
   <dimension dim="1">ion</dimension>
   <field type="string">element</field>
   <field type="int">atomtype</field>
   <set>
    <rc><c>W </c><c>   1</c></rc>
   </set>
  </array>
  <array name="atomtypes" >
   <dimension dim="1">type</dimension>
   <field type="int">atomspertype</field>
   <field type="string">element</field>
   <field>mass</field>
   <field>valence</field>
   <field type="string">pseudopotential</field>
   <set>
    <rc><c>   1</c><c>W </c><c>    183.85000000</c><c>      6.00000000</c><c> PAW W 19Jan2001                        </c></rc>
   </set>
  </array>
 </atominfo>
 <structure name="initialpos" >
  <crystal>
   <varray name="basis" >
    <v>      -1.56360000       1.56360000       1.56360000 </v>
    <v>       1.56360000      -1.56360000       1.56360000 </v>
    <v>       1.56360000       1.56360000      -1.56360000 </v>
   </varray>
   <i name="volume">     15.29103832 </i>
   <varray name="rec_basis" >
    <v>       0.00000000       0.31977488       0.31977488 </v>
    <v>       0.31977488       0.00000000       0.31977488 </v>
    <v>       0.31977488       0.31977488       0.00000000 </v>
   </varray>
  </crystal>
  <varray name="positions" >
   <v>       0.00000000       0.00000000       0.00000000 </v>
  </varray>
 </structure>
 <calculation>
  <scstep>
   <time name="dav">    0.17    0.18</time>
   <time name="total">    0.18    0.21</time>
   <energy>
    <i name="alphaZ">     45.64970707 </i>
    <i name="ewald">   -301.63576621 </i>
    <i name="hartreedc">     -2.13254737 </i>
    <i name="XCdc">    -46.81589530 </i>
    <i name="pawpsdc">    248.67490937 </i>
    <i name="pawaedc">   -192.59125594 </i>
    <i name="eentropy">      0.00009057 </i>
    <i name="bandstr">     32.52680162 </i>
    <i name="atom">    206.50785835 </i>
    <i name="e_fr_energy">     -9.81609785 </i>
    <i name="e_wo_entrp">     -9.81618842 </i>
    <i name="e_0_energy">     -9.81612804 </i>
   </energy>
  </scstep>
  <scstep>
   <time name="dav">    0.14    0.14</time>
   <time name="total">    0.15    0.15</time>
   <energy>
    <i name="e_fr_energy">    -14.18717092 </i>
    <i name="e_wo_entrp">    -14.18719981 </i>
    <i name="e_0_energy">    -14.18718055 </i>
   </energy>
  </scstep>
  <scstep>
   <time name="dav">    0.18    0.18</time>
   <time name="total">    0.19    0.19</time>
   <energy>
    <i name="e_fr_energy">    -14.21064296 </i>
    <i name="e_wo_entrp">    -14.21059532 </i>
    <i name="e_0_energy">    -14.21062708 </i>
   </energy>
  </scstep>
  <scstep>
   <time name="dav">    0.16    0.16</time>
   <time name="total">    0.17    0.17</time>
   <energy>
    <i name="e_fr_energy">    -14.21065380 </i>
    <i name="e_wo_entrp">    -14.21060601 </i>
    <i name="e_0_energy">    -14.21063787 </i>
   </energy>
  </scstep>
  <scstep>
   <time name="dav">    0.15    0.15</time>
   <time name="total">    0.16    0.16</time>
   <energy>
    <i name="e_fr_energy">    -14.21065381 </i>
    <i name="e_wo_entrp">    -14.21060602 </i>
    <i name="e_0_energy">    -14.21063788 </i>
   </energy>
  </scstep>
  <scstep>
   <time name="dav">    0.10    0.10</time>
   <time name="total">    0.11    0.11</time>
   <energy>
    <i name="alphaZ">     45.64970707 </i>
    <i name="ewald">   -301.63576621 </i>
    <i name="hartreedc">     -2.13254737 </i>
    <i name="XCdc">    -46.81589530 </i>
    <i name="pawpsdc">    248.67490937 </i>
    <i name="pawaedc">   -192.59125594 </i>
    <i name="eentropy">     -0.00004780 </i>
    <i name="bandstr">     28.13238402 </i>
    <i name="atom">    206.50785835 </i>
    <i name="e_fr_energy">    -14.21065381 </i>
    <i name="e_wo_entrp">    -14.21060602 </i>
    <i name="e_0_energy">    -14.21063788 </i>
   </energy>
  </scstep>
  <structure>
   <crystal>
    <varray name="basis" >
     <v>      -1.56360000       1.56360000       1.56360000 </v>
     <v>       1.56360000      -1.56360000       1.56360000 </v>
     <v>       1.56360000       1.56360000      -1.56360000 </v>
    </varray>
    <i name="volume">     15.29103832 </i>
    <varray name="rec_basis" >
     <v>       0.00000000       0.31977488       0.31977488 </v>
     <v>       0.31977488       0.00000000       0.31977488 </v>
     <v>       0.31977488       0.31977488       0.00000000 </v>
    </varray>
   </crystal>
   <varray name="positions" >
    <v>       0.00000000       0.00000000       0.00000000 </v>
   </varray>
  </structure>
  <varray name="forces" >
   <v>       0.00000000      -0.00000000       0.00000000 </v>
  </varray>
  <varray name="stress" >
   <v>     -13.67049221      -0.00000000       0.00000000 </v>
   <v>       0.00000000     -13.67049221       0.00000000 </v>
   <v>       0.00000000      -0.00000000     -13.67049221 </v>
  </varray>
  <energy>
   <i name="e_fr_energy">    -14.21065381 </i>
   <i name="e_wo_entrp">    -14.21063788 </i>
   <i name="e_0_energy">     -0.00004780 </i>
  </energy>
  <time name="totalsc">    1.09    1.13</time>
  <eigenvalues>
   <array>
    <dimension dim="1">band</dimension>
    <dimension dim="2">kpoint</dimension>
    <dimension dim="3">spin</dimension>
    <field>eigene</field>
    <field>occ</field>
    <set>
     <set comment="spin 1">
      <set comment="kpoint 1">
       <r>   -1.3329    1.0000 </r>
       <r>    6.7962    1.0000 </r>
       <r>    6.7962    1.0000 </r>
       <r>    7.1073    1.0000 </r>
       <r>   10.4258   -0.0000 </r>
       <r>   10.4258   -0.0000 </r>
       <r>   23.7213    0.0000 </r>
       <r>   24.0263    0.0000 </r>
      </set>
      <set comment="kpoint 2">
       <r>   -0.9744    1.0000 </r>
       <r>    6.5739    1.0000 </r>
       <r>    6.7081    1.0000 </r>
       <r>    7.5037    1.0000 </r>
       <r>   10.1419   -0.0000 </r>
       <r>   10.4630   -0.0000 </r>
       <r>   23.9910    0.0000 </r>
       <r>   24.6376    0.0000 </r>
      </set>
      <set comment="kpoint 3">
       <r>   -0.4144    1.0000 </r>
       <r>    6.2511    1.0000 </r>
       <r>    6.5508    1.0000 </r>
       <r>    8.1215    0.8850 </r>
       <r>    9.8859   -0.0000 </r>
       <r>   10.5211   -0.0000 </r>
       <r>   24.3484    0.0000 </r>
       <r>   25.5178    0.0000 </r>
      </set>
      <set comment="kpoint 4">
       <r>    0.2797    1.0000 </r>
       <r>    5.8779    1.0000 </r>
       <r>    6.3382    1.0000 </r>
       <r>    8.9475   -0.0000 </r>
       <r>    9.8016   -0.0000 </r>
       <r>   10.6082   -0.0000 </r>
       <r>   24.4100    0.0000 </r>
       <r>   26.2732    0.0000 </r>
      </set>
      <set comment="kpoint 5">
       <r>    0.9879    1.0000 </r>
       <r>    5.4980    1.0000 </r>
       <r>    6.2039    1.0000 </r>
       <r>    9.8407   -0.0000 </r>
       <r>   10.0221   -0.0000 </r>
       <r>   10.7322   -0.0000 </r>
       <r>   23.8706    0.0000 </r>
       <r>   25.5795    0.0000 </r>
      </set>
      <set comment="kpoint 6">
       <r>    1.5374    1.0000 </r>
       <r>    5.1484    1.0000 </r>
       <r>    6.3622    1.0000 </r>
       <r>   10.1051   -0.0000 </r>
       <r>   10.8959   -0.0000 </r>
       <r>   11.1378   -0.0000 </r>
       <r>   22.9379    0.0000 </r>
       <r>   24.1512    0.0000 </r>
      </set>
      <set comment="kpoint 7">
       <r>    1.8071    1.0000 </r>
       <r>    4.8549    1.0000 </r>
       <r>    6.9344    1.0000 </r>
       <r>   10.3510   -0.0000 </r>
       <r>   11.0854   -0.0000 </r>
       <r>   12.3645   -0.0000 </r>
       <r>   21.9552    0.0000 </r>
       <r>   22.5713    0.0000 </r>
      </set>
      <set comment="kpoint 8">
       <r>    1.8563    1.0000 </r>
       <r>    4.6329    1.0000 </r>
       <r>    7.7991    1.0050 </r>
       <r>   10.5175   -0.0000 </r>
       <r>   11.2637   -0.0000 </r>
       <r>   13.5352   -0.0000 </r>
       <r>   21.1284    0.0000 </r>
       <r>   21.1504    0.0000 </r>
      </set>
      <set comment="kpoint 9">
       <r>    1.8248    1.0000 </r>
       <r>    4.4955    1.0000 </r>
       <r>    8.6574   -0.0047 </r>
       <r>   10.5248   -0.0000 </r>
       <r>   11.4033   -0.0000 </r>
       <r>   14.4431    0.0000 </r>
       <r>   20.1352    0.0000 </r>
       <r>   20.5819    0.0000 </r>
      </set>
      <set comment="kpoint 10">
       <r>    1.8049    1.0000 </r>
       <r>    4.4490    1.0000 </r>
       <r>    9.0674   -0.0000 </r>
       <r>   10.4553   -0.0000 </r>
       <r>   11.4545   -0.0000 </r>
       <r>   14.7991    0.0000 </r>
       <r>   19.7573    0.0000 </r>
       <r>   20.3903    0.0000 </r>
      </set>
      <set comment="kpoint 11">
       <r>   -1.4559    1.0000 </r>
       <r>    6.8759    1.0000 </r>
       <r>    6.8761    1.0000 </r>
       <r>    6.9118    1.0000 </r>
       <r>   10.4122   -0.0000 </r>
       <r>   10.5471   -0.0000 </r>
       <r>   23.7151    0.0000 </r>
       <r>   23.7169    0.0000 </r>
      </set>
      <set comment="kpoint 12">
       <r>   -0.5203    1.0000 </r>
       <r>    6.3586    1.0000 </r>
       <r>    6.4557    1.0000 </r>
       <r>    8.0776    0.9752 </r>
       <r>    9.9723   -0.0000 </r>
       <r>   10.4705   -0.0000 </r>
       <r>   24.3015    0.0000 </r>
       <r>   25.3524    0.0000 </r>
      </set>
      <set comment="kpoint 13">
       <r>    0.1083    1.0000 </r>
       <r>    6.0208    1.0000 </r>
       <r>    6.2144    1.0000 </r>
       <r>    8.8565   -0.0000 </r>
       <r>    9.7980   -0.0000 </r>
       <r>   10.5964   -0.0000 </r>
       <r>   24.6881    0.0000 </r>
       <r>   25.8591    0.0000 </r>
      </set>
      <set comment="kpoint 14">
       <r>    0.8282    1.0000 </r>
       <r>    5.6448    1.0000 </r>
       <r>    6.0036    1.0000 </r>
       <r>    9.7180   -0.0000 </r>
       <r>    9.8887   -0.0000 </r>
       <r>   10.7521   -0.0000 </r>
       <r>   24.4902    0.0000 </r>
       <r>   25.9125    0.0000 </r>
      </set>
      <set comment="kpoint 15">
       <r>    1.4938    1.0000 </r>
       <r>    5.2870    1.0000 </r>
       <r>    5.9689    1.0000 </r>
       <r>    9.9091   -0.0000 </r>
       <r>   10.9207   -0.0000 </r>
       <r>   10.9697   -0.0000 </r>
       <r>   23.6027    0.0000 </r>
       <r>   24.9171    0.0000 </r>
      </set>
      <set comment="kpoint 16">
       <r>    1.9247    1.0000 </r>
       <r>    4.9768    1.0000 </r>
       <r>    6.3007    1.0000 </r>
       <r>   10.1485   -0.0000 </r>
       <r>   11.0928   -0.0000 </r>
       <r>   12.1903   -0.0000 </r>
       <r>   22.5216    0.0000 </r>
       <r>   23.4147    0.0000 </r>
      </set>
      <set comment="kpoint 17">
       <r>    2.0717    1.0000 </r>
       <r>    4.7326    1.0000 </r>
       <r>    7.0179    1.0000 </r>
       <r>   10.3881   -0.0000 </r>
       <r>   11.2608   -0.0000 </r>
       <r>   13.4153   -0.0000 </r>
       <r>   21.4085    0.0000 </r>
       <r>   22.0134    0.0000 </r>
      </set>
      <set comment="kpoint 18">
       <r>    2.0620    1.0000 </r>
       <r>    4.5639    1.0000 </r>
       <r>    7.8801    1.0171 </r>
       <r>   10.5079   -0.0000 </r>
       <r>   11.4270   -0.0000 </r>
       <r>   14.4778    0.0000 </r>
       <r>   20.2508    0.0000 </r>
       <r>   21.1602    0.0000 </r>
      </set>
      <set comment="kpoint 19">
       <r>    2.0268    1.0000 </r>
       <r>    4.4785    1.0000 </r>
       <r>    8.5191   -0.0294 </r>
       <r>   10.4799   -0.0000 </r>
       <r>   11.5584   -0.0000 </r>
       <r>   15.1323    0.0000 </r>
       <r>   19.5015    0.0000 </r>
       <r>   20.7649    0.0000 </r>
      </set>
      <set comment="kpoint 20">
       <r>   -1.2109    1.0000 </r>
       <r>    6.7376    1.0000 </r>
       <r>    6.8478    1.0000 </r>
       <r>    7.1496    1.0000 </r>
       <r>   10.1410   -0.0000 </r>
       <r>   10.5960   -0.0000 </r>
       <r>   23.9275    0.0000 </r>
       <r>   24.1415    0.0000 </r>
      </set>
      <set comment="kpoint 21">
       <r>    0.7764    1.0000 </r>
       <r>    5.7807    1.0000 </r>
       <r>    5.8385    1.0000 </r>
       <r>    9.6992   -0.0000 </r>
       <r>    9.7995   -0.0000 </r>
       <r>   10.7968   -0.0000 </r>
       <r>   25.2070    0.0000 </r>
       <r>   25.3405    0.0000 </r>
      </set>
      <set comment="kpoint 22">
       <r>    1.4942    1.0000 </r>
       <r>    5.4373    1.0000 </r>
       <r>    5.6489    1.0000 </r>
       <r>    9.7317   -0.0000 </r>
       <r>   10.9151   -0.0000 </r>
       <r>   11.0054   -0.0000 </r>
       <r>   24.2339    0.0000 </r>
       <r>   25.4015    0.0000 </r>
      </set>
      <set comment="kpoint 23">
       <r>    2.0912    1.0000 </r>
       <r>    5.1125    1.0000 </r>
       <r>    5.7281    1.0000 </r>
       <r>    9.9013   -0.0000 </r>
       <r>   11.1794   -0.0000 </r>
       <r>   12.1537   -0.0000 </r>
       <r>   22.9855    0.0000 </r>
       <r>   24.4942    0.0000 </r>
      </set>
      <set comment="kpoint 24">
       <r>    2.3979    1.0000 </r>
       <r>    4.8592    1.0000 </r>
       <r>    6.1915    1.0000 </r>
       <r>   10.1520   -0.0000 </r>
       <r>   11.3176   -0.0000 </r>
       <r>   13.4335   -0.0000 </r>
       <r>   21.6905    0.0000 </r>
       <r>   23.1596    0.0000 </r>
      </set>
      <set comment="kpoint 25">
       <r>    2.4509    1.0000 </r>
       <r>    4.6780    1.0000 </r>
       <r>    6.9381    1.0000 </r>
       <r>   10.3773   -0.0000 </r>
       <r>   11.4470   -0.0000 </r>
       <r>   14.6325    0.0000 </r>
       <r>   20.3626    0.0000 </r>
       <r>   22.1119    0.0000 </r>
      </set>
      <set comment="kpoint 26">
       <r>    2.4134    1.0000 </r>
       <r>    4.5687    1.0000 </r>
       <r>    7.6437    1.0001 </r>
       <r>   10.4559   -0.0000 </r>
       <r>   11.6182   -0.0000 </r>
       <r>   15.5453    0.0000 </r>
       <r>   19.2746    0.0000 </r>
       <r>   21.4986    0.0000 </r>
      </set>
      <set comment="kpoint 27">
       <r>    2.3908    1.0000 </r>
       <r>    4.5321    1.0000 </r>
       <r>    7.9455    1.0315 </r>
       <r>   10.4440   -0.0000 </r>
       <r>   11.7183   -0.0000 </r>
       <r>   15.9017    0.0000 </r>
       <r>   18.8433    0.0000 </r>
       <r>   21.2918    0.0000 </r>
      </set>
      <set comment="kpoint 28">
       <r>   -0.7431    1.0000 </r>
       <r>    6.4672    1.0000 </r>
       <r>    6.7487    1.0000 </r>
       <r>    7.6408    1.0001 </r>
       <r>    9.8212   -0.0000 </r>
       <r>   10.6362   -0.0000 </r>
       <r>   24.2571    0.0000 </r>
       <r>   24.9637    0.0000 </r>
      </set>
      <set comment="kpoint 29">
       <r>   -0.8550    1.0000 </r>
       <r>    6.6265    1.0000 </r>
       <r>    6.7364    1.0000 </r>
       <r>    7.4815    1.0000 </r>
       <r>    9.7673   -0.0000 </r>
       <r>   10.7149   -0.0000 </r>
       <r>   24.2726    0.0000 </r>
       <r>   24.7850    0.0000 </r>
      </set>
      <set comment="kpoint 30">
       <r>    2.1745    1.0000 </r>
       <r>    5.2099    1.0000 </r>
       <r>    5.4539    1.0000 </r>
       <r>    9.7972   -0.0000 </r>
       <r>   11.2205   -0.0000 </r>
       <r>   12.1535   -0.0000 </r>
       <r>   23.1933    0.0000 </r>
       <r>   25.2025    0.0000 </r>
      </set>
      <set comment="kpoint 31">
       <r>    2.6843    1.0000 </r>
       <r>    4.9684    1.0000 </r>
       <r>    5.6035    1.0000 </r>
       <r>    9.9750   -0.0000 </r>
       <r>   11.3607   -0.0000 </r>
       <r>   13.4779   -0.0000 </r>
       <r>   21.8945    0.0000 </r>
       <r>   24.3596    0.0000 </r>
      </set>
      <set comment="kpoint 32">
       <r>    2.8889    1.0000 </r>
       <r>    4.7989    1.0000 </r>
       <r>    6.1039    1.0000 </r>
       <r>   10.2236   -0.0000 </r>
       <r>   11.4419   -0.0000 </r>
       <r>   14.7940    0.0000 </r>
       <r>   20.4825    0.0000 </r>
       <r>   23.2191    0.0000 </r>
      </set>
      <set comment="kpoint 33">
       <r>    2.8941    1.0000 </r>
       <r>    4.6954    1.0000 </r>
       <r>    6.7423    1.0000 </r>
       <r>   10.4209   -0.0000 </r>
       <r>   11.5502   -0.0000 </r>
       <r>   15.9517    0.0000 </r>
       <r>   19.1535    0.0000 </r>
       <r>   22.3714    0.0000 </r>
      </set>
      <set comment="kpoint 34">
       <r>    2.8604    1.0000 </r>
       <r>    4.6460    1.0000 </r>
       <r>    7.1846    1.0000 </r>
       <r>   10.4760   -0.0000 </r>
       <r>   11.7042   -0.0000 </r>
       <r>   16.6918    0.0000 </r>
       <r>   18.2947    0.0000 </r>
       <r>   21.8867    0.0000 </r>
      </set>
      <set comment="kpoint 35">
       <r>   -0.1033    1.0000 </r>
       <r>    6.1173    1.0000 </r>
       <r>    6.5578    1.0000 </r>
       <r>    8.3526    0.0679 </r>
       <r>    9.6292   -0.0000 </r>
       <r>   10.6939   -0.0000 </r>
       <r>   24.4626    0.0000 </r>
       <r>   26.1328    0.0000 </r>
      </set>
      <set comment="kpoint 36">
       <r>   -0.2989    1.0000 </r>
       <r>    6.3442    1.0000 </r>
       <r>    6.5751    1.0000 </r>
       <r>    8.0827    0.9672 </r>
       <r>    9.4481   -0.0000 </r>
       <r>   10.8199   -0.0000 </r>
       <r>   24.6599    0.0000 </r>
       <r>   25.5888    0.0000 </r>
      </set>
      <set comment="kpoint 37">
       <r>    3.1137    1.0000 </r>
       <r>    4.8696    1.0000 </r>
       <r>    5.7185    1.0000 </r>
       <r>   10.1527   -0.0000 </r>
       <r>   11.4390   -0.0000 </r>
       <r>   14.8623    0.0000 </r>
       <r>   20.5382    0.0000 </r>
       <r>   23.9570    0.0000 </r>
      </set>
      <set comment="kpoint 38">
       <r>    3.2871    1.0000 </r>
       <r>    4.8313    1.0000 </r>
       <r>    6.0673    1.0000 </r>
       <r>   10.3960   -0.0000 </r>
       <r>   11.4628   -0.0000 </r>
       <r>   16.1983    0.0000 </r>
       <r>   19.1256    0.0000 </r>
       <r>   23.0212    0.0000 </r>
      </set>
      <set comment="kpoint 39">
       <r>    3.3072    1.0000 </r>
       <r>    4.8232    1.0000 </r>
       <r>    6.4397    1.0000 </r>
       <r>   10.5795   -0.0000 </r>
       <r>   11.5479   -0.0000 </r>
       <r>   17.2894    0.0000 </r>
       <r>   18.0013    0.0000 </r>
       <r>   22.1656    0.0000 </r>
      </set>
      <set comment="kpoint 40">
       <r>    3.3004    1.0000 </r>
       <r>    4.8230    1.0000 </r>
       <r>    6.5969    1.0000 </r>
       <r>   10.6330   -0.0000 </r>
       <r>   11.6294   -0.0000 </r>
       <r>   17.4891    0.0000 </r>
       <r>   17.8340    0.0000 </r>
       <r>   21.7776    0.0000 </r>
      </set>
      <set comment="kpoint 41">
       <r>    0.6155    1.0000 </r>
       <r>    5.7385    1.0000 </r>
       <r>    6.3493    1.0000 </r>
       <r>    9.2707   -0.0000 </r>
       <r>    9.6487   -0.0000 </r>
       <r>   10.7869   -0.0000 </r>
       <r>   24.1742    0.0000 </r>
       <r>   26.0809    0.0000 </r>
      </set>
      <set comment="kpoint 42">
       <r>    0.3909    1.0000 </r>
       <r>    5.9830    1.0000 </r>
       <r>    6.3548    1.0000 </r>
       <r>    8.9039   -0.0000 </r>
       <r>    9.3348   -0.0000 </r>
       <r>   10.9372   -0.0000 </r>
       <r>   24.6557    0.0000 </r>
       <r>   26.1186    0.0000 </r>
      </set>
      <set comment="kpoint 43">
       <r>    0.3161    1.0000 </r>
       <r>    6.1629    1.0000 </r>
       <r>    6.2605    1.0000 </r>
       <r>    8.8133   -0.0001 </r>
       <r>    9.1864   -0.0000 </r>
       <r>   11.0069   -0.0000 </r>
       <r>   25.2058    0.0000 </r>
       <r>   25.5510    0.0000 </r>
      </set>
      <set comment="kpoint 44">
       <r>    3.5040    1.0000 </r>
       <r>    4.9742    1.0000 </r>
       <r>    6.0523    1.0000 </r>
       <r>   10.6571   -0.0000 </r>
       <r>   11.4406   -0.0000 </r>
       <r>   17.4509    0.0000 </r>
       <r>   17.9942    0.0000 </r>
       <r>   22.1749    0.0000 </r>
      </set>
      <set comment="kpoint 45">
       <r>    3.5745    1.0000 </r>
       <r>    5.1212    1.0000 </r>
       <r>    6.0328    1.0000 </r>
       <r>   10.8713   -0.0000 </r>
       <r>   11.4365   -0.0000 </r>
       <r>   17.0375    0.0000 </r>
       <r>   18.7319    0.0000 </r>
       <r>   21.2610    0.0000 </r>
      </set>
      <set comment="kpoint 46">
       <r>    1.2624    1.0000 </r>
       <r>    5.3675    1.0000 </r>
       <r>    6.3194    1.0000 </r>
       <r>    9.8419   -0.0000 </r>
       <r>   10.3579   -0.0000 </r>
       <r>   10.9156   -0.0000 </r>
       <r>   23.3448    0.0000 </r>
       <r>   24.9958    0.0000 </r>
      </set>
      <set comment="kpoint 47">
       <r>    1.0972    1.0000 </r>
       <r>    5.6091    1.0000 </r>
       <r>    6.1861    1.0000 </r>
       <r>    9.4282   -0.0000 </r>
       <r>    9.9357   -0.0000 </r>
       <r>   11.0644   -0.0000 </r>
       <r>   23.8962    0.0000 </r>
       <r>   25.6781    0.0000 </r>
      </set>
      <set comment="kpoint 48">
       <r>    1.0230    1.0000 </r>
       <r>    5.8301    1.0000 </r>
       <r>    6.0196    1.0000 </r>
       <r>    9.1373   -0.0000 </r>
       <r>    9.7672   -0.0000 </r>
       <r>   11.1799   -0.0000 </r>
       <r>   24.5412    0.0000 </r>
       <r>   25.7313    0.0000 </r>
      </set>
      <set comment="kpoint 49">
       <r>    3.6571    1.0000 </r>
       <r>    5.5614    1.0000 </r>
       <r>    5.5615    1.0000 </r>
       <r>   11.1964   -0.0000 </r>
       <r>   11.1965   -0.0000 </r>
       <r>   16.6997    0.0000 </r>
       <r>   20.0513    0.0000 </r>
       <r>   20.0516    0.0000 </r>
      </set>
      <set comment="kpoint 50">
       <r>    1.6724    1.0000 </r>
       <r>    5.0399    1.0000 </r>
       <r>    6.6614    1.0000 </r>
       <r>   10.1262   -0.0000 </r>
       <r>   11.0731   -0.0000 </r>
       <r>   11.5646   -0.0000 </r>
       <r>   22.3257    0.0000 </r>
       <r>   23.5192    0.0000 </r>
      </set>
      <set comment="kpoint 51">
       <r>    1.6490    1.0000 </r>
       <r>    5.2625    1.0000 </r>
       <r>    6.2772    1.0000 </r>
       <r>    9.7063   -0.0000 </r>
       <r>   11.0808   -0.0000 </r>
       <r>   11.2112   -0.0000 </r>
       <r>   22.8098    0.0000 </r>
       <r>   24.5307    0.0000 </r>
      </set>
      <set comment="kpoint 52">
       <r>    1.6844    1.0000 </r>
       <r>    5.4625    1.0000 </r>
       <r>    5.9424    1.0000 </r>
       <r>    9.3050   -0.0000 </r>
       <r>   10.8744   -0.0000 </r>
       <r>   11.3444   -0.0000 </r>
       <r>   23.3283    0.0000 </r>
       <r>   25.4246    0.0000 </r>
      </set>
      <set comment="kpoint 53">
       <r>    1.7082    1.0000 </r>
       <r>    5.5423    1.0000 </r>
       <r>    5.8131    1.0000 </r>
       <r>    9.1383   -0.0000 </r>
       <r>   10.8167   -0.0000 </r>
       <r>   11.4007   -0.0000 </r>
       <r>   23.5927    0.0000 </r>
       <r>   25.7859    0.0000 </r>
      </set>
      <set comment="kpoint 54">
       <r>    1.8135    1.0000 </r>
       <r>    4.7755    1.0000 </r>
       <r>    7.3768    1.0000 </r>
       <r>   10.3807   -0.0000 </r>
       <r>   11.2473   -0.0000 </r>
       <r>   12.7887   -0.0000 </r>
       <r>   21.3777    0.0000 </r>
       <r>   22.0578    0.0000 </r>
      </set>
      <set comment="kpoint 55">
       <r>    1.9208    1.0000 </r>
       <r>    4.9716    1.0000 </r>
       <r>    6.7495    1.0000 </r>
       <r>   10.0426   -0.0000 </r>
       <r>   11.3276   -0.0000 </r>
       <r>   12.3350   -0.0000 </r>
       <r>   21.7648    0.0000 </r>
       <r>   23.1036    0.0000 </r>
      </set>
      <set comment="kpoint 56">
       <r>    2.1230    1.0000 </r>
       <r>    5.1604    1.0000 </r>
       <r>    6.1469    1.0000 </r>
       <r>    9.6174   -0.0000 </r>
       <r>   11.3859   -0.0000 </r>
       <r>   12.1796   -0.0000 </r>
       <r>   22.1805    0.0000 </r>
       <r>   24.2798    0.0000 </r>
      </set>
      <set comment="kpoint 57">
       <r>    2.2993    1.0000 </r>
       <r>    5.2235    1.0000 </r>
       <r>    5.8239    1.0000 </r>
       <r>    9.3232   -0.0000 </r>
       <r>   11.3925   -0.0000 </r>
       <r>   12.1745   -0.0000 </r>
       <r>   22.4784    0.0000 </r>
       <r>   25.3386    0.0000 </r>
      </set>
      <set comment="kpoint 58">
       <r>    1.8065    1.0000 </r>
       <r>    4.5914    1.0000 </r>
       <r>    8.2385    0.4514 </r>
       <r>   10.4754   -0.0000 </r>
       <r>   11.4458   -0.0000 </r>
       <r>   13.8716    0.0000 </r>
       <r>   20.5595    0.0000 </r>
       <r>   20.9630    0.0000 </r>
      </set>
      <set comment="kpoint 59">
       <r>    1.9683    1.0000 </r>
       <r>    4.7534    1.0000 </r>
       <r>    7.4825    1.0000 </r>
       <r>   10.2736   -0.0000 </r>
       <r>   11.5382   -0.0000 </r>
       <r>   13.5181   -0.0000 </r>
       <r>   20.8422    0.0000 </r>
       <r>   21.8311    0.0000 </r>
      </set>
      <set comment="kpoint 60">
       <r>    2.2757    1.0000 </r>
       <r>    4.9336    1.0000 </r>
       <r>    6.6737    1.0000 </r>
       <r>    9.9498   -0.0000 </r>
       <r>   11.5288   -0.0000 </r>
       <r>   13.4329   -0.0000 </r>
       <r>   21.1277    0.0000 </r>
       <r>   22.9655    0.0000 </r>
      </set>
      <set comment="kpoint 61">
       <r>    2.6318    1.0000 </r>
       <r>    5.0153    1.0000 </r>
       <r>    6.0740    1.0000 </r>
       <r>    9.6354   -0.0000 </r>
       <r>   11.4732   -0.0000 </r>
       <r>   13.4785   -0.0000 </r>
       <r>   21.3701    0.0000 </r>
       <r>   24.1960    0.0000 </r>
      </set>
      <set comment="kpoint 62">
       <r>    2.8132    1.0000 </r>
       <r>    4.9763    1.0000 </r>
       <r>    5.8891    1.0000 </r>
       <r>    9.5039   -0.0000 </r>
       <r>   11.4507   -0.0000 </r>
       <r>   13.5117   -0.0000 </r>
       <r>   21.4701    0.0000 </r>
       <r>   24.9599    0.0000 </r>
      </set>
      <set comment="kpoint 63">
       <r>    1.7738    1.0000 </r>
       <r>    4.4972    1.0000 </r>
       <r>    8.9032   -0.0000 </r>
       <r>   10.3887   -0.0000 </r>
       <r>   11.6064   -0.0000 </r>
       <r>   14.5492    0.0000 </r>
       <r>   19.9446    0.0000 </r>
       <r>   20.4985    0.0000 </r>
      </set>
      <set comment="kpoint 64">
       <r>    1.9341    1.0000 </r>
       <r>    4.6188    1.0000 </r>
       <r>    8.1895    0.6558 </r>
       <r>   10.2660   -0.0000 </r>
       <r>   11.8347   -0.0000 </r>
       <r>   14.4388    0.0000 </r>
       <r>   20.0389    0.0000 </r>
       <r>   21.0801    0.0000 </r>
      </set>
      <set comment="kpoint 65">
       <r>    2.2645    1.0000 </r>
       <r>    4.7796    1.0000 </r>
       <r>    7.3166    1.0000 </r>
       <r>   10.0941   -0.0000 </r>
       <r>   11.8128   -0.0000 </r>
       <r>   14.5487    0.0000 </r>
       <r>   20.1138    0.0000 </r>
       <r>   22.0117    0.0000 </r>
      </set>
      <set comment="kpoint 66">
       <r>    2.7051    1.0000 </r>
       <r>    4.8939    1.0000 </r>
       <r>    6.5315    1.0000 </r>
       <r>    9.9195   -0.0000 </r>
       <r>   11.6161   -0.0000 </r>
       <r>   14.7646    0.0000 </r>
       <r>   20.2086    0.0000 </r>
       <r>   23.1004    0.0000 </r>
      </set>
      <set comment="kpoint 67">
       <r>    3.0932    1.0000 </r>
       <r>    4.8610    1.0000 </r>
       <r>    6.0839    1.0000 </r>
       <r>    9.8016   -0.0000 </r>
       <r>   11.4582   -0.0000 </r>
       <r>   14.9154    0.0000 </r>
       <r>   20.2873    0.0000 </r>
       <r>   23.9904    0.0000 </r>
      </set>
      <set comment="kpoint 68">
       <r>    1.9131    1.0000 </r>
       <r>    4.5731    1.0000 </r>
       <r>    8.5106   -0.0311 </r>
       <r>   10.1892   -0.0000 </r>
       <r>   11.9898   -0.0000 </r>
       <r>   14.8009    0.0000 </r>
       <r>   19.6854    0.0000 </r>
       <r>   20.8575    0.0000 </r>
      </set>
      <set comment="kpoint 69">
       <r>    2.2265    1.0000 </r>
       <r>    4.7013    1.0000 </r>
       <r>    7.7762    1.0032 </r>
       <r>   10.0441   -0.0000 </r>
       <r>   12.1288   -0.0000 </r>
       <r>   15.2514    0.0000 </r>
       <r>   19.3859    0.0000 </r>
       <r>   21.5627    0.0000 </r>
      </set>
      <set comment="kpoint 70">
       <r>    2.6728    1.0000 </r>
       <r>    4.8259    1.0000 </r>
       <r>    6.9736    1.0000 </r>
       <r>   10.0009   -0.0000 </r>
       <r>   11.9294   -0.0000 </r>
       <r>   15.8031    0.0000 </r>
       <r>   19.1559    0.0000 </r>
       <r>   22.3877    0.0000 </r>
      </set>
      <set comment="kpoint 71">
       <r>    3.1541    1.0000 </r>
       <r>    4.8622    1.0000 </r>
       <r>    6.3265    1.0000 </r>
       <r>   10.0569   -0.0000 </r>
       <r>   11.5995   -0.0000 </r>
       <r>   16.2248    0.0000 </r>
       <r>   19.0590    0.0000 </r>
       <r>   22.9856    0.0000 </r>
      </set>
      <set comment="kpoint 72">
       <r>    3.4070    1.0000 </r>
       <r>    4.8184    1.0000 </r>
       <r>    6.0798    1.0000 </r>
       <r>   10.1141   -0.0000 </r>
       <r>   11.4317   -0.0000 </r>
       <r>   16.3774    0.0000 </r>
       <r>   19.0478    0.0000 </r>
       <r>   23.1664    0.0000 </r>
      </set>
      <set comment="kpoint 73">
       <r>    2.6503    1.0000 </r>
       <r>    4.8032    1.0000 </r>
       <r>    7.1577    1.0000 </r>
       <r>    9.9847   -0.0000 </r>
       <r>   12.1240   -0.0000 </r>
       <r>   16.2333    0.0000 </r>
       <r>   18.6949    0.0000 </r>
       <r>   22.1232    0.0000 </r>
      </set>
      <set comment="kpoint 74">
       <r>    3.1389    1.0000 </r>
       <r>    4.8861    1.0000 </r>
       <r>    6.4948    1.0000 </r>
       <r>   10.1421   -0.0000 </r>
       <r>   11.8542   -0.0000 </r>
       <r>   17.1580    0.0000 </r>
       <r>   18.1774    0.0000 </r>
       <r>   22.2889    0.0000 </r>
      </set>
      <set comment="kpoint 75">
       <r>    3.5334    1.0000 </r>
       <r>    4.9198    1.0000 </r>
       <r>    6.0110    1.0000 </r>
       <r>   10.4130   -0.0000 </r>
       <r>   11.5023   -0.0000 </r>
       <r>   17.5553    0.0000 </r>
       <r>   18.1323    0.0000 </r>
       <r>   22.1155    0.0000 </r>
      </set>
      <set comment="kpoint 76">
       <r>    3.5565    1.0000 </r>
       <r>    5.0005    1.0000 </r>
       <r>    5.9574    1.0000 </r>
       <r>   10.5183   -0.0000 </r>
       <r>   11.5906   -0.0000 </r>
       <r>   17.4250    0.0000 </r>
       <r>   18.4880    0.0000 </r>
       <r>   21.5372    0.0000 </r>
      </set>
      <set comment="kpoint 77">
       <r>    3.7357    1.0000 </r>
       <r>    5.1484    1.0000 </r>
       <r>    5.6188    1.0000 </r>
       <r>   10.8501   -0.0000 </r>
       <r>   11.3090   -0.0000 </r>
       <r>   17.1533    0.0000 </r>
       <r>   19.2683    0.0000 </r>
       <r>   20.9050    0.0000 </r>
      </set>
      <set comment="kpoint 78">
       <r>    0.0119    1.0000 </r>
       <r>    6.0915    1.0000 </r>
       <r>    6.0915    1.0000 </r>
       <r>    8.8612   -0.0000 </r>
       <r>   10.2256   -0.0000 </r>
       <r>   10.2256   -0.0000 </r>
       <r>   24.6372    0.0000 </r>
       <r>   25.9483    0.0000 </r>
      </set>
      <set comment="kpoint 79">
       <r>    0.6921    1.0000 </r>
       <r>    5.7079    1.0000 </r>
       <r>    5.8231    1.0000 </r>
       <r>    9.8173   -0.0000 </r>
       <r>   10.0993   -0.0000 </r>
       <r>   10.4722   -0.0000 </r>
       <r>   25.0063    0.0000 </r>
       <r>   26.0292    0.0000 </r>
      </set>
      <set comment="kpoint 80">
       <r>    1.4208    1.0000 </r>
       <r>    5.3447    1.0000 </r>
       <r>    5.6437    1.0000 </r>
       <r>   10.1084   -0.0000 </r>
       <r>   10.7072   -0.0000 </r>
       <r>   10.9525   -0.0000 </r>
       <r>   24.4526    0.0000 </r>
       <r>   25.4487    0.0000 </r>
      </set>
      <set comment="kpoint 81">
       <r>    2.0199    1.0000 </r>
       <r>    5.0283    1.0000 </r>
       <r>    5.7393    1.0000 </r>
       <r>   10.2514   -0.0000 </r>
       <r>   10.9320   -0.0000 </r>
       <r>   12.1807   -0.0000 </r>
       <r>   23.4423    0.0000 </r>
       <r>   23.9200    0.0000 </r>
      </set>
      <set comment="kpoint 82">
       <r>    2.3191    1.0000 </r>
       <r>    4.7709    1.0000 </r>
       <r>    6.2681    1.0000 </r>
       <r>   10.4450   -0.0000 </r>
       <r>   11.1385   -0.0000 </r>
       <r>   13.4391   -0.0000 </r>
       <r>   22.1355    0.0000 </r>
       <r>   22.4462    0.0000 </r>
      </set>
      <set comment="kpoint 83">
       <r>    2.3662    1.0000 </r>
       <r>    4.5819    1.0000 </r>
       <r>    7.1146    1.0000 </r>
       <r>   10.6014   -0.0000 </r>
       <r>   11.3185   -0.0000 </r>
       <r>   14.6017    0.0000 </r>
       <r>   20.5130    0.0000 </r>
       <r>   21.6374    0.0000 </r>
      </set>
      <set comment="kpoint 84">
       <r>    2.3267    1.0000 </r>
       <r>    4.4665    1.0000 </r>
       <r>    7.9330    1.0290 </r>
       <r>   10.6555   -0.0000 </r>
       <r>   11.4415   -0.0000 </r>
       <r>   15.4675    0.0000 </r>
       <r>   19.3426    0.0000 </r>
       <r>   21.1115    0.0000 </r>
      </set>
      <set comment="kpoint 85">
       <r>    2.3037    1.0000 </r>
       <r>    4.4289    1.0000 </r>
       <r>    8.2941    0.2331 </r>
       <r>   10.6448   -0.0000 </r>
       <r>   11.4871   -0.0000 </r>
       <r>   15.8000    0.0000 </r>
       <r>   18.9053    0.0000 </r>
       <r>   20.9290    0.0000 </r>
      </set>
      <set comment="kpoint 86">
       <r>   -0.9688    1.0000 </r>
       <r>    6.8476    1.0000 </r>
       <r>    6.8477    1.0000 </r>
       <r>    7.1475    1.0000 </r>
       <r>    9.6868   -0.0000 </r>
       <r>   10.8155   -0.0000 </r>
       <r>   24.5291    0.0000 </r>
       <r>   24.5589    0.0000 </r>
      </set>
      <set comment="kpoint 87">
       <r>    1.4015    1.0000 </r>
       <r>    5.4276    1.0000 </r>
       <r>    5.4564    1.0000 </r>
       <r>   10.1796   -0.0000 </r>
       <r>   10.6388   -0.0000 </r>
       <r>   10.9531   -0.0000 </r>
       <r>   25.1927    0.0000 </r>
       <r>   25.4328    0.0000 </r>
      </set>
      <set comment="kpoint 88">
       <r>    2.1201    1.0000 </r>
       <r>    5.1154    1.0000 </r>
       <r>    5.3159    1.0000 </r>
       <r>   10.2608   -0.0000 </r>
       <r>   10.9024   -0.0000 </r>
       <r>   12.2034   -0.0000 </r>
       <r>   24.0268    0.0000 </r>
       <r>   24.8317    0.0000 </r>
      </set>
      <set comment="kpoint 89">
       <r>    2.6304    1.0000 </r>
       <r>    4.8520    1.0000 </r>
       <r>    5.5379    1.0000 </r>
       <r>   10.4132   -0.0000 </r>
       <r>   11.1267   -0.0000 </r>
       <r>   13.5074   -0.0000 </r>
       <r>   22.5065    0.0000 </r>
       <r>   23.5068    0.0000 </r>
      </set>
      <set comment="kpoint 90">
       <r>    2.8000    1.0000 </r>
       <r>    4.6565    1.0000 </r>
       <r>    6.2011    1.0000 </r>
       <r>   10.5929   -0.0000 </r>
       <r>   11.3060   -0.0000 </r>
       <r>   14.7669    0.0000 </r>
       <r>   20.7614    0.0000 </r>
       <r>   22.4857    0.0000 </r>
      </set>
      <set comment="kpoint 91">
       <r>    2.7798    1.0000 </r>
       <r>    4.5266    1.0000 </r>
       <r>    7.0356    1.0000 </r>
       <r>   10.7235   -0.0000 </r>
       <r>   11.4427   -0.0000 </r>
       <r>   15.8212    0.0000 </r>
       <r>   19.2696    0.0000 </r>
       <r>   21.7963    0.0000 </r>
      </set>
      <set comment="kpoint 92">
       <r>    2.7360    1.0000 </r>
       <r>    4.4622    1.0000 </r>
       <r>    7.6317    1.0001 </r>
       <r>   10.7583   -0.0000 </r>
       <r>   11.5315   -0.0000 </r>
       <r>   16.4486    0.0000 </r>
       <r>   18.3887    0.0000 </r>
       <r>   21.4351    0.0000 </r>
      </set>
      <set comment="kpoint 93">
       <r>   -0.5069    1.0000 </r>
       <r>    6.6591    1.0000 </r>
       <r>    6.7933    1.0000 </r>
       <r>    7.5615    1.0000 </r>
       <r>    9.2037   -0.0000 </r>
       <r>   10.9794   -0.0000 </r>
       <r>   24.8801    0.0000 </r>
       <r>   25.3595    0.0000 </r>
      </set>
      <set comment="kpoint 94">
       <r>    2.7952    1.0000 </r>
       <r>    4.9646    1.0000 </r>
       <r>    5.1417    1.0000 </r>
       <r>   10.3756   -0.0000 </r>
       <r>   11.1435   -0.0000 </r>
       <r>   13.5403   -0.0000 </r>
       <r>   22.6556    0.0000 </r>
       <r>   24.5298    0.0000 </r>
      </set>
      <set comment="kpoint 95">
       <r>    3.1992    1.0000 </r>
       <r>    4.7898    1.0000 </r>
       <r>    5.4446    1.0000 </r>
       <r>   10.5416   -0.0000 </r>
       <r>   11.3254   -0.0000 </r>
       <r>   14.8818    0.0000 </r>
       <r>   20.9369    0.0000 </r>
       <r>   23.4946    0.0000 </r>
      </set>
      <set comment="kpoint 96">
       <r>    3.2758    1.0000 </r>
       <r>    4.6633    1.0000 </r>
       <r>    6.1286    1.0000 </r>
       <r>   10.7225   -0.0000 </r>
       <r>   11.4415   -0.0000 </r>
       <r>   16.1084    0.0000 </r>
       <r>   19.2842    0.0000 </r>
       <r>   22.6048    0.0000 </r>
      </set>
      <set comment="kpoint 97">
       <r>    3.2368    1.0000 </r>
       <r>    4.5914    1.0000 </r>
       <r>    6.7983    1.0000 </r>
       <r>   10.8395   -0.0000 </r>
       <r>   11.5299   -0.0000 </r>
       <r>   17.0337    0.0000 </r>
       <r>   18.0536    0.0000 </r>
       <r>   22.0016    0.0000 </r>
      </set>
      <set comment="kpoint 98">
       <r>    3.2128    1.0000 </r>
       <r>    4.5680    1.0000 </r>
       <r>    7.0787    1.0000 </r>
       <r>   10.8712   -0.0000 </r>
       <r>   11.5788   -0.0000 </r>
       <r>   17.4107    0.0000 </r>
       <r>   17.5700    0.0000 </r>
       <r>   21.7689    0.0000 </r>
      </set>
      <set comment="kpoint 99">
       <r>    0.1256    1.0000 </r>
       <r>    6.3301    1.0000 </r>
       <r>    6.6210    1.0000 </r>
       <r>    8.2630    0.3503 </r>
       <r>    8.9112   -0.0000 </r>
       <r>   11.1168   -0.0000 </r>
       <r>   25.0331    0.0000 </r>
       <r>   26.3012    0.0000 </r>
      </set>
      <set comment="kpoint 100">
       <r>    0.0370    1.0000 </r>
       <r>    6.5690    1.0000 </r>
       <r>    6.6576    1.0000 </r>
       <r>    8.0225    1.0273 </r>
       <r>    8.7221   -0.0013 </r>
       <r>   11.1904   -0.0000 </r>
       <r>   25.4705    0.0000 </r>
       <r>   25.8718    0.0000 </r>
      </set>
      <set comment="kpoint 101">
       <r>    3.5233    1.0000 </r>
       <r>    4.8318    1.0000 </r>
       <r>    5.6162    1.0000 </r>
       <r>   10.7109   -0.0000 </r>
       <r>   11.4373   -0.0000 </r>
       <r>   16.2177    0.0000 </r>
       <r>   19.3095    0.0000 </r>
       <r>   23.1078    0.0000 </r>
      </set>
      <set comment="kpoint 102">
       <r>    3.5978    1.0000 </r>
       <r>    4.8525    1.0000 </r>
       <r>    6.0585    1.0000 </r>
       <r>   10.8938   -0.0000 </r>
       <r>   11.4834   -0.0000 </r>
       <r>   17.3481    0.0000 </r>
       <r>   17.9689    0.0000 </r>
       <r>   22.2661    0.0000 </r>
      </set>
      <set comment="kpoint 103">
       <r>    3.5924    1.0000 </r>
       <r>    4.8520    1.0000 </r>
       <r>    6.4169    1.0000 </r>
       <r>   11.0052   -0.0000 </r>
       <r>   11.5292   -0.0000 </r>
       <r>   17.0201    0.0000 </r>
       <r>   18.2665    0.0000 </r>
       <r>   21.6264    0.0000 </r>
      </set>
      <set comment="kpoint 104">
       <r>    0.8389    1.0000 </r>
       <r>    5.9625    1.0000 </r>
       <r>    6.3578    1.0000 </r>
       <r>    8.9251   -0.0000 </r>
       <r>    9.1790   -0.0000 </r>
       <r>   11.2424   -0.0000 </r>
       <r>   24.3891    0.0000 </r>
       <r>   26.1876    0.0000 </r>
      </set>
      <set comment="kpoint 105">
       <r>    0.7130    1.0000 </r>
       <r>    6.2759    1.0000 </r>
       <r>    6.4194    1.0000 </r>
       <r>    8.5317   -0.0266 </r>
       <r>    8.8091   -0.0002 </r>
       <r>   11.3602   -0.0000 </r>
       <r>   25.0369    0.0000 </r>
       <r>   26.1161    0.0000 </r>
      </set>
      <set comment="kpoint 106">
       <r>    3.7234    1.0000 </r>
       <r>    5.1546    1.0000 </r>
       <r>    5.9822    1.0000 </r>
       <r>   11.0974   -0.0000 </r>
       <r>   11.4657   -0.0000 </r>
       <r>   16.8281    0.0000 </r>
       <r>   18.6723    0.0000 </r>
       <r>   21.3872    0.0000 </r>
      </set>
      <set comment="kpoint 107">
       <r>    3.7497    1.0000 </r>
       <r>    5.3136    1.0000 </r>
       <r>    5.9311    1.0000 </r>
       <r>   11.2132   -0.0000 </r>
       <r>   11.4326   -0.0000 </r>
       <r>   16.4434    0.0000 </r>
       <r>   19.4026    0.0000 </r>
       <r>   20.7306    0.0000 </r>
      </set>
      <set comment="kpoint 108">
       <r>    1.4870    1.0000 </r>
       <r>    5.6027    1.0000 </r>
       <r>    6.2067    1.0000 </r>
       <r>    9.1899   -0.0000 </r>
       <r>   10.2702   -0.0000 </r>
       <r>   11.3575   -0.0000 </r>
       <r>   23.2543    0.0000 </r>
       <r>   25.5166    0.0000 </r>
      </set>
      <set comment="kpoint 109">
       <r>    1.4116    1.0000 </r>
       <r>    5.8971    1.0000 </r>
       <r>    6.1700    1.0000 </r>
       <r>    8.6798   -0.0031 </r>
       <r>    9.8114   -0.0000 </r>
       <r>   11.4915   -0.0000 </r>
       <r>   23.7774    0.0000 </r>
       <r>   26.1974    0.0000 </r>
      </set>
      <set comment="kpoint 110">
       <r>    1.3912    1.0000 </r>
       <r>    5.9659    1.0000 </r>
       <r>    6.2310    1.0000 </r>
       <r>    8.4407   -0.0309 </r>
       <r>    9.6752   -0.0000 </r>
       <r>   11.5445   -0.0000 </r>
       <r>   24.0650    0.0000 </r>
       <r>   26.3497    0.0000 </r>
      </set>
      <set comment="kpoint 111">
       <r>    1.9022    1.0000 </r>
       <r>    5.2815    1.0000 </r>
       <r>    6.3769    1.0000 </r>
       <r>    9.5866   -0.0000 </r>
       <r>   11.4716   -0.0000 </r>
       <r>   11.4799   -0.0000 </r>
       <r>   22.1708    0.0000 </r>
       <r>   24.2936    0.0000 </r>
      </set>
[...]
       <set comment="band 5">
        <r>  0.0000  0.0186  0.8838 </r>
       </set>
       <set comment="band 6">
        <r>  0.2276  0.1801  0.3481 </r>
       </set>
       <set comment="band 7">
        <r>  0.1254  0.2632  0.2894 </r>
       </set>
       <set comment="band 8">
        <r>  0.0000  0.4214  0.2617 </r>
       </set>
      </set>
      <set comment="kpoint 225">
       <set comment="band 1">
        <r>  0.0845  0.1354  0.4800 </r>
       </set>
       <set comment="band 2">
        <r>  0.0000  0.0054  0.7245 </r>
       </set>
       <set comment="band 3">
        <r>  0.0157  0.0731  0.7409 </r>
       </set>
       <set comment="band 4">
        <r>  0.0000  0.0944  0.7377 </r>
       </set>
       <set comment="band 5">
        <r>  0.0320  0.0166  0.8353 </r>
       </set>
       <set comment="band 6">
        <r>  0.2263  0.1537  0.3841 </r>
       </set>
       <set comment="band 7">
        <r>  0.1006  0.2828  0.2624 </r>
       </set>
       <set comment="band 8">
        <r>  0.0000  0.4119  0.3052 </r>
       </set>
      </set>
      <set comment="kpoint 226">
       <set comment="band 1">
        <r>  0.0266  0.0387  0.6634 </r>
       </set>
       <set comment="band 2">
        <r>  0.0187  0.0899  0.6087 </r>
       </set>
       <set comment="band 3">
        <r>  0.0000  0.0653  0.7766 </r>
       </set>
       <set comment="band 4">
        <r>  0.0814  0.0626  0.6553 </r>
       </set>
       <set comment="band 5">
        <r>  0.0000  0.0151  0.9081 </r>
       </set>
       <set comment="band 6">
        <r>  0.1648  0.2830  0.2823 </r>
       </set>
       <set comment="band 7">
        <r>  0.1727  0.2477  0.3259 </r>
       </set>
       <set comment="band 8">
        <r>  0.0000  0.4393  0.2079 </r>
       </set>
      </set>
      <set comment="kpoint 227">
       <set comment="band 1">
        <r>  0.0096  0.0240  0.6959 </r>
       </set>
       <set comment="band 2">
        <r>  0.0331  0.0934  0.5894 </r>
       </set>
       <set comment="band 3">
        <r>  0.0341  0.0670  0.7208 </r>
       </set>
       <set comment="band 4">
        <r>  0.0149  0.0929  0.7196 </r>
       </set>
       <set comment="band 5">
        <r>  0.0481  0.0426  0.7832 </r>
       </set>
       <set comment="band 6">
        <r>  0.1715  0.2127  0.3739 </r>
       </set>
       <set comment="band 7">
        <r>  0.1217  0.3075  0.2740 </r>
       </set>
       <set comment="band 8">
        <r>  0.0000  0.4212  0.2802 </r>
       </set>
      </set>
      <set comment="kpoint 228">
       <set comment="band 1">
        <r>  0.0220  0.0338  0.6762 </r>
       </set>
       <set comment="band 2">
        <r>  0.0023  0.0854  0.6342 </r>
       </set>
       <set comment="band 3">
        <r>  0.0000  0.0635  0.7787 </r>
       </set>
       <set comment="band 4">
        <r>  0.1074  0.0586  0.6222 </r>
       </set>
       <set comment="band 5">
        <r>  0.0000  0.0027  0.9457 </r>
       </set>
       <set comment="band 6">
        <r>  0.0516  0.4331  0.2101 </r>
       </set>
       <set comment="band 7">
        <r>  0.2780  0.1293  0.3816 </r>
       </set>
       <set comment="band 8">
        <r>  0.0000  0.4576  0.1549 </r>
       </set>
      </set>
      <set comment="kpoint 229">
       <set comment="band 1">
        <r>  0.0102  0.0275  0.6940 </r>
       </set>
       <set comment="band 2">
        <r>  0.0083  0.0740  0.6413 </r>
       </set>
       <set comment="band 3">
        <r>  0.0477  0.0646  0.7039 </r>
       </set>
       <set comment="band 4">
        <r>  0.0385  0.0866  0.6947 </r>
       </set>
       <set comment="band 5">
        <r>  0.0176  0.0502  0.8307 </r>
       </set>
       <set comment="band 6">
        <r>  0.1174  0.3029  0.3153 </r>
       </set>
       <set comment="band 7">
        <r>  0.1865  0.2472  0.3002 </r>
       </set>
       <set comment="band 8">
        <r>  0.0005  0.4377  0.2241 </r>
       </set>
      </set>
      <set comment="kpoint 230">
       <set comment="band 1">
        <r>  0.0000  0.0187  0.7139 </r>
       </set>
       <set comment="band 2">
        <r>  0.0167  0.0769  0.6297 </r>
       </set>
       <set comment="band 3">
        <r>  0.0561  0.0657  0.6894 </r>
       </set>
       <set comment="band 4">
        <r>  0.0000  0.1057  0.7304 </r>
       </set>
       <set comment="band 5">
        <r>  0.0519  0.0650  0.7452 </r>
       </set>
       <set comment="band 6">
        <r>  0.1357  0.2476  0.3757 </r>
       </set>
       <set comment="band 7">
        <r>  0.1513  0.3039  0.2282 </r>
       </set>
       <set comment="band 8">
        <r>  0.0000  0.4183  0.2997 </r>
       </set>
      </set>
      <set comment="kpoint 231">
       <set comment="band 1">
        <r>  0.0105  0.0290  0.6930 </r>
       </set>
       <set comment="band 2">
        <r>  0.0000  0.0670  0.6593 </r>
       </set>
       <set comment="band 3">
        <r>  0.0527  0.0640  0.6972 </r>
       </set>
       <set comment="band 4">
        <r>  0.0472  0.0845  0.6849 </r>
       </set>
       <set comment="band 5">
        <r>  0.0000  0.0442  0.8754 </r>
       </set>
       <set comment="band 6">
        <r>  0.0000  0.4696  0.2177 </r>
       </set>
       <set comment="band 7">
        <r>  0.3139  0.0901  0.3788 </r>
       </set>
       <set comment="band 8">
        <r>  0.0011  0.4500  0.1862 </r>
       </set>
      </set>
      <set comment="kpoint 232">
       <set comment="band 1">
        <r>  0.0023  0.0287  0.7015 </r>
       </set>
       <set comment="band 2">
        <r>  0.0021  0.0553  0.6713 </r>
       </set>
       <set comment="band 3">
        <r>  0.0664  0.0660  0.6739 </r>
       </set>
       <set comment="band 4">
        <r>  0.0115  0.1027  0.7234 </r>
       </set>
       <set comment="band 5">
        <r>  0.0097  0.0820  0.7862 </r>
       </set>
       <set comment="band 6">
        <r>  0.1087  0.3044  0.3252 </r>
       </set>
       <set comment="band 7">
        <r>  0.2003  0.2516  0.2518 </r>
       </set>
       <set comment="band 8">
        <r>  0.0030  0.4273  0.2644 </r>
       </set>
      </set>
      <set comment="kpoint 233">
       <set comment="band 1">
        <r>  0.0000  0.0389  0.6926 </r>
       </set>
       <set comment="band 2">
        <r>  0.0000  0.0389  0.6926 </r>
       </set>
       <set comment="band 3">
        <r>  0.0717  0.0667  0.6651 </r>
       </set>
       <set comment="band 4">
        <r>  0.0000  0.1017  0.7571 </r>
       </set>
       <set comment="band 5">
        <r>  0.0000  0.1017  0.7571 </r>
       </set>
       <set comment="band 6">
        <r>  0.3250  0.1296  0.2559 </r>
       </set>
       <set comment="band 7">
        <r>  0.0000  0.4245  0.2880 </r>
       </set>
       <set comment="band 8">
        <r>  0.0000  0.4245  0.2881 </r>
       </set>
      </set>
      <set comment="kpoint 234">
       <set comment="band 1">
        <r>  0.0829  0.1366  0.4796 </r>
       </set>
       <set comment="band 2">
        <r>  0.0000  0.0000  0.7293 </r>
       </set>
       <set comment="band 3">
        <r>  0.0000  0.0972  0.7337 </r>
       </set>
       <set comment="band 4">
        <r>  0.0000  0.0972  0.7337 </r>
       </set>
       <set comment="band 5">
        <r>  0.0000  0.0000  0.9002 </r>
       </set>
       <set comment="band 6">
        <r>  0.2820  0.1408  0.3186 </r>
       </set>
       <set comment="band 7">
        <r>  0.0000  0.4115  0.2961 </r>
       </set>
       <set comment="band 8">
        <r>  0.0000  0.4115  0.2961 </r>
       </set>
      </set>
      <set comment="kpoint 235">
       <set comment="band 1">
        <r>  0.0017  0.0052  0.7240 </r>
       </set>
       <set comment="band 2">
        <r>  0.0399  0.1013  0.5726 </r>
       </set>
       <set comment="band 3">
        <r>  0.0000  0.0938  0.7395 </r>
       </set>
       <set comment="band 4">
        <r>  0.0192  0.0986  0.7038 </r>
       </set>
       <set comment="band 5">
        <r>  0.0000  0.0089  0.8957 </r>
       </set>
       <set comment="band 6">
        <r>  0.2638  0.2113  0.2301 </r>
       </set>
       <set comment="band 7">
        <r>  0.0444  0.3738  0.2861 </r>
       </set>
       <set comment="band 8">
        <r>  0.0000  0.4192  0.2751 </r>
       </set>
      </set>
      <set comment="kpoint 236">
       <set comment="band 1">
        <r>  0.0040  0.0133  0.7152 </r>
       </set>
       <set comment="band 2">
        <r>  0.0139  0.0707  0.6394 </r>
       </set>
       <set comment="band 3">
        <r>  0.0000  0.0844  0.7531 </r>
       </set>
       <set comment="band 4">
        <r>  0.0595  0.0953  0.6493 </r>
       </set>
       <set comment="band 5">
        <r>  0.0000  0.0127  0.9081 </r>
       </set>
       <set comment="band 6">
        <r>  0.1894  0.2990  0.1987 </r>
       </set>
       <set comment="band 7">
        <r>  0.1024  0.3268  0.2913 </r>
       </set>
       <set comment="band 8">
        <r>  0.0000  0.4321  0.2322 </r>
       </set>
      </set>
      <set comment="kpoint 237">
       <set comment="band 1">
        <r>  0.0000  0.0047  0.7285 </r>
       </set>
       <set comment="band 2">
        <r>  0.0178  0.0734  0.6326 </r>
       </set>
       <set comment="band 3">
        <r>  0.0280  0.0903  0.7026 </r>
       </set>
       <set comment="band 4">
        <r>  0.0000  0.1100  0.7216 </r>
       </set>
       <set comment="band 5">
        <r>  0.0260  0.0251  0.8410 </r>
       </set>
       <set comment="band 6">
        <r>  0.2046  0.2615  0.2314 </r>
       </set>
       <set comment="band 7">
        <r>  0.0604  0.3733  0.2545 </r>
       </set>
       <set comment="band 8">
        <r>  0.0000  0.4201  0.2775 </r>
       </set>
      </set>
      <set comment="kpoint 238">
       <set comment="band 1">
        <r>  0.0056  0.0189  0.7091 </r>
       </set>
       <set comment="band 2">
        <r>  0.0015  0.0533  0.6740 </r>
       </set>
       <set comment="band 3">
        <r>  0.0000  0.0799  0.7594 </r>
       </set>
       <set comment="band 4">
        <r>  0.0837  0.0945  0.6142 </r>
       </set>
       <set comment="band 5">
        <r>  0.0000  0.0027  0.9426 </r>
       </set>
       <set comment="band 6">
        <r>  0.0705  0.4365  0.1502 </r>
       </set>
       <set comment="band 7">
        <r>  0.2092  0.2081  0.3346 </r>
       </set>
       <set comment="band 8">
        <r>  0.0000  0.4495  0.1817 </r>
       </set>
      </set>
      <set comment="kpoint 239">
       <set comment="band 1">
        <r>  0.0010  0.0117  0.7216 </r>
       </set>
       <set comment="band 2">
        <r>  0.0048  0.0486  0.6766 </r>
       </set>
       <set comment="band 3">
        <r>  0.0406  0.0877  0.6868 </r>
       </set>
       <set comment="band 4">
        <r>  0.0131  0.1063  0.7122 </r>
       </set>
       <set comment="band 5">
        <r>  0.0159  0.0404  0.8445 </r>
       </set>
       <set comment="band 6">
        <r>  0.1329  0.3270  0.2314 </r>
       </set>
       <set comment="band 7">
        <r>  0.1194  0.3223  0.2545 </r>
       </set>
       <set comment="band 8">
        <r>  0.0017  0.4315  0.2378 </r>
       </set>
      </set>
      <set comment="kpoint 240">
       <set comment="band 1">
        <r>  0.0022  0.0167  0.7158 </r>
       </set>
       <set comment="band 2">
        <r>  0.0000  0.0377  0.6946 </r>
       </set>
       <set comment="band 3">
        <r>  0.0446  0.0871  0.6815 </r>
       </set>
       <set comment="band 4">
        <r>  0.0232  0.1030  0.7033 </r>
       </set>
       <set comment="band 5">
        <r>  0.0000  0.0394  0.8787 </r>
       </set>
       <set comment="band 6">
        <r>  0.0000  0.4944  0.1480 </r>
       </set>
       <set comment="band 7">
        <r>  0.2535  0.1581  0.3381 </r>
       </set>
       <set comment="band 8">
        <r>  0.0049  0.4437  0.1971 </r>
       </set>
      </set>
      <set comment="kpoint 241">
       <set comment="band 1">
        <r>  0.0000  0.0173  0.7176 </r>
       </set>
       <set comment="band 2">
        <r>  0.0008  0.0311  0.7016 </r>
       </set>
       <set comment="band 3">
        <r>  0.0492  0.0881  0.6728 </r>
       </set>
       <set comment="band 4">
        <r>  0.0000  0.1033  0.7497 </r>
       </set>
       <set comment="band 5">
        <r>  0.0068  0.0737  0.8014 </r>
       </set>
       <set comment="band 6">
        <r>  0.0984  0.3443  0.2519 </r>
       </set>
       <set comment="band 7">
        <r>  0.1577  0.3017  0.2146 </r>
       </set>
       <set comment="band 8">
        <r>  0.0000  0.4341  0.2477 </r>
       </set>
      </set>
      <set comment="kpoint 242">
       <set comment="band 1">
        <r>  0.0000  0.0000  0.7335 </r>
       </set>
       <set comment="band 2">
        <r>  0.0181  0.0722  0.6336 </r>
       </set>
       <set comment="band 3">
        <r>  0.0000  0.1115  0.7188 </r>
       </set>
       <set comment="band 4">
        <r>  0.0000  0.1115  0.7188 </r>
       </set>
       <set comment="band 5">
        <r>  0.0000  0.0000  0.9122 </r>
       </set>
       <set comment="band 6">
        <r>  0.2649  0.2637  0.1318 </r>
       </set>
       <set comment="band 7">
        <r>  0.0000  0.4200  0.2703 </r>
       </set>
       <set comment="band 8">
        <r>  0.0000  0.4200  0.2703 </r>
       </set>
      </set>
      <set comment="kpoint 243">
       <set comment="band 1">
        <r>  0.0001  0.0024  0.7329 </r>
       </set>
       <set comment="band 2">
        <r>  0.0064  0.0464  0.6780 </r>
       </set>
       <set comment="band 3">
        <r>  0.0000  0.1009  0.7377 </r>
       </set>
       <set comment="band 4">
        <r>  0.0208  0.1125  0.6898 </r>
       </set>
       <set comment="band 5">
        <r>  0.0000  0.0072  0.9149 </r>
       </set>
       <set comment="band 6">
        <r>  0.1976  0.3338  0.1097 </r>
       </set>
       <set comment="band 7">
        <r>  0.0325  0.3967  0.2564 </r>
       </set>
       <set comment="band 8">
        <r>  0.0000  0.4292  0.2400 </r>
       </set>
      </set>
      <set comment="kpoint 244">
       <set comment="band 1">
        <r>  0.0009  0.0080  0.7274 </r>
       </set>
       <set comment="band 2">
        <r>  0.0008  0.0289  0.7046 </r>
       </set>
       <set comment="band 3">
        <r>  0.0000  0.0896  0.7553 </r>
       </set>
       <set comment="band 4">
        <r>  0.0460  0.1138  0.6515 </r>
       </set>
       <set comment="band 5">
        <r>  0.0000  0.0026  0.9403 </r>
       </set>
       <set comment="band 6">
        <r>  0.0805  0.4414  0.1008 </r>
       </set>
       <set comment="band 7">
        <r>  0.1255  0.3064  0.2711 </r>
       </set>
       <set comment="band 8">
        <r>  0.0000  0.4476  0.1917 </r>
       </set>
      </set>
      <set comment="kpoint 245">
       <set comment="band 1">
        <r>  0.0000  0.0043  0.7326 </r>
       </set>
       <set comment="band 2">
        <r>  0.0016  0.0268  0.7064 </r>
       </set>
       <set comment="band 3">
        <r>  0.0223  0.1004  0.7056 </r>
       </set>
       <set comment="band 4">
        <r>  0.0000  0.1046  0.7448 </r>
       </set>
       <set comment="band 5">
        <r>  0.0083  0.0234  0.8844 </r>
       </set>
       <set comment="band 6">
        <r>  0.1236  0.3838  0.1296 </r>
       </set>
       <set comment="band 7">
        <r>  0.0623  0.3854  0.2133 </r>
       </set>
       <set comment="band 8">
        <r>  0.0000  0.4371  0.2253 </r>
       </set>
      </set>
      <set comment="kpoint 246">
       <set comment="band 1">
        <r>  0.0002  0.0086  0.7284 </r>
       </set>
       <set comment="band 2">
        <r>  0.0000  0.0168  0.7198 </r>
       </set>
       <set comment="band 3">
        <r>  0.0265  0.0988  0.7016 </r>
       </set>
       <set comment="band 4">
        <r>  0.0058  0.0932  0.7597 </r>
       </set>
       <set comment="band 5">
        <r>  0.0000  0.0376  0.8785 </r>
       </set>
       <set comment="band 6">
        <r>  0.0000  0.5056  0.1027 </r>
       </set>
       <set comment="band 7">
        <r>  0.1571  0.2767  0.2631 </r>
       </set>
       <set comment="band 8">
        <r>  0.0186  0.4389  0.1820 </r>
       </set>
      </set>
      <set comment="kpoint 247">
       <set comment="band 1">
        <r>  0.0000  0.0000  0.7376 </r>
       </set>
       <set comment="band 2">
        <r>  0.0020  0.0255  0.7080 </r>
       </set>
       <set comment="band 3">
        <r>  0.0000  0.1050  0.7431 </r>
       </set>
       <set comment="band 4">
        <r>  0.0000  0.1050  0.7431 </r>
       </set>
       <set comment="band 5">
        <r>  0.0000  0.0000  0.9296 </r>
       </set>
       <set comment="band 6">
        <r>  0.1641  0.3944  0.0429 </r>
       </set>
       <set comment="band 7">
        <r>  0.0000  0.4376  0.2183 </r>
       </set>
       <set comment="band 8">
        <r>  0.0000  0.4376  0.2183 </r>
       </set>
      </set>
      <set comment="kpoint 248">
       <set comment="band 1">
        <r>  0.0000  0.0020  0.7367 </r>
       </set>
       <set comment="band 2">
        <r>  0.0003  0.0120  0.7257 </r>
       </set>
       <set comment="band 3">
        <r>  0.0000  0.0806  0.7866 </r>
       </set>
       <set comment="band 4">
        <r>  0.0118  0.0960  0.7462 </r>
       </set>
       <set comment="band 5">
        <r>  0.0000  0.0022  0.9395 </r>
       </set>
       <set comment="band 6">
        <r>  0.0705  0.4689  0.0480 </r>
       </set>
       <set comment="band 7">
        <r>  0.0409  0.4188  0.1829 </r>
       </set>
       <set comment="band 8">
        <r>  0.0000  0.4623  0.1635 </r>
       </set>
      </set>
      <set comment="kpoint 249">
       <set comment="band 1">
        <r>  0.0000  0.0042  0.7350 </r>
       </set>
       <set comment="band 2">
        <r>  0.0000  0.0042  0.7350 </r>
       </set>
       <set comment="band 3">
        <r>  0.0086  0.0815  0.7738 </r>
       </set>
       <set comment="band 4">
        <r>  0.0000  0.0369  0.8777 </r>
       </set>
       <set comment="band 5">
        <r>  0.0000  0.0369  0.8777 </r>
       </set>
       <set comment="band 6">
        <r>  0.0000  0.5098  0.0778 </r>
       </set>
       <set comment="band 7">
        <r>  0.0000  0.5098  0.0778 </r>
       </set>
       <set comment="band 8">
        <r>  0.0778  0.3904  0.1696 </r>
       </set>
      </set>
      <set comment="kpoint 250">
       <set comment="band 1">
        <r>  0.0000  0.0000  0.7401 </r>
       </set>
       <set comment="band 2">
        <r>  0.0000  0.0028  0.7371 </r>
       </set>
       <set comment="band 3">
        <r>  0.0000  0.0368  0.8773 </r>
       </set>
       <set comment="band 4">
        <r>  0.0000  0.0368  0.8773 </r>
       </set>
       <set comment="band 5">
        <r>  0.0000  0.0000  0.9434 </r>
       </set>
       <set comment="band 6">
        <r>  0.0291  0.5223  0.0050 </r>
       </set>
       <set comment="band 7">
        <r>  0.0000  0.5108  0.0699 </r>
       </set>
       <set comment="band 8">
        <r>  0.0000  0.5108  0.0700 </r>
       </set>
      </set>
     </set>
    </set>
   </array>
  </projected>
 </calculation>
 <structure name="finalpos" >
  <crystal>
   <varray name="basis" >
    <v>      -1.56360000       1.56360000       1.56360000 </v>
    <v>       1.56360000      -1.56360000       1.56360000 </v>
    <v>       1.56360000       1.56360000      -1.56360000 </v>
   </varray>
   <i name="volume">     15.29103832 </i>
   <varray name="rec_basis" >
    <v>       0.00000000       0.31977488       0.31977488 </v>
    <v>       0.31977488       0.00000000       0.31977488 </v>
    <v>       0.31977488       0.31977488       0.00000000 </v>
   </varray>
  </crystal>
  <varray name="positions" >
   <v>       0.00000000       0.00000000       0.00000000 </v>
  </varray>
 </structure>
</modeling>
