bcc Fe                                  
   3.05000000000000     
    -0.500000    0.500000    0.500000
     0.500000   -0.500000    0.500000
     0.500000    0.500000   -0.500000
   Fe
     1
Direct
  0.000000  0.000000  0.000000
 
   24   24   24
 0.12110298207E+03 0.11538838897E+03 0.99903004551E+02 0.78724540613E+02 0.56429828887E+02
 0.36601300437E+02 0.21384806096E+02 0.11584477326E+02 0.66804767338E+01 0.49082754000E+01
 0.40967653471E+01 0.36236312709E+01 0.34713872302E+01 0.36236312709E+01 0.40967653471E+01
 0.49082754000E+01 0.66804767338E+01 0.11584477326E+02 0.21384806096E+02 0.36601300437E+02
 0.56429828887E+02 0.78724540613E+02 0.99903004551E+02 0.11538838897E+03 0.11538838897E+03
 0.11351919821E+03 0.10140948187E+03 0.82386689619E+02 0.60895625714E+02 0.40804871862E+02
 0.24648472030E+02 0.13612507936E+02 0.75923186716E+01 0.52054955640E+01 0.42758741058E+01
 0.37072310109E+01 0.34597661529E+01 0.35087031786E+01 0.38601109133E+01 0.45406556943E+01
 0.57291259205E+01 0.91079979238E+01 0.16715480343E+02 0.29526450503E+02 0.47209271907E+02
 0.68134064433E+02 0.89288396620E+02 0.10646837265E+03 0.99903004551E+02 0.10140948187E+03
 0.93378251587E+02 0.78088257601E+02 0.59357943948E+02 0.40934511459E+02 0.25505968561E+02
 0.14498420466E+02 0.81229408185E+01 0.53832095402E+01 0.43627659192E+01 0.37397370767E+01
 0.34225392694E+01 0.33794706078E+01 0.36045206043E+01 0.41260572202E+01 0.49699133524E+01
 0.69138736851E+01 0.11950957152E+02 0.21462958382E+02 0.35639721480E+02 0.53420672401E+02
 0.72474242962E+02 0.89288396620E+02 0.78724540613E+02 0.82386689619E+02 0.78088257601E+02
 0.67095381827E+02 0.52319282493E+02 0.37010516831E+02 0.23722591604E+02 0.13935876313E+02
 0.80425656999E+01 0.53641542903E+01 0.43380790248E+01 0.37063627602E+01 0.33548636280E+01
 0.32460223871E+01 0.33612489322E+01 0.37214682097E+01 0.43671438386E+01 0.54178929776E+01
 0.81636200467E+01 0.14220417531E+02 0.24285610230E+02 0.37897940137E+02 0.53420672401E+02
 0.68134064433E+02 0.56429828887E+02 0.60895625714E+02 0.59357943948E+02 0.52319282493E+02
 0.41765320594E+02 0.30238053130E+02 0.19915436630E+02 0.12148984328E+02 0.73748141951E+01
 0.51319463159E+01 0.42037571016E+01 0.36044250750E+01 0.32545428230E+01 0.31123367437E+01
 0.31482184167E+01 0.33707634541E+01 0.38232247572E+01 0.45420947707E+01 0.58109671668E+01
 0.89657517685E+01 0.15080758068E+02 0.24285610230E+02 0.35639721480E+02 0.47209271907E+02
 0.36601300437E+02 0.40804871862E+02 0.40934511459E+02 0.37010516831E+02 0.30238053130E+02
 0.22417285294E+02 0.15222920014E+02 0.97497446247E+01 0.63728680616E+01 0.47556589765E+01
 0.39815952148E+01 0.34458941292E+01 0.31264153329E+01 0.29802813876E+01 0.29708597131E+01
 0.30943200964E+01 0.33826913728E+01 0.38886702294E+01 0.46340966414E+01 0.59704734697E+01
 0.89657517685E+01 0.14220417531E+02 0.21462958382E+02 0.29526450503E+02 0.21384806096E+02
 0.24648472030E+02 0.25505968561E+02 0.23722591604E+02 0.19915436630E+02 0.15222920014E+02
 0.10798317529E+02 0.74258717560E+01 0.53637502461E+01 0.43363315337E+01 0.37062075920E+01
 0.32540984210E+01 0.29830384655E+01 0.28533824453E+01 0.28271850546E+01 0.28916210499E+01
 0.30641266484E+01 0.33883675334E+01 0.39108053057E+01 0.46340966414E+01 0.58109671668E+01
 0.81636200467E+01 0.11950957152E+02 0.16715480343E+02 0.11584477326E+02 0.13612507936E+02
 0.14498420466E+02 0.13935876313E+02 0.12148984328E+02 0.97497446247E+01 0.74258717560E+01
 0.56573357112E+01 0.45711996266E+01 0.39228499310E+01 0.34159689486E+01 0.30564880666E+01
 0.28412657822E+01 0.27379319429E+01 0.27131417117E+01 0.27501309476E+01 0.28544929979E+01
 0.30537126356E+01 0.33883675334E+01 0.38886702294E+01 0.45420947707E+01 0.54178929776E+01
 0.69138736851E+01 0.91079979238E+01 0.66804767338E+01 0.75923186716E+01 0.81229408185E+01
 0.80425656999E+01 0.73748141951E+01 0.63728680616E+01 0.53637502461E+01 0.45711996266E+01
 0.40043246393E+01 0.35272940018E+01 0.31448103881E+01 0.28769621368E+01 0.27168206351E+01
 0.26413199931E+01 0.26258115289E+01 0.26546895781E+01 0.27264264099E+01 0.28544929979E+01
 0.30641266484E+01 0.33826913728E+01 0.38232247572E+01 0.43671438386E+01 0.49699133524E+01
 0.57291259205E+01 0.49082754000E+01 0.52054955640E+01 0.53832095402E+01 0.53641542903E+01
 0.51319463159E+01 0.47556589765E+01 0.43363315337E+01 0.39228499310E+01 0.35272940018E+01
 0.31841950436E+01 0.29165318721E+01 0.27308100844E+01 0.26198630525E+01 0.25693386698E+01
 0.25643322855E+01 0.25940890447E+01 0.26546895781E+01 0.27501309476E+01 0.28916210499E+01
 0.30943200964E+01 0.33707634541E+01 0.37214682097E+01 0.41260572202E+01 0.45406556943E+01
 0.40967653471E+01 0.42758741058E+01 0.43627659192E+01 0.43380790248E+01 0.42037571016E+01
 0.39815952148E+01 0.37062075920E+01 0.34159689486E+01 0.31448103881E+01 0.29165318721E+01
 0.27425921274E+01 0.26236216384E+01 0.25536103478E+01 0.25245762970E+01 0.25296962294E+01
 0.25643322855E+01 0.26258115289E+01 0.27131417117E+01 0.28271850546E+01 0.29708597131E+01
 0.31482184167E+01 0.33612489322E+01 0.36045206043E+01 0.38601109133E+01 0.36236312709E+01
 0.37072310109E+01 0.37397370767E+01 0.37063627602E+01 0.36044250750E+01 0.34458941292E+01
 0.32540984210E+01 0.30564880666E+01 0.28769621368E+01 0.27308100844E+01 0.26236216384E+01
 0.25536898079E+01 0.25161852549E+01 0.25069935356E+01 0.25245762970E+01 0.25693386698E+01
 0.26413199931E+01 0.27379319429E+01 0.28533824453E+01 0.29802813876E+01 0.31123367437E+01
 0.32460223871E+01 0.33794706078E+01 0.35087031786E+01 0.34713872302E+01 0.34597661529E+01
 0.34225392694E+01 0.33548636280E+01 0.32545428230E+01 0.31264153329E+01 0.29830384655E+01
 0.28412657822E+01 0.27168206351E+01 0.26198630525E+01 0.25536103478E+01 0.25161852549E+01
 0.25042280951E+01 0.25161852549E+01 0.25536103478E+01 0.26198630525E+01 0.27168206351E+01
 0.28412657822E+01 0.29830384655E+01 0.31264153329E+01 0.32545428230E+01 0.33548636280E+01
 0.34225392694E+01 0.34597661529E+01 0.36236312709E+01 0.35087031786E+01 0.33794706078E+01
 0.32460223871E+01 0.31123367437E+01 0.29802813876E+01 0.28533824453E+01 0.27379319429E+01
 0.26413199931E+01 0.25693386698E+01 0.25245762970E+01 0.25069935356E+01 0.25161852549E+01
 0.25536898079E+01 0.26236216384E+01 0.27308100844E+01 0.28769621368E+01 0.30564880666E+01
 0.32540984210E+01 0.34458941292E+01 0.36044250750E+01 0.37063627602E+01 0.37397370767E+01
 0.37072310109E+01 0.40967653471E+01 0.38601109133E+01 0.36045206043E+01 0.33612489322E+01
 0.31482184167E+01 0.29708597131E+01 0.28271850546E+01 0.27131417117E+01 0.26258115289E+01
 0.25643322855E+01 0.25296962294E+01 0.25245762970E+01 0.25536103478E+01 0.26236216384E+01
 0.27425921274E+01 0.29165318721E+01 0.31448103881E+01 0.34159689486E+01 0.37062075920E+01
 0.39815952148E+01 0.42037571016E+01 0.43380790248E+01 0.43627659192E+01 0.42758741058E+01
 0.49082754000E+01 0.45406556943E+01 0.41260572202E+01 0.37214682097E+01 0.33707634541E+01
 0.30943200964E+01 0.28916210499E+01 0.27501309476E+01 0.26546895781E+01 0.25940890447E+01
 0.25643322855E+01 0.25693386698E+01 0.26198630525E+01 0.27308100844E+01 0.29165318721E+01
 0.31841950436E+01 0.35272940018E+01 0.39228499310E+01 0.43363315337E+01 0.47556589765E+01
 0.51319463159E+01 0.53641542903E+01 0.53832095402E+01 0.52054955640E+01 0.66804767338E+01
 0.57291259205E+01 0.49699133524E+01 0.43671438386E+01 0.38232247572E+01 0.33826913728E+01
 0.30641266484E+01 0.28544929979E+01 0.27264264099E+01 0.26546895781E+01 0.26258115289E+01
 0.26413199931E+01 0.27168206351E+01 0.28769621368E+01 0.31448103881E+01 0.35272940018E+01
 0.40043246393E+01 0.45711996266E+01 0.53637502461E+01 0.63728680616E+01 0.73748141951E+01
 0.80425656999E+01 0.81229408185E+01 0.75923186716E+01 0.11584477326E+02 0.91079979238E+01
 0.69138736851E+01 0.54178929776E+01 0.45420947707E+01 0.38886702294E+01 0.33883675334E+01
 0.30537126356E+01 0.28544929979E+01 0.27501309476E+01 0.27131417117E+01 0.27379319429E+01
 0.28412657822E+01 0.30564880666E+01 0.34159689486E+01 0.39228499310E+01 0.45711996266E+01
 0.56573357112E+01 0.74258717560E+01 0.97497446247E+01 0.12148984328E+02 0.13935876313E+02
 0.14498420466E+02 0.13612507936E+02 0.21384806096E+02 0.16715480343E+02 0.11950957152E+02
 0.81636200467E+01 0.58109671668E+01 0.46340966414E+01 0.39108053057E+01 0.33883675334E+01
 0.30641266484E+01 0.28916210499E+01 0.28271850546E+01 0.28533824453E+01 0.29830384655E+01
 0.32540984210E+01 0.37062075920E+01 0.43363315337E+01 0.53637502461E+01 0.74258717560E+01
 0.10798317529E+02 0.15222920014E+02 0.19915436630E+02 0.23722591604E+02 0.25505968561E+02
 0.24648472030E+02 0.36601300437E+02 0.29526450503E+02 0.21462958382E+02 0.14220417531E+02
 0.89657517685E+01 0.59704734697E+01 0.46340966414E+01 0.38886702294E+01 0.33826913728E+01
 0.30943200964E+01 0.29708597131E+01 0.29802813876E+01 0.31264153329E+01 0.34458941292E+01
 0.39815952148E+01 0.47556589765E+01 0.63728680616E+01 0.97497446247E+01 0.15222920014E+02
 0.22417285294E+02 0.30238053130E+02 0.37010516831E+02 0.40934511459E+02 0.40804871862E+02
 0.56429828887E+02 0.47209271907E+02 0.35639721480E+02 0.24285610230E+02 0.15080758068E+02
 0.89657517685E+01 0.58109671668E+01 0.45420947707E+01 0.38232247572E+01 0.33707634541E+01
 0.31482184167E+01 0.31123367437E+01 0.32545428230E+01 0.36044250750E+01 0.42037571016E+01
 0.51319463159E+01 0.73748141951E+01 0.12148984328E+02 0.19915436630E+02 0.30238053130E+02
 0.41765320594E+02 0.52319282493E+02 0.59357943948E+02 0.60895625714E+02 0.78724540613E+02
 0.68134064433E+02 0.53420672401E+02 0.37897940137E+02 0.24285610230E+02 0.14220417531E+02
 0.81636200467E+01 0.54178929776E+01 0.43671438386E+01 0.37214682097E+01 0.33612489322E+01
 0.32460223871E+01 0.33548636280E+01 0.37063627602E+01 0.43380790248E+01 0.53641542903E+01
 0.80425656999E+01 0.13935876313E+02 0.23722591604E+02 0.37010516831E+02 0.52319282493E+02
 0.67095381827E+02 0.78088257601E+02 0.82386689619E+02 0.99903004551E+02 0.89288396620E+02
 0.72474242962E+02 0.53420672401E+02 0.35639721480E+02 0.21462958382E+02 0.11950957152E+02
 0.69138736851E+01 0.49699133524E+01 0.41260572202E+01 0.36045206043E+01 0.33794706078E+01
 0.34225392694E+01 0.37397370767E+01 0.43627659192E+01 0.53832095402E+01 0.81229408185E+01
 0.14498420466E+02 0.25505968561E+02 0.40934511459E+02 0.59357943948E+02 0.78088257601E+02
 0.93378251587E+02 0.10140948187E+03 0.11538838897E+03 0.10646837265E+03 0.89288396620E+02
 0.68134064433E+02 0.47209271907E+02 0.29526450503E+02 0.16715480343E+02 0.91079979238E+01
 0.57291259205E+01 0.45406556943E+01 0.38601109133E+01 0.35087031786E+01 0.34597661529E+01
 0.37072310109E+01 0.42758741058E+01 0.52054955640E+01 0.75923186716E+01 0.13612507936E+02
 0.24648472030E+02 0.40804871862E+02 0.60895625714E+02 0.82386689619E+02 0.10140948187E+03
 0.11351919821E+03 0.11538838897E+03 0.11351919821E+03 0.10140948187E+03 0.82386689619E+02
 0.60895625714E+02 0.40804871862E+02 0.24648472030E+02 0.13612507936E+02 0.75923186716E+01
 0.52054955640E+01 0.42758741058E+01 0.37072310109E+01 0.34597661529E+01 0.35087031786E+01
 0.38601109133E+01 0.45406556943E+01 0.57291259205E+01 0.91079979238E+01 0.16715480343E+02
 0.29526450503E+02 0.47209271907E+02 0.68134064433E+02 0.89288396620E+02 0.10646837265E+03
 0.11351919821E+03 0.11538768052E+03 0.10646721870E+03 0.89287250460E+02 0.68133303878E+02
 0.47209014721E+02 0.29526561637E+02 0.16715724342E+02 0.91081976815E+01 0.57292243723E+01
 0.45406798710E+01 0.38601065468E+01 0.35086983307E+01 0.34597696201E+01 0.37072382383E+01
 0.42758651511E+01 0.52054407798E+01 0.75922133773E+01 0.13612422295E+02 0.24648560107E+02
 0.40805291277E+02 0.60896393729E+02 0.82387585672E+02 0.10141010825E+03 0.10140948187E+03
 0.10646721870E+03 0.10140880377E+03 0.87696190370E+02 0.68938484666E+02 0.49221128397E+02
 0.31777791924E+02 0.18547422799E+02 0.10202755437E+02 0.61601462449E+01 0.47072473866E+01
 0.39582098082E+01 0.35276882737E+01 0.33902139675E+01 0.35276980135E+01 0.39582117691E+01
 0.47071982386E+01 0.61599936168E+01 0.10202499094E+02 0.18547180896E+02 0.31777790139E+02
 0.49221568128E+02 0.68939358423E+02 0.87697198496E+02 0.82386689619E+02 0.89287250460E+02
 0.87696190370E+02 0.78088254356E+02 0.63106458320E+02 0.46286878940E+02 0.30740546284E+02
 0.18506289151E+02 0.10458254960E+02 0.63208003507E+01 0.47476593945E+01 0.39780143406E+01
 0.35053795381E+01 0.33042200157E+01 0.33451106753E+01 0.36352015163E+01 0.42112180088E+01
 0.51208887416E+01 0.73668656662E+01 0.12761040026E+02 0.22333634746E+02 0.35960837985E+02
 0.52327941548E+02 0.68938930052E+02 0.60895625714E+02 0.68133303878E+02 0.68938484666E+02
 0.63106458320E+02 0.52319772620E+02 0.39319967873E+02 0.26791097746E+02 0.16638523644E+02
 0.97764383661E+01 0.61208289296E+01 0.46531124140E+01 0.39094692515E+01 0.34345029435E+01
 0.32022258373E+01 0.31737135253E+01 0.33433582581E+01 0.37441313766E+01 0.44175603029E+01
 0.55358590983E+01 0.83966197665E+01 0.14328815553E+02 0.23743525658E+02 0.35960619121E+02
 0.49221040102E+02 0.40804871862E+02 0.47209014721E+02 0.49221128397E+02 0.46286878940E+02
 0.39319967873E+02 0.30238417441E+02 0.21130460469E+02 0.13586706084E+02 0.84201961975E+01
 0.56262007076E+01 0.44389863310E+01 0.37602183361E+01 0.33172872421E+01 0.30851460651E+01
 0.30190123492E+01 0.31017426461E+01 0.33542539054E+01 0.38261132553E+01 0.45480673843E+01
 0.58139191656E+01 0.88000622265E+01 0.14328736774E+02 0.22333410107E+02 0.31777412825E+02
 0.24648472030E+02 0.29526561637E+02 0.31777791924E+02 0.30740546284E+02 0.26791097746E+02
 0.21130460469E+02 0.15222896941E+02 0.10255838059E+02 0.68539038544E+01 0.50119932130E+01
 0.41431738201E+01 0.35533639710E+01 0.31667897760E+01 0.29580684922E+01 0.28819153291E+01
 0.29135263100E+01 0.30605262116E+01 0.33618630942E+01 0.38685215331E+01 0.45933699404E+01
 0.58138985091E+01 0.83965539175E+01 0.12760912322E+02 0.18547022912E+02 0.13612507936E+02
 0.16715724342E+02 0.18547422799E+02 0.18506289151E+02 0.16638523644E+02 0.13586706084E+02
 0.10255838059E+02 0.74256804503E+01 0.55032203697E+01 0.44431682484E+01 0.38055639801E+01
 0.33203420640E+01 0.30033477133E+01 0.28308676203E+01 0.27628937312E+01 0.27723934887E+01
 0.28568279097E+01 0.30396878261E+01 0.33640002276E+01 0.38685129697E+01 0.45480483759E+01
 0.55358262089E+01 0.73668255741E+01 0.10202488143E+02 0.75923186716E+01 0.91081976815E+01
 0.10202755437E+02 0.10458254960E+02 0.97764383661E+01 0.84201961975E+01 0.68539038544E+01
 0.55032203697E+01 0.45710889430E+01 0.39626657203E+01 0.34674079320E+01 0.30922820047E+01
 0.28481638390E+01 0.27155368770E+01 0.26638680735E+01 0.26693115929E+01 0.27239452437E+01
 0.28383751066E+01 0.30396818557E+01 0.33618509262E+01 0.38260975419E+01 0.44175449044E+01
 0.51208842639E+01 0.61600257565E+01 0.52054955640E+01 0.57292243723E+01 0.61601462449E+01
 0.63208003507E+01 0.61208289296E+01 0.56262007076E+01 0.50119932130E+01 0.44431682484E+01
 0.39626657203E+01 0.35272855197E+01 0.31634474594E+01 0.28930412275E+01 0.27173086745E+01
 0.26221612213E+01 0.25877395490E+01 0.25971006535E+01 0.26417168754E+01 0.27239446002E+01
 0.28568235019E+01 0.30605181382E+01 0.33542440492E+01 0.37441222720E+01 0.42112155599E+01
 0.47072157247E+01 0.42758741058E+01 0.45406798710E+01 0.47072473866E+01 0.47476593945E+01
 0.46531124140E+01 0.44389863310E+01 0.41431738201E+01 0.38055639801E+01 0.34674079320E+01
 0.31634474594E+01 0.29165471637E+01 0.27358065650E+01 0.26187145961E+01 0.25560661260E+01
 0.25370319672E+01 0.25525678696E+01 0.25971044538E+01 0.26693170421E+01 0.27723986662E+01
 0.29135301329E+01 0.31017442732E+01 0.33433567530E+01 0.36351975070E+01 0.39582101038E+01
 0.37072310109E+01 0.38601065468E+01 0.39582098082E+01 0.39780143406E+01 0.39094692515E+01
 0.37602183361E+01 0.35533639710E+01 0.33203420640E+01 0.30922820047E+01 0.28930412275E+01
 0.27358065650E+01 0.26236283150E+01 0.25528783151E+01 0.25176803492E+01 0.25132580343E+01
 0.25370363075E+01 0.25877482397E+01 0.26638801112E+01 0.27629074134E+01 0.28819286389E+01
 0.30190231637E+01 0.31737196666E+01 0.33451106157E+01 0.35276924899E+01 0.34597661529E+01
 0.35086983307E+01 0.35276882737E+01 0.35053795381E+01 0.34345029435E+01 0.33172872421E+01
 0.31667897760E+01 0.30033477133E+01 0.28481638390E+01 0.27173086745E+01 0.26187145961E+01
 0.25528783151E+01 0.25161896009E+01 0.25048811357E+01 0.25176832417E+01 0.25560719440E+01
 0.26221695631E+01 0.27155469431E+01 0.28308782147E+01 0.29580783629E+01 0.30851543061E+01
 0.32022318167E+01 0.33042230559E+01 0.33902135474E+01 0.35087031786E+01 0.34597696201E+01
 0.33902139675E+01 0.33042200157E+01 0.32022258373E+01 0.30851460651E+01 0.29580684922E+01
 0.28308676203E+01 0.27155368770E+01 0.26221612213E+01 0.25560661260E+01 0.25176803492E+01
 0.25048811357E+01 0.25161917137E+01 0.25528809704E+01 0.26187162252E+01 0.27173088092E+01
 0.28481632911E+01 0.30033475433E+01 0.31667902769E+01 0.33172881264E+01 0.34345043155E+01
 0.35053821404E+01 0.35276924899E+01 0.38601109133E+01 0.37072382383E+01 0.35276980135E+01
 0.33451106753E+01 0.31737135253E+01 0.30190123492E+01 0.28819153291E+01 0.27628937312E+01
 0.26638680735E+01 0.25877395490E+01 0.25370319672E+01 0.25132580343E+01 0.25176832417E+01
 0.25528809704E+01 0.26236270873E+01 0.27358002268E+01 0.28930332541E+01 0.30922788738E+01
 0.33203478346E+01 0.35533761437E+01 0.37602297342E+01 0.39094745099E+01 0.39780144316E+01
 0.39582101038E+01 0.45406556943E+01 0.42758651511E+01 0.39582117691E+01 0.36352015163E+01
 0.33433582581E+01 0.31017426461E+01 0.29135263100E+01 0.27723934887E+01 0.26693115929E+01
 0.25971006535E+01 0.25525678696E+01 0.25370363075E+01 0.25560719440E+01 0.26187162252E+01
 0.27358002268E+01 0.29165374254E+01 0.31634486206E+01 0.34674353184E+01 0.38056197785E+01
 0.41432404160E+01 0.44390358436E+01 0.46531261514E+01 0.47476404594E+01 0.47072157247E+01
 0.57291259205E+01 0.52054407798E+01 0.47071982386E+01 0.42112180088E+01 0.37441313766E+01
 0.33542539054E+01 0.30605262116E+01 0.28568279097E+01 0.27239452437E+01 0.26417168754E+01
 0.25971044538E+01 0.25877482397E+01 0.26221695631E+01 0.27173088092E+01 0.28930332541E+01
 0.31634486206E+01 0.35273256998E+01 0.39627657291E+01 0.44433153292E+01 0.50121373020E+01
 0.56262811955E+01 0.61208140186E+01 0.63207071634E+01 0.61600257565E+01 0.91079979238E+01
 0.75922133773E+01 0.61599936168E+01 0.51208887416E+01 0.44175603029E+01 0.38261132553E+01
 0.33618630942E+01 0.30396878261E+01 0.28383751066E+01 0.27239446002E+01 0.26693170421E+01
 0.26638801112E+01 0.27155469431E+01 0.28481632911E+01 0.30922788738E+01 0.34674353184E+01
 0.39627657291E+01 0.45712753073E+01 0.55034480972E+01 0.68540787717E+01 0.84202279802E+01
 0.97763002774E+01 0.10458002386E+02 0.10202488143E+02 0.16715480343E+02 0.13612422295E+02
 0.10202499094E+02 0.73668656662E+01 0.55358590983E+01 0.45480673843E+01 0.38685215331E+01
 0.33640002276E+01 0.30396818557E+01 0.28568235019E+01 0.27723986662E+01 0.27629074134E+01
 0.28308782147E+01 0.30033475433E+01 0.33203478346E+01 0.38056197785E+01 0.44433153292E+01
 0.55034480972E+01 0.74259010108E+01 0.10255920441E+02 0.13586557555E+02 0.16638159188E+02
 0.18505830189E+02 0.18547022912E+02 0.29526450503E+02 0.24648560107E+02 0.18547180896E+02
 0.12761040026E+02 0.83966197665E+01 0.58139191656E+01 0.45933699404E+01 0.38685129697E+01
 0.33618509262E+01 0.30605181382E+01 0.29135301329E+01 0.28819286389E+01 0.29580783629E+01
 0.31667902769E+01 0.35533761437E+01 0.41432404160E+01 0.50121373020E+01 0.68540787717E+01
 0.10255920441E+02 0.15222750779E+02 0.21130037736E+02 0.26790495448E+02 0.30739963717E+02
 0.31777412825E+02 0.47209271907E+02 0.40805291277E+02 0.31777790139E+02 0.22333634746E+02
 0.14328815553E+02 0.88000622265E+01 0.58138985091E+01 0.45480483759E+01 0.38260975419E+01
 0.33542440492E+01 0.31017442732E+01 0.30190231637E+01 0.30851543061E+01 0.33172881264E+01
 0.37602297342E+01 0.44390358436E+01 0.56262811955E+01 0.84202279802E+01 0.13586557555E+02
 0.21130037736E+02 0.30237763395E+02 0.39319280586E+02 0.46286412721E+02 0.49221040102E+02
 0.68134064433E+02 0.60896393729E+02 0.49221568128E+02 0.35960837985E+02 0.23743525658E+02
 0.14328736774E+02 0.83965539175E+01 0.55358262089E+01 0.44175449044E+01 0.37441222720E+01
 0.33433567530E+01 0.31737196666E+01 0.32022318167E+01 0.34345043155E+01 0.39094745099E+01
 0.46531261514E+01 0.61208140186E+01 0.97763002774E+01 0.16638159188E+02 0.26790495448E+02
 0.39319280586E+02 0.52319278131E+02 0.63106405776E+02 0.68938930052E+02 0.89288396620E+02
 0.82387585672E+02 0.68939358423E+02 0.52327941548E+02 0.35960619121E+02 0.22333410107E+02
 0.12760912322E+02 0.73668255741E+01 0.51208842639E+01 0.42112155599E+01 0.36351975070E+01
 0.33451106157E+01 0.33042230559E+01 0.35053821404E+01 0.39780144316E+01 0.47476404594E+01
 0.63207071634E+01 0.10458002386E+02 0.18505830189E+02 0.30739963717E+02 0.46286412721E+02
 0.63106405776E+02 0.78088783035E+02 0.87697198496E+02 0.10646837265E+03 0.10141010825E+03
 0.87697198496E+02 0.68938930052E+02 0.49221040102E+02 0.31777412825E+02 0.18547022912E+02
 0.10202488143E+02 0.61600257565E+01 0.47072157247E+01 0.39582101038E+01 0.35276924899E+01
 0.33902135474E+01 0.35276924899E+01 0.39582101038E+01 0.47072157247E+01 0.61600257565E+01
 0.10202488143E+02 0.18547022912E+02 0.31777412825E+02 0.49221040102E+02 0.68938930052E+02
 0.87697198496E+02 0.10141010825E+03 0.99903004551E+02 0.10140948187E+03 0.93378251587E+02
 0.78088257601E+02 0.59357943948E+02 0.40934511459E+02 0.25505968561E+02 0.14498420466E+02
 0.81229408185E+01 0.53832095402E+01 0.43627659192E+01 0.37397370767E+01 0.34225392694E+01
 0.33794706078E+01 0.36045206043E+01 0.41260572202E+01 0.49699133524E+01 0.69138736851E+01
 0.11950957152E+02 0.21462958382E+02 0.35639721480E+02 0.53420672401E+02 0.72474242962E+02
 0.89288396620E+02 0.10140948187E+03 0.10646721870E+03 0.10140880377E+03 0.87696190370E+02
 0.68938484666E+02 0.49221128397E+02 0.31777791924E+02 0.18547422799E+02 0.10202755437E+02
 0.61601462449E+01 0.47072473866E+01 0.39582098082E+01 0.35276882737E+01 0.33902139675E+01
 0.35276980135E+01 0.39582117691E+01 0.47071982386E+01 0.61599936168E+01 0.10202499094E+02
 0.18547180896E+02 0.31777790139E+02 0.49221568128E+02 0.68939358423E+02 0.87697198496E+02
 0.93378251587E+02 0.10140880377E+03 0.99901856908E+02 0.89287242697E+02 0.72473519007E+02
 0.53420542028E+02 0.35640036593E+02 0.21463420065E+02 0.11951323133E+02 0.69140613897E+01
 0.49699665604E+01 0.41260535070E+01 0.36045094006E+01 0.33794679150E+01 0.34225453774E+01
 0.37397408981E+01 0.43627394612E+01 0.53831242643E+01 0.81228167264E+01 0.14498365627E+02
 0.25506142661E+02 0.40934998652E+02 0.59358619710E+02 0.78088783035E+02 0.78088257601E+02
 0.87696190370E+02 0.89287242697E+02 0.82386737877E+02 0.68939111505E+02 0.52328271767E+02
 0.35961244568E+02 0.22334002006E+02 0.12761282970E+02 0.73669720190E+01 0.51209041539E+01
 0.42112001371E+01 0.36351854497E+01 0.33451052510E+01 0.33042225058E+01 0.35053848244E+01
 0.39780092215E+01 0.47476144350E+01 0.63206789442E+01 0.10458042775E+02 0.18506020908E+02
 0.30740298302E+02 0.46286721818E+02 0.63106405776E+02 0.59357943948E+02 0.68938484666E+02
 0.72473519007E+02 0.68939111505E+02 0.59358946088E+02 0.46287430636E+02 0.32673947643E+02
 0.20896551537E+02 0.12339869135E+02 0.73188908300E+01 0.51065458721E+01 0.41946240365E+01
 0.36061125405E+01 0.32827783829E+01 0.31816551451E+01 0.32827829208E+01 0.36061302986E+01
 0.41946675858E+01 0.51066121943E+01 0.73189289529E+01 0.12339763562E+02 0.20896159559E+02
 0.32673195344E+02 0.46286412721E+02 0.40934511459E+02 0.49221128397E+02 0.53420542028E+02
 0.52328271767E+02 0.46287430636E+02 0.37011278562E+02 0.26791098117E+02 0.17649157750E+02
 0.10853957713E+02 0.67784225703E+01 0.49140521552E+01 0.40764429312E+01 0.35144588640E+01
 0.31905705790E+01 0.30584339412E+01 0.30875998276E+01 0.32853236912E+01 0.36934239621E+01
 0.43526844823E+01 0.54114979595E+01 0.79653638540E+01 0.13055820375E+02 0.20896026182E+02
 0.30739963717E+02 0.25505968561E+02 0.31777791924E+02 0.35640036593E+02 0.35961244568E+02
 0.32673947643E+02 0.26791098117E+02 0.19915358945E+02 0.13586361027E+02 0.88241192518E+01
 0.59523297492E+01 0.45959285070E+01 0.38754715795E+01 0.33707502983E+01 0.30730038992E+01
 0.29364680306E+01 0.29245846148E+01 0.30327485718E+01 0.32906872181E+01 0.37493596384E+01
 0.44340836045E+01 0.55349532063E+01 0.79653198957E+01 0.12339643852E+02 0.18505830189E+02
 0.14498420466E+02 0.18547422799E+02 0.21463420065E+02 0.22334002006E+02 0.20896551537E+02
 0.17649157750E+02 0.13586361027E+02 0.97492644998E+01 0.68536493846E+01 0.51139513705E+01
 0.42264592956E+01 0.36232977312E+01 0.31961082332E+01 0.29416821193E+01 0.28193421430E+01
 0.27921709493E+01 0.28473789042E+01 0.30006852218E+01 0.32926382697E+01 0.37682263194E+01
 0.44340648543E+01 0.54114573450E+01 0.73188712020E+01 0.10458002386E+02 0.81229408185E+01
 0.10202755437E+02 0.11951323133E+02 0.12761282970E+02 0.12339869135E+02 0.10853957713E+02
 0.88241192518E+01 0.68536493846E+01 0.53634652180E+01 0.44431398721E+01 0.38397161957E+01
 0.33557907368E+01 0.30156759029E+01 0.28121449643E+01 0.27132067320E+01 0.26871573942E+01
 0.27179607547E+01 0.28103843594E+01 0.29894615006E+01 0.32926244499E+01 0.37493332845E+01
 0.43526536163E+01 0.51065938619E+01 0.63207071634E+01 0.53832095402E+01 0.61601462449E+01
 0.69140613897E+01 0.73669720190E+01 0.73188908300E+01 0.67784225703E+01 0.59523297492E+01
 0.51139513705E+01 0.44431398721E+01 0.39228478703E+01 0.34674714905E+01 0.31049352510E+01
 0.28514440813E+01 0.26988330266E+01 0.26251105755E+01 0.26073795729E+01 0.26311413481E+01
 0.26947866236E+01 0.28103782177E+01 0.30006690633E+01 0.32906637678E+01 0.36934010310E+01
 0.41946585511E+01 0.47476404594E+01 0.43627659192E+01 0.47072473866E+01 0.49699665604E+01
 0.51209041539E+01 0.51065458721E+01 0.49140521552E+01 0.45959285070E+01 0.42264592956E+01
 0.38397161957E+01 0.34674714905E+01 0.31448826255E+01 0.28930831733E+01 0.27174480099E+01
 0.26109585681E+01 0.25604105823E+01 0.25523397004E+01 0.25770956780E+01 0.26311440307E+01
 0.27179619000E+01 0.28473762614E+01 0.30327421179E+01 0.32853152267E+01 0.36061243451E+01
 0.39780144316E+01 0.37397370767E+01 0.39582098082E+01 0.41260535070E+01 0.42112001371E+01
 0.41946240365E+01 0.40764429312E+01 0.38754715795E+01 0.36232977312E+01 0.33557907368E+01
 0.31049352510E+01 0.28930831733E+01 0.27308454310E+01 0.26187297840E+01 0.25512426721E+01
 0.25212712315E+01 0.25229204281E+01 0.25523458224E+01 0.26073912679E+01 0.26871730848E+01
 0.27921880601E+01 0.29245997647E+01 0.30876096723E+01 0.32827857334E+01 0.35053821404E+01
 0.34225392694E+01 0.35276882737E+01 0.36045094006E+01 0.36351854497E+01 0.36061125405E+01
 0.35144588640E+01 0.33707502983E+01 0.31961082332E+01 0.30156759029E+01 0.28514440813E+01
 0.27174480099E+01 0.26187297840E+01 0.25536245693E+01 0.25176905360E+01 0.25072844040E+01
 0.25212758635E+01 0.25604206351E+01 0.26251261699E+01 0.27132269411E+01 0.28193646302E+01
 0.29364893757E+01 0.30584504821E+01 0.31816640765E+01 0.33042230559E+01 0.33794706078E+01
 0.33902139675E+01 0.33794679150E+01 0.33451052510E+01 0.32827783829E+01 0.31905705790E+01
 0.30730038992E+01 0.29416821193E+01 0.28121449643E+01 0.26988330266E+01 0.26109585681E+01
 0.25512426721E+01 0.25176905360E+01 0.25070086747E+01 0.25176930780E+01 0.25512463334E+01
 0.26109616776E+01 0.26988350536E+01 0.28121469543E+01 0.29416857520E+01 0.30730099767E+01
 0.31905782483E+01 0.32827857334E+01 0.33451106157E+01 0.36045206043E+01 0.35276980135E+01
 0.34225453774E+01 0.33042225058E+01 0.31816551451E+01 0.30584339412E+01 0.29364680306E+01
 0.28193421430E+01 0.27132067320E+01 0.26251105755E+01 0.25604105823E+01 0.25212712315E+01
 0.25072844040E+01 0.25176930780E+01 0.25536252048E+01 0.26187225713E+01 0.27174293820E+01
 0.28514169095E+01 0.30156491857E+01 0.31960914932E+01 0.33707473014E+01 0.35144663254E+01
 0.36061243451E+01 0.36351975070E+01 0.41260572202E+01 0.39582117691E+01 0.37397408981E+01
 0.35053848244E+01 0.32827829208E+01 0.30875998276E+01 0.29245846148E+01 0.27921709493E+01
 0.26871573942E+01 0.26073795729E+01 0.25523397004E+01 0.25229204281E+01 0.25212758635E+01
 0.25512463334E+01 0.26187225713E+01 0.27308185256E+01 0.28930381346E+01 0.31048885191E+01
 0.33557657728E+01 0.36233085254E+01 0.38755116576E+01 0.40764904645E+01 0.41946585511E+01
 0.42112155599E+01 0.49699133524E+01 0.47071982386E+01 0.43627394612E+01 0.39780092215E+01
 0.36061302986E+01 0.32853236912E+01 0.30327485718E+01 0.28473789042E+01 0.27179607547E+01
 0.26311413481E+01 0.25770956780E+01 0.25523458224E+01 0.25604206351E+01 0.26109616776E+01
 0.27174293820E+01 0.28930381346E+01 0.31448302682E+01 0.34674518884E+01 0.38397655314E+01
 0.42265793641E+01 0.45960779093E+01 0.49141707108E+01 0.51065938619E+01 0.51208842639E+01
 0.69138736851E+01 0.61599936168E+01 0.53831242643E+01 0.47476144350E+01 0.41946675858E+01
 0.36934239621E+01 0.32906872181E+01 0.30006852218E+01 0.28103843594E+01 0.26947866236E+01
 0.26311440307E+01 0.26073912679E+01 0.26251261699E+01 0.26988350536E+01 0.28514169095E+01
 0.31048885191E+01 0.34674518884E+01 0.39229188489E+01 0.44433339909E+01 0.51142308965E+01
 0.59525944589E+01 0.67785674332E+01 0.73188712020E+01 0.73668255741E+01 0.11950957152E+02
 0.10202499094E+02 0.81228167264E+01 0.63206789442E+01 0.51066121943E+01 0.43526844823E+01
 0.37493596384E+01 0.32926382697E+01 0.29894615006E+01 0.28103782177E+01 0.27179619000E+01
 0.26871730848E+01 0.27132269411E+01 0.28121469543E+01 0.30156491857E+01 0.33557657728E+01
 0.38397655314E+01 0.44433339909E+01 0.53638057741E+01 0.68540356639E+01 0.88243893196E+01
 0.10853985191E+02 0.12339643852E+02 0.12760912322E+02 0.21462958382E+02 0.18547180896E+02
 0.14498365627E+02 0.10458042775E+02 0.73189289529E+01 0.54114979595E+01 0.44340836045E+01
 0.37682263194E+01 0.32926244499E+01 0.30006690633E+01 0.28473762614E+01 0.27921880601E+01
 0.28193646302E+01 0.29416857520E+01 0.31960914932E+01 0.36233085254E+01 0.42265793641E+01
 0.51142308965E+01 0.68540356639E+01 0.97495935650E+01 0.13586441692E+02 0.17648897500E+02