   1   1   0   0
  0.1418631E+02  0.2641378E-09  0.2641378E-09  0.2641378E-09  0.5000000E-15
  1.000000000000000E-004
  CAR 
 bcc Fe                                  
     40.84106321     -5.30992435  301      3.95360550      1.00000000
     -5.310  0.0000E+00  0.0000E+00  0.0000E+00  0.0000E+00
     -5.156  0.0000E+00  0.0000E+00  0.0000E+00  0.0000E+00
     -5.002  0.0000E+00  0.0000E+00  0.0000E+00  0.0000E+00
     -4.848 -0.7679E-30 -0.6932E-34 -0.1181E-30 -0.1066E-34
     -4.695 -0.1126E-24 -0.2400E-28 -0.1732E-25 -0.3692E-29
     -4.541 -0.5000E-20 -0.2521E-23 -0.7692E-21 -0.3879E-24
     -4.387 -0.6494E-16 -0.8019E-19 -0.9991E-17 -0.1234E-19
     -4.233 -0.2608E-12 -0.7462E-15 -0.4014E-13 -0.1148E-15
     -4.079 -0.3106E-09 -0.2131E-11 -0.4782E-10 -0.3279E-12
     -3.925 -0.1084E-06 -0.1804E-08 -0.1672E-07 -0.2779E-09
     -3.772 -0.1072E-04 -0.4448E-06 -0.1666E-05 -0.6871E-07
     -3.618 -0.2739E-03 -0.3059E-04 -0.4380E-04 -0.4775E-05
     -3.464 -0.1097E-02 -0.5127E-03 -0.2126E-03 -0.8364E-04
     -3.310  0.6470E-02 -0.6079E-03  0.7827E-03 -0.1772E-03
     -3.156  0.2166E-01  0.1154E-01  0.4115E-02  0.1598E-02
     -3.002  0.1583E-01  0.2156E-01  0.6550E-02  0.4915E-02
     -2.849  0.2372E-01  0.1556E-01  0.1020E-01  0.7310E-02
     -2.695  0.2716E-01  0.2556E-01  0.1438E-01  0.1124E-01
     -2.541  0.7420E-01  0.3098E-01  0.2579E-01  0.1601E-01
     -2.387  0.7542E-01  0.8563E-01  0.3739E-01  0.2918E-01
     -2.233  0.3943E-02  0.5930E-01  0.3800E-01  0.3830E-01
     -2.079 -0.9075E-03 -0.3735E-02  0.3786E-01  0.3773E-01
     -1.926  0.7858E-01  0.3334E-02  0.4995E-01  0.3824E-01
     -1.772  0.1076E+00  0.8634E-01  0.6651E-01  0.5152E-01
     -1.618  0.8280E-01  0.1009E+00  0.7924E-01  0.6704E-01
     -1.464  0.9592E-01  0.7572E-01  0.9400E-01  0.7869E-01
     -1.310  0.9852E-01  0.8267E-01  0.1092E+00  0.9141E-01
     -1.156  0.4327E-01  0.8435E-01  0.1158E+00  0.1044E+00
     -1.002 -0.6262E-02  0.7140E-01  0.1148E+00  0.1154E+00
     -0.849  0.1098E+00 -0.9386E-03  0.1317E+00  0.1152E+00
     -0.695  0.2328E+00  0.1708E-01  0.1675E+00  0.1179E+00
     -0.541  0.1749E+00  0.1582E+00  0.1944E+00  0.1422E+00
     -0.387  0.2313E+00  0.1689E+00  0.2300E+00  0.1682E+00
     -0.233  0.1881E+00  0.9798E-01  0.2590E+00  0.1832E+00
     -0.079  0.2416E+00  0.1356E+00  0.2961E+00  0.2041E+00
      0.074  0.6462E+00  0.1713E+00  0.3955E+00  0.2305E+00
      0.228  0.9479E+00  0.5311E-01  0.5414E+00  0.2386E+00
      0.382  0.9347E+00  0.7631E-01  0.6852E+00  0.2504E+00
      0.536  0.1138E+01  0.8306E-01  0.8602E+00  0.2631E+00
      0.690  0.9469E+00  0.9419E-01  0.1006E+01  0.2776E+00
      0.844  0.6313E+00  0.2636E+00  0.1103E+01  0.3182E+00
      0.997  0.1281E+01  0.3255E+00  0.1300E+01  0.3683E+00
      1.151  0.1953E+01  0.1903E+00  0.1600E+01  0.3975E+00
      1.305  0.1470E+01  0.3193E+00  0.1827E+01  0.4467E+00
      1.459  0.1668E+01  0.3025E+00  0.2083E+01  0.4932E+00
      1.613  0.2222E+01  0.1606E+00  0.2425E+01  0.5179E+00
      1.767  0.1347E+01  0.3917E+00  0.2632E+01  0.5782E+00
      1.920  0.5610E+00  0.5404E+00  0.2719E+01  0.6613E+00
      2.074  0.8861E+00  0.3671E+00  0.2855E+01  0.7178E+00
      2.228  0.8409E+00  0.5695E+00  0.2984E+01  0.8054E+00
      2.382  0.1056E+01  0.6694E+00  0.3147E+01  0.9084E+00
      2.536  0.2395E+01  0.4710E+00  0.3515E+01  0.9808E+00
      2.690  0.3248E+01  0.3747E+00  0.4015E+01  0.1038E+01
      2.843  0.2860E+01  0.4479E+00  0.4455E+01  0.1107E+01
      2.997  0.1535E+01  0.9421E+00  0.4691E+01  0.1252E+01
      3.151  0.1195E+01  0.1534E+01  0.4875E+01  0.1488E+01
      3.305  0.1238E+01  0.1644E+01  0.5065E+01  0.1741E+01
      3.459  0.8632E+00  0.1468E+01  0.5198E+01  0.1967E+01
      3.613  0.4001E+00  0.1681E+01  0.5260E+01  0.2226E+01
      3.766  0.1803E+00  0.1580E+01  0.5287E+01  0.2469E+01
      3.920  0.1447E+00  0.1204E+01  0.5310E+01  0.2654E+01
      4.074  0.6070E-01  0.8713E+00  0.5319E+01  0.2788E+01
      4.228  0.1768E+00  0.4384E+00  0.5346E+01  0.2855E+01
      4.382  0.3517E+00  0.3451E+00  0.5400E+01  0.2908E+01
      4.536  0.3147E+00  0.4713E+00  0.5449E+01  0.2981E+01
      4.689  0.2114E+00  0.2879E+00  0.5481E+01  0.3025E+01
      4.843  0.9316E-01  0.3176E+00  0.5496E+01  0.3074E+01
      4.997  0.8642E-01  0.6496E+00  0.5509E+01  0.3174E+01
      5.151  0.6199E-01  0.1104E+01  0.5518E+01  0.3344E+01
      5.305  0.2957E-01  0.1202E+01  0.5523E+01  0.3529E+01
      5.459  0.7453E-01  0.1554E+01  0.5534E+01  0.3768E+01
      5.612  0.2403E+00  0.1860E+01  0.5571E+01  0.4054E+01
      5.766  0.1762E+00  0.2482E+01  0.5599E+01  0.4436E+01
      5.920  0.1920E+00  0.2868E+01  0.5628E+01  0.4877E+01
      6.074  0.3363E+00  0.1711E+01  0.5680E+01  0.5140E+01
      6.228  0.2033E+00  0.7801E+00  0.5711E+01  0.5260E+01
      6.382  0.4809E-01  0.4871E+00  0.5718E+01  0.5335E+01
      6.535 -0.1187E-02  0.3013E+00  0.5718E+01  0.5381E+01
      6.689  0.8133E-01  0.4219E+00  0.5731E+01  0.5446E+01
      6.843  0.2002E+00  0.3610E+00  0.5762E+01  0.5502E+01
      6.997  0.1530E+00  0.1620E+00  0.5785E+01  0.5527E+01
      7.151  0.1036E+00  0.1193E+00  0.5801E+01  0.5545E+01
      7.305  0.1167E+00  0.2832E+00  0.5819E+01  0.5589E+01
      7.459  0.1159E+00  0.2135E+00  0.5837E+01  0.5621E+01
      7.612  0.5132E-01  0.1375E+00  0.5845E+01  0.5643E+01
      7.766  0.2839E-01  0.1985E+00  0.5849E+01  0.5673E+01
      7.920  0.4776E-01  0.1913E+00  0.5856E+01  0.5703E+01
      8.074  0.9841E-01  0.1196E+00  0.5872E+01  0.5721E+01
      8.228  0.1549E+00  0.1629E+00  0.5895E+01  0.5746E+01
      8.382  0.1501E+00  0.3162E+00  0.5919E+01  0.5795E+01
      8.535  0.6567E-01  0.2153E+00  0.5929E+01  0.5828E+01
      8.689 -0.4281E-02  0.9741E-01  0.5928E+01  0.5843E+01
      8.843  0.2402E-02  0.1368E-01  0.5928E+01  0.5845E+01
      8.997  0.6840E-01  0.2452E-01  0.5939E+01  0.5849E+01
      9.151  0.6815E-01  0.4417E-01  0.5949E+01  0.5855E+01
      9.305  0.1211E+00  0.1023E+00  0.5968E+01  0.5871E+01
      9.458  0.2705E+00  0.1563E+00  0.6010E+01  0.5895E+01
      9.612  0.1263E+00  0.1115E+00  0.6029E+01  0.5912E+01
      9.766  0.1184E+00  0.1212E+00  0.6047E+01  0.5931E+01
      9.920  0.2606E+00  0.1074E+00  0.6087E+01  0.5948E+01
     10.074  0.1553E+00  0.3361E-01  0.6111E+01  0.5953E+01
     10.228  0.1783E+00  0.5835E-01  0.6139E+01  0.5962E+01
     10.381  0.2709E+00  0.8704E-01  0.6180E+01  0.5975E+01
     10.535  0.2067E+00  0.6161E-01  0.6212E+01  0.5985E+01
     10.689  0.2153E+00  0.3645E-01  0.6245E+01  0.5990E+01
     10.843  0.8455E-01  0.5229E-01  0.6258E+01  0.5998E+01
     10.997  0.1059E+00  0.2089E+00  0.6275E+01  0.6030E+01
     11.151  0.1885E+00  0.2686E+00  0.6304E+01  0.6072E+01
     11.304  0.1970E+00  0.1563E+00  0.6334E+01  0.6096E+01
     11.458  0.2522E+00  0.2925E+00  0.6373E+01  0.6141E+01
     11.612  0.2225E+00  0.4052E+00  0.6407E+01  0.6203E+01
     11.766  0.1631E+00  0.2464E+00  0.6432E+01  0.6241E+01
     11.920  0.1475E+00  0.2040E+00  0.6455E+01  0.6272E+01
     12.074  0.2361E+00  0.2265E+00  0.6491E+01  0.6307E+01
     12.227  0.2456E+00  0.2061E+00  0.6529E+01  0.6339E+01
     12.381  0.4417E+00  0.1406E+00  0.6597E+01  0.6361E+01
     12.535  0.2959E+00  0.1150E+00  0.6642E+01  0.6378E+01
     12.689  0.4367E-01  0.2572E+00  0.6649E+01  0.6418E+01
     12.843  0.7139E-01  0.4337E+00  0.6660E+01  0.6485E+01
     12.997  0.1661E+00  0.2562E+00  0.6685E+01  0.6524E+01
     13.150  0.1511E+00  0.1586E+00  0.6709E+01  0.6548E+01
     13.304  0.1736E+00  0.4197E+00  0.6735E+01  0.6613E+01
     13.458  0.2378E+00  0.2473E+00  0.6772E+01  0.6651E+01
     13.612  0.4163E+00  0.7752E-01  0.6836E+01  0.6663E+01
     13.766  0.4123E+00  0.1619E+00  0.6899E+01  0.6688E+01
     13.920  0.1437E+00  0.7154E-01  0.6922E+01  0.6699E+01
     14.073  0.7122E-01  0.1698E+00  0.6932E+01  0.6725E+01
     14.227  0.4476E-01  0.4377E+00  0.6939E+01  0.6792E+01
     14.381  0.6968E-01  0.3395E+00  0.6950E+01  0.6844E+01
     14.535  0.1195E+00  0.2454E+00  0.6968E+01  0.6882E+01
     14.689  0.2318E+00  0.2041E+00  0.7004E+01  0.6914E+01
     14.843  0.2575E+00  0.9239E-01  0.7044E+01  0.6928E+01
     14.997  0.1101E+00  0.6875E-01  0.7061E+01  0.6938E+01
     15.150  0.2431E+00  0.8274E-01  0.7098E+01  0.6951E+01
     15.304  0.3535E+00  0.2066E+00  0.7152E+01  0.6983E+01
     15.458  0.2720E+00  0.3257E+00  0.7194E+01  0.7033E+01
     15.612  0.3276E+00  0.1600E+00  0.7245E+01  0.7058E+01
     15.766  0.2172E+00  0.1371E+00  0.7278E+01  0.7079E+01
     15.920  0.1682E+00  0.2976E+00  0.7304E+01  0.7125E+01
     16.073  0.1232E+00  0.2780E+00  0.7323E+01  0.7167E+01
     16.227  0.1283E+00  0.3394E+00  0.7343E+01  0.7220E+01
     16.381  0.1046E+00  0.3658E+00  0.7359E+01  0.7276E+01
     16.535  0.3055E+00  0.2088E+00  0.7406E+01  0.7308E+01
     16.689  0.2686E+00  0.6938E-01  0.7447E+01  0.7319E+01
     16.843  0.9419E-01  0.9509E-01  0.7462E+01  0.7333E+01
     16.996  0.7765E-01  0.1208E+00  0.7474E+01  0.7352E+01
     17.150  0.4152E-01  0.3109E+00  0.7480E+01  0.7400E+01
     17.304  0.1979E+00  0.2967E+00  0.7510E+01  0.7445E+01
     17.458  0.2512E+00  0.1172E+00  0.7549E+01  0.7463E+01
     17.612  0.1302E+00  0.7702E-01  0.7569E+01  0.7475E+01
     17.766  0.8594E-01  0.7292E-01  0.7582E+01  0.7486E+01
     17.919  0.1602E+00  0.2117E+00  0.7607E+01  0.7519E+01
     18.073  0.2447E+00  0.2104E+00  0.7645E+01  0.7551E+01
     18.227  0.3331E+00  0.1211E+00  0.7696E+01  0.7570E+01
     18.381  0.3235E+00  0.6633E-01  0.7746E+01  0.7580E+01
     18.535  0.2221E+00  0.1673E+00  0.7780E+01  0.7606E+01
     18.689  0.2493E+00  0.2129E+00  0.7818E+01  0.7639E+01
     18.842  0.3533E+00  0.3250E+00  0.7872E+01  0.7689E+01
     18.996  0.2025E+00  0.4249E+00  0.7904E+01  0.7754E+01
     19.150  0.1790E+00  0.3048E+00  0.7931E+01  0.7801E+01
     19.304  0.1435E+00  0.3261E+00  0.7953E+01  0.7851E+01
     19.458  0.3324E+00  0.2600E+00  0.8004E+01  0.7891E+01
     19.612  0.4737E+00  0.2519E+00  0.8077E+01  0.7930E+01
     19.765  0.2165E+00  0.2668E+00  0.8110E+01  0.7971E+01
     19.919  0.1601E+00  0.2419E+00  0.8135E+01  0.8008E+01
     20.073  0.3666E+00  0.3776E+00  0.8192E+01  0.8066E+01
     20.227  0.3532E+00  0.3108E+00  0.8246E+01  0.8114E+01
     20.381  0.4112E+00  0.2391E+00  0.8309E+01  0.8151E+01
     20.535  0.2665E+00  0.3508E+00  0.8350E+01  0.8205E+01
     20.688  0.3638E-01  0.3469E+00  0.8356E+01  0.8258E+01
     20.842  0.1017E+00  0.2221E+00  0.8371E+01  0.8292E+01
     20.996  0.2709E+00  0.2365E+00  0.8413E+01  0.8329E+01
     21.150  0.3465E+00  0.2359E+00  0.8466E+01  0.8365E+01
     21.304  0.4980E+00  0.1339E+00  0.8543E+01  0.8386E+01
     21.458  0.4741E+00  0.3043E+00  0.8616E+01  0.8432E+01
     21.611  0.1489E+00  0.4244E+00  0.8639E+01  0.8498E+01
     21.765  0.2184E+00  0.2891E+00  0.8672E+01  0.8542E+01
     21.919  0.4310E+00  0.2987E+00  0.8739E+01  0.8588E+01
     22.073  0.4414E+00  0.4583E+00  0.8807E+01  0.8659E+01
     22.227  0.1297E+00  0.4306E+00  0.8827E+01  0.8725E+01
     22.381  0.1073E+00  0.3008E+00  0.8843E+01  0.8771E+01
     22.535  0.2180E+00  0.2967E+00  0.8877E+01  0.8817E+01
     22.688  0.1744E+00  0.2276E+00  0.8903E+01  0.8852E+01
     22.842  0.1171E+00  0.9061E-01  0.8921E+01  0.8866E+01
     22.996  0.2384E+00  0.1156E+00  0.8958E+01  0.8883E+01
     23.150  0.2298E+00  0.1255E+00  0.8993E+01  0.8903E+01
     23.304  0.1662E+00  0.1342E+00  0.9019E+01  0.8923E+01
     23.458  0.2671E+00  0.2446E+00  0.9060E+01  0.8961E+01
     23.611  0.1749E+00  0.2756E+00  0.9087E+01  0.9003E+01
     23.765  0.8559E-01  0.2041E+00  0.9100E+01  0.9035E+01
     23.919  0.2039E+00  0.1212E+00  0.9132E+01  0.9053E+01
     24.073  0.1776E+00  0.7737E-01  0.9159E+01  0.9065E+01
     24.227  0.7406E-01  0.1513E+00  0.9170E+01  0.9089E+01
     24.381  0.1971E+00  0.2420E+00  0.9201E+01  0.9126E+01
     24.534  0.1854E+00  0.3091E+00  0.9229E+01  0.9173E+01
     24.688  0.1100E+00  0.2669E+00  0.9246E+01  0.9214E+01
     24.842  0.1879E+00  0.1335E+00  0.9275E+01  0.9235E+01
     24.996  0.2110E+00  0.2361E-01  0.9307E+01  0.9239E+01
     25.150  0.2077E+00  0.1258E+00  0.9339E+01  0.9258E+01
     25.304  0.3442E+00  0.1662E+00  0.9392E+01  0.9284E+01
     25.457  0.6728E+00  0.1151E+00  0.9496E+01  0.9301E+01
     25.611  0.3782E+00  0.3295E+00  0.9554E+01  0.9352E+01
     25.765  0.9574E-01  0.6635E+00  0.9569E+01  0.9454E+01
     25.919  0.2356E+00  0.5617E+00  0.9605E+01  0.9540E+01
     26.073  0.2367E+00  0.3509E+00  0.9641E+01  0.9594E+01
     26.227  0.2466E+00  0.2998E+00  0.9679E+01  0.9641E+01
     26.380  0.3323E+00  0.1508E+00  0.9730E+01  0.9664E+01
     26.534  0.1539E+00  0.2025E+00  0.9754E+01  0.9695E+01
     26.688  0.1763E-02  0.2013E+00  0.9754E+01  0.9726E+01
     26.842  0.5233E-01  0.1645E+00  0.9762E+01  0.9751E+01
     26.996  0.1492E+00  0.1401E+00  0.9785E+01  0.9773E+01
     27.150  0.2398E+00  0.6864E-01  0.9822E+01  0.9783E+01
     27.303  0.3607E+00  0.3420E-01  0.9878E+01  0.9789E+01
     27.457  0.3817E+00  0.1318E+00  0.9936E+01  0.9809E+01
     27.611  0.2963E+00  0.1223E+00  0.9982E+01  0.9828E+01
     27.765  0.2817E+00  0.2217E+00  0.1003E+02  0.9862E+01
     27.919  0.2291E+00  0.4218E+00  0.1006E+02  0.9927E+01
     28.073  0.3069E+00  0.5153E+00  0.1011E+02  0.1001E+02
     28.226  0.6967E+00  0.7024E+00  0.1021E+02  0.1011E+02
     28.380  0.6334E+00  0.3422E+00  0.1031E+02  0.1017E+02
     28.534  0.2513E+00  0.2236E+00  0.1035E+02  0.1020E+02
     28.688  0.3283E+00  0.5244E+00  0.1040E+02  0.1028E+02
     28.842  0.3408E+00  0.3637E+00  0.1045E+02  0.1034E+02
     28.996  0.1470E+00  0.3042E+00  0.1048E+02  0.1038E+02
     29.149  0.7423E-01  0.3236E+00  0.1049E+02  0.1043E+02
     29.303  0.1134E+00  0.1406E+00  0.1051E+02  0.1046E+02
     29.457  0.3503E+00  0.1945E+00  0.1056E+02  0.1049E+02
     29.611  0.4772E+00  0.2537E+00  0.1063E+02  0.1052E+02
     29.765  0.3075E+00  0.2623E+00  0.1068E+02  0.1057E+02
     29.919  0.1073E+00  0.3600E+00  0.1070E+02  0.1062E+02
     30.072  0.7695E-01  0.2707E+00  0.1071E+02  0.1066E+02
     30.226  0.2251E+00  0.1135E+00  0.1074E+02  0.1068E+02
     30.380  0.2746E+00  0.1350E+00  0.1079E+02  0.1070E+02
     30.534  0.2923E+00  0.1059E+00  0.1083E+02  0.1072E+02
     30.688  0.2876E+00  0.2154E+00  0.1087E+02  0.1075E+02
     30.842  0.4294E+00  0.3601E+00  0.1094E+02  0.1081E+02
     30.996  0.4753E+00  0.3699E+00  0.1101E+02  0.1086E+02
     31.149  0.3052E+00  0.3251E+00  0.1106E+02  0.1091E+02
     31.303  0.1454E+00  0.4288E+00  0.1108E+02  0.1098E+02
     31.457  0.6349E-01  0.5352E+00  0.1109E+02  0.1106E+02
     31.611  0.1866E+00  0.4056E+00  0.1112E+02  0.1112E+02
     31.765  0.5173E+00  0.1181E+00  0.1120E+02  0.1114E+02
     31.919  0.5244E+00  0.2123E+00  0.1128E+02  0.1117E+02
     32.072  0.3847E+00  0.2864E+00  0.1134E+02  0.1122E+02
     32.226  0.2619E+00  0.1049E+00  0.1138E+02  0.1123E+02
     32.380  0.2651E+00  0.1981E+00  0.1142E+02  0.1126E+02
     32.534  0.2570E+00  0.5418E+00  0.1146E+02  0.1135E+02
     32.688  0.2579E+00  0.3858E+00  0.1150E+02  0.1141E+02
     32.842  0.2451E+00  0.2614E+00  0.1154E+02  0.1145E+02
     32.995  0.8002E-01  0.3525E+00  0.1155E+02  0.1150E+02
     33.149 -0.1810E-01  0.2319E+00  0.1155E+02  0.1154E+02
     33.303  0.8852E-02  0.3199E-01  0.1155E+02  0.1154E+02
     33.457  0.2800E+00  0.6682E-01  0.1159E+02  0.1155E+02
     33.611  0.3705E+00  0.2392E+00  0.1165E+02  0.1159E+02
     33.765  0.1596E+00  0.2026E+00  0.1167E+02  0.1162E+02
     33.918  0.1892E+00  0.1138E+00  0.1170E+02  0.1164E+02
     34.072  0.1143E+00  0.1276E+00  0.1172E+02  0.1166E+02
     34.226  0.1152E-01  0.2148E+00  0.1172E+02  0.1169E+02
     34.380  0.5828E-01  0.1772E+00  0.1173E+02  0.1172E+02
     34.534  0.1005E+00  0.4194E-01  0.1175E+02  0.1172E+02
     34.688  0.1443E+00  0.1674E+00  0.1177E+02  0.1175E+02
     34.841  0.1442E+00  0.1926E+00  0.1179E+02  0.1178E+02
     34.995  0.1021E+00  0.3794E-01  0.1181E+02  0.1179E+02
     35.149  0.6292E-01  0.5034E-01  0.1182E+02  0.1179E+02
     35.303  0.3923E-01  0.1592E+00  0.1182E+02  0.1182E+02
     35.457  0.8671E-01  0.1496E+00  0.1184E+02  0.1184E+02
     35.611  0.3302E-01  0.1393E-01  0.1184E+02  0.1184E+02
     35.764  0.6671E-01 -0.8432E-02  0.1185E+02  0.1184E+02
     35.918  0.1818E+00  0.5627E-01  0.1188E+02  0.1185E+02
     36.072  0.1837E+00  0.1490E+00  0.1191E+02  0.1187E+02
     36.226  0.1392E+00  0.1762E+00  0.1193E+02  0.1190E+02
     36.380  0.6145E-01  0.5421E-01  0.1194E+02  0.1191E+02
     36.534  0.9716E-02  0.1396E-01  0.1194E+02  0.1191E+02
     36.687  0.6283E-01  0.1068E+00  0.1195E+02  0.1193E+02
     36.841  0.8240E-01  0.1011E+00  0.1196E+02  0.1194E+02
     36.995  0.1259E-01  0.9068E-01  0.1196E+02  0.1196E+02
     37.149 -0.4115E-02  0.5192E-01  0.1196E+02  0.1196E+02
     37.303 -0.5822E-03 -0.1020E-02  0.1196E+02  0.1196E+02
     37.457 -0.1650E-04 -0.2473E-02  0.1196E+02  0.1196E+02
     37.610 -0.2487E-04 -0.1725E-03  0.1196E+02  0.1196E+02
     37.764 -0.7696E-03 -0.1718E-04  0.1196E+02  0.1196E+02
     37.918 -0.4410E-02 -0.5725E-03  0.1196E+02  0.1196E+02
     38.072  0.1735E-01 -0.4777E-02  0.1197E+02  0.1196E+02
     38.226  0.8792E-01  0.1072E-01  0.1198E+02  0.1196E+02
     38.380  0.7269E-01  0.9645E-01  0.1199E+02  0.1198E+02
     38.534  0.2102E-01  0.9587E-01  0.1199E+02  0.1199E+02
     38.687  0.1335E-01  0.2927E-01  0.1200E+02  0.1200E+02
     38.841  0.2178E-01  0.8534E-02  0.1200E+02  0.1200E+02
     38.995  0.6486E-02 -0.8584E-03  0.1200E+02  0.1200E+02
     39.149 -0.1097E-02 -0.5685E-03  0.1200E+02  0.1200E+02
     39.303 -0.2739E-03 -0.3586E-04  0.1200E+02  0.1200E+02
     39.457 -0.1072E-04 -0.5523E-06  0.1200E+02  0.1200E+02
     39.610 -0.1083E-06 -0.2368E-08  0.1200E+02  0.1200E+02
     39.764 -0.3104E-09 -0.2953E-11  0.1200E+02  0.1200E+02
     39.918 -0.2607E-12 -0.1091E-14  0.1200E+02  0.1200E+02
     40.072 -0.6928E-16  0.0000E+00  0.1200E+02  0.1200E+02
     40.226  0.0000E+00  0.0000E+00  0.1200E+02  0.1200E+02
     40.380  0.0000E+00  0.0000E+00  0.1200E+02  0.1200E+02
     40.533  0.0000E+00  0.0000E+00  0.1200E+02  0.1200E+02
     40.687  0.0000E+00  0.0000E+00  0.1200E+02  0.1200E+02
     40.841  0.0000E+00  0.0000E+00  0.1200E+02  0.1200E+02
