<?xml version="1.0" encoding="ISO-8859-1"?>
<modeling>
 <generator>
  <i name="program" type="string">vasp </i>
  <i name="version" type="string">5.4.4.18Apr17-6-g9f103f2a35  </i>
  <i name="subversion" type="string">(build Jul 01 2019 03:25:34) complex            parallel </i>
  <i name="platform" type="string">LinuxIFC </i>
  <i name="date" type="string">2020 07 08 </i>
  <i name="time" type="string">18:32:37 </i>
 </generator>
 <incar>
  <i type="string" name="SYSTEM"> bcc Fe</i>
  <i type="string" name="PREC">normal</i>
  <i type="int" name="ISPIN">     2</i>
  <i name="EDIFF">      0.00010000</i>
  <i name="ENCUT">    268.00000000</i>
  <v name="MAGMOM">      3.00000000</v>
  <v type="int" name="KPOINT_BSE">    -1     0     0     0</v>
 </incar>
 <structure name="primitive_cell" >
  <crystal>
   <varray name="basis" >
    <v>      -1.52500000       1.52500000       1.52500000 </v>
    <v>       1.52500000      -1.52500000       1.52500000 </v>
    <v>       1.52500000       1.52500000      -1.52500000 </v>
   </varray>
   <i name="volume">     14.18631250 </i>
   <varray name="rec_basis" >
    <v>       0.00000000       0.32786885       0.32786885 </v>
    <v>       0.32786885       0.00000000       0.32786885 </v>
    <v>       0.32786885       0.32786885       0.00000000 </v>
   </varray>
  </crystal>
  <varray name="positions" >
   <v>       0.00000000       0.00000000       0.00000000 </v>
  </varray>
 </structure>
 <varray name="primitive_index" >
  <v type="int" >        1 </v>
 </varray>
 <kpoints>
  <generation param="Monkhorst-Pack">
   <v type="int" name="divisions">      10       10       10 </v>
   <v name="usershift">      0.00000000       0.00000000       0.00000000 </v>
   <v name="genvec1">      0.10000000       0.00000000       0.00000000 </v>
   <v name="genvec2">      0.00000000       0.10000000       0.00000000 </v>
   <v name="genvec3">      0.00000000       0.00000000       0.10000000 </v>
   <v name="shift">      0.50000000       0.50000000       0.50000000 </v>
  </generation>
  <varray name="kpointlist" >
   <v>       0.05000000       0.05000000       0.05000000 </v>
   <v>       0.15000000       0.05000000       0.05000000 </v>
   <v>       0.25000000       0.05000000       0.05000000 </v>
   <v>       0.35000000       0.05000000       0.05000000 </v>
   <v>       0.45000000       0.05000000       0.05000000 </v>
   <v>      -0.05000000       0.05000000       0.05000000 </v>
   <v>       0.15000000       0.15000000       0.05000000 </v>
   <v>       0.25000000       0.15000000       0.05000000 </v>
   <v>       0.35000000       0.15000000       0.05000000 </v>
   <v>      -0.15000000       0.15000000       0.05000000 </v>
   <v>       0.25000000       0.25000000       0.05000000 </v>
   <v>       0.35000000       0.25000000       0.05000000 </v>
   <v>      -0.25000000       0.25000000       0.05000000 </v>
   <v>      -0.15000000       0.25000000       0.05000000 </v>
   <v>      -0.35000000       0.35000000       0.05000000 </v>
   <v>      -0.25000000       0.35000000       0.05000000 </v>
   <v>      -0.45000000       0.45000000       0.05000000 </v>
   <v>      -0.35000000       0.45000000       0.05000000 </v>
   <v>      -0.25000000       0.45000000       0.05000000 </v>
   <v>      -0.45000000      -0.45000000       0.05000000 </v>
   <v>      -0.35000000      -0.45000000       0.05000000 </v>
   <v>      -0.35000000      -0.35000000       0.05000000 </v>
   <v>       0.15000000       0.15000000       0.15000000 </v>
   <v>       0.25000000       0.15000000       0.15000000 </v>
   <v>       0.35000000       0.15000000       0.15000000 </v>
   <v>      -0.15000000       0.15000000       0.15000000 </v>
   <v>       0.25000000       0.25000000       0.15000000 </v>
   <v>      -0.25000000       0.25000000       0.15000000 </v>
   <v>      -0.35000000       0.35000000       0.15000000 </v>
   <v>      -0.25000000       0.35000000       0.15000000 </v>
   <v>      -0.45000000       0.45000000       0.15000000 </v>
   <v>      -0.35000000       0.45000000       0.15000000 </v>
   <v>      -0.45000000      -0.45000000       0.15000000 </v>
   <v>      -0.35000000      -0.45000000       0.15000000 </v>
   <v>       0.25000000       0.25000000       0.25000000 </v>
   <v>      -0.25000000       0.25000000       0.25000000 </v>
   <v>      -0.35000000       0.35000000       0.25000000 </v>
   <v>      -0.45000000       0.45000000       0.25000000 </v>
   <v>      -0.35000000       0.45000000       0.25000000 </v>
   <v>      -0.45000000      -0.45000000       0.25000000 </v>
   <v>      -0.35000000       0.35000000       0.35000000 </v>
   <v>      -0.45000000       0.45000000       0.35000000 </v>
   <v>      -0.45000000      -0.45000000       0.35000000 </v>
   <v>      -0.45000000       0.45000000       0.45000000 </v>
  </varray>
  <varray name="weights" >
   <v>       0.00800000 </v>
   <v>       0.02400000 </v>
   <v>       0.02400000 </v>
   <v>       0.02400000 </v>
   <v>       0.01200000 </v>
   <v>       0.00600000 </v>
   <v>       0.02400000 </v>
   <v>       0.04800000 </v>
   <v>       0.04800000 </v>
   <v>       0.02400000 </v>
   <v>       0.02400000 </v>
   <v>       0.02400000 </v>
   <v>       0.02400000 </v>
   <v>       0.02400000 </v>
   <v>       0.02400000 </v>
   <v>       0.04800000 </v>
   <v>       0.02400000 </v>
   <v>       0.04800000 </v>
   <v>       0.02400000 </v>
   <v>       0.02400000 </v>
   <v>       0.04800000 </v>
   <v>       0.00800000 </v>
   <v>       0.00800000 </v>
   <v>       0.02400000 </v>
   <v>       0.01200000 </v>
   <v>       0.00600000 </v>
   <v>       0.02400000 </v>
   <v>       0.02400000 </v>
   <v>       0.02400000 </v>
   <v>       0.02400000 </v>
   <v>       0.02400000 </v>
   <v>       0.04800000 </v>
   <v>       0.02400000 </v>
   <v>       0.02400000 </v>
   <v>       0.00200000 </v>
   <v>       0.00600000 </v>
   <v>       0.02400000 </v>
   <v>       0.02400000 </v>
   <v>       0.02400000 </v>
   <v>       0.02400000 </v>
   <v>       0.00600000 </v>
   <v>       0.02400000 </v>
   <v>       0.00800000 </v>
   <v>       0.00600000 </v>
  </varray>
 </kpoints>
 <parameters>
  <separator name="general" >
   <i type="string" name="SYSTEM">bcc Fe</i>
   <i type="logical" name="LCOMPAT"> F  </i>
  </separator>
  <separator name="electronic" >
   <i type="string" name="PREC">normal</i>
   <i name="ENMAX">    268.00000000</i>
   <i name="ENAUG">    511.36800000</i>
   <i name="EDIFF">      0.00010000</i>
   <i type="int" name="IALGO">    38</i>
   <i type="int" name="IWAVPR">    10</i>
   <i type="int" name="NBANDS">    12</i>
   <i name="NELECT">      8.00000000</i>
   <i type="int" name="TURBO">     0</i>
   <i type="int" name="IRESTART">     0</i>
   <i type="int" name="NREBOOT">     0</i>
   <i type="int" name="NMIN">     0</i>
   <i name="EREF">      0.00000000</i>
   <separator name="electronic smearing" >
    <i type="int" name="ISMEAR">     1</i>
    <i name="SIGMA">      0.20000000</i>
    <i name="KSPACING">      0.50000000</i>
    <i type="logical" name="KGAMMA"> T  </i>
   </separator>
   <separator name="electronic projectors" >
    <i type="logical" name="LREAL"> F  </i>
    <v name="ROPT">      0.00000000</v>
    <i type="int" name="LMAXPAW">  -100</i>
    <i type="int" name="LMAXMIX">     2</i>
    <i type="logical" name="NLSPLINE"> F  </i>
   </separator>
   <separator name="electronic startup" >
    <i type="int" name="ISTART">     0</i>
    <i type="int" name="ICHARG">     2</i>
    <i type="int" name="INIWAV">     1</i>
   </separator>
   <separator name="electronic spin" >
    <i type="int" name="ISPIN">     2</i>
    <i type="logical" name="LNONCOLLINEAR"> F  </i>
    <v name="MAGMOM">      3.00000000</v>
    <i name="NUPDOWN">     -1.00000000</i>
    <i type="logical" name="LSORBIT"> F  </i>
    <v name="SAXIS">      0.00000000      0.00000000      1.00000000</v>
    <i type="logical" name="LSPIRAL"> F  </i>
    <v name="QSPIRAL">      0.00000000      0.00000000      0.00000000</v>
    <i type="logical" name="LZEROZ"> F  </i>
   </separator>
   <separator name="electronic exchange-correlation" >
    <i type="logical" name="LASPH"> F  </i>
    <i type="logical" name="LMETAGGA"> F  </i>
   </separator>
   <separator name="electronic convergence" >
    <i type="int" name="NELM">    60</i>
    <i type="int" name="NELMDL">    -5</i>
    <i type="int" name="NELMIN">     2</i>
    <i name="ENINI">    268.00000000</i>
    <separator name="electronic convergence detail" >
     <i type="logical" name="LDIAG"> T  </i>
     <i type="logical" name="LSUBROT"> F  </i>
     <i name="WEIMIN">      0.00000000</i>
     <i name="EBREAK">      0.00000208</i>
     <i name="DEPER">      0.30000000</i>
     <i type="int" name="NRMM">     4</i>
     <i name="TIME">      0.40000000</i>
    </separator>
   </separator>
   <separator name="electronic mixer" >
    <i name="AMIX">      0.40000000</i>
    <i name="BMIX">      1.00000000</i>
    <i name="AMIN">      0.10000000</i>
    <i name="AMIX_MAG">      1.60000000</i>
    <i name="BMIX_MAG">      1.00000000</i>
    <separator name="electronic mixer details" >
     <i type="int" name="IMIX">     4</i>
     <i type="logical" name="MIXFIRST"> F  </i>
     <i type="int" name="MAXMIX">   -45</i>
     <i name="WC">    100.00000000</i>
     <i type="int" name="INIMIX">     1</i>
     <i type="int" name="MIXPRE">     1</i>
     <i type="int" name="MREMOVE">     5</i>
    </separator>
   </separator>
   <separator name="electronic dipolcorrection" >
    <i type="logical" name="LDIPOL"> F  </i>
    <i type="logical" name="LMONO"> F  </i>
    <i type="int" name="IDIPOL">     0</i>
    <i name="EPSILON">      1.00000000</i>
    <v name="DIPOL">   -100.00000000   -100.00000000   -100.00000000</v>
    <i name="EFIELD">      0.00000000</i>
   </separator>
  </separator>
  <separator name="grids" >
   <i type="int" name="NGX">    12</i>
   <i type="int" name="NGY">    12</i>
   <i type="int" name="NGZ">    12</i>
   <i type="int" name="NGXF">    24</i>
   <i type="int" name="NGYF">    24</i>
   <i type="int" name="NGZF">    24</i>
   <i type="logical" name="ADDGRID"> F  </i>
  </separator>
  <separator name="ionic" >
   <i type="int" name="NSW">     0</i>
   <i type="int" name="IBRION">    -1</i>
   <i type="int" name="MDALGO">     0</i>
   <i type="int" name="ISIF">     2</i>
   <i name="PSTRESS">      0.00000000</i>
   <i name="EDIFFG">      0.00100000</i>
   <i type="int" name="NFREE">     0</i>
   <i name="POTIM">      0.50000000</i>
   <i name="SMASS">     -3.00000000</i>
   <i name="SCALEE">      1.00000000</i>
  </separator>
  <separator name="ionic md" >
   <i name="TEBEG">      0.00010000</i>
   <i name="TEEND">      0.00010000</i>
   <i type="int" name="NBLOCK">     1</i>
   <i type="int" name="KBLOCK">     1</i>
   <i type="int" name="NPACO">   256</i>
   <i name="APACO">     16.00000000</i>
  </separator>
  <separator name="symmetry" >
   <i type="int" name="ISYM">     2</i>
   <i name="SYMPREC">      0.00001000</i>
  </separator>
  <separator name="dos" >
   <i type="int" name="LORBIT">     0</i>
   <v name="RWIGS">     -1.00000000</v>
   <i type="int" name="NEDOS">   301</i>
   <i name="EMIN">     10.00000000</i>
   <i name="EMAX">    -10.00000000</i>
   <i name="EFERMI">      0.00000000</i>
  </separator>
  <separator name="writing" >
   <i type="int" name="NWRITE">     2</i>
   <i type="logical" name="LWAVE"> T  </i>
   <i type="logical" name="LDOWNSAMPLE"> F  </i>
   <i type="logical" name="LCHARG"> T  </i>
   <i type="logical" name="LPARD"> F  </i>
   <i type="logical" name="LVTOT"> F  </i>
   <i type="logical" name="LVHAR"> F  </i>
   <i type="logical" name="LELF"> F  </i>
   <i type="logical" name="LOPTICS"> F  </i>
   <v name="STM">      0.00000000      0.00000000      0.00000000      0.00000000      0.00000000      0.00000000      0.00000000</v>
  </separator>
  <separator name="performance" >
   <i type="int" name="NPAR">     4</i>
   <i type="int" name="NSIM">     4</i>
   <i type="int" name="NBLK">    -1</i>
   <i type="logical" name="LPLANE"> T  </i>
   <i type="logical" name="LSCALAPACK"> T  </i>
   <i type="logical" name="LSCAAWARE"> F  </i>
   <i type="logical" name="LSCALU"> F  </i>
   <i type="logical" name="LASYNC"> F  </i>
   <i type="logical" name="LORBITALREAL"> F  </i>
  </separator>
  <separator name="miscellaneous" >
   <i type="int" name="IDIOT">     3</i>
   <i type="int" name="ISPECIAL">     0</i>
   <i type="logical" name="LMUSIC"> F  </i>
   <v name="POMASS">     55.84700000</v>
   <v name="DARWINR">      0.00000000</v>
   <v name="DARWINV">      1.00000000</v>
   <i type="logical" name="LCORR"> T  </i>
  </separator>
  <i type="logical" name="GGA_COMPAT"> T  </i>
  <i type="logical" name="LBERRY"> F  </i>
  <i type="int" name="ICORELEVEL">     0</i>
  <i type="logical" name="LDAU"> F  </i>
  <i type="int" name="I_CONSTRAINED_M">     0</i>
  <separator name="electronic exchange-correlation" >
   <i type="string" name="GGA">--</i>
   <i type="int" name="VOSKOWN">     0</i>
   <i type="logical" name="LHFCALC"> F  </i>
   <i type="string" name="PRECFOCK"></i>
   <i type="logical" name="LSYMGRAD"> F  </i>
   <i type="logical" name="LHFONE"> F  </i>
   <i type="logical" name="LRHFCALC"> F  </i>
   <i type="logical" name="LTHOMAS"> F  </i>
   <i type="logical" name="LMODELHF"> F  </i>
   <i name="ENCUT4O">     -1.00000000</i>
   <i type="int" name="EXXOEP">     0</i>
   <i type="int" name="FOURORBIT">     0</i>
   <i name="AEXX">      0.00000000</i>
   <i name="HFALPHA">      0.00000000</i>
   <i name="MCALPHA">      0.00000000</i>
   <i name="ALDAX">      1.00000000</i>
   <i name="AGGAX">      1.00000000</i>
   <i name="ALDAC">      1.00000000</i>
   <i name="AGGAC">      1.00000000</i>
   <i type="int" name="NKREDX">     1</i>
   <i type="int" name="NKREDY">     1</i>
   <i type="int" name="NKREDZ">     1</i>
   <i type="logical" name="SHIFTRED"> F  </i>
   <i type="logical" name="ODDONLY"> F  </i>
   <i type="logical" name="EVENONLY"> F  </i>
   <i type="int" name="LMAXFOCK">     0</i>
   <i type="int" name="NMAXFOCKAE">     0</i>
   <i type="logical" name="LFOCKAEDFT"> F  </i>
   <i name="HFSCREEN">      0.00000000</i>
   <i name="HFSCREENC">      0.00000000</i>
   <i type="int" name="NBANDSGWLOW">     0</i>
  </separator>
  <separator name="vdW DFT" >
   <i type="logical" name="LUSE_VDW"> F  </i>
   <i name="Zab_VDW">     -0.84910000</i>
   <i name="PARAM1">      0.12340000</i>
   <i name="PARAM2">      1.00000000</i>
   <i name="PARAM3">      0.00000000</i>
  </separator>
  <separator name="model GW" >
   <i type="int" name="MODEL_GW">     0</i>
   <i name="MODEL_EPS0">      8.51178750</i>
   <i name="MODEL_ALPHA">      1.00000000</i>
  </separator>
  <separator name="linear response parameters" >
   <i type="logical" name="LEPSILON"> F  </i>
   <i type="logical" name="LRPA"> F  </i>
   <i type="logical" name="LNABLA"> F  </i>
   <i type="logical" name="LVEL"> F  </i>
   <i type="int" name="KINTER">     0</i>
   <i name="CSHIFT">      0.10000000</i>
   <i name="OMEGAMAX">     -1.00000000</i>
   <i name="DEG_THRESHOLD">      0.00200000</i>
   <i name="RTIME">     -0.10000000</i>
   <i name="WPLASMAI">      0.00000000</i>
   <v name="DFIELD">      0.00000000      0.00000000      0.00000000</v>
   <v name="WPLASMA">      0.00000000      0.00000000      0.00000000      0.00000000      0.00000000      0.00000000      0.00000000      0.00000000      0.00000000</v>
  </separator>
  <separator name="orbital magnetization" >
   <i type="logical" name="NUCIND"> F  </i>
   <v name="MAGPOS">      0.00000000      0.00000000      0.00000000</v>
   <i type="logical" name="LNICSALL"> T  </i>
   <i type="logical" name="ORBITALMAG"> F  </i>
   <i type="logical" name="LMAGBLOCH"> F  </i>
   <i type="logical" name="LCHIMAG"> F  </i>
   <i type="logical" name="LGAUGE"> T  </i>
   <i type="int" name="MAGATOM">     0</i>
   <v name="MAGDIPOL">      0.00000000      0.00000000      0.00000000</v>
   <v name="AVECCONST">      0.00000000      0.00000000      0.00000000</v>
  </separator>
  <separator name="response functions" >
   <i type="logical" name="LADDER"> F  </i>
   <i type="logical" name="LRPAFORCE"> F  </i>
   <i type="logical" name="LFXC"> F  </i>
   <i type="logical" name="LHARTREE"> T  </i>
   <i type="int" name="IBSE">     0</i>
   <v type="int" name="KPOINT">    -1     0     0     0</v>
   <i type="logical" name="LTCTE"> F  </i>
   <i type="logical" name="LTETE"> F  </i>
   <i type="logical" name="LTRIPLET"> F  </i>
   <i type="logical" name="LFXCEPS"> F  </i>
   <i type="logical" name="LFXHEG"> F  </i>
   <i type="int" name="NATURALO">     2</i>
   <i type="logical" name="L2ORDER"> F  </i>
   <i type="logical" name="LMP2LT"> F  </i>
   <i type="logical" name="LUSEW"> F  </i>
   <i name="ENCUTGW">     -2.00000000</i>
   <i name="ENCUTGWSOFT">     -2.00000000</i>
   <i name="ENCUTLF">     -1.00000000</i>
   <i type="int" name="LMAXMP2">    -1</i>
   <i name="SCISSOR">      0.00000000</i>
   <i type="int" name="NOMEGA">     0</i>
   <i type="int" name="NOMEGAR">     0</i>
   <i type="int" name="NBANDSGW">    -1</i>
   <i type="int" name="NBANDSO">    -1</i>
   <i type="int" name="NBANDSV">    -1</i>
   <i type="int" name="NELM">     1</i>
   <i type="int" name="NELMHF">     1</i>
   <i type="int" name="DIM">     3</i>
   <i type="int" name="ANTIRES">     0</i>
   <i name="OMEGAMAX">    -30.00000000</i>
   <i name="OMEGAMIN">    -30.00000000</i>
   <i name="OMEGATL">   -200.00000000</i>
   <i type="int" name="OMEGAGRID">   140</i>
   <i name="CSHIFT">     -0.10000000</i>
   <i type="logical" name="SELFENERGY"> F  </i>
   <i type="logical" name="LSPECTRAL"> F  </i>
   <i type="logical" name="LSPECTRALGW"> F  </i>
   <i type="logical" name="LSINGLES"> F  </i>
   <i type="logical" name="LFERMIGW"> F  </i>
   <i type="logical" name="ODDONLYGW"> F  </i>
   <i type="logical" name="EVENONLYGW"> F  </i>
   <i type="int" name="NKREDLFX">     1</i>
   <i type="int" name="NKREDLFY">     1</i>
   <i type="int" name="NKREDLFZ">     1</i>
   <i type="int" name="MAXMEM">  2800</i>
   <i type="int" name="TELESCOPE">     0</i>
   <i type="int" name="TAUPAR">     1</i>
   <i type="int" name="OMEGAPAR">    -1</i>
   <i name="LAMBDA">      1.00000000</i>
  </separator>
  <separator name="External order field" >
   <i name="OFIELD_KAPPA">      0.00000000</i>
   <v name="OFIELD_K">      0.00000000      0.00000000      0.00000000</v>
   <i name="OFIELD_Q6_NEAR">      0.00000000</i>
   <i name="OFIELD_Q6_FAR">      0.00000000</i>
   <i name="OFIELD_A">      0.00000000</i>
  </separator>
 </parameters>
 <atominfo>
  <atoms>       1 </atoms>
  <types>       1 </types>
  <array name="atoms" >
   <dimension dim="1">ion</dimension>
   <field type="string">element</field>
   <field type="int">atomtype</field>
   <set>
    <rc><c>Fe</c><c>   1</c></rc>
   </set>
  </array>
  <array name="atomtypes" >
   <dimension dim="1">type</dimension>
   <field type="int">atomspertype</field>
   <field type="string">element</field>
   <field>mass</field>
   <field>valence</field>
   <field type="string">pseudopotential</field>
   <set>
    <rc><c>   1</c><c>Fe</c><c>     55.84700000</c><c>      8.00000000</c><c>  PAW_PBE Fe 06Sep2000                  </c></rc>
   </set>
  </array>
 </atominfo>
 <structure name="initialpos" >
  <crystal>
   <varray name="basis" >
    <v>      -1.52500000       1.52500000       1.52500000 </v>
    <v>       1.52500000      -1.52500000       1.52500000 </v>
    <v>       1.52500000       1.52500000      -1.52500000 </v>
   </varray>
   <i name="volume">     14.18631250 </i>
   <varray name="rec_basis" >
    <v>       0.00000000       0.32786885       0.32786885 </v>
    <v>       0.32786885       0.00000000       0.32786885 </v>
    <v>       0.32786885       0.32786885       0.00000000 </v>
   </varray>
  </crystal>
  <varray name="positions" >
   <v>       0.00000000       0.00000000       0.00000000 </v>
  </varray>
 </structure>
 <calculation>
  <scstep>
   <time name="dav">    0.13    0.13</time>
   <time name="total">    0.14    0.14</time>
   <energy>
    <i name="alphaZ">     48.71863354 </i>
    <i name="ewald">   -549.81442221 </i>
    <i name="hartreedc">   -128.89835356 </i>
    <i name="XCdc">      4.46538878 </i>
    <i name="pawpsdc">    553.75926685 </i>
    <i name="pawaedc">   -561.48528711 </i>
    <i name="eentropy">     -0.00277348 </i>
    <i name="bandstr">     51.26283556 </i>
    <i name="atom">    594.28084496 </i>
    <i name="e_fr_energy">     12.28613334 </i>
    <i name="e_wo_entrp">     12.28890682 </i>
    <i name="e_0_energy">     12.28705783 </i>
   </energy>
  </scstep>
  <scstep>
   <time name="dav">    0.12    0.12</time>
   <time name="total">    0.12    0.12</time>
   <energy>
    <i name="e_fr_energy">     -8.55013241 </i>
    <i name="e_wo_entrp">     -8.55301092 </i>
    <i name="e_0_energy">     -8.55109191 </i>
   </energy>
  </scstep>
  <scstep>
   <time name="dav">    0.13    0.14</time>
   <time name="total">    0.13    0.14</time>
   <energy>
    <i name="e_fr_energy">     -8.90772218 </i>
    <i name="e_wo_entrp">     -8.90946349 </i>
    <i name="e_0_energy">     -8.90830262 </i>
   </energy>
  </scstep>
  <scstep>
   <time name="dav">    0.13    0.13</time>
   <time name="total">    0.13    0.13</time>
   <energy>
    <i name="e_fr_energy">     -8.90880287 </i>
    <i name="e_wo_entrp">     -8.91054006 </i>
    <i name="e_0_energy">     -8.90938193 </i>
   </energy>
  </scstep>
  <scstep>
   <time name="dav">    0.11    0.11</time>
   <time name="total">    0.11    0.11</time>
   <energy>
    <i name="e_fr_energy">     -8.90880953 </i>
    <i name="e_wo_entrp">     -8.91054669 </i>
    <i name="e_0_energy">     -8.90938858 </i>
   </energy>
  </scstep>
  <scstep>
   <time name="dav">    0.11    0.12</time>
   <time name="total">    0.12    0.13</time>
   <energy>
    <i name="e_fr_energy">     -8.22279876 </i>
    <i name="e_wo_entrp">     -8.22671550 </i>
    <i name="e_0_energy">     -8.22410434 </i>
   </energy>
  </scstep>
  <scstep>
   <time name="dav">    0.11    0.11</time>
   <time name="total">    0.12    0.13</time>
   <energy>
    <i name="e_fr_energy">     -8.00349860 </i>
    <i name="e_wo_entrp">     -8.00446989 </i>
    <i name="e_0_energy">     -8.00382236 </i>
   </energy>
  </scstep>
  <scstep>
   <time name="dav">    0.11    0.11</time>
   <time name="total">    0.12    0.12</time>
   <energy>
    <i name="e_fr_energy">     -8.00662862 </i>
    <i name="e_wo_entrp">     -8.00705258 </i>
    <i name="e_0_energy">     -8.00676994 </i>
   </energy>
  </scstep>
  <scstep>
   <time name="dav">    0.11    0.11</time>
   <time name="total">    0.12    0.13</time>
   <energy>
    <i name="e_fr_energy">     -8.00005155 </i>
    <i name="e_wo_entrp">     -8.00036451 </i>
    <i name="e_0_energy">     -8.00015587 </i>
   </energy>
  </scstep>
  <scstep>
   <time name="dav">    0.11    0.11</time>
   <time name="total">    0.12    0.12</time>
   <energy>
    <i name="e_fr_energy">     -8.00034892 </i>
    <i name="e_wo_entrp">     -8.00081447 </i>
    <i name="e_0_energy">     -8.00050410 </i>
   </energy>
  </scstep>
  <scstep>
   <time name="dav">    0.11    0.11</time>
   <time name="total">    0.12    0.12</time>
   <energy>
    <i name="e_fr_energy">     -8.00076461 </i>
    <i name="e_wo_entrp">     -8.00136729 </i>
    <i name="e_0_energy">     -8.00096550 </i>
   </energy>
  </scstep>
  <scstep>
   <time name="dav">    0.08    0.08</time>
   <time name="total">    0.08    0.09</time>
   <energy>
    <i name="alphaZ">     48.71863354 </i>
    <i name="ewald">   -549.81442221 </i>
    <i name="hartreedc">   -112.79552044 </i>
    <i name="XCdc">      4.23747035 </i>
    <i name="pawpsdc">    643.49321403 </i>
    <i name="pawaedc">   -652.10918001 </i>
    <i name="eentropy">      0.00059783 </i>
    <i name="bandstr">     15.98759323 </i>
    <i name="atom">    594.28084496 </i>
    <i name="e_fr_energy">     -8.00076871 </i>
    <i name="e_wo_entrp">     -8.00136654 </i>
    <i name="e_0_energy">     -8.00096798 </i>
   </energy>
  </scstep>
  <structure>
   <crystal>
    <varray name="basis" >
     <v>      -1.52500000       1.52500000       1.52500000 </v>
     <v>       1.52500000      -1.52500000       1.52500000 </v>
     <v>       1.52500000       1.52500000      -1.52500000 </v>
    </varray>
    <i name="volume">     14.18631250 </i>
    <varray name="rec_basis" >
     <v>       0.00000000       0.32786885       0.32786885 </v>
     <v>       0.32786885       0.00000000       0.32786885 </v>
     <v>       0.32786885       0.32786885       0.00000000 </v>
    </varray>
   </crystal>
   <varray name="positions" >
    <v>       0.00000000       0.00000000       0.00000000 </v>
   </varray>
  </structure>
  <varray name="forces" >
   <v>      -0.00000000      -0.00000000       0.00000000 </v>
  </varray>
  <varray name="stress" >
   <v>    -256.51597044       0.00000000      -0.00000000 </v>
   <v>      -0.00000000    -256.51597044       0.00000000 </v>
   <v>       0.00000000      -0.00000000    -256.51597044 </v>
  </varray>
  <energy>
   <i name="e_fr_energy">     -8.00076871 </i>
   <i name="e_wo_entrp">     -8.00096798 </i>
   <i name="e_0_energy">      0.00059783 </i>
  </energy>
  <time name="totalsc">    1.54    1.58</time>
  <eigenvalues>
   <array>
    <dimension dim="1">band</dimension>
    <dimension dim="2">kpoint</dimension>
    <dimension dim="3">spin</dimension>
    <field>eigene</field>
    <field>occ</field>
    <set>
     <set comment="spin 1">
      <set comment="kpoint 1">
       <r>   -2.8699    1.0000 </r>
       <r>    1.6206    1.0000 </r>
       <r>    1.6206    1.0000 </r>
       <r>    1.9823    1.0000 </r>
       <r>    2.5821    1.0000 </r>
       <r>    2.5821    1.0000 </r>
       <r>   23.8559    0.0000 </r>
       <r>   23.8559    0.0000 </r>
       <r>   26.1629    0.0000 </r>
       <r>   27.1773    0.0000 </r>
       <r>   30.1370    0.0000 </r>
       <r>   30.1370    0.0000 </r>
      </set>
      <set comment="kpoint 2">
       <r>   -1.9077    1.0000 </r>
       <r>    1.4145    1.0000 </r>
       <r>    1.5295    1.0000 </r>
       <r>    2.4628    1.0000 </r>
       <r>    2.5050    1.0000 </r>
       <r>    2.6269    1.0000 </r>
       <r>   19.6283    0.0000 </r>
       <r>   21.9609    0.0000 </r>
       <r>   23.3468    0.0000 </r>
       <r>   27.1402    0.0000 </r>
       <r>   29.6450    0.0000 </r>
       <r>   30.4869    0.0000 </r>
      </set>
      <set comment="kpoint 3">
       <r>   -0.6765    1.0000 </r>
       <r>    1.1852    1.0000 </r>
       <r>    1.6215    1.0000 </r>
       <r>    2.5413    1.0000 </r>
       <r>    2.6788    1.0000 </r>
       <r>    3.1579    1.0000 </r>
       <r>   15.2629    0.0000 </r>
       <r>   20.4150    0.0000 </r>
       <r>   21.3643    0.0000 </r>
       <r>   26.4108    0.0000 </r>
       <r>   28.8710    0.0000 </r>
       <r>   32.2937    0.0000 </r>
      </set>
      <set comment="kpoint 4">
       <r>   -0.1039    1.0000 </r>
       <r>    1.0108    1.0000 </r>
       <r>    2.4577    1.0000 </r>
       <r>    2.6567    1.0000 </r>
       <r>    2.7166    1.0000 </r>
       <r>    4.1307   -0.0088 </r>
       <r>   11.4230    0.0000 </r>
       <r>   19.3982    0.0000 </r>
       <r>   20.0223    0.0000 </r>
       <r>   25.8788    0.0000 </r>
       <r>   28.5255    0.0000 </r>
       <r>   34.6827    0.0000 </r>
      </set>
      <set comment="kpoint 5">
       <r>   -0.0572    1.0000 </r>
       <r>    0.9469    1.0000 </r>
       <r>    2.6464    1.0000 </r>
       <r>    2.7326    1.0000 </r>
       <r>    3.0291    1.0000 </r>
       <r>    5.1896   -0.0000 </r>
       <r>    9.3437   -0.0000 </r>
       <r>   19.0450    0.0000 </r>
       <r>   19.5348    0.0000 </r>
       <r>   25.7041    0.0000 </r>
       <r>   28.4477    0.0000 </r>
       <r>   34.7809    0.0000 </r>
      </set>
      <set comment="kpoint 6">
       <r>   -3.2122    1.0000 </r>
       <r>    1.7057    1.0000 </r>
       <r>    1.7058    1.0000 </r>
       <r>    1.7451    1.0000 </r>
       <r>    2.5544    1.0000 </r>
       <r>    2.6423    1.0000 </r>
       <r>   25.4508    0.0000 </r>
       <r>   26.2721    0.0000 </r>
       <r>   26.2721    0.0000 </r>
       <r>   28.3899    0.0000 </r>
       <r>   29.4475    0.0000 </r>
       <r>   29.4475    0.0000 </r>
      </set>
      <set comment="kpoint 7">
       <r>   -0.8017    1.0000 </r>
       <r>    1.2721    1.0000 </r>
       <r>    1.2842    1.0000 </r>
       <r>    2.5158    1.0000 </r>
       <r>    2.6823    1.0000 </r>
       <r>    3.2036    1.0000 </r>
       <r>   17.5987    0.0000 </r>
       <r>   18.1064    0.0000 </r>
       <r>   20.8662    0.0000 </r>
       <r>   28.2667    0.0000 </r>
       <r>   30.8885    0.0000 </r>
       <r>   32.1343    0.0000 </r>
      </set>
      <set comment="kpoint 8">
       <r>    0.1400    1.0000 </r>
       <r>    1.0669    1.0000 </r>
       <r>    1.4838    1.0000 </r>
       <r>    2.5796    1.0000 </r>
       <r>    2.7500    1.0000 </r>
       <r>    4.3207   -0.0131 </r>
       <r>   13.6594    0.0000 </r>
       <r>   16.5384    0.0000 </r>
       <r>   19.4588    0.0000 </r>
       <r>   28.2032    0.0000 </r>
       <r>   31.6862    0.0000 </r>
       <r>   32.6949    0.0000 </r>
      </set>
      <set comment="kpoint 9">
       <r>    0.2736    1.0000 </r>
       <r>    0.9692    1.0000 </r>
       <r>    2.0591    1.0000 </r>
       <r>    2.6569    1.0000 </r>
       <r>    2.8289    1.0000 </r>
       <r>    6.0015   -0.0000 </r>
       <r>   10.2648    0.0000 </r>
       <r>   15.8169    0.0000 </r>
       <r>   18.7328    0.0000 </r>
       <r>   27.9584    0.0000 </r>
       <r>   32.0257    0.0000 </r>
       <r>   33.4914    0.0000 </r>
      </set>
      <set comment="kpoint 10">
       <r>   -2.5372    1.0000 </r>
       <r>    1.5804    1.0000 </r>
       <r>    1.6910    1.0000 </r>
       <r>    2.0384    1.0000 </r>
       <r>    2.4206    1.0000 </r>
       <r>    2.6828    1.0000 </r>
       <r>   21.8672    0.0000 </r>
       <r>   24.4791    0.0000 </r>
       <r>   24.8042    0.0000 </r>
       <r>   27.6724    0.0000 </r>
       <r>   27.7036    0.0000 </r>
       <r>   28.7110    0.0000 </r>
      </set>
      <set comment="kpoint 11">
       <r>    0.5958    1.0000 </r>
       <r>    1.0327    1.0000 </r>
       <r>    1.4737    1.0000 </r>
       <r>    2.6509    1.0000 </r>
       <r>    2.8116    1.0000 </r>
       <r>    6.2038   -0.0000 </r>
       <r>   12.3829    0.0000 </r>
       <r>   12.8809    0.0000 </r>
       <r>   18.5512    0.0000 </r>
       <r>   29.4406    0.0000 </r>
       <r>   31.6740    0.0000 </r>
       <r>   36.7071    0.0000 </r>
      </set>
      <set comment="kpoint 12">
       <r>    0.6399    1.0000 </r>
       <r>    1.0605    1.0000 </r>
       <r>    1.5340    1.0000 </r>
       <r>    2.7165    1.0000 </r>
       <r>    2.8174    1.0000 </r>
       <r>    8.2091   -0.0000 </r>
       <r>    9.8756    0.0000 </r>
       <r>   12.3350    0.0000 </r>
       <r>   18.2550    0.0000 </r>
       <r>   29.8531    0.0000 </r>
       <r>   31.9447    0.0000 </r>
       <r>   36.0796    0.0000 </r>
      </set>
      <set comment="kpoint 13">
       <r>   -1.3562    1.0000 </r>
       <r>    1.3614    1.0000 </r>
       <r>    1.6509    1.0000 </r>
       <r>    2.4114    1.0000 </r>
       <r>    2.5666    1.0000 </r>
       <r>    2.7302    1.0000 </r>
       <r>   17.3630    0.0000 </r>
       <r>   22.5263    0.0000 </r>
       <r>   22.9667    0.0000 </r>
       <r>   26.1545    0.0000 </r>
       <r>   27.4207    0.0000 </r>
       <r>   29.6474    0.0000 </r>
      </set>
      <set comment="kpoint 14">
       <r>   -1.6096    1.0000 </r>
       <r>    1.5371    1.0000 </r>
       <r>    1.5493    1.0000 </r>
       <r>    2.2867    1.0000 </r>
       <r>    2.4396    1.0000 </r>
       <r>    2.7802    1.0000 </r>
       <r>   19.6272    0.0000 </r>
       <r>   20.3156    0.0000 </r>
       <r>   25.0854    0.0000 </r>
       <r>   25.0992    0.0000 </r>
       <r>   27.7713    0.0000 </r>
       <r>   30.6825    0.0000 </r>
      </set>
      <set comment="kpoint 15">
       <r>   -0.3478    1.0000 </r>
       <r>    1.1494    1.0000 </r>
       <r>    2.0416    1.0000 </r>
       <r>    2.5834    1.0000 </r>
       <r>    2.9560    1.0000 </r>
       <r>    3.1512    1.0000 </r>
       <r>   13.1871    0.0000 </r>
       <r>   21.0573    0.0000 </r>
       <r>   21.3052    0.0000 </r>
       <r>   25.3103    0.0000 </r>
       <r>   27.2692    0.0000 </r>
       <r>   31.3405    0.0000 </r>
      </set>
      <set comment="kpoint 16">
       <r>   -0.4450    1.0000 </r>
       <r>    1.3013    1.0000 </r>
       <r>    1.5393    1.0000 </r>
       <r>    2.3707    1.0000 </r>
       <r>    2.8236    1.0000 </r>
       <r>    3.2568    1.0000 </r>
       <r>   15.5227    0.0000 </r>
       <r>   18.3886    0.0000 </r>
       <r>   23.0291    0.0000 </r>
       <r>   25.3724    0.0000 </r>
       <r>   28.2407    0.0000 </r>
       <r>   31.1069    0.0000 </r>
      </set>
      <set comment="kpoint 17">
       <r>   -0.1223    1.0000 </r>
       <r>    1.0216    1.0000 </r>
       <r>    2.4535    1.0000 </r>
       <r>    2.6185    1.0000 </r>
       <r>    3.5503    1.0076 </r>
       <r>    4.3123   -0.0147 </r>
       <r>    9.9373    0.0000 </r>
       <r>   20.2764    0.0000 </r>
       <r>   20.3182    0.0000 </r>
       <r>   24.9428    0.0000 </r>
       <r>   27.2786    0.0000 </r>
       <r>   32.8267    0.0000 </r>
      </set>
      <set comment="kpoint 18">
       <r>    0.0861    1.0000 </r>
       <r>    1.1535    1.0000 </r>
       <r>    1.8354    1.0000 </r>
       <r>    2.5324    1.0000 </r>
       <r>    3.1135    1.0000 </r>
       <r>    4.5240   -0.0002 </r>
       <r>   11.6428    0.0000 </r>
       <r>   17.2905    0.0000 </r>
       <r>   21.6988    0.0000 </r>
       <r>   25.3960    0.0000 </r>
       <r>   29.3912    0.0000 </r>
       <r>   30.9215    0.0000 </r>
      </set>
      <set comment="kpoint 19">
       <r>    0.3413    1.0000 </r>
       <r>    1.0802    1.0000 </r>
       <r>    1.5384    1.0000 </r>
       <r>    2.4564    1.0000 </r>
       <r>    2.9357    1.0000 </r>
       <r>    4.6564   -0.0000 </r>
       <r>   14.0070    0.0000 </r>
       <r>   14.3663    0.0000 </r>
       <r>   22.5372    0.0000 </r>
       <r>   25.4430    0.0000 </r>
       <r>   28.1971    0.0000 </r>
       <r>   34.9896    0.0000 </r>
      </set>
      <set comment="kpoint 20">
       <r>    0.1184    1.0000 </r>
       <r>    1.1064    1.0000 </r>
       <r>    2.0111    1.0000 </r>
       <r>    2.5508    1.0000 </r>
       <r>    3.3374    1.0001 </r>
       <r>    5.8689   -0.0000 </r>
       <r>    9.4317    0.0000 </r>
       <r>   16.8984    0.0000 </r>
       <r>   21.2388    0.0000 </r>
       <r>   25.3807    0.0000 </r>
       <r>   30.1965    0.0000 </r>
       <r>   30.8514    0.0000 </r>
      </set>
      <set comment="kpoint 21">
       <r>    0.5450    1.0000 </r>
       <r>    1.0922    1.0000 </r>
       <r>    1.5030    1.0000 </r>
       <r>    2.6109    1.0000 </r>
       <r>    3.0502    1.0000 </r>
       <r>    6.7745   -0.0000 </r>
       <r>   10.6198    0.0000 </r>
       <r>   13.4683    0.0000 </r>
       <r>   21.9726    0.0000 </r>
       <r>   25.9181    0.0000 </r>
       <r>   28.7267    0.0000 </r>
       <r>   33.4859    0.0000 </r>
      </set>
      <set comment="kpoint 22">
       <r>    0.8670    1.0000 </r>
       <r>    1.1305    1.0000 </r>
       <r>    1.1305    1.0000 </r>
       <r>    2.8514    1.0000 </r>
       <r>    2.8515    1.0000 </r>
       <r>    9.4081   -0.0000 </r>
       <r>    9.4081   -0.0000 </r>
       <r>   11.1563    0.0000 </r>
       <r>   21.9897    0.0000 </r>
       <r>   27.3444    0.0000 </r>
       <r>   27.3444    0.0000 </r>
       <r>   32.6279    0.0000 </r>
      </set>
      <set comment="kpoint 23">
       <r>    0.2726    1.0000 </r>
       <r>    1.0695    1.0000 </r>
       <r>    1.0695    1.0000 </r>
       <r>    2.6618    1.0000 </r>
       <r>    2.6618    1.0000 </r>
       <r>    4.3147   -0.0142 </r>
       <r>   16.1028    0.0000 </r>
       <r>   16.1028    0.0000 </r>
       <r>   16.7357    0.0000 </r>
       <r>   31.0371    0.0000 </r>
       <r>   33.7755    0.0000 </r>
       <r>   33.7755    0.0000 </r>
      </set>
      <set comment="kpoint 24">
       <r>    0.6750    1.0000 </r>
       <r>    0.9502    1.0000 </r>
       <r>    1.4178    1.0000 </r>
       <r>    2.6946    1.0000 </r>
       <r>    2.7278    1.0000 </r>
       <r>    6.0131   -0.0000 </r>
       <r>   12.3627    0.0000 </r>
       <r>   15.1652    0.0000 </r>
       <r>   15.4519    0.0000 </r>
       <r>   31.6983    0.0000 </r>
       <r>   34.3902    0.0000 </r>
       <r>   35.9297    0.0000 </r>
      </set>
      <set comment="kpoint 25">
       <r>    0.6177    1.0000 </r>
       <r>    0.9135    1.0000 </r>
       <r>    1.7602    1.0000 </r>
       <r>    2.7171    1.0000 </r>
       <r>    2.7445    1.0000 </r>
       <r>    7.7748   -0.0000 </r>
       <r>    9.8294    0.0000 </r>
       <r>   14.8480    0.0000 </r>
       <r>   15.0682    0.0000 </r>
       <r>   31.6112    0.0000 </r>
       <r>   34.6193    0.0000 </r>
       <r>   36.1921    0.0000 </r>
      </set>
      <set comment="kpoint 26">
       <r>   -1.8988    1.0000 </r>
       <r>    1.7589    1.0000 </r>
       <r>    1.7590    1.0000 </r>
       <r>    2.0500    1.0000 </r>
       <r>    2.0919    1.0000 </r>
       <r>    2.8239    1.0000 </r>
       <r>   21.8666    0.0000 </r>
       <r>   22.4426    0.0000 </r>
       <r>   22.4426    0.0000 </r>
       <r>   23.9012    0.0000 </r>
       <r>   30.1908    0.0000 </r>
       <r>   30.1908    0.0000 </r>
      </set>
      <set comment="kpoint 27">
       <r>    0.8295    1.0000 </r>
       <r>    1.0663    1.0000 </r>
       <r>    1.3453    1.0000 </r>
       <r>    2.7360    1.0000 </r>
       <r>    2.7527    1.0000 </r>
       <r>    8.3623   -0.0000 </r>
       <r>   11.3660    0.0000 </r>
       <r>   12.0033    0.0000 </r>
       <r>   14.6841    0.0000 </r>
       <r>   33.9458    0.0000 </r>
       <r>   35.3824    0.0000 </r>
       <r>   38.1909    0.0000 </r>
      </set>
      <set comment="kpoint 28">
       <r>   -0.8170    1.0000 </r>
       <r>    1.5825    1.0000 </r>
       <r>    1.6578    1.0000 </r>
       <r>    2.0970    1.0000 </r>
       <r>    2.5074    1.0000 </r>
       <r>    3.0363    1.0000 </r>
       <r>   17.8853    0.0000 </r>
       <r>   20.4076    0.0000 </r>
       <r>   21.1854    0.0000 </r>
       <r>   23.9920    0.0000 </r>
       <r>   29.5694    0.0000 </r>
       <r>   30.7248    0.0000 </r>
      </set>
      <set comment="kpoint 29">
       <r>    0.0534    1.0000 </r>
       <r>    1.4201    1.0000 </r>
       <r>    1.4855    1.0000 </r>
       <r>    2.3669    1.0000 </r>
       <r>    3.1007    1.0000 </r>
       <r>    3.8181    0.9518 </r>
       <r>   13.6821    0.0000 </r>
       <r>   18.8179    0.0000 </r>
       <r>   20.1050    0.0000 </r>
       <r>   25.5295    0.0000 </r>
       <r>   28.5843    0.0000 </r>
       <r>   30.4821    0.0000 </r>
      </set>
      <set comment="kpoint 30">
       <r>    0.0756    1.0000 </r>
       <r>    1.2219    1.0000 </r>
       <r>    1.7655    1.0000 </r>
       <r>    2.1975    1.0000 </r>
       <r>    2.8703    1.0000 </r>
       <r>    3.7723    1.0125 </r>
       <r>   16.1395    0.0000 </r>
       <r>   16.4387    0.0000 </r>
       <r>   21.9532    0.0000 </r>
       <r>   22.7878    0.0000 </r>
       <r>   29.1087    0.0000 </r>
       <r>   33.8244    0.0000 </r>
      </set>
      <set comment="kpoint 31">
       <r>    0.2060    1.0000 </r>
       <r>    1.3772    1.0000 </r>
       <r>    1.5716    1.0000 </r>
       <r>    2.4177    1.0000 </r>
       <r>    3.5141    1.0040 </r>
       <r>    5.6360   -0.0000 </r>
       <r>   10.2467    0.0000 </r>
       <r>   17.9092    0.0000 </r>
       <r>   19.5230    0.0000 </r>
       <r>   27.5408    0.0000 </r>
       <r>   28.0817    0.0000 </r>
       <r>   29.5596    0.0000 </r>
      </set>
      <set comment="kpoint 32">
       <r>    0.4801    1.0000 </r>
       <r>    1.0578    1.0000 </r>
       <r>    1.6283    1.0000 </r>
       <r>    2.4345    1.0000 </r>
       <r>    3.2165    1.0000 </r>
       <r>    5.5430   -0.0000 </r>
       <r>   12.3215    0.0000 </r>
       <r>   15.1800    0.0000 </r>
       <r>   21.3395    0.0000 </r>
       <r>   24.3316    0.0000 </r>
       <r>   28.2324    0.0000 </r>
       <r>   31.8210    0.0000 </r>
      </set>
      <set comment="kpoint 33">
       <r>    0.4640    1.0000 </r>
       <r>    1.1839    1.0000 </r>
       <r>    1.4906    1.0000 </r>
       <r>    2.4979    1.0000 </r>
       <r>    3.4025    1.0003 </r>
       <r>    7.4158   -0.0000 </r>
       <r>    9.7562    0.0000 </r>
       <r>   14.7685    0.0000 </r>
       <r>   21.0132    0.0000 </r>
       <r>   26.2710    0.0000 </r>
       <r>   26.8898    0.0000 </r>
       <r>   30.4585    0.0000 </r>
      </set>
      <set comment="kpoint 34">
       <r>    0.7994    1.0000 </r>
       <r>    0.8236    1.0000 </r>
       <r>    1.4342    1.0000 </r>
       <r>    2.7844    1.0000 </r>
       <r>    3.1510    1.0000 </r>
       <r>    8.0458   -0.0000 </r>
       <r>   11.1640    0.0000 </r>
       <r>   11.9394    0.0000 </r>
       <r>   23.3177    0.0000 </r>
       <r>   23.8694    0.0000 </r>
       <r>   26.3169    0.0000 </r>
       <r>   30.2748    0.0000 </r>
      </set>
      <set comment="kpoint 35">
       <r>    1.0961    1.0000 </r>
       <r>    1.0961    1.0000 </r>
       <r>    1.0961    1.0000 </r>
       <r>    2.7548    1.0000 </r>
       <r>    2.7548    1.0000 </r>
       <r>   11.0216    0.0000 </r>
       <r>   11.0216    0.0000 </r>
       <r>   11.0216    0.0000 </r>
       <r>   12.1429    0.0000 </r>
       <r>   38.7433    0.0000 </r>
       <r>   38.7433    0.0000 </r>
       <r>   38.7433    0.0000 </r>
      </set>
      <set comment="kpoint 36">
       <r>   -0.0426    1.0000 </r>
       <r>    1.3259    1.0000 </r>
       <r>    2.0437    1.0000 </r>
       <r>    2.0437    1.0000 </r>
       <r>    2.5498    1.0000 </r>
       <r>    3.5898    1.0137 </r>
       <r>   18.2168    0.0000 </r>
       <r>   18.2168    0.0000 </r>
       <r>   19.4203    0.0000 </r>
       <r>   20.7489    0.0000 </r>
       <r>   33.4090    0.0000 </r>
       <r>   33.4090    0.0000 </r>
      </set>
      <set comment="kpoint 37">
       <r>    0.4259    1.0000 </r>
       <r>    0.9321    1.0000 </r>
       <r>    2.0720    1.0000 </r>
       <r>    2.3147    1.0000 </r>
       <r>    3.0270    1.0000 </r>
       <r>    4.9274   -0.0000 </r>
       <r>   14.5825    0.0000 </r>
       <r>   16.5340    0.0000 </r>
       <r>   19.1164    0.0000 </r>
       <r>   21.3655    0.0000 </r>
       <r>   30.7756    0.0000 </r>
       <r>   32.4283    0.0000 </r>
      </set>
      <set comment="kpoint 38">
       <r>    0.4516    1.0000 </r>
       <r>    0.8220    1.0000 </r>
       <r>    2.0152    1.0000 </r>
       <r>    2.4325    1.0000 </r>
       <r>    3.4547    1.0012 </r>
       <r>    7.2175   -0.0000 </r>
       <r>   10.9765    0.0000 </r>
       <r>   15.5789    0.0000 </r>
       <r>   18.7575    0.0000 </r>
       <r>   23.4318    0.0000 </r>
       <r>   27.4314    0.0000 </r>
       <r>   31.8640    0.0000 </r>
      </set>
      <set comment="kpoint 39">
       <r>    0.5213    1.0000 </r>
       <r>    0.6098    1.0000 </r>
       <r>    2.1280    1.0000 </r>
       <r>    2.6944    1.0000 </r>
       <r>    3.2554    1.0000 </r>
       <r>    6.9930   -0.0000 </r>
       <r>   13.2575    0.0000 </r>
       <r>   13.5266    0.0000 </r>
       <r>   19.9555    0.0000 </r>
       <r>   20.9863    0.0000 </r>
       <r>   27.0625    0.0000 </r>
       <r>   32.4983    0.0000 </r>
      </set>
      <set comment="kpoint 40">
       <r>    0.4575    1.0000 </r>
       <r>    0.5643    1.0000 </r>
       <r>    2.0906    1.0000 </r>
       <r>    2.8853    1.0000 </r>
       <r>    3.3663    1.0001 </r>
       <r>    9.3461   -0.0000 </r>
       <r>   10.4789    0.0000 </r>
       <r>   12.9677    0.0000 </r>
       <r>   20.0758    0.0000 </r>
       <r>   22.2876    0.0000 </r>
       <r>   24.7321    0.0000 </r>
       <r>   32.3102    0.0000 </r>
      </set>
      <set comment="kpoint 41">
       <r>    0.3949    1.0000 </r>
       <r>    0.5511    1.0000 </r>
       <r>    2.6530    1.0000 </r>
       <r>    2.6531    1.0000 </r>
       <r>    3.0573    1.0000 </r>
       <r>    6.5974   -0.0000 </r>
       <r>   14.7432    0.0000 </r>
       <r>   14.7432    0.0000 </r>
       <r>   18.0656    0.0000 </r>
       <r>   19.2088    0.0000 </r>
       <r>   26.8474    0.0000 </r>
       <r>   35.7980    0.0000 </r>
      </set>
      <set comment="kpoint 42">
       <r>    0.2839    1.0000 </r>
       <r>    0.3210    1.0000 </r>
       <r>    2.7667    1.0000 </r>
       <r>    2.9077    1.0000 </r>
       <r>    3.3967    1.0003 </r>
       <r>    9.0002   -0.0000 </r>
       <r>   12.1049    0.0000 </r>
       <r>   13.7067    0.0000 </r>
       <r>   18.1489    0.0000 </r>
       <r>   19.9314    0.0000 </r>
       <r>   23.5597    0.0000 </r>
       <r>   35.8049    0.0000 </r>
      </set>
      <set comment="kpoint 43">
       <r>    0.1929    1.0000 </r>
       <r>    0.1929    1.0000 </r>
       <r>    2.8403    1.0000 </r>
       <r>    3.3223    1.0000 </r>
       <r>    3.3224    1.0000 </r>
       <r>   11.3868    0.0000 </r>
       <r>   11.3868    0.0000 </r>
       <r>   11.9250    0.0000 </r>
       <r>   19.0627    0.0000 </r>
       <r>   19.0627    0.0000 </r>
       <r>   21.7097    0.0000 </r>
       <r>   36.2988    0.0000 </r>
      </set>
      <set comment="kpoint 44">
       <r>    0.0702    1.0000 </r>
       <r>    0.0759    1.0000 </r>
       <r>    3.3082    1.0000 </r>
       <r>    3.3083    1.0000 </r>
       <r>    3.3833    1.0002 </r>
       <r>   11.0374    0.0000 </r>
       <r>   12.6006    0.0000 </r>
       <r>   12.6006    0.0000 </r>
       <r>   17.5080    0.0000 </r>
       <r>   18.1916    0.0000 </r>
       <r>   20.7450    0.0000 </r>
       <r>   38.4109    0.0000 </r>
      </set>
     </set>
     <set comment="spin 2">
      <set comment="kpoint 1">
       <r>   -2.7561    1.0000 </r>
       <r>    4.0084    0.2776 </r>
       <r>    4.0084    0.2776 </r>
       <r>    4.4410   -0.0015 </r>
       <r>    5.5990   -0.0000 </r>
       <r>    5.5990   -0.0000 </r>
       <r>   23.9137    0.0000 </r>
       <r>   23.9137    0.0000 </r>
       <r>   26.7683    0.0000 </r>
       <r>   27.1019    0.0000 </r>
       <r>   30.6051    0.0000 </r>
       <r>   30.6051    0.0000 </r>
      </set>
      <set comment="kpoint 2">
       <r>   -1.7653    1.0000 </r>
       <r>    3.7356    1.0321 </r>
       <r>    3.8382    0.9094 </r>
       <r>    4.9736   -0.0000 </r>
       <r>    5.4621   -0.0000 </r>
       <r>    5.6640   -0.0000 </r>
       <r>   20.0925    0.0000 </r>
       <r>   22.1719    0.0000 </r>
       <r>   24.1613    0.0000 </r>
       <r>   26.9482    0.0000 </r>
       <r>   30.2541    0.0000 </r>
       <r>   30.7583    0.0000 </r>
      </set>
      <set comment="kpoint 3">
       <r>   -0.3118    1.0000 </r>
       <r>    3.4316    1.0007 </r>
       <r>    3.6223    1.0205 </r>
       <r>    5.4587   -0.0000 </r>
       <r>    5.6955   -0.0000 </r>
       <r>    5.7439   -0.0000 </r>
       <r>   16.0319    0.0000 </r>
       <r>   20.6451    0.0000 </r>
       <r>   22.0999    0.0000 </r>
       <r>   26.4992    0.0000 </r>
       <r>   29.4283    0.0000 </r>
       <r>   32.5083    0.0000 </r>
      </set>
      <set comment="kpoint 4">
       <r>    1.0393    1.0000 </r>
       <r>    3.2026    1.0000 </r>
       <r>    3.7520    1.0259 </r>
       <r>    5.5333   -0.0000 </r>
       <r>    5.8097   -0.0000 </r>
       <r>    6.4124   -0.0000 </r>
       <r>   12.5532    0.0000 </r>
       <r>   19.6012    0.0000 </r>
       <r>   20.6887    0.0000 </r>
       <r>   26.1153    0.0000 </r>
       <r>   29.0991    0.0000 </r>
       <r>   34.7068    0.0000 </r>
      </set>
      <set comment="kpoint 5">
       <r>    1.4861    1.0000 </r>
       <r>    3.1188    1.0000 </r>
       <r>    4.1642   -0.0298 </r>
       <r>    5.5650   -0.0000 </r>
       <r>    5.8378   -0.0000 </r>
       <r>    6.8224   -0.0000 </r>
       <r>   10.8942    0.0000 </r>
       <r>   19.2310    0.0000 </r>
       <r>   20.1655    0.0000 </r>
       <r>   25.9868    0.0000 </r>
       <r>   29.0386    0.0000 </r>
       <r>   34.7000    0.0000 </r>
      </set>
      <set comment="kpoint 6">
       <r>   -3.1013    1.0000 </r>
       <r>    4.1207    0.0014 </r>
       <r>    4.1208    0.0013 </r>
       <r>    4.1755   -0.0331 </r>
       <r>    5.5658   -0.0000 </r>
       <r>    5.6878   -0.0000 </r>
       <r>   25.1872    0.0000 </r>
       <r>   26.0557    0.0000 </r>
       <r>   26.0557    0.0000 </r>
       <r>   28.8358    0.0000 </r>
       <r>   30.2978    0.0000 </r>
       <r>   30.2978    0.0000 </r>
      </set>
      <set comment="kpoint 7">
       <r>   -0.5558    1.0000 </r>
       <r>    3.4942    1.0027 </r>
       <r>    3.5003    1.0031 </r>
       <r>    5.4603   -0.0000 </r>
       <r>    5.6811   -0.0000 </r>
       <r>    5.7520   -0.0000 </r>
       <r>   18.1421    0.0000 </r>
       <r>   18.7088    0.0000 </r>
       <r>   21.4847    0.0000 </r>
       <r>   28.0825    0.0000 </r>
       <r>   31.2615    0.0000 </r>
       <r>   32.5263    0.0000 </r>
      </set>
      <set comment="kpoint 8">
       <r>    0.9000    1.0000 </r>
       <r>    3.2045    1.0000 </r>
       <r>    3.3401    1.0001 </r>
       <r>    5.5123   -0.0000 </r>
       <r>    5.8069   -0.0000 </r>
       <r>    6.6068   -0.0000 </r>
       <r>   14.5059    0.0000 </r>
       <r>   17.1437    0.0000 </r>
       <r>   20.0066    0.0000 </r>
       <r>   28.2098    0.0000 </r>
       <r>   32.0058    0.0000 </r>
       <r>   33.0523    0.0000 </r>
      </set>
      <set comment="kpoint 9">
       <r>    1.7962    1.0000 </r>
       <r>    3.0772    1.0000 </r>
       <r>    3.5359    1.0059 </r>
       <r>    5.5939   -0.0000 </r>
       <r>    5.8511   -0.0000 </r>
       <r>    7.6302   -0.0000 </r>
       <r>   11.5197    0.0000 </r>
       <r>   16.4141    0.0000 </r>
       <r>   19.2457    0.0000 </r>
       <r>   28.0660    0.0000 </r>
       <r>   32.4746    0.0000 </r>
       <r>   33.5287    0.0000 </r>
      </set>
      <set comment="kpoint 10">
       <r>   -2.4177    1.0000 </r>
       <r>    3.9531    0.5022 </r>
       <r>    4.0651    0.0999 </r>
       <r>    4.5108   -0.0003 </r>
       <r>    5.3643   -0.0000 </r>
       <r>    5.7387   -0.0000 </r>
       <r>   22.1490    0.0000 </r>
       <r>   24.5063    0.0000 </r>
       <r>   25.1074    0.0000 </r>
       <r>   28.1489    0.0000 </r>
       <r>   28.2417    0.0000 </r>
       <r>   29.0758    0.0000 </r>
      </set>
      <set comment="kpoint 11">
       <r>    2.0413    1.0000 </r>
       <r>    2.9813    1.0000 </r>
       <r>    3.2199    1.0000 </r>
       <r>    5.5957   -0.0000 </r>
       <r>    5.8327   -0.0000 </r>
       <r>    7.9539   -0.0000 </r>
       <r>   13.2802    0.0000 </r>
       <r>   13.7091    0.0000 </r>
       <r>   19.0950    0.0000 </r>
       <r>   29.4135    0.0000 </r>
       <r>   31.8451    0.0000 </r>
       <r>   36.9553    0.0000 </r>
      </set>
      <set comment="kpoint 12">
       <r>    2.4360    1.0000 </r>
       <r>    2.9896    1.0000 </r>
       <r>    3.1845    1.0000 </r>
       <r>    5.6757   -0.0000 </r>
       <r>    5.8079   -0.0000 </r>
       <r>    9.4167    0.0000 </r>
       <r>   11.1003    0.0000 </r>
       <r>   13.1835    0.0000 </r>
       <r>   18.8052    0.0000 </r>
       <r>   29.8686    0.0000 </r>
       <r>   31.9154    0.0000 </r>
       <r>   36.6677    0.0000 </r>
      </set>
      <set comment="kpoint 13">
       <r>   -1.1532    1.0000 </r>
       <r>    3.6659    1.0303 </r>
       <r>    3.8602    0.8516 </r>
       <r>    5.1260   -0.0000 </r>
       <r>    5.2814   -0.0000 </r>
       <r>    5.7876   -0.0000 </r>
       <r>   18.0038    0.0000 </r>
       <r>   22.5877    0.0000 </r>
       <r>   23.6050    0.0000 </r>
       <r>   26.5803    0.0000 </r>
       <r>   27.9181    0.0000 </r>
       <r>   29.8705    0.0000 </r>
      </set>
      <set comment="kpoint 14">
       <r>   -1.4489    1.0000 </r>
       <r>    3.8504    0.8787 </r>
       <r>    3.8822    0.7819 </r>
       <r>    4.9532   -0.0000 </r>
       <r>    5.1371   -0.0000 </r>
       <r>    5.8378   -0.0000 </r>
       <r>   20.0550    0.0000 </r>
       <r>   20.8727    0.0000 </r>
       <r>   25.2309    0.0000 </r>
       <r>   25.6477    0.0000 </r>
       <r>   28.1234    0.0000 </r>
       <r>   30.9756    0.0000 </r>
      </set>
      <set comment="kpoint 15">
       <r>    0.3619    1.0000 </r>
       <r>    3.3908    1.0003 </r>
       <r>    3.7236    1.0345 </r>
       <r>    5.3902   -0.0000 </r>
       <r>    5.8218   -0.0000 </r>
       <r>    5.8604   -0.0000 </r>
       <r>   14.1349    0.0000 </r>
       <r>   21.0958    0.0000 </r>
       <r>   21.9789    0.0000 </r>
       <r>   25.7654    0.0000 </r>
       <r>   27.7959    0.0000 </r>
       <r>   31.5530    0.0000 </r>
      </set>
      <set comment="kpoint 16">
       <r>   -0.0353    1.0000 </r>
       <r>    3.5445    1.0069 </r>
       <r>    3.6689    1.0309 </r>
       <r>    5.1547   -0.0000 </r>
       <r>    5.6241   -0.0000 </r>
       <r>    5.9717   -0.0000 </r>
       <r>   16.2736    0.0000 </r>
       <r>   18.9462    0.0000 </r>
       <r>   23.4160    0.0000 </r>
       <r>   25.6715    0.0000 </r>
       <r>   28.6228    0.0000 </r>
       <r>   31.4523    0.0000 </r>
      </set>
      <set comment="kpoint 17">
       <r>    1.3195    1.0000 </r>
       <r>    3.2265    1.0000 </r>
       <r>    4.0981    0.0326 </r>
       <r>    5.4779   -0.0000 </r>
       <r>    6.0388   -0.0000 </r>
       <r>    6.3082   -0.0000 </r>
       <r>   11.3474    0.0000 </r>
       <r>   20.2866    0.0000 </r>
       <r>   20.9400    0.0000 </r>
       <r>   25.4467    0.0000 </r>
       <r>   27.8572    0.0000 </r>
       <r>   32.8531    0.0000 </r>
      </set>
      <set comment="kpoint 18">
       <r>    1.2825    1.0000 </r>
       <r>    3.3366    1.0001 </r>
       <r>    3.5882    1.0134 </r>
       <r>    5.3275   -0.0000 </r>
       <r>    5.9235   -0.0000 </r>
       <r>    6.6306   -0.0000 </r>
       <r>   12.7253    0.0000 </r>
       <r>   17.8486    0.0000 </r>
       <r>   22.0164    0.0000 </r>
       <r>   25.8072    0.0000 </r>
       <r>   29.6971    0.0000 </r>
       <r>   31.2602    0.0000 </r>
      </set>
      <set comment="kpoint 19">
       <r>    1.2904    1.0000 </r>
       <r>    3.1959    1.0000 </r>
       <r>    3.5739    1.0109 </r>
       <r>    5.2264   -0.0000 </r>
       <r>    5.8287   -0.0000 </r>
       <r>    6.8197   -0.0000 </r>
       <r>   14.8333    0.0000 </r>
       <r>   15.1249    0.0000 </r>
       <r>   22.9880    0.0000 </r>
       <r>   25.5896    0.0000 </r>
       <r>   28.5704    0.0000 </r>
       <r>   35.2853    0.0000 </r>
      </set>
      <set comment="kpoint 20">
       <r>    1.7279    1.0000 </r>
       <r>    3.2939    1.0000 </r>
       <r>    3.7214    1.0348 </r>
       <r>    5.3814   -0.0000 </r>
       <r>    6.0685   -0.0000 </r>
       <r>    7.2738   -0.0000 </r>
       <r>   10.9246    0.0000 </r>
       <r>   17.4462    0.0000 </r>
       <r>   21.5254    0.0000 </r>
       <r>   25.8375    0.0000 </r>
       <r>   30.6871    0.0000 </r>
       <r>   30.8582    0.0000 </r>
      </set>
      <set comment="kpoint 21">
       <r>    2.1902    1.0000 </r>
       <r>    3.1041    1.0000 </r>
       <r>    3.3898    1.0002 </r>
       <r>    5.4028   -0.0000 </r>
       <r>    5.8607   -0.0000 </r>
       <r>    8.2721   -0.0000 </r>
       <r>   11.7598    0.0000 </r>
       <r>   14.2435    0.0000 </r>
       <r>   22.4101    0.0000 </r>
       <r>   26.1336    0.0000 </r>
       <r>   28.8586    0.0000 </r>
       <r>   34.2589    0.0000 </r>
      </set>
      <set comment="kpoint 22">
       <r>    2.8458    1.0000 </r>
       <r>    2.9899    1.0000 </r>
       <r>    2.9899    1.0000 </r>
       <r>    5.6509   -0.0000 </r>
       <r>    5.6510   -0.0000 </r>
       <r>   10.5306    0.0000 </r>
       <r>   10.5307    0.0000 </r>
       <r>   12.1904    0.0000 </r>
       <r>   22.4960    0.0000 </r>
       <r>   27.4318    0.0000 </r>
       <r>   27.4319    0.0000 </r>
       <r>   33.5866    0.0000 </r>
      </set>
      <set comment="kpoint 23">
       <r>    0.7535    1.0000 </r>
       <r>    3.1831    1.0000 </r>
       <r>    3.1831    1.0000 </r>
       <r>    5.6935   -0.0000 </r>
       <r>    5.6935   -0.0000 </r>
       <r>    6.6368   -0.0000 </r>
       <r>   16.7025    0.0000 </r>
       <r>   16.7025    0.0000 </r>
       <r>   17.5144    0.0000 </r>
       <r>   30.6363    0.0000 </r>
       <r>   33.9707    0.0000 </r>
       <r>   33.9707    0.0000 </r>
      </set>
      <set comment="kpoint 24">
       <r>    1.9693    1.0000 </r>
       <r>    2.9912    1.0000 </r>
       <r>    3.0738    1.0000 </r>
       <r>    5.7180   -0.0000 </r>
       <r>    5.8181   -0.0000 </r>
       <r>    7.8393   -0.0000 </r>
       <r>   13.2623    0.0000 </r>
       <r>   15.7891    0.0000 </r>
       <r>   16.1542    0.0000 </r>
       <r>   31.5098    0.0000 </r>
       <r>   34.6837    0.0000 </r>
       <r>   35.9427    0.0000 </r>
      </set>
      <set comment="kpoint 25">
       <r>    2.2936    1.0000 </r>
       <r>    2.9283    1.0000 </r>
       <r>    3.2848    1.0000 </r>
       <r>    5.7392   -0.0000 </r>
       <r>    5.8558   -0.0000 </r>
       <r>    9.0093   -0.0000 </r>
       <r>   11.1157    0.0000 </r>
       <r>   15.4779    0.0000 </r>
       <r>   15.7540    0.0000 </r>
       <r>   31.5070    0.0000 </r>
       <r>   35.0600    0.0000 </r>
       <r>   36.1313    0.0000 </r>
      </set>
      <set comment="kpoint 26">
       <r>   -1.7602    1.0000 </r>
       <r>    4.1276   -0.0059 </r>
       <r>    4.1276   -0.0059 </r>
       <r>    4.5332   -0.0002 </r>
       <r>    4.9137   -0.0000 </r>
       <r>    5.8922   -0.0000 </r>
       <r>   21.9310    0.0000 </r>
       <r>   23.0121    0.0000 </r>
       <r>   23.0121    0.0000 </r>
       <r>   24.3469    0.0000 </r>
       <r>   30.4277    0.0000 </r>
       <r>   30.4278    0.0000 </r>
      </set>
      <set comment="kpoint 27">
       <r>    2.6346    1.0000 </r>
       <r>    2.8954    1.0000 </r>
       <r>    2.9895    1.0000 </r>
       <r>    5.8041   -0.0000 </r>
       <r>    5.8482   -0.0000 </r>
       <r>    9.6509    0.0000 </r>
       <r>   12.3020    0.0000 </r>
       <r>   12.8811    0.0000 </r>
       <r>   15.3630    0.0000 </r>
       <r>   33.7721    0.0000 </r>
       <r>   35.3288    0.0000 </r>
       <r>   38.3748    0.0000 </r>
      </set>
      <set comment="kpoint 28">
       <r>   -0.5564    1.0000 </r>
       <r>    3.9532    0.5016 </r>
       <r>    3.9887    0.3538 </r>
       <r>    4.7231   -0.0000 </r>
       <r>    5.0560   -0.0000 </r>
       <r>    6.0090   -0.0000 </r>
       <r>   18.5103    0.0000 </r>
       <r>   21.0690    0.0000 </r>
       <r>   21.4581    0.0000 </r>
       <r>   24.4236    0.0000 </r>
       <r>   29.9621    0.0000 </r>
       <r>   31.0009    0.0000 </r>
      </set>
      <set comment="kpoint 29">
       <r>    0.8634    1.0000 </r>
       <r>    3.5307    1.0054 </r>
       <r>    3.7664    1.0172 </r>
       <r>    4.9911   -0.0000 </r>
       <r>    5.7591   -0.0000 </r>
       <r>    6.2678   -0.0000 </r>
       <r>   14.5696    0.0000 </r>
       <r>   19.4740    0.0000 </r>
       <r>   20.3954    0.0000 </r>
       <r>   25.8892    0.0000 </r>
       <r>   29.0355    0.0000 </r>
       <r>   30.8355    0.0000 </r>
      </set>
      <set comment="kpoint 30">
       <r>    0.7000    1.0000 </r>
       <r>    3.5502    1.0076 </r>
       <r>    4.0369    0.1793 </r>
       <r>    4.7471   -0.0000 </r>
       <r>    5.5354   -0.0000 </r>
       <r>    6.2934   -0.0000 </r>
       <r>   16.8605    0.0000 </r>
       <r>   17.1285    0.0000 </r>
       <r>   22.2846    0.0000 </r>
       <r>   23.2500    0.0000 </r>
       <r>   29.5224    0.0000 </r>
       <r>   34.0978    0.0000 </r>
      </set>
      <set comment="kpoint 31">
       <r>    1.7779    1.0000 </r>
       <r>    3.4159    1.0005 </r>
       <r>    3.6269    1.0215 </r>
       <r>    5.1185   -0.0000 </r>
       <r>    6.2643   -0.0000 </r>
       <r>    7.1205   -0.0000 </r>
       <r>   11.5271    0.0000 </r>
       <r>   18.5224    0.0000 </r>
       <r>   19.8175    0.0000 </r>
       <r>   27.7885    0.0000 </r>
       <r>   28.5556    0.0000 </r>
       <r>   29.9600    0.0000 </r>
      </set>
      <set comment="kpoint 32">
       <r>    1.8499    1.0000 </r>
       <r>    3.1417    1.0000 </r>
       <r>    3.8727    0.8131 </r>
       <r>    5.0358   -0.0000 </r>
       <r>    5.9265   -0.0000 </r>
       <r>    7.3040   -0.0000 </r>
       <r>   13.2722    0.0000 </r>
       <r>   15.8793    0.0000 </r>
       <r>   21.7077    0.0000 </r>
       <r>   24.6860    0.0000 </r>
       <r>   28.6412    0.0000 </r>
       <r>   32.4938    0.0000 </r>
      </set>
      <set comment="kpoint 33">
       <r>    2.2870    1.0000 </r>
       <r>    3.0617    1.0000 </r>
       <r>    3.7268    1.0340 </r>
       <r>    5.1218   -0.0000 </r>
       <r>    6.1287   -0.0000 </r>
       <r>    8.5741   -0.0000 </r>
       <r>   11.0631    0.0000 </r>
       <r>   15.4502    0.0000 </r>
       <r>   21.3814    0.0000 </r>
       <r>   26.4030    0.0000 </r>
       <r>   27.4368    0.0000 </r>
       <r>   31.2309    0.0000 </r>
      </set>
      <set comment="kpoint 34">
       <r>    2.6193    1.0000 </r>
       <r>    2.8510    1.0000 </r>
       <r>    3.5915    1.0140 </r>
       <r>    5.4165   -0.0000 </r>
       <r>    5.8437   -0.0000 </r>
       <r>    9.2951   -0.0000 </r>
       <r>   12.1416    0.0000 </r>
       <r>   12.8239    0.0000 </r>
       <r>   23.5767    0.0000 </r>
       <r>   24.2494    0.0000 </r>
       <r>   26.7670    0.0000 </r>
       <r>   31.0595    0.0000 </r>
      </set>
      <set comment="kpoint 35">
       <r>    2.8785    1.0000 </r>
       <r>    2.8785    1.0000 </r>
       <r>    2.8785    1.0000 </r>
       <r>    5.8696   -0.0000 </r>
       <r>    5.8696   -0.0000 </r>
       <r>   11.9697    0.0000 </r>
       <r>   11.9697    0.0000 </r>
       <r>   11.9697    0.0000 </r>
       <r>   12.9733    0.0000 </r>
       <r>   38.3648    0.0000 </r>
       <r>   38.3649    0.0000 </r>
       <r>   38.3649    0.0000 </r>
      </set>
      <set comment="kpoint 36">
       <r>    0.4814    1.0000 </r>
       <r>    3.8511    0.8769 </r>
       <r>    4.3952   -0.0039 </r>
       <r>    4.3953   -0.0039 </r>
       <r>    5.1226   -0.0000 </r>
       <r>    6.2379   -0.0000 </r>
       <r>   18.8916    0.0000 </r>
       <r>   18.8916    0.0000 </r>
       <r>   19.8303    0.0000 </r>
       <r>   21.2365    0.0000 </r>
       <r>   33.6700    0.0000 </r>
       <r>   33.6700    0.0000 </r>
      </set>
      <set comment="kpoint 37">
       <r>    1.5821    1.0000 </r>
       <r>    3.2447    1.0000 </r>
       <r>    4.4311   -0.0019 </r>
       <r>    4.7564   -0.0000 </r>
       <r>    5.6734   -0.0000 </r>
       <r>    6.8444   -0.0000 </r>
       <r>   15.3478    0.0000 </r>
       <r>   17.1686    0.0000 </r>
       <r>   19.6346    0.0000 </r>
       <r>   21.8539    0.0000 </r>
       <r>   31.4039    0.0000 </r>
       <r>   32.8482    0.0000 </r>
      </set>
      <set comment="kpoint 38">
       <r>    2.2827    1.0000 </r>
       <r>    2.8370    1.0000 </r>
       <r>    4.3637   -0.0068 </r>
       <r>    4.9083   -0.0000 </r>
       <r>    6.1928   -0.0000 </r>
       <r>    8.4301   -0.0000 </r>
       <r>   11.9954    0.0000 </r>
       <r>   16.1511    0.0000 </r>
       <r>   19.3239    0.0000 </r>
       <r>   23.7691    0.0000 </r>
       <r>   28.2127    0.0000 </r>
       <r>   32.2869    0.0000 </r>
      </set>
      <set comment="kpoint 39">
       <r>    2.2243    1.0000 </r>
       <r>    2.8079    1.0000 </r>
       <r>    4.4684   -0.0008 </r>
       <r>    5.1971   -0.0000 </r>
       <r>    5.9406   -0.0000 </r>
       <r>    8.2811   -0.0000 </r>
       <r>   14.0278    0.0000 </r>
       <r>   14.2197    0.0000 </r>
       <r>   20.4393    0.0000 </r>
       <r>   21.5246    0.0000 </r>
       <r>   27.7958    0.0000 </r>
       <r>   32.9205    0.0000 </r>
      </set>
      <set comment="kpoint 40">
       <r>    2.5184    1.0000 </r>
       <r>    2.5637    1.0000 </r>
       <r>    4.3859   -0.0046 </r>
       <r>    5.4403   -0.0000 </r>
       <r>    6.0707   -0.0000 </r>
       <r>   10.2480    0.0000 </r>
       <r>   11.4543    0.0000 </r>
       <r>   13.6539    0.0000 </r>
       <r>   20.5778    0.0000 </r>
       <r>   22.6116    0.0000 </r>
       <r>   25.6813    0.0000 </r>
       <r>   32.7343    0.0000 </r>
      </set>
      <set comment="kpoint 41">
       <r>    2.0600    1.0000 </r>
       <r>    2.8076    1.0000 </r>
       <r>    5.1037   -0.0000 </r>
       <r>    5.1037   -0.0000 </r>
       <r>    5.7249   -0.0000 </r>
       <r>    7.8715   -0.0000 </r>
       <r>   15.3029    0.0000 </r>
       <r>   15.3030    0.0000 </r>
       <r>   18.7667    0.0000 </r>
       <r>   19.8862    0.0000 </r>
       <r>   27.5734    0.0000 </r>
       <r>   36.1724    0.0000 </r>
      </set>
      <set comment="kpoint 42">
       <r>    2.2650    1.0000 </r>
       <r>    2.4505    1.0000 </r>
       <r>    5.2767   -0.0000 </r>
       <r>    5.4169   -0.0000 </r>
       <r>    6.1233   -0.0000 </r>
       <r>    9.8421    0.0000 </r>
       <r>   12.7568    0.0000 </r>
       <r>   14.1681    0.0000 </r>
       <r>   18.8846    0.0000 </r>
       <r>   20.5150    0.0000 </r>
       <r>   24.4617    0.0000 </r>
       <r>   36.1516    0.0000 </r>
      </set>
      <set comment="kpoint 43">
       <r>    2.2732    1.0000 </r>
       <r>    2.2732    1.0000 </r>
       <r>    5.3459   -0.0000 </r>
       <r>    6.0082   -0.0000 </r>
       <r>    6.0082   -0.0000 </r>
       <r>   11.9684    0.0000 </r>
       <r>   11.9685    0.0000 </r>
       <r>   12.4777    0.0000 </r>
       <r>   19.6703    0.0000 </r>
       <r>   19.6703    0.0000 </r>
       <r>   22.8098    0.0000 </r>
       <r>   36.6296    0.0000 </r>
      </set>
      <set comment="kpoint 44">
       <r>    2.1332    1.0000 </r>
       <r>    2.1824    1.0000 </r>
       <r>    5.9859   -0.0000 </r>
       <r>    5.9859   -0.0000 </r>
       <r>    6.1106   -0.0000 </r>
       <r>   11.5091    0.0000 </r>
       <r>   12.9144    0.0000 </r>
       <r>   12.9144    0.0000 </r>
       <r>   18.3653    0.0000 </r>
       <r>   18.9583    0.0000 </r>
       <r>   21.8545    0.0000 </r>
       <r>   38.6393    0.0000 </r>
      </set>
     </set>
    </set>
   </array>
  </eigenvalues>
  <separator name="orbital magnetization" >
   <v name="MAGDIPOLOUT">      0.00000000      0.00000000      0.00000000</v>
  </separator>
  <dos>
   <i name="efermi">      3.95360550 </i>
   <total>
    <array>
     <dimension dim="1">gridpoints</dimension>
     <dimension dim="2">spin</dimension>
     <field>energy</field>
     <field>total</field>
     <field>integrated</field>
     <set>
      <set comment="spin 1">
       <r>    -5.3099     0.0000     0.0000 </r>
       <r>    -5.1561     0.0000     0.0000 </r>
       <r>    -5.0023     0.0000     0.0000 </r>
       <r>    -4.8484    -0.0000    -0.0000 </r>
       <r>    -4.6946    -0.0000    -0.0000 </r>
       <r>    -4.5407    -0.0000    -0.0000 </r>
       <r>    -4.3869    -0.0000    -0.0000 </r>
       <r>    -4.2331    -0.0000    -0.0000 </r>
       <r>    -4.0792    -0.0000    -0.0000 </r>
       <r>    -3.9254    -0.0000    -0.0000 </r>
       <r>    -3.7716    -0.0000    -0.0000 </r>
       <r>    -3.6177    -0.0003    -0.0000 </r>
       <r>    -3.4639    -0.0011    -0.0002 </r>
       <r>    -3.3100     0.0065     0.0008 </r>
       <r>    -3.1562     0.0217     0.0041 </r>
       <r>    -3.0024     0.0158     0.0065 </r>
       <r>    -2.8485     0.0237     0.0102 </r>
       <r>    -2.6947     0.0272     0.0144 </r>
       <r>    -2.5409     0.0742     0.0258 </r>
       <r>    -2.3870     0.0754     0.0374 </r>
       <r>    -2.2332     0.0039     0.0380 </r>
       <r>    -2.0794    -0.0009     0.0379 </r>
       <r>    -1.9255     0.0786     0.0499 </r>
       <r>    -1.7717     0.1076     0.0665 </r>
       <r>    -1.6178     0.0828     0.0792 </r>
       <r>    -1.4640     0.0959     0.0940 </r>
       <r>    -1.3102     0.0985     0.1092 </r>
       <r>    -1.1563     0.0433     0.1158 </r>
       <r>    -1.0025    -0.0063     0.1148 </r>
       <r>    -0.8487     0.1098     0.1317 </r>
       <r>    -0.6948     0.2328     0.1675 </r>
       <r>    -0.5410     0.1749     0.1944 </r>
       <r>    -0.3872     0.2313     0.2300 </r>
       <r>    -0.2333     0.1881     0.2590 </r>
       <r>    -0.0795     0.2416     0.2961 </r>
       <r>     0.0744     0.6462     0.3955 </r>
       <r>     0.2282     0.9479     0.5414 </r>
       <r>     0.3820     0.9347     0.6852 </r>
       <r>     0.5359     1.1379     0.8602 </r>
       <r>     0.6897     0.9469     1.0059 </r>
       <r>     0.8435     0.6313     1.1030 </r>
       <r>     0.9974     1.2809     1.3000 </r>
       <r>     1.1512     1.9526     1.6004 </r>
       <r>     1.3051     1.4700     1.8266 </r>
       <r>     1.4589     1.6684     2.0832 </r>
       <r>     1.6127     2.2221     2.4250 </r>
       <r>     1.7666     1.3473     2.6323 </r>
       <r>     1.9204     0.5610     2.7186 </r>
       <r>     2.0742     0.8861     2.8549 </r>
       <r>     2.2281     0.8409     2.9843 </r>
       <r>     2.3819     1.0565     3.1468 </r>
       <r>     2.5357     2.3950     3.5152 </r>
       <r>     2.6896     3.2477     4.0149 </r>
       <r>     2.8434     2.8595     4.4548 </r>
       <r>     2.9973     1.5353     4.6909 </r>
       <r>     3.1511     1.1955     4.8749 </r>
       <r>     3.3049     1.2383     5.0653 </r>
       <r>     3.4588     0.8632     5.1981 </r>
       <r>     3.6126     0.4001     5.2597 </r>
       <r>     3.7664     0.1803     5.2874 </r>
       <r>     3.9203     0.1447     5.3097 </r>
       <r>     4.0741     0.0607     5.3190 </r>
       <r>     4.2279     0.1768     5.3462 </r>
       <r>     4.3818     0.3517     5.4003 </r>
       <r>     4.5356     0.3147     5.4488 </r>
       <r>     4.6895     0.2114     5.4813 </r>
       <r>     4.8433     0.0932     5.4956 </r>
       <r>     4.9971     0.0864     5.5089 </r>
       <r>     5.1510     0.0620     5.5184 </r>
       <r>     5.3048     0.0296     5.5230 </r>
       <r>     5.4586     0.0745     5.5345 </r>
       <r>     5.6125     0.2403     5.5714 </r>
       <r>     5.7663     0.1762     5.5985 </r>
       <r>     5.9201     0.1920     5.6281 </r>
       <r>     6.0740     0.3363     5.6798 </r>
       <r>     6.2278     0.2033     5.7111 </r>
       <r>     6.3817     0.0481     5.7185 </r>
       <r>     6.5355    -0.0012     5.7183 </r>
       <r>     6.6893     0.0813     5.7308 </r>
       <r>     6.8432     0.2002     5.7616 </r>
       <r>     6.9970     0.1530     5.7851 </r>
       <r>     7.1508     0.1036     5.8011 </r>
       <r>     7.3047     0.1167     5.8190 </r>
       <r>     7.4585     0.1159     5.8368 </r>
       <r>     7.6124     0.0513     5.8447 </r>
       <r>     7.7662     0.0284     5.8491 </r>
       <r>     7.9200     0.0478     5.8565 </r>
       <r>     8.0739     0.0984     5.8716 </r>
       <r>     8.2277     0.1549     5.8954 </r>
       <r>     8.3815     0.1501     5.9185 </r>
       <r>     8.5354     0.0657     5.9286 </r>
       <r>     8.6892    -0.0043     5.9280 </r>
       <r>     8.8430     0.0024     5.9283 </r>
       <r>     8.9969     0.0684     5.9388 </r>
       <r>     9.1507     0.0681     5.9493 </r>
       <r>     9.3046     0.1211     5.9680 </r>
       <r>     9.4584     0.2705     6.0096 </r>
       <r>     9.6122     0.1263     6.0290 </r>
       <r>     9.7661     0.1184     6.0472 </r>
       <r>     9.9199     0.2606     6.0873 </r>
       <r>    10.0737     0.1553     6.1112 </r>
       <r>    10.2276     0.1783     6.1386 </r>
       <r>    10.3814     0.2709     6.1803 </r>
       <r>    10.5352     0.2067     6.2121 </r>
       <r>    10.6891     0.2153     6.2452 </r>
       <r>    10.8429     0.0845     6.2582 </r>
       <r>    10.9968     0.1059     6.2745 </r>
       <r>    11.1506     0.1885     6.3035 </r>
       <r>    11.3044     0.1970     6.3338 </r>
       <r>    11.4583     0.2522     6.3726 </r>
       <r>    11.6121     0.2225     6.4068 </r>
       <r>    11.7659     0.1631     6.4319 </r>
       <r>    11.9198     0.1475     6.4546 </r>
       <r>    12.0736     0.2361     6.4909 </r>
       <r>    12.2275     0.2456     6.5287 </r>
       <r>    12.3813     0.4417     6.5967 </r>
       <r>    12.5351     0.2959     6.6422 </r>
       <r>    12.6890     0.0437     6.6489 </r>
       <r>    12.8428     0.0714     6.6599 </r>
       <r>    12.9966     0.1661     6.6854 </r>
       <r>    13.1505     0.1511     6.7087 </r>
       <r>    13.3043     0.1736     6.7354 </r>
       <r>    13.4581     0.2378     6.7720 </r>
       <r>    13.6120     0.4163     6.8360 </r>
       <r>    13.7658     0.4123     6.8994 </r>
       <r>    13.9197     0.1437     6.9215 </r>
       <r>    14.0735     0.0712     6.9325 </r>
       <r>    14.2273     0.0448     6.9394 </r>
       <r>    14.3812     0.0697     6.9501 </r>
       <r>    14.5350     0.1195     6.9685 </r>
       <r>    14.6888     0.2318     7.0041 </r>
       <r>    14.8427     0.2575     7.0437 </r>
       <r>    14.9965     0.1101     7.0607 </r>
       <r>    15.1503     0.2431     7.0981 </r>
       <r>    15.3042     0.3535     7.1524 </r>
       <r>    15.4580     0.2720     7.1943 </r>
       <r>    15.6119     0.3276     7.2447 </r>
       <r>    15.7657     0.2172     7.2781 </r>
       <r>    15.9195     0.1682     7.3040 </r>
       <r>    16.0734     0.1232     7.3229 </r>
       <r>    16.2272     0.1283     7.3427 </r>
       <r>    16.3810     0.1046     7.3588 </r>
       <r>    16.5349     0.3055     7.4058 </r>
       <r>    16.6887     0.2686     7.4471 </r>
       <r>    16.8425     0.0942     7.4616 </r>
       <r>    16.9964     0.0777     7.4735 </r>
       <r>    17.1502     0.0415     7.4799 </r>
       <r>    17.3041     0.1979     7.5104 </r>
       <r>    17.4579     0.2512     7.5490 </r>
       <r>    17.6117     0.1302     7.5690 </r>
       <r>    17.7656     0.0859     7.5822 </r>
       <r>    17.9194     0.1602     7.6069 </r>
       <r>    18.0732     0.2447     7.6445 </r>
       <r>    18.2271     0.3331     7.6958 </r>
       <r>    18.3809     0.3235     7.7455 </r>
       <r>    18.5348     0.2221     7.7797 </r>
       <r>    18.6886     0.2493     7.8181 </r>
       <r>    18.8424     0.3533     7.8724 </r>
       <r>    18.9963     0.2025     7.9036 </r>
       <r>    19.1501     0.1790     7.9311 </r>
       <r>    19.3039     0.1435     7.9532 </r>
       <r>    19.4578     0.3324     8.0043 </r>
       <r>    19.6116     0.4737     8.0772 </r>
       <r>    19.7654     0.2165     8.1105 </r>
       <r>    19.9193     0.1601     8.1351 </r>
       <r>    20.0731     0.3666     8.1915 </r>
       <r>    20.2270     0.3532     8.2458 </r>
       <r>    20.3808     0.4112     8.3091 </r>
       <r>    20.5346     0.2665     8.3501 </r>
       <r>    20.6885     0.0364     8.3557 </r>
       <r>    20.8423     0.1017     8.3713 </r>
       <r>    20.9961     0.2709     8.4130 </r>
       <r>    21.1500     0.3465     8.4663 </r>
       <r>    21.3038     0.4980     8.5429 </r>
       <r>    21.4576     0.4741     8.6159 </r>
       <r>    21.6115     0.1489     8.6388 </r>
       <r>    21.7653     0.2184     8.6724 </r>
       <r>    21.9192     0.4310     8.7387 </r>
       <r>    22.0730     0.4414     8.8066 </r>
       <r>    22.2268     0.1297     8.8265 </r>
       <r>    22.3807     0.1073     8.8430 </r>
       <r>    22.5345     0.2180     8.8766 </r>
       <r>    22.6883     0.1744     8.9034 </r>
       <r>    22.8422     0.1171     8.9214 </r>
       <r>    22.9960     0.2384     8.9581 </r>
       <r>    23.1499     0.2298     8.9934 </r>
       <r>    23.3037     0.1662     9.0190 </r>
       <r>    23.4575     0.2671     9.0601 </r>
       <r>    23.6114     0.1749     9.0870 </r>
       <r>    23.7652     0.0856     9.1002 </r>
       <r>    23.9190     0.2039     9.1316 </r>
       <r>    24.0729     0.1776     9.1589 </r>
       <r>    24.2267     0.0741     9.1703 </r>
       <r>    24.3805     0.1971     9.2006 </r>
       <r>    24.5344     0.1854     9.2291 </r>
       <r>    24.6882     0.1100     9.2460 </r>
       <r>    24.8421     0.1879     9.2749 </r>
       <r>    24.9959     0.2110     9.3074 </r>
       <r>    25.1497     0.2077     9.3393 </r>
       <r>    25.3036     0.3442     9.3923 </r>
       <r>    25.4574     0.6728     9.4958 </r>
       <r>    25.6112     0.3782     9.5540 </r>
       <r>    25.7651     0.0957     9.5687 </r>
       <r>    25.9189     0.2356     9.6050 </r>
       <r>    26.0727     0.2367     9.6414 </r>
       <r>    26.2266     0.2466     9.6793 </r>
       <r>    26.3804     0.3323     9.7304 </r>
       <r>    26.5343     0.1539     9.7541 </r>
       <r>    26.6881     0.0018     9.7544 </r>
       <r>    26.8419     0.0523     9.7624 </r>
       <r>    26.9958     0.1492     9.7854 </r>
       <r>    27.1496     0.2398     9.8223 </r>
       <r>    27.3034     0.3607     9.8777 </r>
       <r>    27.4573     0.3817     9.9365 </r>
       <r>    27.6111     0.2963     9.9820 </r>
       <r>    27.7650     0.2817    10.0254 </r>
       <r>    27.9188     0.2291    10.0606 </r>
       <r>    28.0726     0.3069    10.1078 </r>
       <r>    28.2265     0.6967    10.2150 </r>
       <r>    28.3803     0.6334    10.3124 </r>
       <r>    28.5341     0.2513    10.3511 </r>
       <r>    28.6880     0.3283    10.4016 </r>
       <r>    28.8418     0.3408    10.4540 </r>
       <r>    28.9956     0.1470    10.4767 </r>
       <r>    29.1495     0.0742    10.4881 </r>
       <r>    29.3033     0.1134    10.5055 </r>
       <r>    29.4572     0.3503    10.5594 </r>
       <r>    29.6110     0.4772    10.6328 </r>
       <r>    29.7648     0.3075    10.6801 </r>
       <r>    29.9187     0.1073    10.6966 </r>
       <r>    30.0725     0.0769    10.7085 </r>
       <r>    30.2263     0.2251    10.7431 </r>
       <r>    30.3802     0.2746    10.7854 </r>
       <r>    30.5340     0.2923    10.8303 </r>
       <r>    30.6878     0.2876    10.8746 </r>
       <r>    30.8417     0.4294    10.9406 </r>
       <r>    30.9955     0.4753    11.0137 </r>
       <r>    31.1494     0.3052    11.0607 </r>
       <r>    31.3032     0.1454    11.0831 </r>
       <r>    31.4570     0.0635    11.0928 </r>
       <r>    31.6109     0.1866    11.1215 </r>
       <r>    31.7647     0.5173    11.2011 </r>
       <r>    31.9185     0.5244    11.2818 </r>
       <r>    32.0724     0.3847    11.3410 </r>
       <r>    32.2262     0.2619    11.3813 </r>
       <r>    32.3800     0.2651    11.4220 </r>
       <r>    32.5339     0.2570    11.4616 </r>
       <r>    32.6877     0.2579    11.5012 </r>
       <r>    32.8416     0.2451    11.5390 </r>
       <r>    32.9954     0.0800    11.5513 </r>
       <r>    33.1492    -0.0181    11.5485 </r>
       <r>    33.3031     0.0089    11.5498 </r>
       <r>    33.4569     0.2800    11.5929 </r>
       <r>    33.6107     0.3705    11.6499 </r>
       <r>    33.7646     0.1596    11.6745 </r>
       <r>    33.9184     0.1892    11.7036 </r>
       <r>    34.0723     0.1143    11.7212 </r>
       <r>    34.2261     0.0115    11.7229 </r>
       <r>    34.3799     0.0583    11.7319 </r>
       <r>    34.5338     0.1005    11.7474 </r>
       <r>    34.6876     0.1443    11.7696 </r>
       <r>    34.8414     0.1442    11.7917 </r>
       <r>    34.9953     0.1021    11.8074 </r>
       <r>    35.1491     0.0629    11.8171 </r>
       <r>    35.3029     0.0392    11.8232 </r>
       <r>    35.4568     0.0867    11.8365 </r>
       <r>    35.6106     0.0330    11.8416 </r>
       <r>    35.7645     0.0667    11.8518 </r>
       <r>    35.9183     0.1818    11.8798 </r>
       <r>    36.0721     0.1837    11.9081 </r>
       <r>    36.2260     0.1392    11.9295 </r>
       <r>    36.3798     0.0615    11.9390 </r>
       <r>    36.5336     0.0097    11.9404 </r>
       <r>    36.6875     0.0628    11.9501 </r>
       <r>    36.8413     0.0824    11.9628 </r>
       <r>    36.9951     0.0126    11.9647 </r>
       <r>    37.1490    -0.0041    11.9641 </r>
       <r>    37.3028    -0.0006    11.9640 </r>
       <r>    37.4567    -0.0000    11.9640 </r>
       <r>    37.6105    -0.0000    11.9640 </r>
       <r>    37.7643    -0.0008    11.9639 </r>
       <r>    37.9182    -0.0044    11.9632 </r>
       <r>    38.0720     0.0173    11.9659 </r>
       <r>    38.2258     0.0879    11.9794 </r>
       <r>    38.3797     0.0727    11.9906 </r>
       <r>    38.5335     0.0210    11.9938 </r>
       <r>    38.6874     0.0134    11.9959 </r>
       <r>    38.8412     0.0218    11.9992 </r>
       <r>    38.9950     0.0065    12.0002 </r>
       <r>    39.1489    -0.0011    12.0000 </r>
       <r>    39.3027    -0.0003    12.0000 </r>
       <r>    39.4565    -0.0000    12.0000 </r>
       <r>    39.6104    -0.0000    12.0000 </r>
       <r>    39.7642    -0.0000    12.0000 </r>
       <r>    39.9180    -0.0000    12.0000 </r>
       <r>    40.0719    -0.0000    12.0000 </r>
       <r>    40.2257     0.0000    12.0000 </r>
       <r>    40.3796     0.0000    12.0000 </r>
       <r>    40.5334     0.0000    12.0000 </r>
       <r>    40.6872     0.0000    12.0000 </r>
       <r>    40.8411     0.0000    12.0000 </r>
      </set>
      <set comment="spin 2">
       <r>    -5.3099     0.0000     0.0000 </r>
       <r>    -5.1561     0.0000     0.0000 </r>
       <r>    -5.0023     0.0000     0.0000 </r>
       <r>    -4.8484    -0.0000    -0.0000 </r>
       <r>    -4.6946    -0.0000    -0.0000 </r>
       <r>    -4.5407    -0.0000    -0.0000 </r>
       <r>    -4.3869    -0.0000    -0.0000 </r>
       <r>    -4.2331    -0.0000    -0.0000 </r>
       <r>    -4.0792    -0.0000    -0.0000 </r>
       <r>    -3.9254    -0.0000    -0.0000 </r>
       <r>    -3.7716    -0.0000    -0.0000 </r>
       <r>    -3.6177    -0.0000    -0.0000 </r>
       <r>    -3.4639    -0.0005    -0.0001 </r>
       <r>    -3.3100    -0.0006    -0.0002 </r>
       <r>    -3.1562     0.0115     0.0016 </r>
       <r>    -3.0024     0.0216     0.0049 </r>
       <r>    -2.8485     0.0156     0.0073 </r>
       <r>    -2.6947     0.0256     0.0112 </r>
       <r>    -2.5409     0.0310     0.0160 </r>
       <r>    -2.3870     0.0856     0.0292 </r>
       <r>    -2.2332     0.0593     0.0383 </r>
       <r>    -2.0794    -0.0037     0.0377 </r>
       <r>    -1.9255     0.0033     0.0382 </r>
       <r>    -1.7717     0.0863     0.0515 </r>
       <r>    -1.6178     0.1009     0.0670 </r>
       <r>    -1.4640     0.0757     0.0787 </r>
       <r>    -1.3102     0.0827     0.0914 </r>
       <r>    -1.1563     0.0844     0.1044 </r>
       <r>    -1.0025     0.0714     0.1154 </r>
       <r>    -0.8487    -0.0009     0.1152 </r>
       <r>    -0.6948     0.0171     0.1179 </r>
       <r>    -0.5410     0.1582     0.1422 </r>
       <r>    -0.3872     0.1689     0.1682 </r>
       <r>    -0.2333     0.0980     0.1832 </r>
       <r>    -0.0795     0.1356     0.2041 </r>
       <r>     0.0744     0.1713     0.2305 </r>
       <r>     0.2282     0.0531     0.2386 </r>
       <r>     0.3820     0.0763     0.2504 </r>
       <r>     0.5359     0.0831     0.2631 </r>
       <r>     0.6897     0.0942     0.2776 </r>
       <r>     0.8435     0.2636     0.3182 </r>
       <r>     0.9974     0.3255     0.3683 </r>
       <r>     1.1512     0.1903     0.3975 </r>
       <r>     1.3051     0.3193     0.4467 </r>
       <r>     1.4589     0.3025     0.4932 </r>
       <r>     1.6127     0.1606     0.5179 </r>
       <r>     1.7666     0.3917     0.5782 </r>
       <r>     1.9204     0.5404     0.6613 </r>
       <r>     2.0742     0.3671     0.7178 </r>
       <r>     2.2281     0.5695     0.8054 </r>
       <r>     2.3819     0.6694     0.9084 </r>
       <r>     2.5357     0.4710     0.9808 </r>
       <r>     2.6896     0.3747     1.0385 </r>
       <r>     2.8434     0.4479     1.1074 </r>
       <r>     2.9973     0.9421     1.2523 </r>
       <r>     3.1511     1.5340     1.4883 </r>
       <r>     3.3049     1.6440     1.7412 </r>
       <r>     3.4588     1.4677     1.9670 </r>
       <r>     3.6126     1.6813     2.2256 </r>
       <r>     3.7664     1.5799     2.4687 </r>
       <r>     3.9203     1.2040     2.6539 </r>
       <r>     4.0741     0.8713     2.7879 </r>
       <r>     4.2279     0.4384     2.8553 </r>
       <r>     4.3818     0.3451     2.9084 </r>
       <r>     4.5356     0.4713     2.9809 </r>
       <r>     4.6895     0.2879     3.0252 </r>
       <r>     4.8433     0.3176     3.0741 </r>
       <r>     4.9971     0.6496     3.1740 </r>
       <r>     5.1510     1.1037     3.3438 </r>
       <r>     5.3048     1.2020     3.5287 </r>
       <r>     5.4586     1.5542     3.7678 </r>
       <r>     5.6125     1.8595     4.0539 </r>
       <r>     5.7663     2.4821     4.4357 </r>
       <r>     5.9201     2.8678     4.8769 </r>
       <r>     6.0740     1.7107     5.1401 </r>
       <r>     6.2278     0.7801     5.2601 </r>
       <r>     6.3817     0.4871     5.3350 </r>
       <r>     6.5355     0.3013     5.3814 </r>
       <r>     6.6893     0.4219     5.4463 </r>
       <r>     6.8432     0.3610     5.5018 </r>
       <r>     6.9970     0.1620     5.5267 </r>
       <r>     7.1508     0.1193     5.5451 </r>
       <r>     7.3047     0.2832     5.5886 </r>
       <r>     7.4585     0.2135     5.6215 </r>
       <r>     7.6124     0.1375     5.6426 </r>
       <r>     7.7662     0.1985     5.6732 </r>
       <r>     7.9200     0.1913     5.7026 </r>
       <r>     8.0739     0.1196     5.7210 </r>
       <r>     8.2277     0.1629     5.7461 </r>
       <r>     8.3815     0.3162     5.7947 </r>
       <r>     8.5354     0.2153     5.8278 </r>
       <r>     8.6892     0.0974     5.8428 </r>
       <r>     8.8430     0.0137     5.8449 </r>
       <r>     8.9969     0.0245     5.8487 </r>
       <r>     9.1507     0.0442     5.8555 </r>
       <r>     9.3046     0.1023     5.8712 </r>
       <r>     9.4584     0.1563     5.8953 </r>
       <r>     9.6122     0.1115     5.9124 </r>
       <r>     9.7661     0.1212     5.9311 </r>
       <r>     9.9199     0.1074     5.9476 </r>
       <r>    10.0737     0.0336     5.9528 </r>
       <r>    10.2276     0.0584     5.9617 </r>
       <r>    10.3814     0.0870     5.9751 </r>
       <r>    10.5352     0.0616     5.9846 </r>
       <r>    10.6891     0.0364     5.9902 </r>
       <r>    10.8429     0.0523     5.9983 </r>
       <r>    10.9968     0.2089     6.0304 </r>
       <r>    11.1506     0.2686     6.0717 </r>
       <r>    11.3044     0.1563     6.0958 </r>
       <r>    11.4583     0.2925     6.1408 </r>
       <r>    11.6121     0.4052     6.2031 </r>
       <r>    11.7659     0.2464     6.2410 </r>
       <r>    11.9198     0.2040     6.2724 </r>
       <r>    12.0736     0.2265     6.3072 </r>
       <r>    12.2275     0.2061     6.3389 </r>
       <r>    12.3813     0.1406     6.3606 </r>
       <r>    12.5351     0.1150     6.3782 </r>
       <r>    12.6890     0.2572     6.4178 </r>
       <r>    12.8428     0.4337     6.4845 </r>
       <r>    12.9966     0.2562     6.5240 </r>
       <r>    13.1505     0.1586     6.5483 </r>
       <r>    13.3043     0.4197     6.6129 </r>
       <r>    13.4581     0.2473     6.6510 </r>
       <r>    13.6120     0.0775     6.6629 </r>
       <r>    13.7658     0.1619     6.6878 </r>
       <r>    13.9197     0.0715     6.6988 </r>
       <r>    14.0735     0.1698     6.7249 </r>
       <r>    14.2273     0.4377     6.7923 </r>
       <r>    14.3812     0.3395     6.8445 </r>
       <r>    14.5350     0.2454     6.8822 </r>
       <r>    14.6888     0.2041     6.9136 </r>
       <r>    14.8427     0.0924     6.9278 </r>
       <r>    14.9965     0.0687     6.9384 </r>
       <r>    15.1503     0.0827     6.9512 </r>
       <r>    15.3042     0.2066     6.9829 </r>
       <r>    15.4580     0.3257     7.0330 </r>
       <r>    15.6119     0.1600     7.0577 </r>
       <r>    15.7657     0.1371     7.0788 </r>
       <r>    15.9195     0.2976     7.1245 </r>
       <r>    16.0734     0.2780     7.1673 </r>
       <r>    16.2272     0.3394     7.2195 </r>
       <r>    16.3810     0.3658     7.2758 </r>
       <r>    16.5349     0.2088     7.3079 </r>
       <r>    16.6887     0.0694     7.3186 </r>
       <r>    16.8425     0.0951     7.3332 </r>
       <r>    16.9964     0.1208     7.3518 </r>
       <r>    17.1502     0.3109     7.3996 </r>
       <r>    17.3041     0.2967     7.4453 </r>
       <r>    17.4579     0.1172     7.4633 </r>
       <r>    17.6117     0.0770     7.4751 </r>
       <r>    17.7656     0.0729     7.4864 </r>
       <r>    17.9194     0.2117     7.5189 </r>
       <r>    18.0732     0.2104     7.5513 </r>
       <r>    18.2271     0.1211     7.5699 </r>
       <r>    18.3809     0.0663     7.5801 </r>
       <r>    18.5348     0.1673     7.6059 </r>
       <r>    18.6886     0.2129     7.6386 </r>
       <r>    18.8424     0.3250     7.6886 </r>
       <r>    18.9963     0.4249     7.7540 </r>
       <r>    19.1501     0.3048     7.8009 </r>
       <r>    19.3039     0.3261     7.8510 </r>
       <r>    19.4578     0.2600     7.8910 </r>
       <r>    19.6116     0.2519     7.9298 </r>
       <r>    19.7654     0.2668     7.9708 </r>
       <r>    19.9193     0.2419     8.0080 </r>
       <r>    20.0731     0.3776     8.0661 </r>
       <r>    20.2270     0.3108     8.1139 </r>
       <r>    20.3808     0.2391     8.1507 </r>
       <r>    20.5346     0.3508     8.2047 </r>
       <r>    20.6885     0.3469     8.2581 </r>
       <r>    20.8423     0.2221     8.2922 </r>
       <r>    20.9961     0.2365     8.3286 </r>
       <r>    21.1500     0.2359     8.3649 </r>
       <r>    21.3038     0.1339     8.3855 </r>
       <r>    21.4576     0.3043     8.4323 </r>
       <r>    21.6115     0.4244     8.4976 </r>
       <r>    21.7653     0.2891     8.5421 </r>
       <r>    21.9192     0.2987     8.5880 </r>
       <r>    22.0730     0.4583     8.6585 </r>
       <r>    22.2268     0.4306     8.7248 </r>
       <r>    22.3807     0.3008     8.7711 </r>
       <r>    22.5345     0.2967     8.8167 </r>
       <r>    22.6883     0.2276     8.8517 </r>
       <r>    22.8422     0.0906     8.8657 </r>
       <r>    22.9960     0.1156     8.8834 </r>
       <r>    23.1499     0.1255     8.9027 </r>
       <r>    23.3037     0.1342     8.9234 </r>
       <r>    23.4575     0.2446     8.9610 </r>
       <r>    23.6114     0.2756     9.0034 </r>
       <r>    23.7652     0.2041     9.0348 </r>
       <r>    23.9190     0.1212     9.0534 </r>
       <r>    24.0729     0.0774     9.0653 </r>
       <r>    24.2267     0.1513     9.0886 </r>
       <r>    24.3805     0.2420     9.1259 </r>
       <r>    24.5344     0.3091     9.1734 </r>
       <r>    24.6882     0.2669     9.2145 </r>
       <r>    24.8421     0.1335     9.2350 </r>
       <r>    24.9959     0.0236     9.2386 </r>
       <r>    25.1497     0.1258     9.2580 </r>
       <r>    25.3036     0.1662     9.2835 </r>
       <r>    25.4574     0.1151     9.3013 </r>
       <r>    25.6112     0.3295     9.3520 </r>
       <r>    25.7651     0.6635     9.4540 </r>
       <r>    25.9189     0.5617     9.5404 </r>
       <r>    26.0727     0.3509     9.5944 </r>
       <r>    26.2266     0.2998     9.6405 </r>
       <r>    26.3804     0.1508     9.6637 </r>
       <r>    26.5343     0.2025     9.6949 </r>
       <r>    26.6881     0.2013     9.7258 </r>
       <r>    26.8419     0.1645     9.7512 </r>
       <r>    26.9958     0.1401     9.7727 </r>
       <r>    27.1496     0.0686     9.7833 </r>
       <r>    27.3034     0.0342     9.7885 </r>
       <r>    27.4573     0.1318     9.8088 </r>
       <r>    27.6111     0.1223     9.8276 </r>
       <r>    27.7650     0.2217     9.8617 </r>
       <r>    27.9188     0.4218     9.9266 </r>
       <r>    28.0726     0.5153    10.0059 </r>
       <r>    28.2265     0.7024    10.1139 </r>
       <r>    28.3803     0.3422    10.1666 </r>
       <r>    28.5341     0.2236    10.2010 </r>
       <r>    28.6880     0.5244    10.2816 </r>
       <r>    28.8418     0.3637    10.3376 </r>
       <r>    28.9956     0.3042    10.3844 </r>
       <r>    29.1495     0.3236    10.4342 </r>
       <r>    29.3033     0.1406    10.4558 </r>
       <r>    29.4572     0.1945    10.4857 </r>
       <r>    29.6110     0.2537    10.5248 </r>
       <r>    29.7648     0.2623    10.5651 </r>
       <r>    29.9187     0.3600    10.6205 </r>
       <r>    30.0725     0.2707    10.6621 </r>
       <r>    30.2263     0.1135    10.6796 </r>
       <r>    30.3802     0.1350    10.7004 </r>
       <r>    30.5340     0.1059    10.7166 </r>
       <r>    30.6878     0.2154    10.7498 </r>
       <r>    30.8417     0.3601    10.8052 </r>
       <r>    30.9955     0.3699    10.8621 </r>
       <r>    31.1494     0.3251    10.9121 </r>
       <r>    31.3032     0.4288    10.9781 </r>
       <r>    31.4570     0.5352    11.0604 </r>
       <r>    31.6109     0.4056    11.1228 </r>
       <r>    31.7647     0.1181    11.1410 </r>
       <r>    31.9185     0.2123    11.1736 </r>
       <r>    32.0724     0.2864    11.2177 </r>
       <r>    32.2262     0.1049    11.2338 </r>
       <r>    32.3800     0.1981    11.2643 </r>
       <r>    32.5339     0.5418    11.3476 </r>
       <r>    32.6877     0.3858    11.4070 </r>
       <r>    32.8416     0.2614    11.4472 </r>
       <r>    32.9954     0.3525    11.5014 </r>
       <r>    33.1492     0.2319    11.5371 </r>
       <r>    33.3031     0.0320    11.5420 </r>
       <r>    33.4569     0.0668    11.5523 </r>
       <r>    33.6107     0.2392    11.5891 </r>
       <r>    33.7646     0.2026    11.6203 </r>
       <r>    33.9184     0.1138    11.6378 </r>
       <r>    34.0723     0.1276    11.6574 </r>
       <r>    34.2261     0.2148    11.6904 </r>
       <r>    34.3799     0.1772    11.7177 </r>
       <r>    34.5338     0.0419    11.7242 </r>
       <r>    34.6876     0.1674    11.7499 </r>
       <r>    34.8414     0.1926    11.7795 </r>
       <r>    34.9953     0.0379    11.7854 </r>
       <r>    35.1491     0.0503    11.7931 </r>
       <r>    35.3029     0.1592    11.8176 </r>
       <r>    35.4568     0.1496    11.8406 </r>
       <r>    35.6106     0.0139    11.8428 </r>
       <r>    35.7645    -0.0084    11.8415 </r>
       <r>    35.9183     0.0563    11.8501 </r>
       <r>    36.0721     0.1490    11.8731 </r>
       <r>    36.2260     0.1762    11.9002 </r>
       <r>    36.3798     0.0542    11.9085 </r>
       <r>    36.5336     0.0140    11.9107 </r>
       <r>    36.6875     0.1068    11.9271 </r>
       <r>    36.8413     0.1011    11.9426 </r>
       <r>    36.9951     0.0907    11.9566 </r>
       <r>    37.1490     0.0519    11.9646 </r>
       <r>    37.3028    -0.0010    11.9644 </r>
       <r>    37.4567    -0.0025    11.9640 </r>
       <r>    37.6105    -0.0002    11.9640 </r>
       <r>    37.7643    -0.0000    11.9640 </r>
       <r>    37.9182    -0.0006    11.9639 </r>
       <r>    38.0720    -0.0048    11.9632 </r>
       <r>    38.2258     0.0107    11.9648 </r>
       <r>    38.3797     0.0965    11.9797 </r>
       <r>    38.5335     0.0959    11.9944 </r>
       <r>    38.6874     0.0293    11.9989 </r>
       <r>    38.8412     0.0085    12.0002 </r>
       <r>    38.9950    -0.0009    12.0001 </r>
       <r>    39.1489    -0.0006    12.0000 </r>
       <r>    39.3027    -0.0000    12.0000 </r>
       <r>    39.4565    -0.0000    12.0000 </r>
       <r>    39.6104    -0.0000    12.0000 </r>
       <r>    39.7642    -0.0000    12.0000 </r>
       <r>    39.9180    -0.0000    12.0000 </r>
       <r>    40.0719     0.0000    12.0000 </r>
       <r>    40.2257     0.0000    12.0000 </r>
       <r>    40.3796     0.0000    12.0000 </r>
       <r>    40.5334     0.0000    12.0000 </r>
       <r>    40.6872     0.0000    12.0000 </r>
       <r>    40.8411     0.0000    12.0000 </r>
      </set>
     </set>
    </array>
   </total>
  </dos>
 </calculation>
 <structure name="finalpos" >
  <crystal>
   <varray name="basis" >
    <v>      -1.52500000       1.52500000       1.52500000 </v>
    <v>       1.52500000      -1.52500000       1.52500000 </v>
    <v>       1.52500000       1.52500000      -1.52500000 </v>
   </varray>
   <i name="volume">     14.18631250 </i>
   <varray name="rec_basis" >
    <v>       0.00000000       0.32786885       0.32786885 </v>
    <v>       0.32786885       0.00000000       0.32786885 </v>
    <v>       0.32786885       0.32786885       0.00000000 </v>
   </varray>
  </crystal>
  <varray name="positions" >
   <v>       0.00000000       0.00000000       0.00000000 </v>
  </varray>
 </structure>
</modeling>
