FCC Au                                  
   4.05000000000000     
     0.000000    0.500000    0.500000
     0.500000    0.000000    0.500000
     0.500000    0.500000    0.000000
   Au
     1
Direct
  0.000000  0.000000  0.000000
 
   24   24   24
  80.334      77.317      69.511      59.563      49.467      39.709      30.159      21.251      14.029      9.2260    
  6.5911      5.2435      4.8156      5.2435      6.5911      9.2260      14.029      21.251      30.159      39.709    
  49.467      59.563      69.511      77.317      77.317      71.929      63.176      53.402      43.744      34.244    
  25.043      16.994      11.092      7.5681      5.7188      4.8657      4.8657      5.7187      7.5679      11.092    
  16.995      25.044      34.247      43.745      53.400      63.169      71.921      77.313      69.511      63.176    
  54.827      45.912      36.872      27.851      19.514      12.899      8.5904      6.2313      4.9999      4.6117    
  4.9999      6.2311      8.5900      12.898      19.515      27.854      36.875      45.913      54.822      63.168    
  69.505      71.921      59.563      53.402      45.912      37.779      29.338      21.193      14.328      9.5121    
  6.7079      5.1765      4.4716      4.4717      5.1765      6.7078      9.5117      14.327      21.193      29.339    
  37.781      45.913      53.401      59.561      63.168      63.169      49.467      43.744      36.872      29.338    
  21.780      15.115      10.158      7.0850      5.3451      4.4123      4.1232      4.4124      5.3454      7.0854    
  10.158      15.115      21.779      29.337      36.872      43.745      49.469      53.401      54.822      53.400    
  39.709      34.244      27.851      21.193      15.115      10.390      7.2957      5.4634      4.3961      3.9170    
  3.9170      4.3961      5.4638      7.2967      10.391      15.116      21.192      27.850      34.242      39.708    
  43.745      45.913      45.913      43.745      30.159      25.043      19.514      14.328      10.158      7.2957    
  5.5056      4.3950      3.8124      3.6342      3.8121      4.3946      5.5057      7.2967      10.160      14.330    
  19.515      25.041      30.155      34.242      36.872      37.781      36.875      34.247      21.251      16.994    
  12.899      9.5121      7.0850      5.4634      4.3950      3.7808      3.5089      3.5088      3.7804      4.3940    
  5.4624      7.0849      9.5140      12.902      16.997      21.251      25.041      27.850      29.337      29.339    
  27.854      25.044      14.029      11.092      8.5904      6.7079      5.3451      4.3961      3.8124      3.5089    
  3.4164      3.5092      3.8124      4.3951      5.3430      6.7060      8.5904      11.095      14.032      16.997    
  19.515      21.192      21.779      21.193      19.515      16.995      9.2260      7.5681      6.2313      5.1765    
  4.4123      3.9170      3.6342      3.5088      3.5092      3.6353      3.9181      4.4123      5.1746      6.2282    
  7.5657      9.2259      11.095      12.902      14.330      15.116      15.115      14.327      12.898      11.092    
  6.5911      5.7188      4.9999      4.4716      4.1232      3.9170      3.8121      3.7804      3.8124      3.9181    
  4.1252      4.4735      5.0000      5.7164      6.5876      7.5657      8.5904      9.5140      10.160      10.391    
  10.158      9.5117      8.5900      7.5679      5.2435      4.8657      4.6117      4.4717      4.4124      4.3961    
  4.3946      4.3940      4.3951      4.4123      4.4735      4.6148      4.8681      5.2435      5.7164      6.2282    
  6.7060      7.0849      7.2967      7.2967      7.0854      6.7078      6.2311      5.7187      4.8156      4.8657    
  4.9999      5.1765      5.3454      5.4638      5.5057      5.4624      5.3430      5.1746      5.0000      4.8681    
  4.8191      4.8681      5.0000      5.1746      5.3430      5.4624      5.5057      5.4638      5.3454      5.1765    
  4.9999      4.8657      5.2435      5.7187      6.2311      6.7078      7.0854      7.2967      7.2967      7.0849    
  6.7060      6.2282      5.7164      5.2435      4.8681      4.6148      4.4735      4.4123      4.3951      4.3940    
  4.3946      4.3961      4.4124      4.4717      4.6117      4.8657      6.5911      7.5679      8.5900      9.5117    
  10.158      10.391      10.160      9.5140      8.5904      7.5657      6.5876      5.7164      5.0000      4.4735    
  4.1252      3.9181      3.8124      3.7804      3.8121      3.9170      4.1232      4.4716      4.9999      5.7188    
  9.2260      11.092      12.898      14.327      15.115      15.116      14.330      12.902      11.095      9.2259    
  7.5657      6.2282      5.1746      4.4123      3.9181      3.6353      3.5092      3.5088      3.6342      3.9170    
  4.4123      5.1765      6.2313      7.5681      14.029      16.995      19.515      21.193      21.779      21.192    
  19.515      16.997      14.032      11.095      8.5904      6.7060      5.3430      4.3951      3.8124      3.5092    
  3.4164      3.5089      3.8124      4.3961      5.3451      6.7079      8.5904      11.092      21.251      25.044    
  27.854      29.339      29.337      27.850      25.041      21.251      16.997      12.902      9.5140      7.0849    
  5.4624      4.3940      3.7804      3.5088      3.5089      3.7808      4.3950      5.4634      7.0850      9.5121    
  12.899      16.994      30.159      34.247      36.875      37.781      36.872      34.242      30.155      25.041    
  19.515      14.330      10.160      7.2967      5.5057      4.3946      3.8121      3.6342      3.8124      4.3950    
  5.5056      7.2957      10.158      14.328      19.514      25.043      39.709      43.745      45.913      45.913    
  43.745      39.708      34.242      27.850      21.192      15.116      10.391      7.2967      5.4638      4.3961    
  3.9170      3.9170      4.3961      5.4634      7.2957      10.390      15.115      21.193      27.851      34.244    
  49.467      53.400      54.822      53.401      49.469      43.745      36.872      29.337      21.779      15.115    
  10.158      7.0854      5.3454      4.4124      4.1232      4.4123      5.3451      7.0850      10.158      15.115    
  21.780      29.338      36.872      43.744      59.563      63.169      63.168      59.561      53.401      45.913    
  37.781      29.339      21.193      14.327      9.5117      6.7078      5.1765      4.4717      4.4716      5.1765    
  6.7079      9.5121      14.328      21.193      29.338      37.779      45.912      53.402      69.511      71.921    
  69.505      63.168      54.822      45.913      36.875      27.854      19.515      12.898      8.5900      6.2311    
  4.9999      4.6117      4.9999      6.2313      8.5904      12.899      19.514      27.851      36.872      45.912    
  54.827      63.176      77.317      77.313      71.921      63.169      53.400      43.745      34.247      25.044    
  16.995      11.092      7.5679      5.7187      4.8657      4.8657      5.7188      7.5681      11.092      16.994    
  25.043      34.244      43.744      53.402      63.176      71.929      77.317      71.929      63.176      53.402    
  43.744      34.244      25.043      16.994      11.092      7.5681      5.7188      4.8657      4.8657      5.7187    
  7.5679      11.092      16.995      25.044      34.247      43.745      53.400      63.169      71.921      77.313    
  71.929      65.118      56.254      46.967      37.714      28.546      20.047      13.252      8.7942      6.3515    
  5.0839      4.6833      5.0839      6.3513      8.7938      13.252      20.049      28.550      37.718      46.967    
  56.247      65.106      71.920      74.534      63.176      56.254      48.100      39.532      30.793      22.344    
  15.131      9.9936      6.9787      5.3543      4.6044      4.6044      5.3543      6.9783      9.9929      15.131    
  22.345      30.796      39.535      48.100      56.248      63.169      67.303      67.306      53.402      46.967    
  39.532      31.564      23.568      16.403      10.957      7.5313      5.6216      4.6004      4.2823      4.6005    
  5.6217      7.5311      10.956      16.402      23.568      31.565      39.534      46.969      53.403      57.985    
  59.674      57.985      43.744      37.714      30.793      23.568      16.851      11.493      7.9167      5.8321    
  4.6318      4.0889      4.0889      4.6319      5.8324      7.9170      11.493      16.850      23.566      30.792    
  37.715      43.747      48.344      50.880      50.879      48.340      34.244      28.546      22.344      16.403    
  11.493      8.0554      5.9469      4.6644      3.9860      3.7780      3.9859      4.6644      5.9474      8.0564    
  11.494      16.403      22.343      28.544      34.243      38.832      41.830      42.877      41.830      38.832    
  25.043      20.047      15.131      10.957      7.9167      5.9469      4.6774      3.9427      3.6168      3.6167    
  3.9423      4.6769      5.9468      7.9177      10.959      15.133      20.048      25.041      29.432      32.674    
  34.393      34.394      32.678      29.436      16.994      13.252      9.9936      7.5313      5.8321      4.6644    
  3.9427      3.5676      3.4532      3.5675      3.9422      4.6631      5.8307      7.5311      9.9954      13.255    
  16.996      20.689      23.775      25.811      26.521      25.813      23.778      20.689      11.092      8.7942    
  6.9787      5.6216      4.6318      3.9860      3.6168      3.4532      3.4535      3.6174      3.9861      4.6305    
  5.6192      6.9765      8.7939      11.094      13.653      16.085      17.977      19.010      19.009      17.976    
  16.082      13.650      7.5681      6.3515      5.3543      4.6004      4.0889      3.7780      3.6167      3.5675    
  3.6174      3.7793      4.0902      4.6004      5.3523      6.3482      7.5656      9.0052      10.532      11.900    
  12.848      13.186      12.846      11.896      10.529      9.0052      5.7188      5.0839      4.6044      4.2823    
  4.0889      3.9859      3.9423      3.9422      3.9861      4.0902      4.2846      4.6064      5.0839      5.7164    
  6.4592      7.2497      8.0190      8.6436      8.9949      8.9941      8.6420      8.0187      7.2517      6.4625    
  4.8657      4.6833      4.6044      4.6005      4.6319      4.6644      4.6769      4.6631      4.6305      4.6004    
  4.6064      4.6865      4.8681      5.1533      5.5113      5.8859      6.2113      6.4330      6.5123      6.4336    
  6.2130      5.8885      5.5135      5.1532      4.8657      5.0839      5.3543      5.6217      5.8324      5.9474    
  5.9468      5.8307      5.6192      5.3523      5.0839      4.8681      4.7419      4.7132      4.7612      4.8471    
  4.9303      4.9802      4.9810      4.9322      4.8488      4.7612      4.7110      4.7385      5.7187      6.3513    
  6.9783      7.5311      7.9170      8.0564      7.9177      7.5311      6.9765      6.3482      5.7164      5.1533    
  4.7132      4.4109      4.2281      4.1310      4.0873      4.0754      4.0878      4.1310      4.2266      4.4082    
  4.7110      5.1532      7.5679      8.7938      9.9929      10.956      11.493      11.494      10.959      9.9954    
  8.7939      7.5656      6.4592      5.5113      4.7612      4.2281      3.8861      3.6912      3.6045      3.6043    
  3.6903      3.8845      4.2266      4.7612      5.5135      6.4625      11.092      13.252      15.131      16.402    
  16.850      16.403      15.133      13.255      11.094      9.0052      7.2497      5.8859      4.8471      4.1310    
  3.6912      3.4613      3.3905      3.4607      3.6904      4.1310      4.8487      5.8885      7.2518      9.0052    
  16.995      20.049      22.345      23.568      23.566      22.343      20.048      16.996      13.653      10.532    
  8.0190      6.2113      4.9303      4.0873      3.6045      3.3905      3.3904      3.6046      4.0880      4.9320    
  6.2128      8.0189      10.529      13.650      25.044      28.550      30.796      31.565      30.792      28.544    
  25.041      20.689      16.085      11.900      8.6436      6.4330      4.9802      4.0754      3.6043      3.4607    
  3.6046      4.0761      4.9809      6.4330      8.6420      11.897      16.082      20.689      34.247      37.718    
  39.535      39.534      37.715      34.243      29.432      23.775      17.977      12.848      8.9949      6.5123    
  4.9810      4.0878      3.6903      3.6904      4.0880      4.9809      6.5114      8.9933      12.846      17.977    
  23.777      29.436      43.745      46.967      48.100      46.969      43.747      38.832      32.674      25.811    
  19.010      13.186      8.9941      6.4336      4.9322      4.1310      3.8845      4.1310      4.9320      6.4330    
  8.9933      13.186      19.011      25.813      32.676      38.832      53.400      56.247      56.248      53.403    
  48.344      41.830      34.393      26.521      19.009      12.846      8.6420      6.2130      4.8488      4.2266    
  4.2266      4.8487      6.2128      8.6420      12.846      19.011      26.522      34.393      41.828      48.340    
  63.169      65.106      63.169      57.985      50.880      42.877      34.394      25.813      17.976      11.896    
  8.0187      5.8885      4.7612      4.4082      4.7612      5.8885      8.0189      11.897      17.977      25.813    
  34.393      42.875      50.880      57.985      71.921      71.920      67.303      59.674      50.879      41.830    
  32.678      23.778      16.082      10.529      7.2517      5.5135      4.7110      4.7110      5.5135      7.2518    
  10.529      16.082      23.777      32.676      41.828      50.880      59.677      67.306      77.313      74.534    
  67.306      57.985      48.340      38.832      29.436      20.689      13.650      9.0052      6.4625      5.1532    
  4.7385      5.1532      6.4625      9.0052      13.650      20.689      29.436      38.832      48.340      57.985    
  67.306      74.534      69.511      63.176      54.827      45.912      36.872      27.851      19.514      12.899    
  8.5904      6.2313      4.9999      4.6117      4.9999      6.2311      8.5900      12.898      19.515      27.854    
  36.875      45.913      54.822      63.168      69.505      71.921      63.176      56.254      48.100      39.532    
  30.793      22.344      15.131      9.9936      6.9787      5.3543      4.6044      4.6044      5.3543      6.9783    
  9.9929      15.131      22.345      30.796      39.535      48.100      56.248      63.169      67.303      67.306    
  54.827      48.100      40.444      32.322      24.183      16.853      11.241      7.6906      5.7189      4.6667    
  4.3382      4.6667      5.7189      7.6901      11.240      16.852      24.183      32.323      40.447      48.102    
  54.827      59.676      61.477      59.677      45.912      39.532      32.322      24.817      17.784      12.101    
  8.2618      6.0318      4.7599      4.1820      4.1820      4.7601      6.0320      8.2615      12.099      17.782    
  24.815      32.322      39.536      45.918      50.885      53.672      53.670      50.880      36.872      30.793    
  24.183      17.784      12.407      8.5817      6.2415      4.8452      4.1019      3.8734      4.1019      4.8455    
  6.2421      8.5820      12.406      17.782      24.180      30.792      36.875      41.834      45.128      46.289    
  45.123      41.828      27.851      22.344      16.853      12.101      8.5817      6.3156      4.8946      4.0670    
  3.6989      3.6987      4.0668      4.8947      6.3163      8.5828      12.101      16.852      22.342      27.850    
  32.676      36.253      38.159      38.159      36.252      32.676      19.514      15.131      11.241      8.2618    
  6.2415      4.8946      4.0574      3.6217      3.4887      3.6215      4.0569      4.8940      6.2415      8.2629    
  11.243      15.132      19.514      23.775      27.306      29.627      30.435      29.628      27.309      23.777    
  12.899      9.9936      7.6906      6.0318      4.8452      4.0670      3.6217      3.4244      3.4245      3.6217    
  4.0663      4.8438      6.0304      7.6903      9.9951      12.901      16.084      19.063      21.357      22.600    
  22.601      21.358      19.062      16.082      8.5904      6.9787      5.7189      4.7599      4.1019      3.6989    
  3.4887      3.4245      3.4893      3.6996      4.1019      4.7586      5.7165      6.9765      8.5900      10.531    
  12.576      14.389      15.634      16.077      15.633      14.386      12.573      10.529      6.2313      5.3543    
  4.6667      4.1820      3.8734      3.6987      3.6215      3.6217      3.6996      3.8749      4.1833      4.6667    
  5.3524      6.2281      7.2495      8.3857      9.5098      10.423      10.936      10.934      10.420      9.5076    
  8.3857      7.2518      4.9999      4.6044      4.3382      4.1820      4.1019      4.0668      4.0569      4.0663    
  4.1019      4.1833      4.3407      4.6064      4.9999      5.5113      6.0934      6.6746      7.1875      7.5466    
  7.6759      7.5460      7.1875      6.6764      6.0963      5.5135      4.6117      4.6044      4.6667      4.7601    
  4.8455      4.8947      4.8940      4.8438      4.7586      4.6667      4.6064      4.6148      4.7132      4.8964    
  5.1324      5.3717      5.5639      5.6702      5.6707      5.5654      5.3740      5.1342      4.8964      4.7110    
  4.9999      5.3543      5.7189      6.0320      6.2421      6.3163      6.2415      6.0304      5.7165      5.3524    
  4.9999      4.7132      4.5221      4.4269      4.4037      4.4184      4.4405      4.4506      4.4417      4.4197    
  4.4037      4.4251      4.5192      4.7110      6.2311      6.9783      7.6901      8.2615      8.5820      8.5828    
  8.2629      7.6903      6.9765      6.2281      5.5113      4.8964      4.4269      4.1050      3.9055      3.7953    
  3.7475      3.7476      3.7951      3.9043      4.1029      4.4251      4.8964      5.5135      8.5900      9.9929    
  11.240      12.099      12.406      12.101      11.243      9.9951      8.5900      7.2495      6.0934      5.1324    
  4.4037      3.9055      3.5986      3.4370      3.3869      3.4364      3.5975      3.9043      4.4037      5.1342    
  6.0963      7.2517      12.898      15.131      16.852      17.782      17.782      16.852      15.132      12.901    
  10.531      8.3857      6.6746      5.3717      4.4184      3.7953      3.4370      3.2769      3.2767      3.4365    
  3.7953      4.4196      5.3739      6.6765      8.3857      10.529      19.515      22.345      24.183      24.815    
  24.180      22.342      19.514      16.084      12.576      9.5098      7.1875      5.5639      4.4405      3.7475    
  3.3869      3.2767      3.3869      3.7480      4.4416      5.5650      7.1875      9.5079      12.573      16.082    
  27.854      30.796      32.323      32.322      30.792      27.850      23.775      19.063      14.389      10.423    
  7.5466      5.6702      4.4506      3.7476      3.4364      3.4365      3.7480      4.4510      5.6702      7.5455    
  10.421      14.387      19.062      23.778      36.875      39.535      40.447      39.536      36.875      32.676    
  27.306      21.357      15.634      10.936      7.6759      5.6707      4.4417      3.7951      3.5975      3.7953    
  4.4416      5.6702      7.6747      10.935      15.634      21.358      27.309      32.678      45.913      48.100    
  48.102      45.918      41.834      36.253      29.627      22.600      16.077      10.934      7.5460      5.5654    
  4.4197      3.9043      3.9043      4.4196      5.5650      7.5455      10.935      16.079      22.603      29.628    
  36.252      41.830      54.822      56.248      54.827      50.885      45.128      38.159      30.435      22.601    
  15.633      10.420      7.1875      5.3740      4.4037      4.1029      4.4037      5.3739      7.1875      10.421    
  15.634      22.603      30.436      38.158      45.123      50.879      63.168      63.169      59.676      53.672    
  46.289      38.159      29.628      21.358      14.386      9.5076      6.6764      5.1342      4.4251      4.4251    
  5.1342      6.6765      9.5079      14.387      21.358      29.628      38.158      46.287      53.670      59.674    
  69.505      67.303      61.477      53.670      45.123      36.252      27.309      19.062      12.573      8.3857    
  6.0963      4.8964      4.5192      4.8964      6.0963      8.3857      12.573      19.062      27.309      36.252    
  45.123      53.670      61.477      67.303      71.921      67.306      59.677      50.880      41.828      32.676    
  23.777      16.082      10.529      7.2518      5.5135      4.7110      4.7110      5.5135      7.2517      10.529    
  16.082      23.778      32.678      41.830      50.879      59.674      67.303      71.920      59.563      53.402    
  45.912      37.779      29.338      21.193      14.328      9.5121      6.7079      5.1765      4.4716      4.4717    
  5.1765      6.7078      9.5117      14.327      21.193      29.339      37.781      45.913      53.401      59.561    
  63.168      63.169      53.402      46.967      39.532      31.564      23.568      16.403      10.957      7.5313    
  5.6216      4.6004      4.2823      4.6005      5.6217      7.5311      10.956      16.402      23.568      31.565    
  39.534      46.969      53.403      57.985      59.674      57.985      45.912      39.532      32.322      24.817    
  17.784      12.101      8.2618      6.0318      4.7599      4.1820      4.1820      4.7601      6.0320      8.2615    
  12.099      17.782      24.815      32.322      39.536      45.918      50.885      53.672      53.670      50.880    
  37.779      31.564      24.817      18.267      12.731      8.7702      6.3455      4.9090      4.1427      3.9069    
  4.1427      4.9093      6.3461      8.7702      12.730      18.264      24.814      31.564      37.784      42.884    
  46.293      47.500      46.287      42.875      29.338      23.568      17.784      12.731      8.9526      6.5170    
  5.0126      4.1344      3.7431      3.7431      4.1345      5.0132      6.5181      8.9534      12.730      17.781    
  23.565      29.337      34.396      38.163      40.181      40.179      38.158      34.393      21.193      16.403    
  12.101      8.7702      6.5170      5.0495      4.1355      3.6590      3.5135      3.6588      4.1353      5.0498    
  6.5182      8.7717      12.102      16.402      21.190      25.811      29.628      32.136      33.010      32.136    
  29.628      25.813      14.328      10.957      8.2618      6.3455      5.0126      4.1355      3.6334      3.4110    
  3.4109      3.6331      4.1349      5.0121      6.3458      8.2632      10.959      14.329      17.976      21.356    
  23.943      25.341      25.341      23.945      21.358      17.977      9.5121      7.5313      6.0318      4.9090    
  4.1344      3.6590      3.4110      3.3351      3.4112      3.6590      4.1337      4.9076      6.0306      7.5313    
  9.5135      11.899      14.388      16.573      18.064      18.593      18.064      16.573      14.387      11.897    
  6.7079      5.6216      4.7599      4.1427      3.7431      3.5135      3.4109      3.4112      3.5143      3.7439    
  4.1427      4.7587      5.6195      6.7060      8.0186      9.5094      10.984      12.176      12.843      12.842    
  12.174      10.982      9.5079      8.0189      5.1765      4.6004      4.1820      3.9069      3.7431      3.6588    
  3.6331      3.6590      3.7439      3.9084      4.1834      4.6005      5.1747      5.8859      6.6745      7.4843    
  8.2169      8.7340      8.9205      8.7326      8.2154      7.4843      6.6765      5.8885      4.4716      4.2823    
  4.1820      4.1427      4.1345      4.1353      4.1349      4.1337      4.1427      4.1834      4.2846      4.4735    
  4.7612      5.1324      5.5431      5.9310      6.2330      6.3999      6.3999      6.2333      5.9324      5.5454    
  5.1342      4.7612      4.4717      4.6005      4.7601      4.9093      5.0132      5.0498      5.0121      4.9076    
  4.7587      4.6005      4.4735      4.4109      4.4269      4.5116      4.6350      4.7588      4.8483      4.8810    
  4.8493      4.7605      4.6364      4.5116      4.4251      4.4082      5.1765      5.6217      6.0320      6.3461    
  6.5181      6.5182      6.3458      6.0306      5.6195      5.1747      4.7612      4.4269      4.1923      4.0503    
  3.9770      3.9455      3.9353      3.9357      3.9463      3.9770      4.0489      4.1900      4.4251      4.7612    
  6.7078      7.5311      8.2615      8.7702      8.9534      8.7717      8.2632      7.5313      6.7060      5.8859    
  5.1324      4.5116      4.0503      3.7379      3.5456      3.4437      3.4121      3.4435      3.5448      3.7364    
  4.0489      4.5116      5.1342      5.8885      9.5117      10.956      12.099      12.730      12.730      12.102    
  10.959      9.5135      8.0186      6.6745      5.5431      4.6350      3.9770      3.5456      3.2942      3.1804    
  3.1801      3.2935      3.5448      3.9770      4.6364      5.5454      6.6764      8.0187      14.327      16.402    
  17.782      18.264      17.781      16.402      14.329      11.899      9.5094      7.4843      5.9310      4.7588    
  3.9455      3.4437      3.1804      3.0992      3.1801      3.4437      3.9463      4.7603      5.9324      7.4843    
  9.5076      11.896      21.193      23.568      24.815      24.814      23.565      21.190      17.976      14.388    
  10.984      8.2169      6.2330      4.8483      3.9353      3.4121      3.1801      3.1801      3.4124      3.9360    
  4.8490      6.2330      8.2155      10.982      14.386      17.976      29.339      31.565      32.322      31.564    
  29.337      25.811      21.356      16.573      12.176      8.7340      6.3999      4.8810      3.9357      3.4435    
  3.2935      3.4437      3.9360      4.8810      6.3991      8.7326      12.175      16.573      21.358      25.813    
  37.781      39.534      39.536      37.784      34.396      29.628      23.943      18.064      12.843      8.9205    
  6.3999      4.8493      3.9463      3.5448      3.5448      3.9463      4.8490      6.3991      8.9198      12.843    
  18.066      23.945      29.628      34.394      45.913      46.969      45.918      42.884      38.163      32.136    
  25.341      18.593      12.842      8.7326      6.2333      4.7605      3.9770      3.7364      3.9770      4.7603    
  6.2330      8.7326      12.843      18.595      25.343      32.136      38.159      42.877      53.401      53.403    
  50.885      46.293      40.181      33.010      25.341      18.064      12.174      8.2154      5.9324      4.6364    
  4.0489      4.0489      4.6364      5.9324      8.2155      12.175      18.066      25.343      33.010      40.179    
  46.289      50.880      59.561      57.985      53.672      47.500      40.179      32.136      23.945      16.573    
  10.982      7.4843      5.5454      4.5116      4.1900      4.5116      5.5454      7.4843      10.982      16.573    
  23.945      32.136      40.179      47.500      53.672      57.985      63.168      59.674      53.670      46.287    
  38.158      29.628      21.358      14.387      9.5079      6.6765      5.1342      4.4251      4.4251      5.1342    
  6.6764      9.5076      14.386      21.358      29.628      38.159      46.289      53.672      59.676      63.169    
  63.169      57.985      50.880      42.875      34.393      25.813      17.977      11.897      8.0189      5.8885    
  4.7612      4.4082      4.7612      5.8885      8.0187      11.896      17.976      25.813      34.394      42.877    
  50.880      57.985      63.169      65.106      49.467      43.744      36.872      29.338      21.780      15.115    
  10.158      7.0850      5.3451      4.4123      4.1232      4.4124      5.3454      7.0854      10.158      15.115    
  21.779      29.337      36.872      43.745      49.469      53.401      54.822      53.400      43.744      37.714    
  30.793      23.568      16.851      11.493      7.9167      5.8321      4.6318      4.0889      4.0889      4.6319    
  5.8324      7.9170      11.493      16.850      23.566      30.792      37.715      43.747      48.344      50.880    
  50.879      48.340      36.872      30.793      24.183      17.784      12.407      8.5817      6.2415      4.8452    
  4.1019      3.8734      4.1019      4.8455      6.2421      8.5820      12.406      17.782      24.180      30.792    
  36.875      41.834      45.128      46.289      45.123      41.828      29.338      23.568      17.784      12.731    
  8.9526      6.5170      5.0126      4.1344      3.7431      3.7431      4.1345      5.0132      6.5181      8.9534    
  12.730      17.781      23.565      29.337      34.396      38.163      40.181      40.179      38.158      34.393    
  21.780      16.851      12.407      8.9526      6.6148      5.1041      4.1630      3.6723      3.5224      3.6721    
  4.1631      5.1048      6.6164      8.9542      12.407      16.849      21.777      26.520      30.436      33.011    
  33.908      33.010      30.436      26.522      15.115      11.493      8.5817      6.5170      5.1041      4.1740    
  3.6415      3.4057      3.4056      3.6413      4.1737      5.1045      6.5185      8.5839      11.495      15.115    
  19.008      22.599      25.340      26.820      26.821      25.343      22.603      19.011      10.158      7.9167    