FCC Au                                  
   4.05000000000000     
     0.000000    0.500000    0.500000
     0.500000    0.000000    0.500000
     0.500000    0.500000    0.000000
   Au
     1
Direct
  0.000000  0.000000  0.000000
 
   24   24   24
 0.80333597970E+02 0.77316630557E+02 0.69511214854E+02 0.59563120668E+02 0.49466718824E+02
 0.39709395683E+02 0.30159094231E+02 0.21250813706E+02 0.14029159227E+02 0.92259584620E+01
 0.65910519750E+01 0.52435021831E+01 0.48155974886E+01 0.52435021831E+01 0.65910519750E+01
 0.92259584620E+01 0.14029159227E+02 0.21250813706E+02 0.30159094231E+02 0.39709395683E+02
 0.49466718824E+02 0.59563120668E+02 0.69511214854E+02 0.77316630557E+02 0.77316630557E+02
 0.71928940054E+02 0.63175847892E+02 0.53402392784E+02 0.43743815385E+02 0.34244043836E+02
 0.25042503647E+02 0.16993966414E+02 0.11092177078E+02 0.75680905357E+01 0.57187700215E+01
 0.48657443697E+01 0.48657488502E+01 0.57187290176E+01 0.75679311990E+01 0.11092086355E+02
 0.16994593865E+02 0.25044489438E+02 0.34246855579E+02 0.43745175628E+02 0.53399697841E+02
 0.63168921370E+02 0.71921305912E+02 0.77313298025E+02 0.69511214854E+02 0.63175847892E+02
 0.54826712896E+02 0.45912168768E+02 0.36871928013E+02 0.27851472660E+02 0.19514192325E+02
 0.12898608353E+02 0.85903862897E+01 0.62312603183E+01 0.49999316598E+01 0.46117426895E+01
 0.49999389148E+01 0.62311261419E+01 0.85900113785E+01 0.12898387657E+02 0.19515127606E+02
 0.27854174288E+02 0.36875097535E+02 0.45912648760E+02 0.54822148236E+02 0.63167756172E+02
 0.69504798118E+02 0.71921305912E+02 0.59563120668E+02 0.53402392784E+02 0.45912168768E+02
 0.37778944273E+02 0.29337522767E+02 0.21192606428E+02 0.14327828133E+02 0.95121440629E+01
 0.67078872635E+01 0.51764846417E+01 0.44716246453E+01 0.44716594236E+01 0.51765436694E+01
 0.67077932024E+01 0.95117018095E+01 0.14327237739E+02 0.21192597131E+02 0.29338632287E+02
 0.37780561808E+02 0.45912734467E+02 0.53400987881E+02 0.59560750035E+02 0.63167756172E+02
 0.63168921370E+02 0.49466718824E+02 0.43743815385E+02 0.36871928013E+02 0.29337522767E+02
 0.21779823842E+02 0.15115412053E+02 0.10157528308E+02 0.70850425732E+01 0.53451070132E+01
 0.44122801662E+01 0.41232161360E+01 0.44123635252E+01 0.53453538497E+01 0.70853543748E+01
 0.10157525146E+02 0.15114750785E+02 0.21778657725E+02 0.29336567460E+02 0.36871964863E+02
 0.43745039829E+02 0.49468506391E+02 0.53400987881E+02 0.54822148236E+02 0.53399697841E+02
 0.39709395683E+02 0.34244043836E+02 0.27851472660E+02 0.21192606428E+02 0.15115412053E+02
 0.10389653347E+02 0.72957489354E+01 0.54634330828E+01 0.43961064460E+01 0.39170435451E+01
 0.39169984561E+01 0.43961202194E+01 0.54638233359E+01 0.72966561327E+01 0.10390707949E+02
 0.15115815457E+02 0.21191755714E+02 0.27849607861E+02 0.34242162429E+02 0.39708382246E+02
 0.43745039829E+02 0.45912734467E+02 0.45912648760E+02 0.43745175628E+02 0.30159094231E+02
 0.25042503647E+02 0.19514192325E+02 0.14327828133E+02 0.10157528308E+02 0.72957489354E+01
 0.55056493536E+01 0.43949541458E+01 0.38124032395E+01 0.36342353305E+01 0.38121313971E+01
 0.43945839673E+01 0.55056525567E+01 0.72967227898E+01 0.10159587259E+02 0.14330102338E+02
 0.19515117461E+02 0.25040881545E+02 0.30155102789E+02 0.34242162429E+02 0.36871964863E+02
 0.37780561808E+02 0.36875097535E+02 0.34246855579E+02 0.21250813706E+02 0.16993966414E+02
 0.12898608353E+02 0.95121440629E+01 0.70850425732E+01 0.54634330828E+01 0.43949541458E+01
 0.37808303253E+01 0.35089233836E+01 0.35088428869E+01 0.37804134290E+01 0.43940056023E+01
 0.54623576600E+01 0.70849487525E+01 0.95139838219E+01 0.12901938293E+02 0.16996672083E+02
 0.21250553443E+02 0.25040881545E+02 0.27849607861E+02 0.29336567460E+02 0.29338632287E+02
 0.27854174288E+02 0.25044489438E+02 0.14029159227E+02 0.11092177078E+02 0.85903862897E+01
 0.67078872635E+01 0.53451070132E+01 0.43961064460E+01 0.38124032395E+01 0.35089233836E+01
 0.34163974923E+01 0.35092406270E+01 0.38124066086E+01 0.43950560690E+01 0.53430150801E+01
 0.67059828440E+01 0.85903616578E+01 0.11094559914E+02 0.14032499695E+02 0.16996672083E+02
 0.19515117461E+02 0.21191755714E+02 0.21778657725E+02 0.21192597131E+02 0.19515127606E+02
 0.16994593865E+02 0.92259584620E+01 0.75680905357E+01 0.62312603183E+01 0.51764846417E+01
 0.44122801662E+01 0.39170435451E+01 0.36342353305E+01 0.35088428869E+01 0.35092406270E+01
 0.36352778829E+01 0.39181053264E+01 0.44122649954E+01 0.51746386731E+01 0.62281964157E+01
 0.75656934407E+01 0.92259342911E+01 0.11094559914E+02 0.12901938293E+02 0.14330102338E+02
 0.15115815457E+02 0.15114750785E+02 0.14327237739E+02 0.12898387657E+02 0.11092086355E+02
 0.65910519750E+01 0.57187700215E+01 0.49999316598E+01 0.44716246453E+01 0.41232161360E+01
 0.39169984561E+01 0.38121313971E+01 0.37804134290E+01 0.38124066086E+01 0.39181053264E+01
 0.41252377727E+01 0.44734569049E+01 0.49999609030E+01 0.57164249662E+01 0.65876229593E+01
 0.75656934407E+01 0.85903616578E+01 0.95139838219E+01 0.10159587259E+02 0.10390707949E+02
 0.10157525146E+02 0.95117018095E+01 0.85900113785E+01 0.75679311990E+01 0.52435021831E+01
 0.48657443697E+01 0.46117426895E+01 0.44716594236E+01 0.44123635252E+01 0.43961202194E+01
 0.43945839673E+01 0.43940056023E+01 0.43950560690E+01 0.44122649954E+01 0.44734569049E+01
 0.46148108678E+01 0.48681470266E+01 0.52435344833E+01 0.57164249662E+01 0.62281964157E+01
 0.67059828440E+01 0.70849487525E+01 0.72967227898E+01 0.72966561327E+01 0.70853543748E+01
 0.67077932024E+01 0.62311261419E+01 0.57187290176E+01 0.48155974886E+01 0.48657488502E+01
 0.49999389148E+01 0.51765436694E+01 0.53453538497E+01 0.54638233359E+01 0.55056525567E+01
 0.54623576600E+01 0.53430150801E+01 0.51746386731E+01 0.49999609030E+01 0.48681470266E+01
 0.48190783334E+01 0.48681470266E+01 0.49999609030E+01 0.51746386731E+01 0.53430150801E+01
 0.54623576600E+01 0.55056525567E+01 0.54638233359E+01 0.53453538497E+01 0.51765436694E+01
 0.49999389148E+01 0.48657488502E+01 0.52435021831E+01 0.57187290176E+01 0.62311261419E+01
 0.67077932024E+01 0.70853543748E+01 0.72966561327E+01 0.72967227898E+01 0.70849487525E+01
 0.67059828440E+01 0.62281964157E+01 0.57164249662E+01 0.52435344833E+01 0.48681470266E+01
 0.46148108678E+01 0.44734569049E+01 0.44122649954E+01 0.43950560690E+01 0.43940056023E+01
 0.43945839673E+01 0.43961202194E+01 0.44123635252E+01 0.44716594236E+01 0.46117426895E+01
 0.48657443697E+01 0.65910519750E+01 0.75679311990E+01 0.85900113785E+01 0.95117018095E+01
 0.10157525146E+02 0.10390707949E+02 0.10159587259E+02 0.95139838219E+01 0.85903616578E+01
 0.75656934407E+01 0.65876229593E+01 0.57164249662E+01 0.49999609030E+01 0.44734569049E+01
 0.41252377727E+01 0.39181053264E+01 0.38124066086E+01 0.37804134290E+01 0.38121313971E+01
 0.39169984561E+01 0.41232161360E+01 0.44716246453E+01 0.49999316598E+01 0.57187700215E+01
 0.92259584620E+01 0.11092086355E+02 0.12898387657E+02 0.14327237739E+02 0.15114750785E+02
 0.15115815457E+02 0.14330102338E+02 0.12901938293E+02 0.11094559914E+02 0.92259342911E+01
 0.75656934407E+01 0.62281964157E+01 0.51746386731E+01 0.44122649954E+01 0.39181053264E+01
 0.36352778829E+01 0.35092406270E+01 0.35088428869E+01 0.36342353305E+01 0.39170435451E+01
 0.44122801662E+01 0.51764846417E+01 0.62312603183E+01 0.75680905357E+01 0.14029159227E+02
 0.16994593865E+02 0.19515127606E+02 0.21192597131E+02 0.21778657725E+02 0.21191755714E+02
 0.19515117461E+02 0.16996672083E+02 0.14032499695E+02 0.11094559914E+02 0.85903616578E+01
 0.67059828440E+01 0.53430150801E+01 0.43950560690E+01 0.38124066086E+01 0.35092406270E+01
 0.34163974923E+01 0.35089233836E+01 0.38124032395E+01 0.43961064460E+01 0.53451070132E+01
 0.67078872635E+01 0.85903862897E+01 0.11092177078E+02 0.21250813706E+02 0.25044489438E+02
 0.27854174288E+02 0.29338632287E+02 0.29336567460E+02 0.27849607861E+02 0.25040881545E+02
 0.21250553443E+02 0.16996672083E+02 0.12901938293E+02 0.95139838219E+01 0.70849487525E+01
 0.54623576600E+01 0.43940056023E+01 0.37804134290E+01 0.35088428869E+01 0.35089233836E+01
 0.37808303253E+01 0.43949541458E+01 0.54634330828E+01 0.70850425732E+01 0.95121440629E+01
 0.12898608353E+02 0.16993966414E+02 0.30159094231E+02 0.34246855579E+02 0.36875097535E+02
 0.37780561808E+02 0.36871964863E+02 0.34242162429E+02 0.30155102789E+02 0.25040881545E+02
 0.19515117461E+02 0.14330102338E+02 0.10159587259E+02 0.72967227898E+01 0.55056525567E+01
 0.43945839673E+01 0.38121313971E+01 0.36342353305E+01 0.38124032395E+01 0.43949541458E+01
 0.55056493536E+01 0.72957489354E+01 0.10157528308E+02 0.14327828133E+02 0.19514192325E+02
 0.25042503647E+02 0.39709395683E+02 0.43745175628E+02 0.45912648760E+02 0.45912734467E+02
 0.43745039829E+02 0.39708382246E+02 0.34242162429E+02 0.27849607861E+02 0.21191755714E+02
 0.15115815457E+02 0.10390707949E+02 0.72966561327E+01 0.54638233359E+01 0.43961202194E+01
 0.39169984561E+01 0.39170435451E+01 0.43961064460E+01 0.54634330828E+01 0.72957489354E+01
 0.10389653347E+02 0.15115412053E+02 0.21192606428E+02 0.27851472660E+02 0.34244043836E+02
 0.49466718824E+02 0.53399697841E+02 0.54822148236E+02 0.53400987881E+02 0.49468506391E+02
 0.43745039829E+02 0.36871964863E+02 0.29336567460E+02 0.21778657725E+02 0.15114750785E+02
 0.10157525146E+02 0.70853543748E+01 0.53453538497E+01 0.44123635252E+01 0.41232161360E+01
 0.44122801662E+01 0.53451070132E+01 0.70850425732E+01 0.10157528308E+02 0.15115412053E+02
 0.21779823842E+02 0.29337522767E+02 0.36871928013E+02 0.43743815385E+02 0.59563120668E+02
 0.63168921370E+02 0.63167756172E+02 0.59560750035E+02 0.53400987881E+02 0.45912734467E+02
 0.37780561808E+02 0.29338632287E+02 0.21192597131E+02 0.14327237739E+02 0.95117018095E+01
 0.67077932024E+01 0.51765436694E+01 0.44716594236E+01 0.44716246453E+01 0.51764846417E+01
 0.67078872635E+01 0.95121440629E+01 0.14327828133E+02 0.21192606428E+02 0.29337522767E+02
 0.37778944273E+02 0.45912168768E+02 0.53402392784E+02 0.69511214854E+02 0.71921305912E+02
 0.69504798118E+02 0.63167756172E+02 0.54822148236E+02 0.45912648760E+02 0.36875097535E+02
 0.27854174288E+02 0.19515127606E+02 0.12898387657E+02 0.85900113785E+01 0.62311261419E+01
 0.49999389148E+01 0.46117426895E+01 0.49999316598E+01 0.62312603183E+01 0.85903862897E+01
 0.12898608353E+02 0.19514192325E+02 0.27851472660E+02 0.36871928013E+02 0.45912168768E+02
 0.54826712896E+02 0.63175847892E+02 0.77316630557E+02 0.77313298025E+02 0.71921305912E+02
 0.63168921370E+02 0.53399697841E+02 0.43745175628E+02 0.34246855579E+02 0.25044489438E+02
 0.16994593865E+02 0.11092086355E+02 0.75679311990E+01 0.57187290176E+01 0.48657488502E+01
 0.48657443697E+01 0.57187700215E+01 0.75680905357E+01 0.11092177078E+02 0.16993966414E+02
 0.25042503647E+02 0.34244043836E+02 0.43743815385E+02 0.53402392784E+02 0.63175847892E+02
 0.71928940054E+02 0.77316630557E+02 0.71928940054E+02 0.63175847892E+02 0.53402392784E+02
 0.43743815385E+02 0.34244043836E+02 0.25042503647E+02 0.16993966414E+02 0.11092177078E+02
 0.75680905357E+01 0.57187700215E+01 0.48657443697E+01 0.48657488502E+01 0.57187290176E+01
 0.75679311990E+01 0.11092086355E+02 0.16994593865E+02 0.25044489438E+02 0.34246855579E+02
 0.43745175628E+02 0.53399697841E+02 0.63168921370E+02 0.71921305912E+02 0.77313298025E+02
 0.71928940054E+02 0.65118041588E+02 0.56254225443E+02 0.46967285650E+02 0.37713813679E+02
 0.28545961759E+02 0.20046927988E+02 0.13252311122E+02 0.87941599374E+01 0.63514666616E+01
 0.50839146216E+01 0.46832755953E+01 0.50839092711E+01 0.63512898409E+01 0.87937688688E+01
 0.13252321188E+02 0.20048614963E+02 0.28549868262E+02 0.37717886545E+02 0.46967209103E+02
 0.56247079370E+02 0.65106251370E+02 0.71919793809E+02 0.74533818460E+02 0.63175847892E+02
 0.56254225443E+02 0.48100469054E+02 0.39532183296E+02 0.30792632676E+02 0.22343897808E+02
 0.15131028524E+02 0.99936017456E+01 0.69786573613E+01 0.53543283166E+01 0.46043834013E+01
 0.46044063639E+01 0.53542979115E+01 0.69783275035E+01 0.99929375718E+01 0.15130763563E+02
 0.22345289827E+02 0.30795886927E+02 0.39535091555E+02 0.48099609846E+02 0.56248470065E+02
 0.63168529736E+02 0.67302894468E+02 0.67306239760E+02 0.53402392784E+02 0.46967285650E+02
 0.39532183296E+02 0.31563994542E+02 0.23568162181E+02 0.16402610577E+02 0.10956792617E+02
 0.75313493494E+01 0.56216305233E+01 0.46004031496E+01 0.42822981121E+01 0.46004764262E+01
 0.56216946821E+01 0.75311186452E+01 0.10956003072E+02 0.16401550418E+02 0.23567724882E+02
 0.31564863282E+02 0.39533990607E+02 0.46968879844E+02 0.53403020903E+02 0.57984690242E+02
 0.59674274450E+02 0.57984720965E+02 0.43743815385E+02 0.37713813679E+02 0.30792632676E+02
 0.23568162181E+02 0.16851141748E+02 0.11493378989E+02 0.79167173695E+01 0.58320640706E+01
 0.46318034185E+01 0.40889085205E+01 0.40889204589E+01 0.46319386107E+01 0.58324188181E+01
 0.79170379920E+01 0.11493075706E+02 0.16849846134E+02 0.23566369998E+02 0.30791676581E+02
 0.37714907849E+02 0.43746866610E+02 0.48343501411E+02 0.50880371113E+02 0.50878932814E+02
 0.48340173172E+02 0.34244043836E+02 0.28545961759E+02 0.22343897808E+02 0.16402610577E+02
 0.11493378989E+02 0.80553843952E+01 0.59468622858E+01 0.46643687342E+01 0.39860475638E+01
 0.37779997869E+01 0.39859165112E+01 0.46643809951E+01 0.59473644956E+01 0.80563944648E+01
 0.11494311051E+02 0.16402605991E+02 0.22342664488E+02 0.28544239929E+02 0.34242998291E+02
 0.38831796405E+02 0.41830030471E+02 0.42876783699E+02 0.41829543898E+02 0.38831733036E+02
 0.25042503647E+02 0.20046927988E+02 0.15131028524E+02 0.10956792617E+02 0.79167173695E+01
 0.59468622858E+01 0.46774129893E+01 0.39427337544E+01 0.36168062010E+01 0.36166590115E+01
 0.39422979045E+01 0.46768804061E+01 0.59467965855E+01 0.79177328619E+01 0.10958846350E+02
 0.15133085297E+02 0.20047529283E+02 0.25040872492E+02 0.29432493715E+02 0.32674405487E+02
 0.34392559668E+02 0.34393858115E+02 0.32677564129E+02 0.29435746050E+02 0.16993966414E+02
 0.13252311122E+02 0.99936017456E+01 0.75313493494E+01 0.58320640706E+01 0.46643687342E+01
 0.39427337544E+01 0.35676023929E+01 0.34531656666E+01 0.35675299324E+01 0.39421778682E+01
 0.46631151328E+01 0.58307039175E+01 0.75311281568E+01 0.99953573787E+01 0.13255386998E+02
 0.16996365195E+02 0.20688722731E+02 0.23775420678E+02 0.25810852572E+02 0.26520718521E+02
 0.25812960258E+02 0.23777549923E+02 0.20688714490E+02 0.11092177078E+02 0.87941599374E+01
 0.69786573613E+01 0.56216305233E+01 0.46318034185E+01 0.39860475638E+01 0.36168062010E+01
 0.34531656666E+01 0.34534627711E+01 0.36173690942E+01 0.39860518870E+01 0.46305083757E+01
 0.56192183407E+01 0.69765155414E+01 0.87939462653E+01 0.11094330737E+02 0.13653222988E+02
 0.16084556482E+02 0.17977419694E+02 0.19009651154E+02 0.19009343680E+02 0.17976126516E+02
 0.16081893727E+02 0.13649941820E+02 0.75680905357E+01 0.63514666616E+01 0.53543283166E+01
 0.46004031496E+01 0.40889085205E+01 0.37779997869E+01 0.36166590115E+01 0.35675299324E+01
 0.36173690942E+01 0.37793158879E+01 0.40901556536E+01 0.46003820364E+01 0.53523177192E+01
 0.63482272158E+01 0.75656037274E+01 0.90051698687E+01 0.10531736642E+02 0.11899741702E+02
 0.12848274764E+02 0.13186491377E+02 0.12845779857E+02 0.11896161791E+02 0.10529180896E+02
 0.90051882073E+01 0.57187700215E+01 0.50839146216E+01 0.46043834013E+01 0.42822981121E+01
 0.40889204589E+01 0.39859165112E+01 0.39422979045E+01 0.39421778682E+01 0.39860518870E+01
 0.40901556536E+01 0.42845946398E+01 0.46063811381E+01 0.50839308339E+01 0.57163948524E+01
 0.64591837598E+01 0.72496594982E+01 0.80189853318E+01 0.86436139688E+01 0.89949471617E+01
 0.89940814788E+01 0.86420216626E+01 0.80186845882E+01 0.72516745223E+01 0.64624832940E+01
 0.48657443697E+01 0.46832755953E+01 0.46044063639E+01 0.46004764262E+01 0.46319386107E+01
 0.46643809951E+01 0.46768804061E+01 0.46631151328E+01 0.46305083757E+01 0.46003820364E+01
 0.46063811381E+01 0.46864572967E+01 0.48681204043E+01 0.51532540571E+01 0.55113313320E+01
 0.58858649735E+01 0.62112612247E+01 0.64329839492E+01 0.65122519644E+01 0.64336494253E+01
 0.62130291731E+01 0.58885222989E+01 0.55134579790E+01 0.51532356775E+01 0.48657488502E+01
 0.50839092711E+01 0.53542979115E+01 0.56216946821E+01 0.58324188181E+01 0.59473644956E+01
 0.59467965855E+01 0.58307039175E+01 0.56192183407E+01 0.53523177192E+01 0.50839308339E+01
 0.48681204043E+01 0.47418659147E+01 0.47132067958E+01 0.47611909522E+01 0.48471356443E+01
 0.49303487902E+01 0.49801970838E+01 0.49809756567E+01 0.49322132003E+01 0.48488082166E+01
 0.47612034341E+01 0.47110068598E+01 0.47385410822E+01 0.57187290176E+01 0.63512898409E+01
 0.69783275035E+01 0.75311186452E+01 0.79170379920E+01 0.80563944648E+01 0.79177328619E+01
 0.75311281568E+01 0.69765155414E+01 0.63482272158E+01 0.57163948524E+01 0.51532540571E+01
 0.47132067958E+01 0.44109298228E+01 0.42281370853E+01 0.41310376370E+01 0.40872757143E+01
 0.40754329051E+01 0.40878093588E+01 0.41310449495E+01 0.42266386475E+01 0.44082418431E+01
 0.47110020467E+01 0.51532356775E+01 0.75679311990E+01 0.87937688688E+01 0.99929375718E+01
 0.10956003072E+02 0.11493075706E+02 0.11494311051E+02 0.10958846350E+02 0.99953573787E+01
 0.87939462653E+01 0.75656037274E+01 0.64591837598E+01 0.55113313320E+01 0.47611909522E+01
 0.42281370853E+01 0.38861274245E+01 0.36912340503E+01 0.36045498325E+01 0.36043084909E+01
 0.36903234548E+01 0.38844951497E+01 0.42266080661E+01 0.47611727975E+01 0.55134857150E+01
 0.64624832940E+01 0.11092086355E+02 0.13252321188E+02 0.15130763563E+02 0.16401550418E+02
 0.16849846134E+02 0.16402605991E+02 0.15133085297E+02 0.13255386998E+02 0.11094330737E+02
 0.90051698687E+01 0.72496594982E+01 0.58858649735E+01 0.48471356443E+01 0.41310376370E+01
 0.36912340503E+01 0.34613099908E+01 0.33905095910E+01 0.34606560148E+01 0.36904353457E+01
 0.41310356402E+01 0.48486749120E+01 0.58885455288E+01 0.72518255655E+01 0.90051882073E+01
 0.16994593865E+02 0.20048614963E+02 0.22345289827E+02 0.23567724882E+02 0.23566369998E+02
 0.22342664488E+02 0.20047529283E+02 0.16996365195E+02 0.13653222988E+02 0.10531736642E+02
 0.80189853318E+01 0.62112612247E+01 0.49303487902E+01 0.40872757143E+01 0.36045498325E+01
 0.33905095910E+01 0.33904152373E+01 0.36045760152E+01 0.40880292308E+01 0.49319615258E+01
 0.62128133599E+01 0.80189469057E+01 0.10529431224E+02 0.13649941820E+02 0.25044489438E+02
 0.28549868262E+02 0.30795886927E+02 0.31564863282E+02 0.30791676581E+02 0.28544239929E+02
 0.25040872492E+02 0.20688722731E+02 0.16084556482E+02 0.11899741702E+02 0.86436139688E+01
 0.64329839492E+01 0.49801970838E+01 0.40754329051E+01 0.36043084909E+01 0.34606560148E+01
 0.36045760152E+01 0.40760628776E+01 0.49809302422E+01 0.64329792023E+01 0.86420164091E+01
 0.11896749547E+02 0.16081899889E+02 0.20688714490E+02 0.34246855579E+02 0.37717886545E+02
 0.39535091555E+02 0.39533990607E+02 0.37714907849E+02 0.34242998291E+02 0.29432493715E+02
 0.23775420678E+02 0.17977419694E+02 0.12848274764E+02 0.89949471617E+01 0.65122519644E+01
 0.49809756567E+01 0.40878093588E+01 0.36903234548E+01 0.36904353457E+01 0.40880292308E+01
 0.49809302422E+01 0.65114467738E+01 0.89932642655E+01 0.12846431152E+02 0.17976719962E+02
 0.23776806250E+02 0.29435746050E+02 0.43745175628E+02 0.46967209103E+02 0.48099609846E+02
 0.46968879844E+02 0.43746866610E+02 0.38831796405E+02 0.32674405487E+02 0.25810852572E+02
 0.19009651154E+02 0.13186491377E+02 0.89940814788E+01 0.64336494253E+01 0.49322132003E+01
 0.41310449495E+01 0.38844951497E+01 0.41310356402E+01 0.49319615258E+01 0.64329792023E+01
 0.89932642655E+01 0.13186299162E+02 0.19010747287E+02 0.25812928643E+02 0.32676078683E+02
 0.38831733036E+02 0.53399697841E+02 0.56247079370E+02 0.56248470065E+02 0.53403020903E+02
 0.48343501411E+02 0.41830030471E+02 0.34392559668E+02 0.26520718521E+02 0.19009343680E+02
 0.12845779857E+02 0.86420216626E+01 0.62130291731E+01 0.48488082166E+01 0.42266386475E+01
 0.42266080661E+01 0.48486749120E+01 0.62128133599E+01 0.86420164091E+01 0.12846431152E+02
 0.19010747287E+02 0.26522199459E+02 0.34392896095E+02 0.41828350237E+02 0.48340173172E+02
 0.63168921370E+02 0.65106251370E+02 0.63168529736E+02 0.57984690242E+02 0.50880371113E+02
 0.42876783699E+02 0.34393858115E+02 0.25812960258E+02 0.17976126516E+02 0.11896161791E+02
 0.80186845882E+01 0.58885222989E+01 0.47612034341E+01 0.44082418431E+01 0.47611727975E+01
 0.58885455288E+01 0.80189469057E+01 0.11896749547E+02 0.17976719962E+02 0.25812928643E+02
 0.34392896095E+02 0.42875401211E+02 0.50879500235E+02 0.57984720965E+02 0.71921305912E+02
 0.71919793809E+02 0.67302894468E+02 0.59674274450E+02 0.50878932814E+02 0.41829543898E+02
 0.32677564129E+02 0.23777549923E+02 0.16081893727E+02 0.10529180896E+02 0.72516745223E+01
 0.55134579790E+01 0.47110068598E+01 0.47110020467E+01 0.55134857150E+01 0.72518255655E+01
 0.10529431224E+02 0.16081899889E+02 0.23776806250E+02 0.32676078683E+02 0.41828350237E+02
 0.50879500235E+02 0.59677001276E+02 0.67306239760E+02 0.77313298025E+02 0.74533818460E+02
 0.67306239760E+02 0.57984720965E+02 0.48340173172E+02 0.38831733036E+02 0.29435746050E+02
 0.20688714490E+02 0.13649941820E+02 0.90051882073E+01 0.64624832940E+01 0.51532356775E+01
 0.47385410822E+01 0.51532356775E+01 0.64624832940E+01 0.90051882073E+01 0.13649941820E+02
 0.20688714490E+02 0.29435746050E+02 0.38831733036E+02 0.48340173172E+02 0.57984720965E+02
 0.67306239760E+02 0.74533818460E+02 0.69511214854E+02 0.63175847892E+02 0.54826712896E+02
 0.45912168768E+02 0.36871928013E+02 0.27851472660E+02 0.19514192325E+02 0.12898608353E+02
 0.85903862897E+01 0.62312603183E+01 0.49999316598E+01 0.46117426895E+01 0.49999389148E+01
 0.62311261419E+01 0.85900113785E+01 0.12898387657E+02 0.19515127606E+02 0.27854174288E+02
 0.36875097535E+02 0.45912648760E+02 0.54822148236E+02 0.63167756172E+02 0.69504798118E+02
 0.71921305912E+02 0.63175847892E+02 0.56254225443E+02 0.48100469054E+02 0.39532183296E+02
 0.30792632676E+02 0.22343897808E+02 0.15131028524E+02 0.99936017456E+01 0.69786573613E+01
 0.53543283166E+01 0.46043834013E+01 0.46044063639E+01 0.53542979115E+01 0.69783275035E+01
 0.99929375718E+01 0.15130763563E+02 0.22345289827E+02 0.30795886927E+02 0.39535091555E+02
 0.48099609846E+02 0.56248470065E+02 0.63168529736E+02 0.67302894468E+02 0.67306239760E+02
 0.54826712896E+02 0.48100469054E+02 0.40444062477E+02 0.32321587029E+02 0.24182669368E+02
 0.16852663068E+02 0.11240898194E+02 0.76905571737E+01 0.57189417061E+01 0.46666646051E+01
 0.43382466187E+01 0.46667175892E+01 0.57188984547E+01 0.76900716899E+01 0.11239793729E+02
 0.16851523056E+02 0.24182678353E+02 0.32323335643E+02 0.40446609610E+02 0.48102068047E+02
 0.54826628467E+02 0.59676250111E+02 0.61476874791E+02 0.59677001276E+02 0.45912168768E+02
 0.39532183296E+02 0.32321587029E+02 0.24817174842E+02 0.17784331638E+02 0.12100827778E+02
 0.82618329257E+01 0.60318088083E+01 0.47599452747E+01 0.41819659568E+01 0.41820002966E+01
 0.47600898864E+01 0.60319739835E+01 0.82615258845E+01 0.12099437647E+02 0.17781943616E+02
 0.24815087322E+02 0.32321744078E+02 0.39535707937E+02 0.45918149628E+02 0.50885160030E+02
 0.53672129335E+02 0.53669810493E+02 0.50879500235E+02 0.36871928013E+02 0.30792632676E+02
 0.24182669368E+02 0.17784331638E+02 0.12407246877E+02 0.85816826604E+01 0.62415371982E+01
 0.48452116674E+01 0.41019208464E+01 0.38733970778E+01 0.41019336149E+01 0.48454753106E+01
 0.62421216315E+01 0.85820483690E+01 0.12406406544E+02 0.17781880111E+02 0.24179849753E+02
 0.30791976067E+02 0.36875126923E+02 0.41834164604E+02 0.45127573642E+02 0.46288789500E+02
 0.45122967114E+02 0.41828350237E+02 0.27851472660E+02 0.22343897808E+02 0.16852663068E+02
 0.12100827778E+02 0.85816826604E+01 0.63155896197E+01 0.48945612779E+01 0.40669524792E+01
 0.36988538885E+01 0.36987486377E+01 0.40667687188E+01 0.48946637725E+01 0.63163117948E+01
 0.85828078142E+01 0.12101439838E+02 0.16851917627E+02 0.22342090374E+02 0.27850025290E+02
 0.32676132175E+02 0.36252687639E+02 0.38159387807E+02 0.38158730015E+02 0.36251562902E+02
 0.32676078683E+02 0.19514192325E+02 0.15131028524E+02 0.11240898194E+02 0.82618329257E+01
 0.62415371982E+01 0.48945612779E+01 0.40574298384E+01 0.36217033846E+01 0.34886893300E+01
 0.36214647596E+01 0.40568909140E+01 0.48939712287E+01 0.62415426750E+01 0.82629209988E+01
 0.11242729223E+02 0.15132478341E+02 0.19514192303E+02 0.23775212874E+02 0.27306296498E+02
 0.29626561186E+02 0.30434779474E+02 0.29628164882E+02 0.27308567736E+02 0.23776806250E+02
 0.12898608353E+02 0.99936017456E+01 0.76905571737E+01 0.60318088083E+01 0.48452116674E+01
 0.40669524792E+01 0.36217033846E+01 0.34244183825E+01 0.34245101361E+01 0.36216914211E+01
 0.40662954506E+01 0.48438059358E+01 0.60303981839E+01 0.76903186106E+01 0.99950963507E+01
 0.12901075358E+02 0.16083762291E+02 0.19062625360E+02 0.21356691837E+02 0.22600316075E+02
 0.22600833817E+02 0.21357511499E+02 0.19062356919E+02 0.16081899889E+02 0.85903862897E+01
 0.69786573613E+01 0.57189417061E+01 0.47599452747E+01 0.41019208464E+01 0.36988538885E+01
 0.34886893300E+01 0.34245101361E+01 0.34892941387E+01 0.36995768317E+01 0.41019198950E+01
 0.47585720397E+01 0.57164957031E+01 0.69765030165E+01 0.85900063923E+01 0.10531209425E+02
 0.12576462414E+02 0.14388877525E+02 0.15634469653E+02 0.16077200103E+02 0.15632965771E+02
 0.14386170177E+02 0.12573498186E+02 0.10529431224E+02 0.62312603183E+01 0.53543283166E+01
 0.46666646051E+01 0.41819659568E+01 0.38733970778E+01 0.36987486377E+01 0.36214647596E+01
 0.36216914211E+01 0.36995768317E+01 0.38748534230E+01 0.41833286532E+01 0.46666831498E+01
 0.53523514378E+01 0.62281321092E+01 0.72494825290E+01 0.83856959940E+01 0.95098346028E+01
 0.10423175169E+02 0.10935715735E+02 0.10934498717E+02 0.10420425182E+02 0.95076077943E+01
 0.83857045218E+01 0.72518255655E+01 0.49999316598E+01 0.46043834013E+01 0.43382466187E+01
 0.41820002966E+01 0.41019336149E+01 0.40667687188E+01 0.40568909140E+01 0.40662954506E+01
 0.41019198950E+01 0.41833286532E+01 0.43406620046E+01 0.46063835027E+01 0.49999297287E+01
 0.55112814269E+01 0.60934099367E+01 0.66746284291E+01 0.71875110523E+01 0.75466221945E+01
 0.76758730272E+01 0.75459567828E+01 0.71875082199E+01 0.66763657822E+01 0.60963210680E+01
 0.55134857150E+01 0.46117426895E+01 0.46044063639E+01 0.46667175892E+01 0.47600898864E+01
 0.48454753106E+01 0.48946637725E+01 0.48939712287E+01 0.48438059358E+01 0.47585720397E+01
 0.46666831498E+01 0.46063835027E+01 0.46147576021E+01 0.47131511498E+01 0.48964321300E+01
 0.51323564240E+01 0.53717140020E+01 0.55638889368E+01 0.56702163458E+01 0.56707161939E+01
 0.55654192971E+01 0.53739586437E+01 0.51341761634E+01 0.48964329868E+01 0.47110020467E+01
 0.49999389148E+01 0.53542979115E+01 0.57188984547E+01 0.60319739835E+01 0.62421216315E+01
 0.63163117948E+01 0.62415426750E+01 0.60303981839E+01 0.57164957031E+01 0.53523514378E+01
 0.49999297287E+01 0.47131511498E+01 0.45221302127E+01 0.44269461877E+01 0.44037049512E+01
 0.44184071298E+01 0.44405269862E+01 0.44505508267E+01 0.44416540509E+01 0.44196659631E+01
 0.44037442749E+01 0.44251160508E+01 0.45192278628E+01 0.47110068598E+01 0.62311261419E+01
 0.69783275035E+01 0.76900716899E+01 0.82615258845E+01 0.85820483690E+01 0.85828078142E+01
 0.82629209988E+01 0.76903186106E+01 0.69765030165E+01 0.62281321092E+01 0.55112814269E+01
 0.48964321300E+01 0.44269461877E+01 0.41049958276E+01 0.39054698848E+01 0.37952639164E+01
 0.37474678515E+01 0.37475810146E+01 0.37951370559E+01 0.39043155226E+01 0.41028645694E+01
 0.44251118669E+01 0.48964329868E+01 0.55134579790E+01 0.85900113785E+01 0.99929375718E+01
 0.11239793729E+02 0.12099437647E+02 0.12406406544E+02 0.12101439838E+02 0.11242729223E+02
 0.99950963507E+01 0.85900063923E+01 0.72494825290E+01 0.60934099367E+01 0.51323564240E+01
 0.44037049512E+01 0.39054698848E+01 0.35986390495E+01 0.34369762655E+01 0.33868874645E+01
 0.34363545499E+01 0.35974535146E+01 0.39043205528E+01 0.44037083923E+01 0.51341773890E+01
 0.60963210680E+01 0.72516745223E+01 0.12898387657E+02 0.15130763563E+02 0.16851523056E+02
 0.17781943616E+02 0.17781880111E+02 0.16851917627E+02 0.15132478341E+02 0.12901075358E+02
 0.10531209425E+02 0.83856959940E+01 0.66746284291E+01 0.53717140020E+01 0.44184071298E+01
 0.37952639164E+01 0.34369762655E+01 0.32769483459E+01 0.32766867312E+01 0.34364765963E+01
 0.37952585125E+01 0.44195683955E+01 0.53738595591E+01 0.66764514294E+01 0.83857045218E+01
 0.10529180896E+02 0.19515127606E+02 0.22345289827E+02 0.24182678353E+02 0.24815087322E+02
 0.24179849753E+02 0.22342090374E+02 0.19514192303E+02 0.16083762291E+02 0.12576462414E+02
 0.95098346028E+01 0.71875110523E+01 0.55638889368E+01 0.44405269862E+01 0.37474678515E+01
 0.33868874645E+01 0.32766867312E+01 0.33869413034E+01 0.37479585325E+01 0.44416425742E+01
 0.55650414068E+01 0.71875018703E+01 0.95079338277E+01 0.12573498186E+02 0.16081893727E+02
 0.27854174288E+02 0.30795886927E+02 0.32323335643E+02 0.32321744078E+02 0.30791976067E+02
 0.27850025290E+02 0.23775212874E+02 0.19062625360E+02 0.14388877525E+02 0.10423175169E+02
 0.75466221945E+01 0.56702163458E+01 0.44505508267E+01 0.37475810146E+01 0.34363545499E+01
 0.34364765963E+01 0.37479585325E+01 0.44510123321E+01 0.56701812692E+01 0.75454511463E+01
 0.10420962678E+02 0.14386819185E+02 0.19062356919E+02 0.23777549923E+02 0.36875097535E+02
 0.39535091555E+02 0.40446609610E+02 0.39535707937E+02 0.36875126923E+02 0.32676132175E+02
 0.27306296498E+02 0.21356691837E+02 0.15634469653E+02 0.10935715735E+02 0.76758730272E+01
 0.56707161939E+01 0.44416540509E+01 0.37951370559E+01 0.35974535146E+01 0.37952585125E+01
 0.44416425742E+01 0.56701812692E+01 0.76747196209E+01 0.10934587944E+02 0.15634462045E+02
 0.21358268763E+02 0.27308567736E+02 0.32677564129E+02 0.45912648760E+02 0.48099609846E+02
 0.48102068047E+02 0.45918149628E+02 0.41834164604E+02 0.36252687639E+02 0.29626561186E+02
 0.22600316075E+02 0.16077200103E+02 0.10934498717E+02 0.75459567828E+01 0.55654192971E+01
 0.44196659631E+01 0.39043155226E+01 0.39043205528E+01 0.44195683955E+01 0.55650414068E+01
 0.75454511463E+01 0.10934587944E+02 0.16078692094E+02 0.22602968550E+02 0.29628494544E+02