   1   1   0   0
  0.1660753E+02  0.2863783E-09  0.2863783E-09  0.2863783E-09  0.5000000E-15
  1.000000000000000E-004
  CAR 
 FCC Au                                  
     37.89461917     -6.22891190  301      5.87305097      1.00000000
     -6.229  0.0000E+00  0.0000E+00
     -6.082  0.0000E+00  0.0000E+00
     -5.935 -0.1035E-32 -0.1523E-33
     -5.788 -0.1611E-27 -0.2370E-28
     -5.641 -0.8427E-23 -0.1239E-23
     -5.494 -0.1478E-18 -0.2174E-19
     -5.346 -0.8402E-15 -0.1236E-15
     -5.199 -0.1626E-11 -0.2392E-12
     -5.052 -0.1035E-08 -0.1525E-09
     -4.905 -0.2135E-06 -0.3156E-07
     -4.758 -0.1378E-04 -0.2059E-05
     -4.611 -0.2535E-03 -0.3934E-04
     -4.464 -0.8507E-03 -0.1645E-03
     -4.317  0.3423E-02  0.3390E-03
     -4.170  0.1554E-01  0.2625E-02
     -4.023  0.3576E-01  0.7884E-02
     -3.876  0.5257E-01  0.1562E-01
     -3.729  0.5298E-01  0.2341E-01
     -3.582  0.5903E-01  0.3209E-01
     -3.434  0.7933E-01  0.4376E-01
     -3.287  0.1058E+00  0.5931E-01
     -3.140  0.8930E-01  0.7245E-01
     -2.993  0.6483E-01  0.8198E-01
     -2.846  0.1170E+00  0.9919E-01
     -2.699  0.1714E+00  0.1244E+00
     -2.552  0.1363E+00  0.1444E+00
     -2.405  0.1065E+00  0.1601E+00
     -2.258  0.1797E+00  0.1865E+00
     -2.111  0.1935E+00  0.2150E+00
     -1.964  0.1936E+00  0.2435E+00
     -1.817  0.2878E+00  0.2858E+00
     -1.669  0.4597E+00  0.3534E+00
     -1.522  0.5848E+00  0.4394E+00
     -1.375  0.6659E+00  0.5374E+00
     -1.228  0.9962E+00  0.6839E+00
     -1.081  0.1244E+01  0.8668E+00
     -0.934  0.1564E+01  0.1097E+01
     -0.787  0.1756E+01  0.1355E+01
     -0.640  0.1767E+01  0.1615E+01
     -0.493  0.1690E+01  0.1864E+01
     -0.346  0.1474E+01  0.2080E+01
     -0.199  0.1524E+01  0.2304E+01
     -0.052  0.1224E+01  0.2484E+01
      0.095  0.1136E+01  0.2651E+01
      0.243  0.1589E+01  0.2885E+01
      0.390  0.1771E+01  0.3146E+01
      0.537  0.1830E+01  0.3415E+01
      0.684  0.1730E+01  0.3669E+01
      0.831  0.1984E+01  0.3961E+01
      0.978  0.2147E+01  0.4277E+01
      1.125  0.2119E+01  0.4588E+01
      1.272  0.2527E+01  0.4960E+01
      1.419  0.3137E+01  0.5421E+01
      1.566  0.2617E+01  0.5806E+01
      1.713  0.1782E+01  0.6068E+01
      1.860  0.1394E+01  0.6273E+01
      2.007  0.1504E+01  0.6495E+01
      2.155  0.1588E+01  0.6728E+01
      2.302  0.1791E+01  0.6992E+01
      2.449  0.2135E+01  0.7306E+01
      2.596  0.1905E+01  0.7586E+01
      2.743  0.1616E+01  0.7824E+01
      2.890  0.1946E+01  0.8110E+01
      3.037  0.1624E+01  0.8349E+01
      3.184  0.1258E+01  0.8534E+01
      3.331  0.1676E+01  0.8780E+01
      3.478  0.1575E+01  0.9012E+01
      3.625  0.1786E+01  0.9274E+01
      3.772  0.2427E+01  0.9631E+01
      3.920  0.2492E+01  0.9998E+01
      4.067  0.1974E+01  0.1029E+02
      4.214  0.1298E+01  0.1048E+02
      4.361  0.8170E+00  0.1060E+02
      4.508  0.2313E+00  0.1063E+02
      4.655  0.1589E-01  0.1064E+02
      4.802  0.1489E+00  0.1066E+02
      4.949  0.4316E+00  0.1072E+02
      5.096  0.4355E+00  0.1079E+02
      5.243  0.2573E+00  0.1082E+02
      5.390  0.1439E+00  0.1084E+02
      5.537  0.2633E+00  0.1088E+02
      5.684  0.4267E+00  0.1095E+02
      5.832  0.3111E+00  0.1099E+02
      5.979  0.1938E+00  0.1102E+02
      6.126  0.2217E+00  0.1105E+02
      6.273  0.1731E+00  0.1108E+02
      6.420  0.3010E+00  0.1112E+02
      6.567  0.4255E+00  0.1118E+02
      6.714  0.3149E+00  0.1123E+02
      6.861  0.3050E+00  0.1128E+02
      7.008  0.2580E+00  0.1131E+02
      7.155  0.1648E+00  0.1134E+02
      7.302  0.1804E+00  0.1136E+02
      7.449  0.2474E+00  0.1140E+02
      7.596  0.3478E+00  0.1145E+02
      7.744  0.3723E+00  0.1151E+02
      7.891  0.2557E+00  0.1154E+02
      8.038  0.1806E+00  0.1157E+02
      8.185  0.1334E+00  0.1159E+02
      8.332  0.2812E+00  0.1163E+02
      8.479  0.3424E+00  0.1168E+02
      8.626  0.2147E+00  0.1171E+02
      8.773  0.2352E+00  0.1175E+02
      8.920  0.1489E+00  0.1177E+02
      9.067  0.2496E+00  0.1181E+02
      9.214  0.5893E+00  0.1189E+02
      9.361  0.5687E+00  0.1198E+02
      9.508  0.2047E+00  0.1201E+02
      9.656  0.1340E+00  0.1203E+02
      9.803  0.3153E+00  0.1207E+02
      9.950  0.4129E+00  0.1213E+02
     10.097  0.3717E+00  0.1219E+02
     10.244  0.3159E+00  0.1224E+02
     10.391  0.2321E+00  0.1227E+02
     10.538  0.1736E+00  0.1230E+02
     10.685  0.1442E+00  0.1232E+02
     10.832  0.3477E+00  0.1237E+02
     10.979  0.4661E+00  0.1244E+02
     11.126  0.3560E+00  0.1249E+02
     11.273  0.2808E+00  0.1253E+02
     11.421  0.2724E+00  0.1257E+02
     11.568  0.3234E+00  0.1262E+02
     11.715  0.4350E+00  0.1268E+02
     11.862  0.4289E+00  0.1274E+02
     12.009  0.3277E+00  0.1279E+02
     12.156  0.3583E+00  0.1285E+02
     12.303  0.2422E+00  0.1288E+02
     12.450  0.1588E+00  0.1290E+02
     12.597  0.3090E+00  0.1295E+02
     12.744  0.5119E+00  0.1303E+02
     12.891  0.2936E+00  0.1307E+02
     13.038  0.4877E-01  0.1308E+02
     13.185  0.1219E+00  0.1309E+02
     13.333  0.3666E+00  0.1315E+02
     13.480  0.3707E+00  0.1320E+02
     13.627  0.2644E+00  0.1324E+02
     13.774  0.4576E+00  0.1331E+02
     13.921  0.4810E+00  0.1338E+02
     14.068  0.5128E+00  0.1345E+02
     14.215  0.5541E+00  0.1354E+02
     14.362  0.2260E+00  0.1357E+02
     14.509 -0.1288E-01  0.1357E+02
     14.656  0.1224E+00  0.1359E+02
     14.803  0.4593E+00  0.1365E+02
     14.950  0.4565E+00  0.1372E+02
     15.097  0.2693E+00  0.1376E+02
     15.245  0.2904E+00  0.1380E+02
     15.392  0.4817E+00  0.1387E+02
     15.539  0.5281E+00  0.1395E+02
     15.686  0.3559E+00  0.1400E+02
     15.833  0.4298E+00  0.1407E+02
     15.980  0.4600E+00  0.1413E+02
     16.127  0.3887E+00  0.1419E+02
     16.274  0.4717E+00  0.1426E+02
     16.421  0.4727E+00  0.1433E+02
     16.568  0.3803E+00  0.1439E+02
     16.715  0.5607E+00  0.1447E+02
     16.862  0.7651E+00  0.1458E+02
     17.009  0.3850E+00  0.1464E+02
     17.157  0.1782E+00  0.1466E+02
     17.304  0.3371E+00  0.1471E+02
     17.451  0.4484E+00  0.1478E+02
     17.598  0.6463E+00  0.1487E+02
     17.745  0.7265E+00  0.1498E+02
     17.892  0.7448E+00  0.1509E+02
     18.039  0.6301E+00  0.1518E+02
     18.186  0.2521E+00  0.1522E+02
     18.333  0.1708E+00  0.1525E+02
     18.480  0.3246E+00  0.1529E+02
     18.627  0.5856E+00  0.1538E+02
     18.774  0.5196E+00  0.1546E+02
     18.922  0.4398E+00  0.1552E+02
     19.069  0.5065E+00  0.1560E+02
     19.216  0.5047E+00  0.1567E+02
     19.363  0.4174E+00  0.1573E+02
     19.510  0.5807E+00  0.1582E+02
     19.657  0.5921E+00  0.1590E+02
     19.804  0.3725E+00  0.1596E+02
     19.951  0.4497E+00  0.1602E+02
     20.098  0.5893E+00  0.1611E+02
     20.245  0.5284E+00  0.1619E+02
     20.392  0.4062E+00  0.1625E+02
     20.539  0.6914E+00  0.1635E+02
     20.686  0.6660E+00  0.1645E+02
     20.834  0.3403E+00  0.1650E+02
     20.981  0.3494E+00  0.1655E+02
     21.128  0.6040E+00  0.1664E+02
     21.275  0.6827E+00  0.1674E+02
     21.422  0.5129E+00  0.1681E+02
     21.569  0.5485E+00  0.1689E+02
     21.716  0.7777E+00  0.1701E+02
     21.863  0.6839E+00  0.1711E+02
     22.010  0.5539E+00  0.1719E+02
     22.157  0.5120E+00  0.1727E+02
     22.304  0.4115E+00  0.1733E+02
     22.451  0.4737E+00  0.1740E+02
     22.598  0.4244E+00  0.1746E+02
     22.746  0.2881E+00  0.1750E+02
     22.893  0.3460E+00  0.1755E+02
     23.040  0.4819E+00  0.1762E+02
     23.187  0.6467E+00  0.1772E+02
     23.334  0.1054E+01  0.1787E+02
     23.481  0.8744E+00  0.1800E+02
     23.628  0.5894E+00  0.1809E+02
     23.775  0.6190E+00  0.1818E+02
     23.922  0.6484E+00  0.1828E+02
     24.069  0.7849E+00  0.1839E+02
     24.216  0.9824E+00  0.1854E+02
     24.363  0.8342E+00  0.1866E+02
     24.510  0.7927E+00  0.1877E+02
     24.658  0.8508E+00  0.1890E+02
     24.805  0.5530E+00  0.1898E+02
     24.952  0.3745E+00  0.1904E+02
     25.099  0.4930E+00  0.1911E+02
     25.246  0.7673E+00  0.1922E+02
     25.393  0.9280E+00  0.1936E+02
     25.540  0.7762E+00  0.1947E+02
     25.687  0.5731E+00  0.1956E+02
     25.834  0.3708E+00  0.1961E+02
     25.981  0.3287E+00  0.1966E+02
     26.128  0.5570E+00  0.1974E+02
     26.275  0.5637E+00  0.1982E+02
     26.423  0.6026E+00  0.1991E+02
     26.570  0.6407E+00  0.2001E+02
     26.717  0.3804E+00  0.2006E+02
     26.864  0.2396E+00  0.2010E+02
     27.011  0.2041E+00  0.2013E+02
     27.158  0.3302E+00  0.2018E+02
     27.305  0.5109E+00  0.2025E+02
     27.452  0.5065E+00  0.2033E+02
     27.599  0.4792E+00  0.2040E+02
     27.746  0.3948E+00  0.2045E+02
     27.893  0.2024E+00  0.2048E+02
     28.040  0.2773E+00  0.2053E+02
     28.187  0.3112E+00  0.2057E+02
     28.335  0.3455E+00  0.2062E+02
     28.482  0.5485E+00  0.2070E+02
     28.629  0.3894E+00  0.2076E+02
     28.776  0.3433E+00  0.2081E+02
     28.923  0.7773E+00  0.2092E+02
     29.070  0.6450E+00  0.2102E+02
     29.217  0.4018E+00  0.2108E+02
     29.364  0.2669E+00  0.2112E+02
     29.511  0.4780E-01  0.2112E+02
     29.658  0.2515E+00  0.2116E+02
     29.805  0.6219E+00  0.2125E+02
     29.952  0.6217E+00  0.2134E+02
     30.099  0.4657E+00  0.2141E+02
     30.247  0.4868E+00  0.2148E+02
     30.394  0.5736E+00  0.2157E+02
     30.541  0.6444E+00  0.2166E+02
     30.688  0.9569E+00  0.2180E+02
     30.835  0.7825E+00  0.2192E+02
     30.982  0.6217E+00  0.2201E+02
     31.129  0.6428E+00  0.2211E+02
     31.276  0.5639E+00  0.2219E+02
     31.423  0.5360E+00  0.2227E+02
     31.570  0.6097E+00  0.2236E+02
     31.717  0.6560E+00  0.2245E+02
     31.864  0.7800E+00  0.2257E+02
     32.011  0.7469E+00  0.2268E+02
     32.159  0.5882E+00  0.2276E+02
     32.306  0.6971E+00  0.2287E+02
     32.453  0.9783E+00  0.2301E+02
     32.600  0.8573E+00  0.2314E+02
     32.747  0.5643E+00  0.2322E+02
     32.894  0.5220E+00  0.2330E+02
     33.041  0.5835E+00  0.2338E+02
     33.188  0.4145E+00  0.2344E+02
     33.335  0.3419E+00  0.2349E+02
     33.482  0.6083E+00  0.2358E+02
     33.629  0.6585E+00  0.2368E+02
     33.776  0.3582E+00  0.2373E+02
     33.924  0.1909E+00  0.2376E+02
     34.071  0.1337E+00  0.2378E+02
     34.218  0.1160E+00  0.2380E+02
     34.365  0.1648E+00  0.2382E+02
     34.512  0.2303E+00  0.2386E+02
     34.659  0.2217E+00  0.2389E+02
     34.806  0.1919E+00  0.2392E+02
     34.953  0.2326E+00  0.2395E+02
     35.100  0.9968E-01  0.2397E+02
     35.247 -0.8006E-02  0.2396E+02
     35.394 -0.5934E-02  0.2396E+02
     35.541  0.2475E-01  0.2397E+02
     35.688  0.5783E-01  0.2398E+02
     35.836  0.8297E-01  0.2399E+02
     35.983  0.7132E-01  0.2400E+02
     36.130  0.1413E-01  0.2400E+02
     36.277 -0.3510E-02  0.2400E+02
     36.424 -0.8715E-03  0.2400E+02
     36.571 -0.4406E-04  0.2400E+02
     36.718 -0.6601E-06  0.2400E+02
     36.865 -0.3150E-08  0.2400E+02
     37.012 -0.4910E-11  0.2400E+02
     37.159 -0.2518E-14  0.2400E+02
     37.306  0.0000E+00  0.2400E+02
     37.453  0.0000E+00  0.2400E+02
     37.600  0.0000E+00  0.2400E+02
     37.748  0.0000E+00  0.2400E+02
     37.895  0.0000E+00  0.2400E+02
