    1    1    1    1
  0.1660753E+02  0.2863782E-09  0.2863782E-09  0.2863782E-09  0.5000000E-15
  1.000000000000000E-004
  CAR 
 FCC Au                                  
     11    110     12
 
  0.5000000E-01  0.5000000E-01  0.5000000E-01  0.2000000E-02
    1       -4.223297   1.000000
    2        1.009083   1.000000
    3        1.071722   1.000000
    4        1.071722   1.000000
    5        2.637991   1.000000
    6        2.637991   1.000000
    7       21.326772   0.000000
    8       24.537838   0.000000
    9       25.316078   0.000000
   10       25.316078   0.000000
   11       30.194878   0.000000
   12       33.362989   0.000000
 
  0.1500000E+00  0.5000000E-01  0.5000000E-01  0.6000000E-02
    1       -3.758730   1.000000
    2        0.850677   1.000000
    3        1.215889   1.000000
    4        1.249926   1.000000
    5        2.486299   1.000000
    6        2.691816   1.000000
    7       21.690196   0.000000
    8       22.566662   0.000000
    9       24.967594   0.000000
   10       26.263919   0.000000
   11       29.696937   0.000000
   12       32.366859   0.000000
 
  0.2500000E+00  0.5000000E-01  0.5000000E-01  0.6000000E-02
    1       -2.755348   1.000000
    2        0.726111   1.000000
    3        1.373504   1.000000
    4        1.398198   1.000000
    5        2.491731   1.000000
    6        2.913425   1.000000
    7       18.702117   0.000000
    8       22.306745   0.000000
    9       25.185565   0.000000
   10       27.597785   0.000000
   11       27.629267   0.000000
   12       30.137584   0.000000
 
  0.3500000E+00  0.5000000E-01  0.5000000E-01  0.6000000E-02
    1       -1.863938   1.000000
    2        1.186384   1.000000
    3        1.276211   1.000000
    4        1.414060   1.000000
    5        2.999821   1.000000
    6        3.503019   1.000000
    7       14.652473   0.000000
    8       21.606989   0.000000
    9       24.228823   0.000000
   10       26.465639   0.000000
   11       28.816726   0.000000
   12       29.943664   0.000000
 
  0.4500000E+00  0.5000000E-01  0.5000000E-01  0.6000000E-02
    1       -1.645847   1.000000
    2        1.029738   1.000000
    3        1.102193   1.000000
    4        2.962762   1.000000
    5        3.626931   1.000000
    6        4.396882   1.000000
    7       10.843040  -0.000000
    8       20.817257   0.000000
    9       23.268907   0.000000
   10       24.392175   0.000000
   11       30.673103   0.000000
   12       30.963398   0.000000
 
 -0.4500000E+00  0.5000000E-01  0.5000000E-01  0.6000000E-02
    1       -1.642902   1.000000
    2        0.961034   1.000000
    3        1.062681   1.000000
    4        3.401864   1.000000
    5        3.919834   1.000000
    6        5.245924   1.000043
    7        9.170195  -0.000000
    8       20.601647   0.000000
    9       23.318901   0.000000
   10       23.437245   0.000000
   11       31.199602   0.000000
   12       31.275850   0.000000
 
 -0.3500000E+00  0.5000000E-01  0.5000000E-01  0.6000000E-02
    1       -1.671554   1.000000
    2        1.061539   1.000000
    3        1.175773   1.000000
    4        2.377560   1.000000
    5        3.707591   1.000000
    6        3.829077   1.000000
    7       12.020856   0.000000
    8       21.057808   0.000000
    9       23.749952   0.000000
   10       24.594618   0.000000
   11       30.615268   0.000000
   12       30.749239   0.000000
 
 -0.2500000E+00  0.5000000E-01  0.5000000E-01  0.6000000E-02
    1       -2.087920   1.000000
    2        0.984094   1.000000
    3        1.291360   1.000000
    4        1.356112   1.000000
    5        2.905525   1.000000
    6        3.183338   1.000000
    7       16.013820   0.000000
    8       21.987632   0.000000
    9       24.737348   0.000000
   10       26.598356   0.000000
   11       28.492556   0.000000
   12       30.309757   0.000000
 
 -0.1500000E+00  0.5000000E-01  0.5000000E-01  0.6000000E-02
    1       -3.123713   1.000000
    2        0.715734   1.000000
    3        1.365771   1.000000
    4        1.379334   1.000000
    5        2.445801   1.000000
    6        2.784943   1.000000
    7       19.988402   0.000000
    8       22.394514   0.000000
    9       25.191057   0.000000
   10       26.723239   0.000000
   11       28.394495   0.000000
   12       30.995661   0.000000
 
 -0.5000000E-01  0.5000000E-01  0.5000000E-01  0.6000000E-02
    1       -3.986971   1.000000
    2        0.898570   1.000000
    3        1.171413   1.000000
    4        1.177857   1.000000
    5        2.511075   1.000000
    6        2.698439   1.000000
    7       21.582500   0.000000
    8       23.618535   0.000000
    9       25.074518   0.000000
   10       25.447333   0.000000
   11       30.847194   0.000000
   12       32.587275   0.000000
 
  0.1500000E+00  0.1500000E+00  0.5000000E-01  0.6000000E-02
    1       -3.528204   1.000000
    2        0.673742   1.000000
    3        1.379085   1.000000
    4        1.383814   1.000000
    5        2.278801   1.000000
    6        2.814206   1.000000
    7       21.997808   0.000000
    8       22.744302   0.000000
    9       24.431213   0.000000
   10       25.049149   0.000000
   11       30.117200   0.000000
   12       31.788058   0.000000
 
  0.2500000E+00  0.1500000E+00  0.5000000E-01  0.1200000E-01
    1       -2.693968   1.000000
    2        0.416308   1.000000
    3        1.479408   1.000000
    4        1.671241   1.000000
    5        2.223671   1.000000
    6        3.042535   1.000000
    7       20.247711   0.000000
    8       22.053602   0.000000
    9       24.023412   0.000000
   10       25.285497   0.000000
   11       28.082126   0.000000
   12       30.943689   0.000000
 
  0.3500000E+00  0.1500000E+00  0.5000000E-01  0.1200000E-01
    1       -1.672990   1.000000
    2        0.503749   1.000000
    3        1.165948   1.000000
    4        1.681184   1.000000
    5        2.910027   1.000000
    6        3.643165   1.000000
    7       16.245763   0.000000
    8       21.513681   0.000000
    9       22.959058   0.000000
   10       25.187839   0.000000
   11       28.843859   0.000000
   12       30.635106   0.000000
 
  0.4500000E+00  0.1500000E+00  0.5000000E-01  0.1200000E-01
    1       -1.287361   1.000000
    2        0.852306   1.000000
    3        1.406179   1.000000
    4        1.570883   1.000000
    5        3.689396   1.000000
    6        4.849839   1.000000
    7       12.213548   0.000000
    8       20.981589   0.000000
    9       21.708559   0.000000
   10       23.875486   0.000000
   11       30.661103   0.000000
   12       31.803853   0.000000
 
 -0.4500000E+00  0.1500000E+00  0.5000000E-01  0.1200000E-01
    1       -1.267164   1.000000
    2        0.719037   1.000000
    3        1.371153   1.000000
    4        2.324619   1.000000
    5        3.871485   1.000000
    6        6.727389  -0.000000
    7        9.147841  -0.000000
    8       20.505179   0.000000
    9       21.368555   0.000000
   10       23.078904   0.000000
   11       31.176615   0.000000
   12       32.209095   0.000000
 
 -0.3500000E+00  0.1500000E+00  0.5000000E-01  0.1200000E-01
    1       -1.249080   1.000000
    2        0.803055   1.000000
    3        1.396612   1.000000
    4        1.983797   1.000000
    5        3.540422   1.000000
    6        5.564120   1.025624
    7       11.062675  -0.000000
    8       20.223570   0.000000
    9       21.769451   0.000000
   10       24.046967   0.000000
   11       30.304560   0.000000
   12       31.866308   0.000000
 
 -0.2500000E+00  0.1500000E+00  0.5000000E-01  0.1200000E-01
    1       -1.429118   1.000000
    2        0.794166   1.000000
    3        1.113560   1.000000
    4        1.592095   1.000000
    5        2.818401   1.000000
    6        4.202473   1.000000
    7       14.897051   0.000000
    8       20.499729   0.000000
    9       22.873290   0.000000
   10       26.065487   0.000000
   11       28.427866   0.000000
   12       30.959657   0.000000
 
 -0.1500000E+00  0.1500000E+00  0.5000000E-01  0.1200000E-01
    1       -2.332691   1.000000
    2        0.460631   1.000000
    3        1.369851   1.000000
    4        1.694684   1.000000
    5        2.218857   1.000000
    6        3.312913   1.000000
    7       18.842498   0.000000
    8       21.142401   0.000000
    9       24.587595   0.000000
   10       25.605331   0.000000
   11       29.154317   0.000000
   12       29.825832   0.000000
 
 -0.5000000E-01  0.1500000E+00  0.5000000E-01  0.1200000E-01
    1       -3.316073   1.000000
    2        0.677397   1.000000
    3        1.381667   1.000000
    4        1.392170   1.000000
    5        2.320939   1.000000
    6        2.823170   1.000000
    7       21.229456   0.000000
    8       22.164079   0.000000
    9       24.534306   0.000000
   10       26.364280   0.000000
   11       28.762541   0.000000
   12       31.808825   0.000000
 
  0.2500000E+00  0.2500000E+00  0.5000000E-01  0.6000000E-02
    1       -2.138825   1.000000
    2        0.047565   1.000000
    3        1.636810   1.000000
    4        2.066421   1.000000
    5        2.266687   1.000000
    6        3.170749   1.000000
    7       20.724405   0.000000
    8       21.869770   0.000000
    9       22.924298   0.000000
   10       23.823410   0.000000
   11       25.129792   0.000000
   12       32.396710   0.000000
 
  0.3500000E+00  0.2500000E+00  0.5000000E-01  0.1200000E-01
    1       -1.332382   1.000000
    2       -0.185297   1.000000
    3        1.368206   1.000000
    4        2.427856   1.000000
    5        2.948235   1.000000
    6        3.667390   1.000000
    7       17.980534   0.000000
    8       19.950115   0.000000
    9       21.586103   0.000000
   10       24.306825   0.000000
   11       25.700686   0.000000
   12       32.467496   0.000000
 
  0.4500000E+00  0.2500000E+00  0.5000000E-01  0.1200000E-01
    1       -0.863755   1.000000
    2        0.080494   1.000000
    3        1.113479   1.000000
    4        2.289792   1.000000
    5        3.782070   1.000000
    6        5.130356   1.000001
    7       13.859663   0.000000
    8       19.264257   0.000000
    9       19.835596   0.000000
   10       23.908323   0.000000
   11       28.926955   0.000000
   12       32.447883   0.000000
 
 -0.4500000E+00  0.2500000E+00  0.5000000E-01  0.1200000E-01
    1       -0.743212   1.000000
    2        0.351447   1.000000
    3        1.321907   1.000000
    4        2.083477   1.000000
    5        3.908419   1.000000
    6        7.626673  -0.000000
    7       10.232693  -0.000000
    8       17.966500   0.000000
    9       19.905052   0.000000
   10       23.472992   0.000000
   11       31.532916   0.000000
   12       33.147197   0.000000
 
 -0.3500000E+00  0.2500000E+00  0.5000000E-01  0.1200000E-01
    1       -0.565587   1.000000
    2        0.419355   1.000000
    3        1.340992   1.000000
    4        1.974641   1.000000
    5        3.492911   1.000000
    6        7.462836  -0.000000
    7       10.781946  -0.000000
    8       16.868021   0.000000
    9       21.116323   0.000000
   10       23.651523   0.000000
   11       30.669416   0.000000
   12       33.055362   0.000000
 
 -0.2500000E+00  0.2500000E+00  0.5000000E-01  0.1200000E-01
    1       -0.479682   1.000000
    2        0.499163   1.000000
    3        0.762543   1.000000
    4        2.057414   1.000000
    5        2.776608   1.000000
    6        5.647989   1.033720
    7       14.202176   0.000000
    8       16.788459   0.000000
    9       22.343556   0.000000
   10       25.154869   0.000000
   11       28.429852   0.000000
   12       32.881760   0.000000
 
 -0.1500000E+00  0.2500000E+00  0.5000000E-01  0.1200000E-01
    1       -1.269015   1.000000
    2        0.379241   1.000000
    3        1.085853   1.000000
    4        1.931785   1.000000
    5        2.362977   1.000000
    6        4.296368   1.000000
    7       16.358593   0.000000
    8       19.054163   0.000000
    9       23.350327   0.000000
   10       26.440450   0.000000
   11       27.572305   0.000000
   12       31.505163   0.000000
 
 -0.5000000E-01  0.2500000E+00  0.5000000E-01  0.1200000E-01
    1       -2.248357   1.000000
    2        0.646759   1.000000
    3        1.342516   1.000000
    4        1.497186   1.000000
    5        2.557074   1.000000
    6        3.237706   1.000000
    7       17.461033   0.000000
    8       22.049820   0.000000
    9       24.200568   0.000000
   10       26.624467   0.000000
   11       28.444031   0.000000
   12       29.857294   0.000000
 
  0.3500000E+00  0.3500000E+00  0.5000000E-01  0.6000000E-02
    1       -1.194854   1.000000
    2       -0.577263   1.000000
    3        2.274662   1.000000
    4        2.978771   1.000000
    5        3.417030   1.000000
    6        3.601469   1.000000
    7       17.917813   0.000000
    8       18.912550   0.000000
    9       19.202715   0.000000
   10       23.162573   0.000000
   11       25.090443   0.000000
   12       34.893258   0.000000
 
  0.4500000E+00  0.3500000E+00  0.5000000E-01  0.1200000E-01
    1       -1.049360   1.000000
    2       -0.689572   1.000000
    3        2.327306   1.000000
    4        3.289284   1.000000
    5        3.795546   1.000000
    6        5.174286   1.000005
    7       15.070348   0.000000
    8       17.207972   0.000000
    9       17.832223   0.000000
   10       24.193148   0.000000
   11       26.109167   0.000000
   12       34.473280   0.000000
 
 -0.4500000E+00  0.3500000E+00  0.5000000E-01  0.1200000E-01
    1       -0.877430   1.000000
    2       -0.366772   1.000000
    3        1.959488   1.000000
    4        2.973593   1.000000
    5        4.012871   1.000000
    6        7.854395  -0.000000
    7       11.800764   0.000000
    8       15.470927   0.000000
    9       17.942424   0.000000
   10       24.404344   0.000000
   11       28.878780   0.000000
   12       33.461767   0.000000
 
 -0.3500000E+00  0.3500000E+00  0.5000000E-01  0.1200000E-01
    1       -0.575058   1.000000
    2        0.157100   1.000000
    3        1.395320   1.000000
    4        2.630401   1.000000
    5        3.671999   1.000000
    6        9.085589  -0.000000
    7       11.235548  -0.000000
    8       13.784987   0.000000
    9       19.306262   0.000000
   10       24.145040   0.000000
   11       32.029527   0.000000
   12       32.479691   0.000000
 
 -0.2500000E+00  0.3500000E+00  0.5000000E-01  0.1200000E-01
    1       -0.280907   1.000000
    2        0.462136   1.000000
    3        0.881354   1.000000
    4        2.257525   1.000000
    5        3.242584   1.000000
    6        7.289071  -0.000000
    7       12.657516   0.000000
    8       14.786155   0.000000
    9       21.122553   0.000000
   10       24.030896   0.000000
   11       30.317980   0.000000
   12       33.300187   0.000000
 
 -0.1500000E+00  0.3500000E+00  0.5000000E-01  0.1200000E-01
    1       -0.879998   1.000000
    2        0.699092   1.000000
    3        1.207285   1.000000
    4        1.741425   1.000000
    5        3.153445   1.000000
    6        5.627529   1.035457
    7       12.597534   0.000000
    8       18.537536   0.000000
    9       22.063190   0.000000
   10       24.625134   0.000000
   11       29.278300   0.000000
   12       32.343277   0.000000
 
 -0.5000000E-01  0.3500000E+00  0.5000000E-01  0.1200000E-01
    1       -1.590512   1.000000
    2        1.063964   1.000000
    3        1.322052   1.000000
    4        1.569632   1.000000
    5        3.289018   1.000000
    6        4.019346   1.000000
    7       13.387979   0.000000
    8       21.302459   0.000000
    9       23.005100   0.000000
   10       25.305728   0.000000
   11       29.681711   0.000000
   12       30.710845   0.000000
 
  0.4500000E+00  0.4500000E+00  0.5000000E-01  0.6000000E-02
    1       -1.320426   1.000000
    2       -0.988637   1.000000
    3        3.687885   1.000000
    4        3.693852   1.000000
    5        4.044324   1.000000
    6        5.645499   1.034149
    7       13.699052   0.000000
    8       16.450444   0.000000
    9       16.782505   0.000000
   10       23.508948   0.000000
   11       25.918075   0.000000
   12       35.789452   0.000000
 
 -0.4500000E+00  0.4500000E+00  0.5000000E-01  0.1200000E-01
    1       -1.245795   1.000000
    2       -0.936414   1.000000
    3        3.286094   1.000000
    4        3.643151   1.000000
    5        4.201007   1.000000
    6        7.698622  -0.000000
    7       11.807275   0.000000
    8       15.409008   0.000000
    9       16.378338   0.000000
   10       24.461724   0.000000
   11       26.479591   0.000000
   12       34.907252   0.000000
 
 -0.3500000E+00  0.4500000E+00  0.5000000E-01  0.1200000E-01
    1       -0.933615   1.000000
    2       -0.460616   1.000000
    3        2.257986   1.000000
    4        3.150862   1.000000
    5        4.010030   1.000000
    6        9.299429  -0.000000
    7       10.912136  -0.000000
    8       14.134606   0.000000
    9       17.587459   0.000000
   10       24.602062   0.000000
   11       28.887388   0.000000
   12       33.618333   0.000000
 
 -0.2500000E+00  0.4500000E+00  0.5000000E-01  0.1200000E-01
    1       -0.609298   1.000000
    2        0.205894   1.000000
    3        1.349874   1.000000
    4        2.399236   1.000000
    5        3.802945   1.000000
    6        9.190530  -0.000000
    7        9.712818  -0.000000
    8       15.808191   0.000000
    9       19.504887   0.000000
   10       23.860949   0.000000
   11       31.750565   0.000000
   12       32.849549   0.000000
 
 -0.1500000E+00  0.4500000E+00  0.5000000E-01  0.1200000E-01
    1       -0.937526   1.000000
    2        0.539740   1.000000
    3        1.645857   1.000000
    4        1.841799   1.000000
    5        3.741602   1.000000
    6        7.579023  -0.000000
    7        9.295550  -0.000000
    8       18.918148   0.000000
    9       21.117655   0.000000
   10       23.206570   0.000000
   11       31.045699   0.000000
   12       32.681509   0.000000
 
 -0.5000000E-01  0.4500000E+00  0.5000000E-01  0.1200000E-01
    1       -1.509535   1.000000
    2        0.897622   1.000000
    3        1.181338   1.000000
    4        2.757921   1.000000
    5        3.825950   1.000000
    6        5.428758   1.003666
    7        9.854971  -0.000000
    8       20.745630   0.000000
    9       22.447946   0.000000
   10       23.606758   0.000000
   11       31.013396   0.000000
   12       31.540389   0.000000
 
 -0.4500000E+00 -0.4500000E+00  0.5000000E-01  0.6000000E-02
    1       -1.398578   1.000000
    2       -1.076120   1.000000
    3        3.819489   1.000000
    4        3.994065   1.000000
    5        4.216219   1.000000
    6        6.864250  -0.000000
    7       12.053841   0.000000
    8       15.930299   0.000000
    9       16.297267   0.000000
   10       23.653460   0.000000
   11       26.093822   0.000000
   12       35.581611   0.000000
 
 -0.3500000E+00 -0.4500000E+00  0.5000000E-01  0.1200000E-01
    1       -1.164812   1.000000
    2       -0.852380   1.000000
    3        2.908481   1.000000
    4        3.572848   1.000000
    5        4.036184   1.000000
    6        6.462718  -0.000124
    7       13.322523   0.000000
    8       16.020555   0.000000
    9       16.856166   0.000000
   10       24.342045   0.000000
   11       26.350385   0.000000
   12       34.854054   0.000000
 
 -0.2500000E+00 -0.4500000E+00  0.5000000E-01  0.1200000E-01
    1       -0.817381   1.000000
    2       -0.177733   1.000000
    3        1.511686   1.000000
    4        2.655805   1.000000
    5        3.960028   1.000000
    6        6.388165  -0.000821
    7       12.763908   0.000000
    8       17.398773   0.000000
    9       18.646731   0.000000
   10       24.109645   0.000000
   11       28.885267   0.000000
   12       33.082391   0.000000
 
 -0.1500000E+00 -0.4500000E+00  0.5000000E-01  0.1200000E-01
    1       -0.987258   1.000000
    2        0.589956   1.000000
    3        1.352352   1.000000
    4        1.778550   1.000000
    5        3.893417   1.000000
    6        6.094393  -0.032951
    7       11.145651  -0.000000
    8       20.022349   0.000000
    9       20.462638   0.000000
   10       23.298116   0.000000
   11       31.230466   0.000000
   12       32.908395   0.000000
 
 -0.3500000E+00 -0.3500000E+00  0.5000000E-01  0.6000000E-02
    1       -1.210171   1.000000
    2       -0.818756   1.000000
    3        3.082995   1.000000
    4        3.404849   1.000000
    5        3.818299   1.000000
    6        4.343019   1.000000
    7       15.889790   0.000000
    8       17.474912   0.000000
    9       17.687287   0.000000
   10       23.303785   0.000000
   11       25.578078   0.000000
   12       35.889004   0.000000
 
 -0.2500000E+00 -0.3500000E+00  0.5000000E-01  0.1200000E-01
    1       -1.030253   1.000000
    2       -0.461121   1.000000
    3        1.710244   1.000000
    4        2.870355   1.000000
    5        3.453771   1.000000
    6        4.215374   1.000000
    7       16.618013   0.000000
    8       18.591037   0.000000
    9       19.513040   0.000000
   10       24.153170   0.000000
   11       25.810874   0.000000
   12       33.588620   0.000000
 
 -0.1500000E+00 -0.3500000E+00  0.5000000E-01  0.1200000E-01
    1       -1.155790   1.000000
    2        0.324969   1.000000
    3        0.996747   1.000000
    4        1.951077   1.000000
    5        3.416674   1.000000
    6        4.206648   1.000000
    7       15.038510   0.000000
    8       20.531194   0.000000
    9       21.585834   0.000000
   10       24.123964   0.000000
   11       28.961738   0.000000
   12       31.602983   0.000000
 
 -0.2500000E+00 -0.2500000E+00  0.5000000E-01  0.6000000E-02
    1       -1.492269   1.000000
    2       -0.280925   1.000000
    3        1.720857   1.000000
    4        2.510163   1.000000
    5        2.764737   1.000000
    6        3.383908   1.000000
    7       19.452990   0.000000
    8       20.347125   0.000000
    9       21.543329   0.000000
   10       23.314448   0.000000
   11       24.522528   0.000000
   12       33.520609   0.000000
 
 -0.1500000E+00 -0.2500000E+00  0.5000000E-01  0.1200000E-01
    1       -1.972410   1.000000
    2        0.116426   1.000000
    3        1.393030   1.000000
    4        2.020870   1.000000
    5        2.462844   1.000000
    6        3.319980   1.000000
    7       19.184944   0.000000
    8       21.227485   0.000000
    9       23.326480   0.000000
   10       24.436470   0.000000
   11       26.534025   0.000000
   12       31.432250   0.000000
 
 -0.1500000E+00 -0.1500000E+00  0.5000000E-01  0.6000000E-02
    1       -2.883251   1.000000
    2        0.377319   1.000000
    3        1.628211   1.000000
    4        1.683677   1.000000
    5        2.068075   1.000000
    6        2.975578   1.000000
    7       21.690953   0.000000
    8       22.760592   0.000000
    9       23.309198   0.000000
   10       24.266267   0.000000
   11       27.782536   0.000000
   12       31.750380   0.000000
 
  0.1500000E+00  0.1500000E+00  0.1500000E+00  0.2000000E-02
    1       -3.542211   1.000000
    2        0.832954   1.000000
    3        1.269557   1.000000
    4        1.269557   1.000000
    5        2.591020   1.000000
    6        2.591020   1.000000
    7       21.074657   0.000000
    8       22.266771   0.000000
    9       25.975955   0.000000
   10       25.975955   0.000000
   11       29.259078   0.000000
   12       31.725239   0.000000
 
  0.2500000E+00  0.1500000E+00  0.1500000E+00  0.6000000E-02
    1       -2.906236   1.000000
    2        0.619044   1.000000
    3        1.400256   1.000000
    4        1.482570   1.000000
    5        2.264155   1.000000
    6        2.988521   1.000000
    7       20.014264   0.000000
    8       21.800659   0.000000
    9       24.639269   0.000000
   10       26.892409   0.000000
   11       28.021934   0.000000
   12       31.216476   0.000000
 
  0.3500000E+00  0.1500000E+00  0.1500000E+00  0.6000000E-02
    1       -1.836897   1.000000
    2        0.455874   1.000000
    3        1.286481   1.000000
    4        1.776643   1.000000
    5        2.168622   1.000000
    6        3.755070   1.000000
    7       17.550422   0.000000
    8       20.143746   0.000000
    9       24.282210   0.000000
   10       26.038067   0.000000
   11       28.539027   0.000000
   12       30.516766   0.000000
 
  0.4500000E+00  0.1500000E+00  0.1500000E+00  0.6000000E-02
    1       -1.160672   1.000000
    2        0.852736   1.000000
    3        1.230018   1.000000
    4        1.564623   1.000000
    5        2.870089   1.000000
    6        4.849940   1.000000
    7       13.683778   0.000000
    8       19.494241   0.000000
    9       22.675166   0.000000
   10       25.601290   0.000000
   11       28.492563   0.000000
   12       31.655893   0.000000
 
 -0.4500000E+00  0.1500000E+00  0.1500000E+00  0.6000000E-02
    1       -1.133095   1.000000
    2        0.705137   1.000000
    3        1.449597   1.000000
    4        2.092105   1.000000
    5        3.588641   1.000000
    6        6.454727  -0.000154
    7       10.087072  -0.000000
    8       19.502958   0.000000
    9       22.021646   0.000000
   10       23.225737   0.000000
   11       30.836105   0.000000
   12       31.903492   0.000000
 
 -0.3500000E+00  0.1500000E+00  0.1500000E+00  0.6000000E-02
    1       -1.173404   1.000000
    2        0.675966   1.000000
    3        1.500046   1.000000
    4        1.916691   1.000000
    5        3.952193   1.000000
    6        6.417883  -0.000401
    7        9.913811  -0.000000
    8       20.222936   0.000000
    9       21.917819   0.000000
   10       22.292903   0.000000
   11       31.855827   0.000000
   12       32.092402   0.000000
 
 -0.2500000E+00  0.1500000E+00  0.1500000E+00  0.6000000E-02
    1       -1.252162   1.000000
    2        0.776991   1.000000
    3        1.018260   1.000000
    4        1.669965   1.000000
    5        3.796479   1.000000
    6        4.291486   1.000000
    7       13.547318   0.000000
    8       21.375359   0.000000
    9       21.766571   0.000000
   10       23.341421   0.000000
   11       30.778100   0.000000
   12       31.729602   0.000000
 
 -0.1500000E+00  0.1500000E+00  0.1500000E+00  0.6000000E-02
    1       -1.865205   1.000000
    2        0.249940   1.000000
    3        1.293683   1.000000
    4        1.808720   1.000000
    5        2.828930   1.000000
    6        3.325095   1.000000
    7       17.715179   0.000000
    8       22.389153   0.000000
    9       22.569176   0.000000
   10       24.530892   0.000000
   11       27.643890   0.000000
   12       31.680173   0.000000
 
  0.2500000E+00  0.2500000E+00  0.1500000E+00  0.6000000E-02
    1       -2.538981   1.000000
    2        0.503576   1.000000
    3        1.419526   1.000000
    4        1.557058   1.000000
    5        2.455088   1.000000
    6        3.040358   1.000000
    7       18.865952   0.000000
    8       22.568084   0.000000
    9       23.902072   0.000000
   10       26.078515   0.000000
   11       27.985759   0.000000
   12       31.062359   0.000000
 
  0.3500000E+00  0.2500000E+00  0.1500000E+00  0.1200000E-01
    1       -1.664860   1.000000
    2        0.239259   1.000000
    3        1.190133   1.000000
    4        1.989838   1.000000
    5        2.436891   1.000000
    6        3.733631   1.000000
    7       17.692560   0.000000
    8       20.172548   0.000000
    9       23.406314   0.000000
   10       25.403999   0.000000
   11       28.119875   0.000000
   12       30.448798   0.000000
 
  0.4500000E+00  0.2500000E+00  0.1500000E+00  0.1200000E-01
    1       -0.724889   1.000000
    2        0.262884   1.000000
    3        0.782090   1.000000
    4        2.225051   1.000000
    5        2.758933   1.000000
    6        4.946677   1.000000
    7       15.249855   0.000000
    8       17.916388   0.000000
    9       21.914278   0.000000
   10       26.177910   0.000000
   11       27.651419   0.000000
   12       32.094608   0.000000
 
 -0.4500000E+00  0.2500000E+00  0.1500000E+00  0.1200000E-01
    1       -0.591913   1.000000
    2        0.442467   1.000000
    3        1.098314   1.000000
    4        2.019745   1.000000
    5        3.482644   1.000000
    6        6.646637  -0.000000
    7       11.643868   0.000000
    8       17.660353   0.000000
    9       20.523514   0.000000
   10       24.663086   0.000000
   11       29.755807   0.000000
   12       33.427630   0.000000
 
 -0.3500000E+00  0.2500000E+00  0.1500000E+00  0.1200000E-01
    1       -0.663714   1.000000
    2        0.347919   1.000000
    3        1.444739   1.000000
    4        1.951053   1.000000
    5        3.788211   1.000000
    6        8.330500  -0.000000
    7        9.306750  -0.000000
    8       18.288311   0.000000
    9       19.478617   0.000000
   10       24.140520   0.000000
   11       30.680750   0.000000
   12       33.900393   0.000000
 
 -0.2500000E+00  0.2500000E+00  0.1500000E+00  0.1200000E-01
    1       -0.714029   1.000000
    2        0.442517   1.000000
    3        0.857334   1.000000
    4        2.152110   1.000000
    5        3.611762   1.000000
    6        5.882613   0.459592
    7       12.656996   0.000000
    8       18.539058   0.000000
    9       20.083722   0.000000
   10       24.632912   0.000000
   11       29.708318   0.000000
   12       32.523401   0.000000
 
 -0.1500000E+00  0.2500000E+00  0.1500000E+00  0.1200000E-01
    1       -1.048541   1.000000
    2        0.001524   1.000000
    3        1.011180   1.000000
    4        2.356359   1.000000
    5        2.862577   1.000000
    6        4.266449   1.000000
    7       16.520094   0.000000
    8       19.011766   0.000000
    9       21.684696   0.000000
   10       25.419068   0.000000
   11       27.224746   0.000000