 vasp.5.4.4.18Apr17-6-g9f103f2a35 (build Jul 01 2019 03:25:34) complex          
  
 executed on             LinuxIFC date 2020.07.08  00:55:37
 running on    4 total cores
 distrk:  each k-point on    4 cores,    1 groups
 distr:  one band on NCORES_PER_BAND=   1 cores,    4 groups


--------------------------------------------------------------------------------------------------------


 INCAR:
 POTCAR:   PAW Au 04Feb1998                       
 POTCAR:   PAW Au 04Feb1998                       
   VRHFIN =Au: s1d10                                                            
   LEXCH  = CA                                                                  
   EATOM  =   929.4667 eV,   68.3139 Ry                                         
                                                                                
   TITEL  = PAW Au 04Feb1998                                                    
   LULTRA =        F    use ultrasoft PP ?                                      
   IUNSCR =        1    unscreen: 0-lin 1-nonlin 2-no                           
   RPACOR =    2.330    partial core radius                                     
   POMASS =  196.966; ZVAL   =   11.000    mass and valenz                      
   RCORE  =    2.500    outmost cutoff radius                                   
   RWIGS  =    2.840; RWIGS  =    1.503    wigner-seitz radius (au A)           
   ENMAX  =  229.869; ENMIN  =  172.402 eV                                      
   RCLOC  =    1.964    cutoff for local pot                                    
   LCOR   =        T    correct aug charges                                     
   LPAW   =        T    paw PP                                                  
   EAUG   =  356.670                                                            
   DEXC   =    -.020                                                            
   RMAX   =    3.041    core radius for proj-oper                               
   RDEP   =    2.598    core radius for depl-charge                             
   QCUT   =   -4.110; QGAM   =    8.221    optimization parameters              
                                                                                
   Description                                                                  
     l     E      TYP  RCUT    TYP  RCUT                                        
     2   .000     23  2.500                                                     
     2   .000     23  2.500                                                     
     0   .000     23  2.500                                                     
     0   .000     23  2.500                                                     
     1  -.200     23  2.500                                                     
     1   .000     23  2.500                                                     
     3   .000      7   .000                                                     
  local pseudopotential read in
  partial core-charges read in
  atomic valenz-charges read in
  non local Contribution for L=           2  read in
    real space projection operators read in
  non local Contribution for L=           2  read in
    real space projection operators read in
  non local Contribution for L=           0  read in
    real space projection operators read in
  non local Contribution for L=           0  read in
    real space projection operators read in
  non local Contribution for L=           1  read in
    real space projection operators read in
  non local Contribution for L=           1  read in
    real space projection operators read in
    PAW grid and wavefunctions read in
 
   number of l-projection  operators is LMAX  =           6
   number of lm-projection operators is LMMAX =          18
 
 PAW Au 04Feb1998                       :
 energy of atom  1       EATOM= -929.4667
 kinetic energy error for atom=    0.0704 (will be added to EATOM!!)
 
 
 POSCAR: FCC Au Bulk                             
  positions in direct lattice
  No initial velocities read in
 exchange correlation table for  LEXCH =        2
   RHO(1)=    0.500       N(1)  =     2000
   RHO(2)=  100.500       N(2)  =     4000
 


--------------------------------------------------------------------------------------------------------


 ion  position               nearest neighbor table
   1  0.000  0.000  0.000-
 
  LATTYP: Found a face centered cubic cell.
 ALAT       =     4.0500000000
  
  Lattice vectors:
  
 A1 = (   0.0000000000,   2.0250000000,   2.0250000000)
 A2 = (   2.0250000000,   0.0000000000,   2.0250000000)
 A3 = (   2.0250000000,   2.0250000000,   0.0000000000)


Analysis of symmetry for initial positions (statically):
=====================================================================
 Subroutine PRICEL returns:
 Original cell was already a primitive cell.
 

 Routine SETGRP: Setting up the symmetry group for a 
 face centered cubic supercell.


 Subroutine GETGRP returns: Found 48 space group operations
 (whereof 48 operations were pure point group operations)
 out of a pool of 48 trial point group operations.


The static configuration has the point symmetry O_h .


Analysis of symmetry for dynamics (positions and initial velocities):
=====================================================================
 Subroutine PRICEL returns:
 Original cell was already a primitive cell.
 

 Routine SETGRP: Setting up the symmetry group for a 
 face centered cubic supercell.


 Subroutine GETGRP returns: Found 48 space group operations
 (whereof 48 operations were pure point group operations)
 out of a pool of 48 trial point group operations.


The dynamic configuration has the point symmetry O_h .


 Subroutine INISYM returns: Found 48 space group operations
 (whereof 48 operations are pure point group operations),
 and found     1 'primitive' translations

 
 
 KPOINTS: 10x10x10                                

Automatic generation of k-mesh.
Space group operators:
 irot       det(A)        alpha          n_x          n_y          n_z        tau_x        tau_y        tau_z
    1     1.000000     0.000001     1.000000     0.000000     0.000000     0.000000     0.000000     0.000000
    2    -1.000000     0.000001     1.000000     0.000000     0.000000     0.000000     0.000000     0.000000
    3     1.000000   120.000000    -0.577350    -0.577350    -0.577350     0.000000     0.000000     0.000000
    4    -1.000000   120.000000    -0.577350    -0.577350    -0.577350     0.000000     0.000000     0.000000
    5     1.000000   120.000000     0.577350     0.577350     0.577350     0.000000     0.000000     0.000000
    6    -1.000000   120.000000     0.577350     0.577350     0.577350     0.000000     0.000000     0.000000
    7     1.000000    90.000000     0.000000     0.000000    -1.000000     0.000000     0.000000     0.000000
    8    -1.000000    90.000000     0.000000     0.000000    -1.000000     0.000000     0.000000     0.000000
    9     1.000000   180.000000     0.000000     0.707107     0.707107     0.000000     0.000000     0.000000
   10    -1.000000   180.000000     0.000000     0.707107     0.707107     0.000000     0.000000     0.000000
   11     1.000000    90.000000     0.000000     1.000000     0.000000     0.000000     0.000000     0.000000
   12    -1.000000    90.000000     0.000000     1.000000     0.000000     0.000000     0.000000     0.000000
   13     1.000000   180.000000     0.000000     0.000000     1.000000     0.000000     0.000000     0.000000
   14    -1.000000   180.000000     0.000000     0.000000     1.000000     0.000000     0.000000     0.000000
   15     1.000000   120.000000    -0.577350     0.577350     0.577350     0.000000     0.000000     0.000000
   16    -1.000000   120.000000    -0.577350     0.577350     0.577350     0.000000     0.000000     0.000000
   17     1.000000   120.000000    -0.577350     0.577350    -0.577350     0.000000     0.000000     0.000000
   18    -1.000000   120.000000    -0.577350     0.577350    -0.577350     0.000000     0.000000     0.000000
   19     1.000000    90.000000     0.000000     0.000000     1.000000     0.000000     0.000000     0.000000
   20    -1.000000    90.000000     0.000000     0.000000     1.000000     0.000000     0.000000     0.000000
   21     1.000000    90.000000    -1.000000     0.000000     0.000000     0.000000     0.000000     0.000000
   22    -1.000000    90.000000    -1.000000     0.000000     0.000000     0.000000     0.000000     0.000000
   23     1.000000   180.000000     0.707107     0.000000     0.707107     0.000000     0.000000     0.000000
   24    -1.000000   180.000000     0.707107     0.000000     0.707107     0.000000     0.000000     0.000000
   25     1.000000   120.000000     0.577350    -0.577350     0.577350     0.000000     0.000000     0.000000
   26    -1.000000   120.000000     0.577350    -0.577350     0.577350     0.000000     0.000000     0.000000
   27     1.000000   120.000000    -0.577350    -0.577350     0.577350     0.000000     0.000000     0.000000
   28    -1.000000   120.000000    -0.577350    -0.577350     0.577350     0.000000     0.000000     0.000000
   29     1.000000   180.000000     1.000000     0.000000     0.000000     0.000000     0.000000     0.000000
   30    -1.000000   180.000000     1.000000     0.000000     0.000000     0.000000     0.000000     0.000000
   31     1.000000    90.000000     0.000000    -1.000000     0.000000     0.000000     0.000000     0.000000
   32    -1.000000    90.000000     0.000000    -1.000000     0.000000     0.000000     0.000000     0.000000
   33     1.000000   180.000000     0.707107     0.707107     0.000000     0.000000     0.000000     0.000000
   34    -1.000000   180.000000     0.707107     0.707107     0.000000     0.000000     0.000000     0.000000
   35     1.000000    90.000000     1.000000     0.000000     0.000000     0.000000     0.000000     0.000000
   36    -1.000000    90.000000     1.000000     0.000000     0.000000     0.000000     0.000000     0.000000
   37     1.000000   120.000000     0.577350    -0.577350    -0.577350     0.000000     0.000000     0.000000
   38    -1.000000   120.000000     0.577350    -0.577350    -0.577350     0.000000     0.000000     0.000000
   39     1.000000   180.000000     0.000000     1.000000     0.000000     0.000000     0.000000     0.000000
   40    -1.000000   180.000000     0.000000     1.000000     0.000000     0.000000     0.000000     0.000000
   41     1.000000   120.000000     0.577350     0.577350    -0.577350     0.000000     0.000000     0.000000
   42    -1.000000   120.000000     0.577350     0.577350    -0.577350     0.000000     0.000000     0.000000
   43     1.000000   180.000000     0.000000    -0.707107     0.707107     0.000000     0.000000     0.000000
   44    -1.000000   180.000000     0.000000    -0.707107     0.707107     0.000000     0.000000     0.000000
   45     1.000000   180.000000     0.707107    -0.707107     0.000000     0.000000     0.000000     0.000000
   46    -1.000000   180.000000     0.707107    -0.707107     0.000000     0.000000     0.000000     0.000000
   47     1.000000   180.000000     0.707107     0.000000    -0.707107     0.000000     0.000000     0.000000
   48    -1.000000   180.000000     0.707107     0.000000    -0.707107     0.000000     0.000000     0.000000
 
 Subroutine IBZKPT returns following result:
 ===========================================
 
 Found    110 irreducible k-points:
 
 Following reciprocal coordinates:
            Coordinates               Weight
  0.050000  0.050000  0.050000     96.000000
  0.150000  0.050000  0.050000    288.000000
  0.250000  0.050000  0.050000    288.000000
  0.350000  0.050000  0.050000    288.000000
  0.450000  0.050000  0.050000    288.000000
 -0.450000  0.050000  0.050000    288.000000
 -0.350000  0.050000  0.050000    288.000000
 -0.250000  0.050000  0.050000    288.000000
 -0.150000  0.050000  0.050000    288.000000
 -0.050000  0.050000  0.050000    288.000000
  0.150000  0.150000  0.050000    288.000000
  0.250000  0.150000  0.050000    576.000000
  0.350000  0.150000  0.050000    576.000000
  0.450000  0.150000  0.050000    576.000000
 -0.450000  0.150000  0.050000    576.000000
 -0.350000  0.150000  0.050000    576.000000
 -0.250000  0.150000  0.050000    576.000000
 -0.150000  0.150000  0.050000    576.000000
 -0.050000  0.150000  0.050000    576.000000
  0.250000  0.250000  0.050000    288.000000
  0.350000  0.250000  0.050000    576.000000
  0.450000  0.250000  0.050000    576.000000
 -0.450000  0.250000  0.050000    576.000000
 -0.350000  0.250000  0.050000    576.000000
 -0.250000  0.250000  0.050000    576.000000
 -0.150000  0.250000  0.050000    576.000000
 -0.050000  0.250000  0.050000    576.000000
  0.350000  0.350000  0.050000    288.000000
  0.450000  0.350000  0.050000    576.000000
 -0.450000  0.350000  0.050000    576.000000
 -0.350000  0.350000  0.050000    576.000000
 -0.250000  0.350000  0.050000    576.000000
 -0.150000  0.350000  0.050000    576.000000
 -0.050000  0.350000  0.050000    576.000000
  0.450000  0.450000  0.050000    288.000000
 -0.450000  0.450000  0.050000    576.000000
 -0.350000  0.450000  0.050000    576.000000
 -0.250000  0.450000  0.050000    576.000000
 -0.150000  0.450000  0.050000    576.000000
 -0.050000  0.450000  0.050000    576.000000
 -0.450000 -0.450000  0.050000    288.000000
 -0.350000 -0.450000  0.050000    576.000000
 -0.250000 -0.450000  0.050000    576.000000
 -0.150000 -0.450000  0.050000    576.000000
 -0.350000 -0.350000  0.050000    288.000000
 -0.250000 -0.350000  0.050000    576.000000
 -0.150000 -0.350000  0.050000    576.000000
 -0.250000 -0.250000  0.050000    288.000000
 -0.150000 -0.250000  0.050000    576.000000
 -0.150000 -0.150000  0.050000    288.000000
  0.150000  0.150000  0.150000     96.000000
  0.250000  0.150000  0.150000    288.000000
  0.350000  0.150000  0.150000    288.000000
  0.450000  0.150000  0.150000    288.000000
 -0.450000  0.150000  0.150000    288.000000
 -0.350000  0.150000  0.150000    288.000000
 -0.250000  0.150000  0.150000    288.000000
 -0.150000  0.150000  0.150000    288.000000
  0.250000  0.250000  0.150000    288.000000
  0.350000  0.250000  0.150000    576.000000
  0.450000  0.250000  0.150000    576.000000
 -0.450000  0.250000  0.150000    576.000000
 -0.350000  0.250000  0.150000    576.000000
 -0.250000  0.250000  0.150000    576.000000
 -0.150000  0.250000  0.150000    576.000000
  0.350000  0.350000  0.150000    288.000000
  0.450000  0.350000  0.150000    576.000000
 -0.450000  0.350000  0.150000    576.000000
 -0.350000  0.350000  0.150000    576.000000
 -0.250000  0.350000  0.150000    576.000000
 -0.150000  0.350000  0.150000    576.000000
  0.450000  0.450000  0.150000    288.000000
 -0.450000  0.450000  0.150000    576.000000
 -0.350000  0.450000  0.150000    576.000000
 -0.250000  0.450000  0.150000    576.000000
 -0.150000  0.450000  0.150000    576.000000
 -0.450000 -0.450000  0.150000    288.000000
 -0.350000 -0.450000  0.150000    576.000000
 -0.250000 -0.450000  0.150000    576.000000
 -0.350000 -0.350000  0.150000    288.000000
 -0.250000 -0.350000  0.150000    576.000000
 -0.250000 -0.250000  0.150000    288.000000
  0.250000  0.250000  0.250000     96.000000
  0.350000  0.250000  0.250000    288.000000
  0.450000  0.250000  0.250000    288.000000
 -0.450000  0.250000  0.250000    288.000000
 -0.350000  0.250000  0.250000    288.000000
 -0.250000  0.250000  0.250000    288.000000
  0.350000  0.350000  0.250000    288.000000
  0.450000  0.350000  0.250000    576.000000
 -0.450000  0.350000  0.250000    576.000000
 -0.350000  0.350000  0.250000    576.000000
 -0.250000  0.350000  0.250000    576.000000
  0.450000  0.450000  0.250000    288.000000
 -0.450000  0.450000  0.250000    576.000000
 -0.350000  0.450000  0.250000    576.000000
 -0.250000  0.450000  0.250000    576.000000
 -0.450000 -0.450000  0.250000    288.000000
 -0.350000 -0.450000  0.250000    576.000000
 -0.350000 -0.350000  0.250000    288.000000
  0.350000  0.350000  0.350000     96.000000
  0.450000  0.350000  0.350000    288.000000
 -0.450000  0.350000  0.350000    288.000000
 -0.350000  0.350000  0.350000    288.000000
  0.450000  0.450000  0.350000    288.000000
 -0.450000  0.450000  0.350000    576.000000
 -0.350000  0.450000  0.350000    576.000000
 -0.450000 -0.450000  0.350000    288.000000
  0.450000  0.450000  0.450000     96.000000
 -0.450000  0.450000  0.450000    288.000000
 
 Following cartesian coordinates:
            Coordinates               Weight
  0.050000  0.050000  0.050000     96.000000
 -0.050000  0.150000  0.150000    288.000000
 -0.150000  0.250000  0.250000    288.000000
 -0.250000  0.350000  0.350000    288.000000
 -0.350000  0.450000  0.450000    288.000000
  0.550000 -0.450000 -0.450000    288.000000
  0.450000 -0.350000 -0.350000    288.000000
  0.350000 -0.250000 -0.250000    288.000000
  0.250000 -0.150000 -0.150000    288.000000
  0.150000 -0.050000 -0.050000    288.000000
  0.050000  0.050000  0.250000    288.000000
 -0.050000  0.150000  0.350000    576.000000
 -0.150000  0.250000  0.450000    576.000000
 -0.250000  0.350000  0.550000    576.000000
  0.650000 -0.550000 -0.350000    576.000000
  0.550000 -0.450000 -0.250000    576.000000
  0.450000 -0.350000 -0.150000    576.000000
  0.350000 -0.250000 -0.050000    576.000000
  0.250000 -0.150000  0.050000    576.000000
  0.050000  0.050000  0.450000    288.000000
 -0.050000  0.150000  0.550000    576.000000
 -0.150000  0.250000  0.650000    576.000000
  0.750000 -0.650000 -0.250000    576.000000
  0.650000 -0.550000 -0.150000    576.000000
  0.550000 -0.450000 -0.050000    576.000000
  0.450000 -0.350000  0.050000    576.000000
  0.350000 -0.250000  0.150000    576.000000
  0.050000  0.050000  0.650000    288.000000
 -0.050000  0.150000  0.750000    576.000000
  0.850000 -0.750000 -0.150000    576.000000
  0.750000 -0.650000 -0.050000    576.000000
  0.650000 -0.550000  0.050000    576.000000
  0.550000 -0.450000  0.150000    576.000000
  0.450000 -0.350000  0.250000    576.000000
  0.050000  0.050000  0.850000    288.000000
  0.950000 -0.850000 -0.050000    576.000000
  0.850000 -0.750000  0.050000    576.000000
  0.750000 -0.650000  0.150000    576.000000
  0.650000 -0.550000  0.250000    576.000000
  0.550000 -0.450000  0.350000    576.000000
  0.050000  0.050000 -0.950000    288.000000
 -0.050000  0.150000 -0.850000    576.000000
 -0.150000  0.250000 -0.750000    576.000000
 -0.250000  0.350000 -0.650000    576.000000
  0.050000  0.050000 -0.750000    288.000000
 -0.050000  0.150000 -0.650000    576.000000
 -0.150000  0.250000 -0.550000    576.000000
  0.050000  0.050000 -0.550000    288.000000
 -0.050000  0.150000 -0.450000    576.000000
  0.050000  0.050000 -0.350000    288.000000
  0.150000  0.150000  0.150000     96.000000
  0.050000  0.250000  0.250000    288.000000
 -0.050000  0.350000  0.350000    288.000000
 -0.150000  0.450000  0.450000    288.000000
  0.750000 -0.450000 -0.450000    288.000000
  0.650000 -0.350000 -0.350000    288.000000
  0.550000 -0.250000 -0.250000    288.000000
  0.450000 -0.150000 -0.150000    288.000000
  0.150000  0.150000  0.350000    288.000000
  0.050000  0.250000  0.450000    576.000000
 -0.050000  0.350000  0.550000    576.000000
  0.850000 -0.550000 -0.350000    576.000000
  0.750000 -0.450000 -0.250000    576.000000
  0.650000 -0.350000 -0.150000    576.000000
  0.550000 -0.250000 -0.050000    576.000000
  0.150000  0.150000  0.550000    288.000000
  0.050000  0.250000  0.650000    576.000000
  0.950000 -0.650000 -0.250000    576.000000
  0.850000 -0.550000 -0.150000    576.000000
  0.750000 -0.450000 -0.050000    576.000000
  0.650000 -0.350000  0.050000    576.000000
  0.150000  0.150000  0.750000    288.000000
  1.050000 -0.750000 -0.150000    576.000000
  0.950000 -0.650000 -0.050000    576.000000
  0.850000 -0.550000  0.050000    576.000000
  0.750000 -0.450000  0.150000    576.000000
  0.150000  0.150000 -1.050000    288.000000
  0.050000  0.250000 -0.950000    576.000000
 -0.050000  0.350000 -0.850000    576.000000
  0.150000  0.150000 -0.850000    288.000000
  0.050000  0.250000 -0.750000    576.000000
  0.150000  0.150000 -0.650000    288.000000
  0.250000  0.250000  0.250000     96.000000
  0.150000  0.350000  0.350000    288.000000
  0.050000  0.450000  0.450000    288.000000
  0.950000 -0.450000 -0.450000    288.000000
  0.850000 -0.350000 -0.350000    288.000000
  0.750000 -0.250000 -0.250000    288.000000
  0.250000  0.250000  0.450000    288.000000
  0.150000  0.350000  0.550000    576.000000
  1.050000 -0.550000 -0.350000    576.000000
  0.950000 -0.450000 -0.250000    576.000000
  0.850000 -0.350000 -0.150000    576.000000
  0.250000  0.250000  0.650000    288.000000
  1.150000 -0.650000 -0.250000    576.000000
  1.050000 -0.550000 -0.150000    576.000000
  0.950000 -0.450000 -0.050000    576.000000
  0.250000  0.250000 -1.150000    288.000000
  0.150000  0.350000 -1.050000    576.000000
  0.250000  0.250000 -0.950000    288.000000
  0.350000  0.350000  0.350000     96.000000
  0.250000  0.450000  0.450000    288.000000
  1.150000 -0.450000 -0.450000    288.000000
  1.050000 -0.350000 -0.350000    288.000000
  0.350000  0.350000  0.550000    288.000000
  1.250000 -0.550000 -0.350000    576.000000
  1.150000 -0.450000 -0.250000    576.000000
  0.350000  0.350000 -1.250000    288.000000
  0.450000  0.450000  0.450000     96.000000
  1.350000 -0.450000 -0.450000    288.000000
 


--------------------------------------------------------------------------------------------------------




 Dimension of arrays:
   k-points           NKPTS =    110   k-points in BZ     NKDIM =    110   number of bands    NBANDS=     12
   number of dos      NEDOS =    301   number of ions     NIONS =      1
   non local maximal  LDIM  =      6   non local SUM 2l+1 LMDIM =     18
   total plane-waves  NPLWV =   1728
   max r-space proj   IRMAX =      1   max aug-charges    IRDMAX=   6562
   dimension x,y,z NGX =    12 NGY =   12 NGZ =   12
   dimension x,y,z NGXF=    24 NGYF=   24 NGZF=   24
   support grid    NGXF=    24 NGYF=   24 NGZF=   24
   ions per type =               1
   NGX,Y,Z   is equivalent  to a cutoff of   6.97,  6.97,  6.97 a.u.
   NGXF,Y,Z  is equivalent  to a cutoff of  13.93, 13.93, 13.93 a.u.

 SYSTEM =  FCC Au                                  
 POSCAR =  FCC Au Bulk                             

 Startparameter for this run:
   NWRITE =      2    write-flag & timer
   PREC   = normal    normal or accurate (medium, high low for compatibility)
   ISTART =      1    job   : 0-new  1-cont  2-samecut
   ICHARG =      0    charge: 1-file 2-atom 10-const
   ISPIN  =      1    spin polarized calculation?
   LNONCOLLINEAR =      F non collinear calculations
   LSORBIT =      F    spin-orbit coupling
   INIWAV =      1    electr: 0-lowe 1-rand  2-diag
   LASPH  =      F    aspherical Exc in radial PAW
   METAGGA=      F    non-selfconsistent MetaGGA calc.

 Electronic Relaxation 1
   ENCUT  =  230.0 eV  16.90 Ry    4.11 a.u.   3.54  3.54  3.54*2*pi/ulx,y,z
   ENINI  =  230.0     initial cutoff
   ENAUG  =  356.7 eV  augmentation charge cutoff
   NELM   =     60;   NELMIN=  2; NELMDL=  0     # of ELM steps 
   EDIFF  = 0.1E-03   stopping-criterion for ELM
   LREAL  =      F    real-space projection
   NLSPLINE    = F    spline interpolate recip. space projectors
   LCOMPAT=      F    compatible to vasp.4.4
   GGA_COMPAT  = T    GGA compatible to vasp.4.4-vasp.4.6
   LMAXPAW     = -100 max onsite density
   LMAXMIX     =    2 max onsite mixed and CHGCAR
   VOSKOWN=      0    Vosko Wilk Nusair interpolation
   ROPT   =    0.00000
 Ionic relaxation
   EDIFFG = 0.1E-02   stopping-criterion for IOM
   NSW    =      0    number of steps for IOM
   NBLOCK =      1;   KBLOCK =      1    inner block; outer block 
   IBRION =     -1    ionic relax: 0-MD 1-quasi-New 2-CG
   NFREE  =      0    steps in history (QN), initial steepest desc. (CG)
   ISIF   =      2    stress and relaxation
   IWAVPR =     10    prediction:  0-non 1-charg 2-wave 3-comb
   ISYM   =      2    0-nonsym 1-usesym 2-fastsym
   LCORR  =      T    Harris-Foulkes like correction to forces

   POTIM  = 0.5000    time-step for ionic-motion
   TEIN   =    0.0    initial temperature
   TEBEG  =    0.0;   TEEND  =   0.0 temperature during run
   SMASS  =  -3.00    Nose mass-parameter (am)
   estimated Nose-frequenzy (Omega)   =  0.10E-29 period in steps =****** mass=  -0.187E-27a.u.
   SCALEE = 1.0000    scale energy and forces
   NPACO  =    256;   APACO  = 16.0  distance and # of slots for P.C.
   PSTRESS=    0.0 pullay stress

  Mass of Ions in am
   POMASS = 196.97
  Ionic Valenz
   ZVAL   =  11.00
  Atomic Wigner-Seitz radii
   RWIGS  =  -1.00
  virtual crystal weights 
   VCA    =   1.00
   NELECT =      11.0000    total number of electrons
   NUPDOWN=      -1.0000    fix difference up-down

 DOS related values:
   EMIN   =  10.00;   EMAX   =-10.00  energy-range for DOS
   EFERMI =   0.00
   ISMEAR =     1;   SIGMA  =   0.20  broadening in eV -4-tet -1-fermi 0-gaus

 Electronic relaxation 2 (details)
   IALGO  =     38    algorithm
   LDIAG  =      T    sub-space diagonalisation (order eigenvalues)
   LSUBROT=      F    optimize rotation matrix (better conditioning)
   TURBO    =      0    0=normal 1=particle mesh
   IRESTART =      0    0=no restart 2=restart with 2 vectors
   NREBOOT  =      0    no. of reboots
   NMIN     =      0    reboot dimension
   EREF     =   0.00    reference energy to select bands
   IMIX   =      4    mixing-type and parameters
     AMIX     =   0.40;   BMIX     =  1.00
     AMIX_MAG =   1.60;   BMIX_MAG =  1.00
     AMIN     =   0.10
     WC   =   100.;   INIMIX=   1;  MIXPRE=   1;  MAXMIX= -45

 Intra band minimization:
   WEIMIN = 0.0000     energy-eigenvalue tresh-hold
   EBREAK =  0.21E-05  absolut break condition
   DEPER  =   0.30     relativ break condition  

   TIME   =   0.40     timestep for ELM

  volume/ion in A,a.u.               =      16.61       112.07
  Fermi-wavevector in a.u.,A,eV,Ry     =   1.427044  2.696722 27.707647  2.036455
  Thomas-Fermi vector in A             =   2.547256
 
 Write flags
   LWAVE        =      T    write WAVECAR
   LDOWNSAMPLE  =      F    k-point downsampling of WAVECAR
   LCHARG       =      T    write CHGCAR
   LVTOT        =      F    write LOCPOT, total local potential
   LVHAR        =      F    write LOCPOT, Hartree potential only
   LELF         =      F    write electronic localiz. function (ELF)
   LORBIT       =      0    0 simple, 1 ext, 2 COOP (PROOUT), +10 PAW based schemes


 Dipole corrections
   LMONO  =      F    monopole corrections only (constant potential shift)
   LDIPOL =      F    correct potential (dipole corrections)
   IDIPOL =      0    1-x, 2-y, 3-z, 4-all directions 
   EPSILON=  1.0000000 bulk dielectric constant

 Exchange correlation treatment:
   GGA     =    --    GGA type
   LEXCH   =     2    internal setting for exchange type
   VOSKOWN=      0    Vosko Wilk Nusair interpolation
   LHFCALC =     F    Hartree Fock is set to
   LHFONE  =     F    Hartree Fock one center treatment
   AEXX    =    0.0000 exact exchange contribution

 Linear response parameters
   LEPSILON=     F    determine dielectric tensor
   LRPA    =     F    only Hartree local field effects (RPA)
   LNABLA  =     F    use nabla operator in PAW spheres
   LVEL    =     F    velocity operator in full k-point grid
   LINTERFAST=   F  fast interpolation
   KINTER  =     0    interpolate to denser k-point grid
   CSHIFT  =0.1000    complex shift for real part using Kramers Kronig
   OMEGAMAX=  -1.0    maximum frequency
   DEG_THRESHOLD= 0.2000000E-02 threshold for treating states as degnerate
   RTIME   =   -0.100 relaxation time in fs
  (WPLASMAI=    0.000 imaginary part of plasma frequency in eV, 0.658/RTIME)
   DFIELD  = 0.0000000 0.0000000 0.0000000 field for delta impulse in time
 
 Orbital magnetization related:
   ORBITALMAG=     F  switch on orbital magnetization
   LCHIMAG   =     F  perturbation theory with respect to B field
   DQ        =  0.001000  dq finite difference perturbation B field
   LLRAUG    =     F  two centre corrections for induced B field



--------------------------------------------------------------------------------------------------------


 Static calculation
 charge density and potential will be updated during run
 non-spin polarized calculation
 Variant of blocked Davidson
 Davidson routine will perform the subspace rotation
 perform sub-space diagonalisation
    after iterative eigenvector-optimisation
 modified Broyden-mixing scheme, WC =      100.0
 initial mixing is a Kerker type mixing with AMIX =  0.4000 and BMIX =      1.0000
 Hartree-type preconditioning will be used
 using additional bands            6
 reciprocal scheme for non local part
 use partial core corrections
 calculate Harris-corrections to forces 
   (improved forces if not selfconsistent)
 use of overlap-Matrix (Vanderbilt PP)
 Methfessel and Paxton  Order N= 1 SIGMA  =   0.20


--------------------------------------------------------------------------------------------------------


  energy-cutoff  :      230.00
  volume of cell :       16.61
      direct lattice vectors                 reciprocal lattice vectors
     0.000000000  2.025000000  2.025000000    -0.246913580  0.246913580  0.246913580
     2.025000000  0.000000000  2.025000000     0.246913580 -0.246913580  0.246913580
     2.025000000  2.025000000  0.000000000     0.246913580  0.246913580 -0.246913580

  length of vectors
     2.863782464  2.863782464  2.863782464     0.427666866  0.427666866  0.427666866


 
 old parameters found on file WAVECAR:
  energy-cutoff  :      287.34
  volume of cell :       16.61
      direct lattice vectors                 reciprocal lattice vectors
     0.000000000  2.025000000  2.025000000    -0.246913580  0.246913580  0.246913580
     2.025000000  0.000000000  2.025000000     0.246913580 -0.246913580  0.246913580
     2.025000000  2.025000000  0.000000000     0.246913580  0.246913580 -0.246913580

  length of vectors

 
 k-points in units of 2pi/SCALE and weight: 10x10x10                                
   0.05000000  0.05000000  0.05000000       0.002
  -0.05000000  0.15000000  0.15000000       0.006
  -0.15000000  0.25000000  0.25000000       0.006
  -0.25000000  0.35000000  0.35000000       0.006
  -0.35000000  0.45000000  0.45000000       0.006
   0.55000000 -0.45000000 -0.45000000       0.006
   0.45000000 -0.35000000 -0.35000000       0.006
   0.35000000 -0.25000000 -0.25000000       0.006
   0.25000000 -0.15000000 -0.15000000       0.006
   0.15000000 -0.05000000 -0.05000000       0.006
   0.05000000  0.05000000  0.25000000       0.006
  -0.05000000  0.15000000  0.35000000       0.012
  -0.15000000  0.25000000  0.45000000       0.012
  -0.25000000  0.35000000  0.55000000       0.012
   0.65000000 -0.55000000 -0.35000000       0.012
   0.55000000 -0.45000000 -0.25000000       0.012
   0.45000000 -0.35000000 -0.15000000       0.012
   0.35000000 -0.25000000 -0.05000000       0.012
   0.25000000 -0.15000000  0.05000000       0.012
   0.05000000  0.05000000  0.45000000       0.006
  -0.05000000  0.15000000  0.55000000       0.012
  -0.15000000  0.25000000  0.65000000       0.012
   0.75000000 -0.65000000 -0.25000000       0.012
   0.65000000 -0.55000000 -0.15000000       0.012
   0.55000000 -0.45000000 -0.05000000       0.012
   0.45000000 -0.35000000  0.05000000       0.012
   0.35000000 -0.25000000  0.15000000       0.012
   0.05000000  0.05000000  0.65000000       0.006
  -0.05000000  0.15000000  0.75000000       0.012
   0.85000000 -0.75000000 -0.15000000       0.012
   0.75000000 -0.65000000 -0.05000000       0.012
   0.65000000 -0.55000000  0.05000000       0.012
   0.55000000 -0.45000000  0.15000000       0.012
   0.45000000 -0.35000000  0.25000000       0.012
   0.05000000  0.05000000  0.85000000       0.006
   0.95000000 -0.85000000 -0.05000000       0.012
   0.85000000 -0.75000000  0.05000000       0.012
   0.75000000 -0.65000000  0.15000000       0.012
   0.65000000 -0.55000000  0.25000000       0.012
   0.55000000 -0.45000000  0.35000000       0.012
   0.05000000  0.05000000 -0.95000000       0.006
  -0.05000000  0.15000000 -0.85000000       0.012
  -0.15000000  0.25000000 -0.75000000       0.012
  -0.25000000  0.35000000 -0.65000000       0.012
   0.05000000  0.05000000 -0.75000000       0.006
  -0.05000000  0.15000000 -0.65000000       0.012
  -0.15000000  0.25000000 -0.55000000       0.012
   0.05000000  0.05000000 -0.55000000       0.006
  -0.05000000  0.15000000 -0.45000000       0.012
   0.05000000  0.05000000 -0.35000000       0.006
   0.15000000  0.15000000  0.15000000       0.002
   0.05000000  0.25000000  0.25000000       0.006
  -0.05000000  0.35000000  0.35000000       0.006
  -0.15000000  0.45000000  0.45000000       0.006
   0.75000000 -0.45000000 -0.45000000       0.006
   0.65000000 -0.35000000 -0.35000000       0.006
   0.55000000 -0.25000000 -0.25000000       0.006
   0.45000000 -0.15000000 -0.15000000       0.006
   0.15000000  0.15000000  0.35000000       0.006
   0.05000000  0.25000000  0.45000000       0.012
  -0.05000000  0.35000000  0.55000000       0.012
   0.85000000 -0.55000000 -0.35000000       0.012
   0.75000000 -0.45000000 -0.25000000       0.012
   0.65000000 -0.35000000 -0.15000000       0.012
   0.55000000 -0.25000000 -0.05000000       0.012
   0.15000000  0.15000000  0.55000000       0.006
   0.05000000  0.25000000  0.65000000       0.012
   0.95000000 -0.65000000 -0.25000000       0.012
   0.85000000 -0.55000000 -0.15000000       0.012
   0.75000000 -0.45000000 -0.05000000       0.012
   0.65000000 -0.35000000  0.05000000       0.012
   0.15000000  0.15000000  0.75000000       0.006
   1.05000000 -0.75000000 -0.15000000       0.012
   0.95000000 -0.65000000 -0.05000000       0.012
   0.85000000 -0.55000000  0.05000000       0.012
   0.75000000 -0.45000000  0.15000000       0.012
   0.15000000  0.15000000 -1.05000000       0.006
   0.05000000  0.25000000 -0.95000000       0.012
  -0.05000000  0.35000000 -0.85000000       0.012
   0.15000000  0.15000000 -0.85000000       0.006
   0.05000000  0.25000000 -0.75000000       0.012
   0.15000000  0.15000000 -0.65000000       0.006
   0.25000000  0.25000000  0.25000000       0.002
   0.15000000  0.35000000  0.35000000       0.006
   0.05000000  0.45000000  0.45000000       0.006
   0.95000000 -0.45000000 -0.45000000       0.006
   0.85000000 -0.35000000 -0.35000000       0.006
   0.75000000 -0.25000000 -0.25000000       0.006
   0.25000000  0.25000000  0.45000000       0.006
   0.15000000  0.35000000  0.55000000       0.012
   1.05000000 -0.55000000 -0.35000000       0.012
   0.95000000 -0.45000000 -0.25000000       0.012
   0.85000000 -0.35000000 -0.15000000       0.012
   0.25000000  0.25000000  0.65000000       0.006
   1.15000000 -0.65000000 -0.25000000       0.012
   1.05000000 -0.55000000 -0.15000000       0.012
   0.95000000 -0.45000000 -0.05000000       0.012
   0.25000000  0.25000000 -1.15000000       0.006
   0.15000000  0.35000000 -1.05000000       0.012
   0.25000000  0.25000000 -0.95000000       0.006
   0.35000000  0.35000000  0.35000000       0.002
   0.25000000  0.45000000  0.45000000       0.006
   1.15000000 -0.45000000 -0.45000000       0.006
   1.05000000 -0.35000000 -0.35000000       0.006
   0.35000000  0.35000000  0.55000000       0.006
   1.25000000 -0.55000000 -0.35000000       0.012
   1.15000000 -0.45000000 -0.25000000       0.012
   0.35000000  0.35000000 -1.25000000       0.006
   0.45000000  0.45000000  0.45000000       0.002
   1.35000000 -0.45000000 -0.45000000       0.006
 
 k-points in reciprocal lattice and weights: 10x10x10                                
   0.05000000  0.05000000  0.05000000       0.002
   0.15000000  0.05000000  0.05000000       0.006
   0.25000000  0.05000000  0.05000000       0.006
   0.35000000  0.05000000  0.05000000       0.006
   0.45000000  0.05000000  0.05000000       0.006
  -0.45000000  0.05000000  0.05000000       0.006
  -0.35000000  0.05000000  0.05000000       0.006
  -0.25000000  0.05000000  0.05000000       0.006
  -0.15000000  0.05000000  0.05000000       0.006
  -0.05000000  0.05000000  0.05000000       0.006
   0.15000000  0.15000000  0.05000000       0.006
   0.25000000  0.15000000  0.05000000       0.012
   0.35000000  0.15000000  0.05000000       0.012
   0.45000000  0.15000000  0.05000000       0.012
  -0.45000000  0.15000000  0.05000000       0.012
  -0.35000000  0.15000000  0.05000000       0.012
  -0.25000000  0.15000000  0.05000000       0.012
  -0.15000000  0.15000000  0.05000000       0.012
  -0.05000000  0.15000000  0.05000000       0.012
   0.25000000  0.25000000  0.05000000       0.006
   0.35000000  0.25000000  0.05000000       0.012
   0.45000000  0.25000000  0.05000000       0.012
  -0.45000000  0.25000000  0.05000000       0.012
  -0.35000000  0.25000000  0.05000000       0.012
  -0.25000000  0.25000000  0.05000000       0.012
  -0.15000000  0.25000000  0.05000000       0.012
  -0.05000000  0.25000000  0.05000000       0.012
   0.35000000  0.35000000  0.05000000       0.006
   0.45000000  0.35000000  0.05000000       0.012
  -0.45000000  0.35000000  0.05000000       0.012
  -0.35000000  0.35000000  0.05000000       0.012
  -0.25000000  0.35000000  0.05000000       0.012
  -0.15000000  0.35000000  0.05000000       0.012
  -0.05000000  0.35000000  0.05000000       0.012
   0.45000000  0.45000000  0.05000000       0.006
  -0.45000000  0.45000000  0.05000000       0.012
  -0.35000000  0.45000000  0.05000000       0.012
  -0.25000000  0.45000000  0.05000000       0.012
  -0.15000000  0.45000000  0.05000000       0.012
  -0.05000000  0.45000000  0.05000000       0.012
  -0.45000000 -0.45000000  0.05000000       0.006
  -0.35000000 -0.45000000  0.05000000       0.012
  -0.25000000 -0.45000000  0.05000000       0.012
  -0.15000000 -0.45000000  0.05000000       0.012
  -0.35000000 -0.35000000  0.05000000       0.006
  -0.25000000 -0.35000000  0.05000000       0.012
  -0.15000000 -0.35000000  0.05000000       0.012
  -0.25000000 -0.25000000  0.05000000       0.006
  -0.15000000 -0.25000000  0.05000000       0.012
  -0.15000000 -0.15000000  0.05000000       0.006
   0.15000000  0.15000000  0.15000000       0.002
   0.25000000  0.15000000  0.15000000       0.006
   0.35000000  0.15000000  0.15000000       0.006
   0.45000000  0.15000000  0.15000000       0.006
  -0.45000000  0.15000000  0.15000000       0.006
  -0.35000000  0.15000000  0.15000000       0.006
  -0.25000000  0.15000000  0.15000000       0.006
  -0.15000000  0.15000000  0.15000000       0.006
   0.25000000  0.25000000  0.15000000       0.006
   0.35000000  0.25000000  0.15000000       0.012
   0.45000000  0.25000000  0.15000000       0.012
  -0.45000000  0.25000000  0.15000000       0.012
  -0.35000000  0.25000000  0.15000000       0.012
  -0.25000000  0.25000000  0.15000000       0.012
  -0.15000000  0.25000000  0.15000000       0.012
   0.35000000  0.35000000  0.15000000       0.006
   0.45000000  0.35000000  0.15000000       0.012
  -0.45000000  0.35000000  0.15000000       0.012
  -0.35000000  0.35000000  0.15000000       0.012
  -0.25000000  0.35000000  0.15000000       0.012
  -0.15000000  0.35000000  0.15000000       0.012
   0.45000000  0.45000000  0.15000000       0.006
  -0.45000000  0.45000000  0.15000000       0.012
  -0.35000000  0.45000000  0.15000000       0.012
  -0.25000000  0.45000000  0.15000000       0.012
  -0.15000000  0.45000000  0.15000000       0.012
  -0.45000000 -0.45000000  0.15000000       0.006
  -0.35000000 -0.45000000  0.15000000       0.012
  -0.25000000 -0.45000000  0.15000000       0.012
  -0.35000000 -0.35000000  0.15000000       0.006
  -0.25000000 -0.35000000  0.15000000       0.012
  -0.25000000 -0.25000000  0.15000000       0.006
   0.25000000  0.25000000  0.25000000       0.002
   0.35000000  0.25000000  0.25000000       0.006
   0.45000000  0.25000000  0.25000000       0.006
  -0.45000000  0.25000000  0.25000000       0.006
  -0.35000000  0.25000000  0.25000000       0.006
  -0.25000000  0.25000000  0.25000000       0.006
   0.35000000  0.35000000  0.25000000       0.006
   0.45000000  0.35000000  0.25000000       0.012
  -0.45000000  0.35000000  0.25000000       0.012
  -0.35000000  0.35000000  0.25000000       0.012
  -0.25000000  0.35000000  0.25000000       0.012
   0.45000000  0.45000000  0.25000000       0.006
  -0.45000000  0.45000000  0.25000000       0.012
  -0.35000000  0.45000000  0.25000000       0.012
  -0.25000000  0.45000000  0.25000000       0.012
  -0.45000000 -0.45000000  0.25000000       0.006
  -0.35000000 -0.45000000  0.25000000       0.012
  -0.35000000 -0.35000000  0.25000000       0.006
   0.35000000  0.35000000  0.35000000       0.002
   0.45000000  0.35000000  0.35000000       0.006
  -0.45000000  0.35000000  0.35000000       0.006
  -0.35000000  0.35000000  0.35000000       0.006
   0.45000000  0.45000000  0.35000000       0.006
  -0.45000000  0.45000000  0.35000000       0.012
  -0.35000000  0.45000000  0.35000000       0.012
  -0.45000000 -0.45000000  0.35000000       0.006
   0.45000000  0.45000000  0.45000000       0.002
  -0.45000000  0.45000000  0.45000000       0.006
 
 position of ions in fractional coordinates (direct lattice) 
   0.00000000  0.00000000  0.00000000
 
 position of ions in cartesian coordinates  (Angst):
   0.00000000  0.00000000  0.00000000
 


--------------------------------------------------------------------------------------------------------


 k-point  1 :   0.0500 0.0500 0.0500  plane waves:     137
 k-point  2 :   0.1500 0.0500 0.0500  plane waves:     133
 k-point  3 :   0.2500 0.0500 0.0500  plane waves:     137
 k-point  4 :   0.3500 0.0500 0.0500  plane waves:     140
 k-point  5 :   0.4500 0.0500 0.0500  plane waves:     131
 k-point  6 :  -0.4500 0.0500 0.0500  plane waves:     131
 k-point  7 :  -0.3500 0.0500 0.0500  plane waves:     138
 k-point  8 :  -0.2500 0.0500 0.0500  plane waves:     139
 k-point  9 :  -0.1500 0.0500 0.0500  plane waves:     136
 k-point 10 :  -0.0500 0.0500 0.0500  plane waves:     132
 k-point 11 :   0.1500 0.1500 0.0500  plane waves:     134
 k-point 12 :   0.2500 0.1500 0.0500  plane waves:     136
 k-point 13 :   0.3500 0.1500 0.0500  plane waves:     136
 k-point 14 :   0.4500 0.1500 0.0500  plane waves:     134
 k-point 15 :  -0.4500 0.1500 0.0500  plane waves:     130
 k-point 16 :  -0.3500 0.1500 0.0500  plane waves:     133
 k-point 17 :  -0.2500 0.1500 0.0500  plane waves:     136
 k-point 18 :  -0.1500 0.1500 0.0500  plane waves:     137
 k-point 19 :  -0.0500 0.1500 0.0500  plane waves:     136
 k-point 20 :   0.2500 0.2500 0.0500  plane waves:     132
 k-point 21 :   0.3500 0.2500 0.0500  plane waves:     133
 k-point 22 :   0.4500 0.2500 0.0500  plane waves:     132
 k-point 23 :  -0.4500 0.2500 0.0500  plane waves:     129
 k-point 24 :  -0.3500 0.2500 0.0500  plane waves:     128
 k-point 25 :  -0.2500 0.2500 0.0500  plane waves:     133
 k-point 26 :  -0.1500 0.2500 0.0500  plane waves:     135
 k-point 27 :  -0.0500 0.2500 0.0500  plane waves:     136
 k-point 28 :   0.3500 0.3500 0.0500  plane waves:     129
 k-point 29 :   0.4500 0.3500 0.0500  plane waves:     130
 k-point 30 :  -0.4500 0.3500 0.0500  plane waves:     127
 k-point 31 :  -0.3500 0.3500 0.0500  plane waves:     129
 k-point 32 :  -0.2500 0.3500 0.0500  plane waves:     131
 k-point 33 :  -0.1500 0.3500 0.0500  plane waves:     132
 k-point 34 :  -0.0500 0.3500 0.0500  plane waves:     136
 k-point 35 :   0.4500 0.4500 0.0500  plane waves:     127
 k-point 36 :  -0.4500 0.4500 0.0500  plane waves:     126
 k-point 37 :  -0.3500 0.4500 0.0500  plane waves:     128
 k-point 38 :  -0.2500 0.4500 0.0500  plane waves:     129
 k-point 39 :  -0.1500 0.4500 0.0500  plane waves:     128
 k-point 40 :  -0.0500 0.4500 0.0500  plane waves:     132
 k-point 41 :  -0.4500-0.4500 0.0500  plane waves:     121
 k-point 42 :  -0.3500-0.4500 0.0500  plane waves:     128
 k-point 43 :  -0.2500-0.4500 0.0500  plane waves:     129
 k-point 44 :  -0.1500-0.4500 0.0500  plane waves:     131
 k-point 45 :  -0.3500-0.3500 0.0500  plane waves:     129
 k-point 46 :  -0.2500-0.3500 0.0500  plane waves:     132
 k-point 47 :  -0.1500-0.3500 0.0500  plane waves:     135
 k-point 48 :  -0.2500-0.2500 0.0500  plane waves:     133
 k-point 49 :  -0.1500-0.2500 0.0500  plane waves:     136
 k-point 50 :  -0.1500-0.1500 0.0500  plane waves:     134
 k-point 51 :   0.1500 0.1500 0.1500  plane waves:     132
 k-point 52 :   0.2500 0.1500 0.1500  plane waves:     137
 k-point 53 :   0.3500 0.1500 0.1500  plane waves:     137
 k-point 54 :   0.4500 0.1500 0.1500  plane waves:     133
 k-point 55 :  -0.4500 0.1500 0.1500  plane waves:     129
 k-point 56 :  -0.3500 0.1500 0.1500  plane waves:     133
 k-point 57 :  -0.2500 0.1500 0.1500  plane waves:     134
 k-point 58 :  -0.1500 0.1500 0.1500  plane waves:     136
 k-point 59 :   0.2500 0.2500 0.1500  plane waves:     138
 k-point 60 :   0.3500 0.2500 0.1500  plane waves:     136
 k-point 61 :   0.4500 0.2500 0.1500  plane waves:     134
 k-point 62 :  -0.4500 0.2500 0.1500  plane waves:     132
 k-point 63 :  -0.3500 0.2500 0.1500  plane waves:     129
 k-point 64 :  -0.2500 0.2500 0.1500  plane waves:     133
 k-point 65 :  -0.1500 0.2500 0.1500  plane waves:     134
 k-point 66 :   0.3500 0.3500 0.1500  plane waves:     136
 k-point 67 :   0.4500 0.3500 0.1500  plane waves:     131
 k-point 68 :  -0.4500 0.3500 0.1500  plane waves:     129
 k-point 69 :  -0.3500 0.3500 0.1500  plane waves:     129
 k-point 70 :  -0.2500 0.3500 0.1500  plane waves:     130
 k-point 71 :  -0.1500 0.3500 0.1500  plane waves:     131
 k-point 72 :   0.4500 0.4500 0.1500  plane waves:     131
 k-point 73 :  -0.4500 0.4500 0.1500  plane waves:     127
 k-point 74 :  -0.3500 0.4500 0.1500  plane waves:     129
 k-point 75 :  -0.2500 0.4500 0.1500  plane waves:     127
 k-point 76 :  -0.1500 0.4500 0.1500  plane waves:     131
 k-point 77 :  -0.4500-0.4500 0.1500  plane waves:     129
 k-point 78 :  -0.3500-0.4500 0.1500  plane waves:     129
 k-point 79 :  -0.2500-0.4500 0.1500  plane waves:     127
 k-point 80 :  -0.3500-0.3500 0.1500  plane waves:     129
 k-point 81 :  -0.2500-0.3500 0.1500  plane waves:     129
 k-point 82 :  -0.2500-0.2500 0.1500  plane waves:     134
 k-point 83 :   0.2500 0.2500 0.2500  plane waves:     138
 k-point 84 :   0.3500 0.2500 0.2500  plane waves:     138
 k-point 85 :   0.4500 0.2500 0.2500  plane waves:     135
 k-point 86 :  -0.4500 0.2500 0.2500  plane waves:     133
 k-point 87 :  -0.3500 0.2500 0.2500  plane waves:     127
 k-point 88 :  -0.2500 0.2500 0.2500  plane waves:     130
 k-point 89 :   0.3500 0.3500 0.2500  plane waves:     136
 k-point 90 :   0.4500 0.3500 0.2500  plane waves:     133
 k-point 91 :  -0.4500 0.3500 0.2500  plane waves:     132
 k-point 92 :  -0.3500 0.3500 0.2500  plane waves:     129
 k-point 93 :  -0.2500 0.3500 0.2500  plane waves:     129
 k-point 94 :   0.4500 0.4500 0.2500  plane waves:     132
 k-point 95 :  -0.4500 0.4500 0.2500  plane waves:     128
 k-point 96 :  -0.3500 0.4500 0.2500  plane waves:     130
 k-point 97 :  -0.2500 0.4500 0.2500  plane waves:     126
 k-point 98 :  -0.4500-0.4500 0.2500  plane waves:     128
 k-point 99 :  -0.3500-0.4500 0.2500  plane waves:     129
 k-point ** :  -0.3500-0.3500 0.2500  plane waves:     130
 k-point ** :   0.3500 0.3500 0.3500  plane waves:     138
 k-point ** :   0.4500 0.3500 0.3500  plane waves:     135
 k-point ** :  -0.4500 0.3500 0.3500  plane waves:     131
 k-point ** :  -0.3500 0.3500 0.3500  plane waves:     127
 k-point ** :   0.4500 0.4500 0.3500  plane waves:     132
 k-point ** :  -0.4500 0.4500 0.3500  plane waves:     131
 k-point ** :  -0.3500 0.4500 0.3500  plane waves:     128
 k-point ** :  -0.4500-0.4500 0.3500  plane waves:     127
 k-point ** :   0.4500 0.4500 0.4500  plane waves:     135
 k-point ** :  -0.4500 0.4500 0.4500  plane waves:     129

 maximum and minimum number of plane-waves per node :       140      121

 maximum number of plane-waves:       140
 maximum index in each direction: 
   IXMAX=    3   IYMAX=    3   IZMAX=    3
   IXMIN=   -3   IYMIN=   -3   IZMIN=   -3


 serial   3D FFT for wavefunctions
 parallel 3D FFT for charge:
    minimum data exchange during FFTs selected (reduces bandwidth)


 total amount of memory used by VASP MPI-rank0    33647. kBytes
=======================================================================

   base      :      30000. kBytes
   nonl-proj :       2219. kBytes
   fftplans  :        238. kBytes
   grid      :        331. kBytes
   one-center:         15. kBytes
   wavefun   :        844. kBytes
 
     INWAV:  cpu time    0.0288: real time    0.0754
 Broyden mixing: mesh for mixing (old mesh)
   NGX =  7   NGY =  7   NGZ =  7
  (NGX  = 24   NGY  = 24   NGZ  = 24)
  gives a total of    343 points

 charge density for first step will be calculated from the start-wavefunctions


--------------------------------------------------------------------------------------------------------


 Maximum index for augmentation-charges         1509 (set IRDMAX)


--------------------------------------------------------------------------------------------------------


 initial charge from wavefunction
 First call to EWALD:  gamma=   0.695
 Maximum number of real-space cells 3x 3x 3
 Maximum number of reciprocal cells 3x 3x 3

    FEWALD:  cpu time    0.0012: real time    0.0012


--------------------------------------- Iteration      1(   1)  ---------------------------------------


    POTLOK:  cpu time    0.0014: real time    0.0086
    SETDIJ:  cpu time    0.0023: real time    0.0026
     EDDAV:  cpu time    0.3197: real time    0.9355
       DOS:  cpu time    0.0014: real time    0.0015
    CHARGE:  cpu time    0.0038: real time    0.0112
    MIXING:  cpu time    0.0003: real time    0.0006
    --------------------------------------------
      LOOP:  cpu time    0.3289: real time    0.9600

 eigenvalue-minimisations  :  3088
 total energy-change (2. order) :-0.4396359E+01  (-0.6954588E-02)
 number of electron      11.0000038 magnetization 
 augmentation part        3.9702038 magnetization 

 Broyden mixing:
  rms(total) = 0.40293E-01    rms(broyden)= 0.40285E-01
  rms(prec ) = 0.14898E+00
  weight for this iteration     100.00

 Free energy of the ion-electron system (eV)
  ---------------------------------------------------
  alpha Z        PSCENC =       110.66541513
  Ewald energy   TEWEN  =      -986.24019799
  -Hartree energ DENC   =      -109.43934093
  -exchange      EXHF   =         0.00000000
  -V(xc)+E(xc)   XCENC  =        15.86068704
  PAW double counting   =       757.73616444     -739.99431444
  entropy T*S    EENTRO =         0.00077999
  eigenvalues    EBANDS =        17.61811531
  atomic energy  EATOM  =       929.39633208
  Solvation  Ediel_sol  =         0.00000000
  ---------------------------------------------------
  free energy    TOTEN  =        -4.39635938 eV

  energy without entropy =       -4.39713937  energy(sigma->0) =       -4.39661938


--------------------------------------------------------------------------------------------------------




--------------------------------------- Iteration      1(   2)  ---------------------------------------


    POTLOK:  cpu time    0.0021: real time    0.0088
    SETDIJ:  cpu time    0.0005: real time    0.0042
     EDDAV:  cpu time    0.2975: real time    0.8950
       DOS:  cpu time    0.0015: real time    0.0014
    CHARGE:  cpu time    0.0038: real time    0.0082
    MIXING:  cpu time    0.0006: real time    0.0053
    --------------------------------------------
      LOOP:  cpu time    0.3060: real time    0.9229

 eigenvalue-minimisations  :  2876
 total energy-change (2. order) : 0.4778238E-02  (-0.1395921E-02)
 number of electron      11.0000038 magnetization 
 augmentation part        3.9887320 magnetization 

 Broyden mixing:
  rms(total) = 0.74466E-02    rms(broyden)= 0.74442E-02
  rms(prec ) = 0.26998E-01
  weight for this iteration     100.00

 eigenvalues of (default mixing * dielectric matrix)
  average eigenvalue GAMMA=   1.2266
  1.2266

 Free energy of the ion-electron system (eV)
  ---------------------------------------------------
  alpha Z        PSCENC =       110.66541513
  Ewald energy   TEWEN  =      -986.24019799
  -Hartree energ DENC   =      -108.58454534
  -exchange      EXHF   =         0.00000000
  -V(xc)+E(xc)   XCENC  =        15.81932694
  PAW double counting   =       756.32438643     -738.59224862
  entropy T*S    EENTRO =         0.00086881
  eigenvalues    EBANDS =        16.81908141
  atomic energy  EATOM  =       929.39633208
  Solvation  Ediel_sol  =         0.00000000
  ---------------------------------------------------
  free energy    TOTEN  =        -4.39158114 eV

  energy without entropy =       -4.39244995  energy(sigma->0) =       -4.39187074


--------------------------------------------------------------------------------------------------------




--------------------------------------- Iteration      1(   3)  ---------------------------------------


    POTLOK:  cpu time    0.0016: real time    0.0043
    SETDIJ:  cpu time    0.0011: real time    0.0021
     EDDAV:  cpu time    0.2969: real time    0.9061
       DOS:  cpu time    0.0014: real time    0.0014
    CHARGE:  cpu time    0.0037: real time    0.0069
    MIXING:  cpu time    0.0005: real time    0.0076
    --------------------------------------------
      LOOP:  cpu time    0.3053: real time    0.9284

 eigenvalue-minimisations  :  2988
 total energy-change (2. order) : 0.1628274E-03  (-0.7855833E-04)
 number of electron      11.0000038 magnetization 
 augmentation part        3.9930489 magnetization 

 Broyden mixing:
  rms(total) = 0.39739E-03    rms(broyden)= 0.38080E-03
  rms(prec ) = 0.11292E-02
  weight for this iteration     100.00

 eigenvalues of (default mixing * dielectric matrix)
  average eigenvalue GAMMA=   1.5727
  1.2397  1.9057

 Free energy of the ion-electron system (eV)
  ---------------------------------------------------
  alpha Z        PSCENC =       110.66541513
  Ewald energy   TEWEN  =      -986.24019799
  -Hartree energ DENC   =      -108.39665728
  -exchange      EXHF   =         0.00000000
  -V(xc)+E(xc)   XCENC  =        15.81026815
  PAW double counting   =       756.17800715     -738.44088124
  entropy T*S    EENTRO =         0.00088069
  eigenvalues    EBANDS =        16.63541500
  atomic energy  EATOM  =       929.39633208
  Solvation  Ediel_sol  =         0.00000000
  ---------------------------------------------------
  free energy    TOTEN  =        -4.39141831 eV

  energy without entropy =       -4.39229900  energy(sigma->0) =       -4.39171188


--------------------------------------------------------------------------------------------------------




--------------------------------------- Iteration      1(   4)  ---------------------------------------


    POTLOK:  cpu time    0.0016: real time    0.0016
    SETDIJ:  cpu time    0.0006: real time    0.0016
     EDDAV:  cpu time    0.2188: real time    0.6710
       DOS:  cpu time    0.0014: real time    0.0014
    --------------------------------------------
      LOOP:  cpu time    0.2224: real time    0.6756

 eigenvalue-minimisations  :  1404
 total energy-change (2. order) :-0.2425323E-05  (-0.5501415E-06)
 number of electron      11.0000038 magnetization 
 augmentation part        3.9930489 magnetization 

 Free energy of the ion-electron system (eV)
  ---------------------------------------------------
  alpha Z        PSCENC =       110.66541513
  Ewald energy   TEWEN  =      -986.24019799
  -Hartree energ DENC   =      -108.40591801
  -exchange      EXHF   =         0.00000000
  -V(xc)+E(xc)   XCENC  =        15.81074247
  PAW double counting   =       756.34229171     -738.59929609
  entropy T*S    EENTRO =         0.00088057
  eigenvalues    EBANDS =        16.63832940
  atomic energy  EATOM  =       929.39633208
  Solvation  Ediel_sol  =         0.00000000
  ---------------------------------------------------
  free energy    TOTEN  =        -4.39142074 eV

  energy without entropy =       -4.39230131  energy(sigma->0) =       -4.39171426


--------------------------------------------------------------------------------------------------------




 average (electrostatic) potential at core
  the test charge radii are     1.2098
  (the norm of the test charge is              1.0000)
       1 -45.5752
 
 
 
 E-fermi :   5.8731     XC(G=0): -13.1332     alpha+bet :-10.5603


 k-point     1 :       0.0500    0.0500    0.0500
  band No.  band energies     occupation 
      1      -4.2233      2.00000
      2       1.0091      2.00000
      3       1.0717      2.00000
      4       1.0717      2.00000
      5       2.6380      2.00000
      6       2.6380      2.00000
      7      21.3268      0.00000
      8      24.5378      0.00000
      9      25.3161      0.00000
     10      25.3161      0.00000
     11      30.1949      0.00000
     12      33.3630      0.00000

 k-point     2 :       0.1500    0.0500    0.0500
  band No.  band energies     occupation 
      1      -3.7587      2.00000
      2       0.8507      2.00000
      3       1.2159      2.00000
      4       1.2499      2.00000
      5       2.4863      2.00000
      6       2.6918      2.00000
      7      21.6902      0.00000
      8      22.5667      0.00000
      9      24.9676      0.00000
     10      26.2639      0.00000
     11      29.6969      0.00000
     12      32.3669      0.00000

 k-point     3 :       0.2500    0.0500    0.0500
  band No.  band energies     occupation 
      1      -2.7553      2.00000
      2       0.7261      2.00000
      3       1.3735      2.00000
      4       1.3982      2.00000
      5       2.4917      2.00000
      6       2.9134      2.00000
      7      18.7021      0.00000
      8      22.3067      0.00000
      9      25.1856      0.00000
     10      27.5978      0.00000
     11      27.6293      0.00000
     12      30.1376      0.00000

 k-point     4 :       0.3500    0.0500    0.0500
  band No.  band energies     occupation 
      1      -1.8639      2.00000
      2       1.1864      2.00000
      3       1.2762      2.00000
      4       1.4141      2.00000
      5       2.9998      2.00000
      6       3.5030      2.00000
      7      14.6525      0.00000
      8      21.6070      0.00000
      9      24.2288      0.00000
     10      26.4656      0.00000
     11      28.8167      0.00000
     12      29.9437      0.00000

 k-point     5 :       0.4500    0.0500    0.0500
  band No.  band energies     occupation 
      1      -1.6458      2.00000
      2       1.0297      2.00000
      3       1.1022      2.00000
      4       2.9628      2.00000
      5       3.6269      2.00000
      6       4.3969      2.00000
      7      10.8430     -0.00000
      8      20.8173      0.00000
      9      23.2689      0.00000
     10      24.3922      0.00000
     11      30.6731      0.00000
     12      30.9634      0.00000

 k-point     6 :      -0.4500    0.0500    0.0500
  band No.  band energies     occupation 
      1      -1.6429      2.00000
      2       0.9610      2.00000
      3       1.0627      2.00000
      4       3.4019      2.00000
      5       3.9198      2.00000
      6       5.2459      2.00009
      7       9.1702     -0.00000
      8      20.6016      0.00000
      9      23.3189      0.00000
     10      23.4372      0.00000
     11      31.1996      0.00000
     12      31.2758      0.00000

 k-point     7 :      -0.3500    0.0500    0.0500
  band No.  band energies     occupation 
      1      -1.6716      2.00000
      2       1.0615      2.00000
      3       1.1758      2.00000
      4       2.3776      2.00000
      5       3.7076      2.00000
      6       3.8291      2.00000
      7      12.0209      0.00000
      8      21.0578      0.00000
      9      23.7500      0.00000
     10      24.5946      0.00000
     11      30.6153      0.00000
     12      30.7492      0.00000

 k-point     8 :      -0.2500    0.0500    0.0500
  band No.  band energies     occupation 
      1      -2.0879      2.00000
      2       0.9841      2.00000
      3       1.2914      2.00000
      4       1.3561      2.00000
      5       2.9055      2.00000
      6       3.1833      2.00000
      7      16.0138      0.00000
      8      21.9876      0.00000
      9      24.7373      0.00000
     10      26.5984      0.00000
     11      28.4926      0.00000
     12      30.3098      0.00000

 k-point     9 :      -0.1500    0.0500    0.0500
  band No.  band energies     occupation 
      1      -3.1237      2.00000
      2       0.7157      2.00000
      3       1.3658      2.00000
      4       1.3793      2.00000
      5       2.4458      2.00000
      6       2.7849      2.00000
      7      19.9884      0.00000
      8      22.3945      0.00000
      9      25.1911      0.00000
     10      26.7232      0.00000
     11      28.3945      0.00000
     12      30.9957      0.00000

 k-point    10 :      -0.0500    0.0500    0.0500
  band No.  band energies     occupation 
      1      -3.9870      2.00000
      2       0.8986      2.00000
      3       1.1714      2.00000
      4       1.1779      2.00000
      5       2.5111      2.00000
      6       2.6984      2.00000
      7      21.5825      0.00000
      8      23.6185      0.00000
      9      25.0745      0.00000
     10      25.4473      0.00000
     11      30.8472      0.00000
     12      32.5873      0.00000

 k-point    11 :       0.1500    0.1500    0.0500
  band No.  band energies     occupation 
      1      -3.5282      2.00000
      2       0.6737      2.00000
      3       1.3791      2.00000
      4       1.3838      2.00000
      5       2.2788      2.00000
      6       2.8142      2.00000
      7      21.9978      0.00000
      8      22.7443      0.00000
      9      24.4312      0.00000
     10      25.0491      0.00000
     11      30.1172      0.00000
     12      31.7881      0.00000

 k-point    12 :       0.2500    0.1500    0.0500
  band No.  band energies     occupation 
      1      -2.6940      2.00000
      2       0.4163      2.00000
      3       1.4794      2.00000
      4       1.6712      2.00000
      5       2.2237      2.00000
      6       3.0425      2.00000
      7      20.2477      0.00000
      8      22.0536      0.00000
      9      24.0234      0.00000
     10      25.2855      0.00000
     11      28.0821      0.00000
     12      30.9437      0.00000

 k-point    13 :       0.3500    0.1500    0.0500
  band No.  band energies     occupation 
      1      -1.6730      2.00000
      2       0.5037      2.00000
      3       1.1659      2.00000
      4       1.6812      2.00000
      5       2.9100      2.00000
      6       3.6432      2.00000
      7      16.2458      0.00000
      8      21.5137      0.00000
      9      22.9591      0.00000
     10      25.1878      0.00000
     11      28.8439      0.00000
     12      30.6351      0.00000

 k-point    14 :       0.4500    0.1500    0.0500
  band No.  band energies     occupation 
      1      -1.2874      2.00000
      2       0.8523      2.00000
      3       1.4062      2.00000
      4       1.5709      2.00000
      5       3.6894      2.00000
      6       4.8498      2.00000
      7      12.2135      0.00000
      8      20.9816      0.00000
      9      21.7086      0.00000
     10      23.8755      0.00000
     11      30.6611      0.00000
     12      31.8039      0.00000

 k-point    15 :      -0.4500    0.1500    0.0500
  band No.  band energies     occupation 
      1      -1.2672      2.00000
      2       0.7190      2.00000
      3       1.3712      2.00000
      4       2.3246      2.00000
      5       3.8715      2.00000
      6       6.7274     -0.00000
      7       9.1478     -0.00000
      8      20.5052      0.00000
      9      21.3686      0.00000
     10      23.0789      0.00000
     11      31.1766      0.00000
     12      32.2091      0.00000

 k-point    16 :      -0.3500    0.1500    0.0500
  band No.  band energies     occupation 
      1      -1.2491      2.00000
      2       0.8031      2.00000
      3       1.3966      2.00000
      4       1.9838      2.00000
      5       3.5404      2.00000
      6       5.5641      2.05125
      7      11.0627     -0.00000
      8      20.2236      0.00000
      9      21.7695      0.00000
     10      24.0470      0.00000
     11      30.3046      0.00000
     12      31.8663      0.00000

 k-point    17 :      -0.2500    0.1500    0.0500
  band No.  band energies     occupation 
      1      -1.4291      2.00000
      2       0.7942      2.00000
      3       1.1136      2.00000
      4       1.5921      2.00000
      5       2.8184      2.00000
      6       4.2025      2.00000
      7      14.8971      0.00000
      8      20.4997      0.00000
      9      22.8733      0.00000
     10      26.0655      0.00000
     11      28.4279      0.00000
     12      30.9597      0.00000

 k-point    18 :      -0.1500    0.1500    0.0500
  band No.  band energies     occupation 
      1      -2.3327      2.00000
      2       0.4606      2.00000
      3       1.3699      2.00000
      4       1.6947      2.00000
      5       2.2189      2.00000
      6       3.3129      2.00000
      7      18.8425      0.00000
      8      21.1424      0.00000
      9      24.5876      0.00000
     10      25.6053      0.00000
     11      29.1543      0.00000
     12      29.8258      0.00000

 k-point    19 :      -0.0500    0.1500    0.0500
  band No.  band energies     occupation 
      1      -3.3161      2.00000
      2       0.6774      2.00000
      3       1.3817      2.00000
      4       1.3922      2.00000
      5       2.3209      2.00000
      6       2.8232      2.00000
      7      21.2295      0.00000
      8      22.1641      0.00000
      9      24.5343      0.00000
     10      26.3643      0.00000
     11      28.7625      0.00000
     12      31.8088      0.00000

 k-point    20 :       0.2500    0.2500    0.0500
  band No.  band energies     occupation 
      1      -2.1388      2.00000
      2       0.0476      2.00000
      3       1.6368      2.00000
      4       2.0664      2.00000
      5       2.2667      2.00000
      6       3.1707      2.00000
      7      20.7244      0.00000
      8      21.8698      0.00000
      9      22.9243      0.00000
     10      23.8234      0.00000
     11      25.1298      0.00000
     12      32.3967      0.00000

 k-point    21 :       0.3500    0.2500    0.0500
  band No.  band energies     occupation 
      1      -1.3324      2.00000
      2      -0.1853      2.00000
      3       1.3682      2.00000
      4       2.4279      2.00000
      5       2.9482      2.00000
      6       3.6674      2.00000
      7      17.9805      0.00000
      8      19.9501      0.00000
      9      21.5861      0.00000
     10      24.3068      0.00000
     11      25.7007      0.00000
     12      32.4675      0.00000

 k-point    22 :       0.4500    0.2500    0.0500
  band No.  band energies     occupation 
      1      -0.8638      2.00000
      2       0.0805      2.00000
      3       1.1135      2.00000
      4       2.2898      2.00000
      5       3.7821      2.00000
      6       5.1304      2.00000
      7      13.8597      0.00000
      8      19.2643      0.00000
      9      19.8356      0.00000
     10      23.9083      0.00000
     11      28.9270      0.00000
     12      32.4479      0.00000

 k-point    23 :      -0.4500    0.2500    0.0500
  band No.  band energies     occupation 
      1      -0.7432      2.00000
      2       0.3514      2.00000
      3       1.3219      2.00000
      4       2.0835      2.00000
      5       3.9084      2.00000
      6       7.6267     -0.00000
      7      10.2327     -0.00000
      8      17.9665      0.00000
      9      19.9051      0.00000
     10      23.4730      0.00000
     11      31.5329      0.00000
     12      33.1472      0.00000

 k-point    24 :      -0.3500    0.2500    0.0500
  band No.  band energies     occupation 
      1      -0.5656      2.00000
      2       0.4194      2.00000
      3       1.3410      2.00000
      4       1.9746      2.00000
      5       3.4929      2.00000
      6       7.4628     -0.00000
      7      10.7819     -0.00000
      8      16.8680      0.00000
      9      21.1163      0.00000
     10      23.6515      0.00000
     11      30.6694      0.00000
     12      33.0554      0.00000

 k-point    25 :      -0.2500    0.2500    0.0500
  band No.  band energies     occupation 
      1      -0.4797      2.00000
      2       0.4992      2.00000
      3       0.7625      2.00000
      4       2.0574      2.00000
      5       2.7766      2.00000
      6       5.6480      2.06744
      7      14.2022      0.00000
      8      16.7885      0.00000
      9      22.3436      0.00000
     10      25.1549      0.00000
     11      28.4299      0.00000
     12      32.8818      0.00000

 k-point    26 :      -0.1500    0.2500    0.0500
  band No.  band energies     occupation 
      1      -1.2690      2.00000
      2       0.3792      2.00000
      3       1.0859      2.00000
      4       1.9318      2.00000
      5       2.3630      2.00000
      6       4.2964      2.00000
      7      16.3586      0.00000
      8      19.0542      0.00000
      9      23.3503      0.00000
     10      26.4404      0.00000
     11      27.5723      0.00000
     12      31.5052      0.00000

 k-point    27 :      -0.0500    0.2500    0.0500
  band No.  band energies     occupation 
      1      -2.2484      2.00000
      2       0.6468      2.00000
      3       1.3425      2.00000
      4       1.4972      2.00000
      5       2.5571      2.00000
      6       3.2377      2.00000
      7      17.4610      0.00000
      8      22.0498      0.00000
      9      24.2006      0.00000
     10      26.6245      0.00000
     11      28.4440      0.00000
     12      29.8573      0.00000

 k-point    28 :       0.3500    0.3500    0.0500
  band No.  band energies     occupation 
      1      -1.1949      2.00000
      2      -0.5773      2.00000
      3       2.2747      2.00000
      4       2.9788      2.00000
      5       3.4170      2.00000
      6       3.6015      2.00000
      7      17.9178      0.00000
      8      18.9126      0.00000
      9      19.2027      0.00000
     10      23.1626      0.00000
     11      25.0904      0.00000
     12      34.8933      0.00000

 k-point    29 :       0.4500    0.3500    0.0500
  band No.  band energies     occupation 
      1      -1.0494      2.00000
      2      -0.6896      2.00000
      3       2.3273      2.00000
      4       3.2893      2.00000
      5       3.7955      2.00000
      6       5.1743      2.00001
      7      15.0703      0.00000
      8      17.2080      0.00000
      9      17.8322      0.00000
     10      24.1931      0.00000
     11      26.1092      0.00000
     12      34.4733      0.00000

 k-point    30 :      -0.4500    0.3500    0.0500
  band No.  band energies     occupation 
      1      -0.8774      2.00000
      2      -0.3668      2.00000
      3       1.9595      2.00000
      4       2.9736      2.00000
      5       4.0129      2.00000
      6       7.8544     -0.00000
      7      11.8008      0.00000
      8      15.4709      0.00000
      9      17.9424      0.00000
     10      24.4043      0.00000
     11      28.8788      0.00000
     12      33.4618      0.00000

 k-point    31 :      -0.3500    0.3500    0.0500
  band No.  band energies     occupation 
      1      -0.5751      2.00000
      2       0.1571      2.00000
      3       1.3953      2.00000
      4       2.6304      2.00000
      5       3.6720      2.00000
      6       9.0856     -0.00000
      7      11.2355     -0.00000
      8      13.7850      0.00000
      9      19.3063      0.00000
     10      24.1450      0.00000
     11      32.0295      0.00000
     12      32.4797      0.00000

 k-point    32 :      -0.2500    0.3500    0.0500
  band No.  band energies     occupation 
      1      -0.2809      2.00000
      2       0.4621      2.00000
      3       0.8814      2.00000
      4       2.2575      2.00000
      5       3.2426      2.00000
      6       7.2891     -0.00000
      7      12.6575      0.00000
      8      14.7862      0.00000
      9      21.1226      0.00000
     10      24.0309      0.00000
     11      30.3180      0.00000
     12      33.3002      0.00000

 k-point    33 :      -0.1500    0.3500    0.0500
  band No.  band energies     occupation 
      1      -0.8800      2.00000
      2       0.6991      2.00000
      3       1.2073      2.00000
      4       1.7414      2.00000
      5       3.1534      2.00000
      6       5.6275      2.07091
      7      12.5975      0.00000
      8      18.5375      0.00000
      9      22.0632      0.00000
     10      24.6251      0.00000
     11      29.2783      0.00000
     12      32.3433      0.00000

 k-point    34 :      -0.0500    0.3500    0.0500
  band No.  band energies     occupation 
      1      -1.5905      2.00000
      2       1.0640      2.00000
      3       1.3221      2.00000
      4       1.5696      2.00000
      5       3.2890      2.00000
      6       4.0193      2.00000
      7      13.3880      0.00000
      8      21.3025      0.00000
      9      23.0051      0.00000
     10      25.3057      0.00000
     11      29.6817      0.00000
     12      30.7108      0.00000

 k-point    35 :       0.4500    0.4500    0.0500
  band No.  band energies     occupation 
      1      -1.3204      2.00000
      2      -0.9886      2.00000
      3       3.6879      2.00000
      4       3.6939      2.00000
      5       4.0443      2.00000
      6       5.6455      2.06830
      7      13.6991      0.00000
      8      16.4504      0.00000
      9      16.7825      0.00000
     10      23.5089      0.00000
     11      25.9181      0.00000
     12      35.7895      0.00000

 k-point    36 :      -0.4500    0.4500    0.0500
  band No.  band energies     occupation 
      1      -1.2458      2.00000
      2      -0.9364      2.00000
      3       3.2861      2.00000
      4       3.6432      2.00000
      5       4.2010      2.00000
      6       7.6986     -0.00000
      7      11.8073      0.00000
      8      15.4090      0.00000
      9      16.3783      0.00000
     10      24.4617      0.00000
     11      26.4796      0.00000
     12      34.9073      0.00000

 k-point    37 :      -0.3500    0.4500    0.0500
  band No.  band energies     occupation 
      1      -0.9336      2.00000
      2      -0.4606      2.00000
      3       2.2580      2.00000
      4       3.1509      2.00000
      5       4.0100      2.00000
      6       9.2994     -0.00000
      7      10.9121     -0.00000
      8      14.1346      0.00000
      9      17.5875      0.00000
     10      24.6021      0.00000
     11      28.8874      0.00000
     12      33.6183      0.00000

 k-point    38 :      -0.2500    0.4500    0.0500
  band No.  band energies     occupation 
      1      -0.6093      2.00000
      2       0.2059      2.00000
      3       1.3499      2.00000
      4       2.3992      2.00000
      5       3.8029      2.00000
      6       9.1905     -0.00000
      7       9.7128     -0.00000
      8      15.8082      0.00000
      9      19.5049      0.00000
     10      23.8609      0.00000
     11      31.7506      0.00000
     12      32.8495      0.00000

 k-point    39 :      -0.1500    0.4500    0.0500
  band No.  band energies     occupation 
      1      -0.9375      2.00000
      2       0.5397      2.00000
      3       1.6459      2.00000
      4       1.8418      2.00000
      5       3.7416      2.00000
      6       7.5790     -0.00000
      7       9.2955     -0.00000
      8      18.9181      0.00000
      9      21.1177      0.00000
     10      23.2066      0.00000
     11      31.0457      0.00000
     12      32.6815      0.00000

 k-point    40 :      -0.0500    0.4500    0.0500
  band No.  band energies     occupation 
      1      -1.5095      2.00000
      2       0.8976      2.00000
      3       1.1813      2.00000
      4       2.7579      2.00000
      5       3.8259      2.00000
      6       5.4288      2.00733
      7       9.8550     -0.00000
      8      20.7456      0.00000
      9      22.4479      0.00000
     10      23.6068      0.00000
     11      31.0134      0.00000
     12      31.5404      0.00000

 k-point    41 :      -0.4500   -0.4500    0.0500
  band No.  band energies     occupation 
      1      -1.3986      2.00000
      2      -1.0761      2.00000
      3       3.8195      2.00000
      4       3.9941      2.00000
      5       4.2162      2.00000
      6       6.8642     -0.00000
      7      12.0538      0.00000
      8      15.9303      0.00000
      9      16.2973      0.00000
     10      23.6535      0.00000
     11      26.0938      0.00000
     12      35.5816      0.00000

 k-point    42 :      -0.3500   -0.4500    0.0500
  band No.  band energies     occupation 
      1      -1.1648      2.00000
      2      -0.8524      2.00000
      3       2.9085      2.00000
      4       3.5728      2.00000
      5       4.0362      2.00000
      6       6.4627     -0.00025
      7      13.3225      0.00000
      8      16.0206      0.00000
      9      16.8562      0.00000
     10      24.3420      0.00000
     11      26.3504      0.00000
     12      34.8541      0.00000

 k-point    43 :      -0.2500   -0.4500    0.0500
  band No.  band energies     occupation 
      1      -0.8174      2.00000
      2      -0.1777      2.00000
      3       1.5117      2.00000
      4       2.6558      2.00000
      5       3.9600      2.00000
      6       6.3882     -0.00164
      7      12.7639      0.00000
      8      17.3988      0.00000
      9      18.6467      0.00000
     10      24.1096      0.00000
     11      28.8853      0.00000
     12      33.0824      0.00000

 k-point    44 :      -0.1500   -0.4500    0.0500
  band No.  band energies     occupation 
      1      -0.9873      2.00000
      2       0.5900      2.00000
      3       1.3524      2.00000
      4       1.7786      2.00000
      5       3.8934      2.00000
      6       6.0944     -0.06590
      7      11.1457     -0.00000
      8      20.0223      0.00000
      9      20.4626      0.00000
     10      23.2981      0.00000
     11      31.2305      0.00000
     12      32.9084      0.00000

 k-point    45 :      -0.3500   -0.3500    0.0500
  band No.  band energies     occupation 
      1      -1.2102      2.00000
      2      -0.8188      2.00000
      3       3.0830      2.00000
      4       3.4048      2.00000
      5       3.8183      2.00000
      6       4.3430      2.00000
      7      15.8898      0.00000
      8      17.4749      0.00000
      9      17.6873      0.00000
     10      23.3038      0.00000
     11      25.5781      0.00000
     12      35.8890      0.00000

 k-point    46 :      -0.2500   -0.3500    0.0500
  band No.  band energies     occupation 
      1      -1.0303      2.00000
      2      -0.4611      2.00000
      3       1.7102      2.00000
      4       2.8704      2.00000
      5       3.4538      2.00000
      6       4.2154      2.00000
      7      16.6180      0.00000
      8      18.5910      0.00000
      9      19.5130      0.00000
     10      24.1532      0.00000
     11      25.8109      0.00000
     12      33.5886      0.00000

 k-point    47 :      -0.1500   -0.3500    0.0500
  band No.  band energies     occupation 
      1      -1.1558      2.00000
      2       0.3250      2.00000
[...]
      6       6.5394     -0.00003
      7      13.3595      0.00000
      8      15.7458      0.00000
      9      20.5564      0.00000
     10      25.5187      0.00000
     11      28.8757      0.00000
     12      33.8248      0.00000

 k-point    92 :      -0.3500    0.3500    0.2500
  band No.  band energies     occupation 
      1      -0.2322      2.00000
      2       0.2780      2.00000
      3       0.8931      2.00000
      4       2.4534      2.00000
      5       3.6102      2.00000
      6       8.3768     -0.00000
      7      12.0356      0.00000
      8      14.1046      0.00000
      9      19.0370      0.00000
     10      25.2712      0.00000
     11      30.4027      0.00000
     12      34.3435      0.00000

 k-point    93 :      -0.2500    0.3500    0.2500
  band No.  band energies     occupation 
      1      -0.5749      2.00000
      2      -0.0239      2.00000
      3       1.3236      2.00000
      4       2.7113      2.00000
      5       3.9197      2.00000
      6       8.6653     -0.00000
      7      11.0327     -0.00000
      8      15.4188      0.00000
      9      17.7951      0.00000
     10      25.2598      0.00000
     11      30.3087      0.00000
     12      32.2986      0.00000

 k-point    94 :       0.4500    0.4500    0.2500
  band No.  band energies     occupation 
      1      -0.9540      2.00000
      2       0.4348      2.00000
      3       1.1359      2.00000
      4       1.9516      2.00000
      5       3.9710      2.00000
      6       5.4999      2.02407
      7      12.4085      0.00000
      8      19.8041      0.00000
      9      20.6017      0.00000
     10      22.9775      0.00000
     11      30.9263      0.00000
     12      32.4804      0.00000

 k-point    95 :      -0.4500    0.4500    0.2500
  band No.  band energies     occupation 
      1      -0.5731      2.00000
      2       0.1545      2.00000
      3       1.0503      2.00000
      4       2.4792      2.00000
      5       3.8200      2.00000
      6       7.1787     -0.00000
      7      11.7262      0.00000
      8      17.2418      0.00000
      9      18.5688      0.00000
     10      24.8737      0.00000
     11      30.0212      0.00000
     12      32.5258      0.00000

 k-point    96 :      -0.3500    0.4500    0.2500
  band No.  band energies     occupation 
      1      -0.1870      2.00000
      2       0.2225      2.00000
      3       0.6944      2.00000
      4       2.5960      2.00000
      5       3.9659      2.00000
      6       9.0306     -0.00000
      7      12.1004      0.00000
      8      14.0022      0.00000
      9      16.8568      0.00000
     10      27.5425      0.00000
     11      29.2108      0.00000
     12      32.6451      0.00000

 k-point    97 :      -0.2500    0.4500    0.2500
  band No.  band energies     occupation 
      1      -0.3142      2.00000
      2       0.2296      2.00000
      3       0.8592      2.00000
      4       2.5520      2.00000
      5       4.1984      2.00000
      6      10.3237     -0.00000
      7      11.7617      0.00000
      8      13.1259      0.00000
      9      15.8680      0.00000
     10      28.3319      0.00000
     11      29.8347      0.00000
     12      31.2965      0.00000

 k-point    98 :      -0.4500   -0.4500    0.2500
  band No.  band energies     occupation 
      1      -0.7915      2.00000
      2      -0.0601      2.00000
      3       1.6931      2.00000
      4       2.6396      2.00000
      5       3.9339      2.00000
      6       8.5267     -0.00000
      7      10.6431     -0.00000
      8      15.5669      0.00000
      9      19.1214      0.00000
     10      23.6394      0.00000
     11      30.6084      0.00000
     12      33.5188      0.00000

 k-point    99 :      -0.3500   -0.4500    0.2500
  band No.  band energies     occupation 
      1      -0.6159      2.00000
      2      -0.0986      2.00000
      3       1.5356      2.00000
      4       2.7959      2.00000
      5       3.9742      2.00000
      6       9.9115     -0.00000
      7      10.8109     -0.00000
      8      13.7623      0.00000
      9      17.4749      0.00000
     10      25.5326      0.00000
     11      30.5941      0.00000
     12      32.0102      0.00000

 k-point   100 :      -0.3500   -0.3500    0.2500
  band No.  band energies     occupation 
      1      -0.8101      2.00000
      2      -0.1540      2.00000
      3       1.8952      2.00000
      4       2.9065      2.00000
      5       3.8063      2.00000
      6       9.7358     -0.00000
      7      10.4670     -0.00000
      8      13.8221      0.00000
      9      18.8258      0.00000
     10      23.8837      0.00000
     11      30.5572      0.00000
     12      33.7086      0.00000

 k-point   101 :       0.3500    0.3500    0.3500
  band No.  band energies     occupation 
      1      -1.8072      2.00000
      2       1.1728      2.00000
      3       1.1728      2.00000
      4       2.0602      2.00000
      5       3.3922      2.00000
      6       3.3922      2.00000
      7      13.2740      0.00000
      8      21.2824      0.00000
      9      25.0311      0.00000
     10      25.0311      0.00000
     11      30.2333      0.00000
     12      30.2808      0.00000

 k-point   102 :       0.4500    0.3500    0.3500
  band No.  band energies     occupation 
      1      -1.4554      2.00000
      2       0.9806      2.00000
      3       1.2878      2.00000
      4       1.9845      2.00000
      5       3.2791      2.00000
      6       4.6760      2.00000
      7      12.1580      0.00000
      8      20.7778      0.00000
      9      22.4225      0.00000
     10      25.0374      0.00000
     11      29.6694      0.00000
     12      31.1552      0.00000

 k-point   103 :      -0.4500    0.3500    0.3500
  band No.  band energies     occupation 
      1      -0.7336      2.00000
      2       0.5900      2.00000
      3       1.4221      2.00000
      4       1.7596      2.00000
      5       3.2574      2.00000
      6       6.4479     -0.00037
      7      11.6205      0.00000
      8      17.6262      0.00000
      9      22.5173      0.00000
     10      23.2848      0.00000
     11      30.1308      0.00000
     12      32.3482      0.00000

 k-point   104 :      -0.3500    0.3500    0.3500
  band No.  band energies     occupation 
      1      -0.4620      2.00000
      2       0.4047      2.00000
      3       1.1603      2.00000
      4       2.4067      2.00000
      5       3.4119      2.00000
      6       8.1222     -0.00000
      7      11.9706      0.00000
      8      14.1050      0.00000
      9      20.9339      0.00000
     10      23.2740      0.00000
     11      31.8551      0.00000
     12      33.0225      0.00000

 k-point   105 :       0.4500    0.4500    0.3500
  band No.  band energies     occupation 
      1      -1.4551      2.00000
      2       0.8878      2.00000
      3       1.2888      2.00000
      4       2.1981      2.00000
      5       3.9077      2.00000
      6       4.9666      2.00000
      7      10.8984     -0.00000
      8      20.9515      0.00000
      9      22.7045      0.00000
     10      23.2168      0.00000
     11      31.2985      0.00000
     12      31.6118      0.00000

 k-point   106 :      -0.4500    0.4500    0.3500
  band No.  band energies     occupation 
      1      -0.9780      2.00000
      2       0.5711      2.00000
      3       1.5857      2.00000
      4       1.7958      2.00000
      5       3.7527      2.00000
      6       6.7974     -0.00000
      7      10.1047     -0.00000
      8      19.6236      0.00000
      9      20.4939      0.00000
     10      23.7264      0.00000
     11      30.6346      0.00000
     12      32.9219      0.00000

 k-point   107 :      -0.3500    0.4500    0.3500
  band No.  band energies     occupation 
      1      -0.3694      2.00000
      2       0.2173      2.00000
      3       1.1555      2.00000
      4       2.2433      2.00000
      5       3.7089      2.00000
      6       8.6994     -0.00000
      7      10.1051     -0.00000
      8      16.2244      0.00000
      9      19.1668      0.00000
     10      24.7826      0.00000
     11      30.5564      0.00000
     12      34.5628      0.00000

 k-point   108 :      -0.4500   -0.4500    0.3500
  band No.  band energies     occupation 
      1      -0.8630      2.00000
      2       0.4818      2.00000
      3       1.6333      2.00000
      4       1.7937      2.00000
      5       3.8531      2.00000
      6       8.0433     -0.00000
      7       9.1420     -0.00000
      8      18.3812      0.00000
      9      21.3890      0.00000
     10      22.4942      0.00000
     11      32.1407      0.00000
     12      32.3822      0.00000

 k-point   109 :       0.4500    0.4500    0.4500
  band No.  band energies     occupation 
      1      -1.7107      2.00000
      2       1.0246      2.00000
      3       1.0246      2.00000
      4       3.8511      2.00000
      5       3.8511      2.00000
      6       4.2011      2.00000
      7       9.8077     -0.00000
      8      20.6098      0.00000
      9      23.8250      0.00000
     10      23.8250      0.00000
     11      30.9930      0.00000
     12      30.9930      0.00000

 k-point   110 :      -0.4500    0.4500    0.4500
  band No.  band energies     occupation 
      1      -1.4465      2.00000
      2       0.8431      2.00000
      3       1.2075      2.00000
      4       2.7723      2.00000
      5       3.8280      2.00000
      6       6.1320     -0.06954
      7       9.1716     -0.00000
      8      20.5975      0.00000
      9      22.2201      0.00000
     10      23.2500      0.00000
     11      31.3126      0.00000
     12      31.5027      0.00000


--------------------------------------------------------------------------------------------------------


 soft charge-density along one line, spin component           1
         0         1         2         3         4         5         6         7         8         9
 total charge-density along one line
 
 pseudopotential strength for first ion, spin component:           1
 -9.698   0.000  -0.000   0.000   0.000   0.000  -0.000   0.000   0.000   0.000  -0.111   0.000   0.000   0.000  -0.000   0.000
 -0.000   0.000  -9.698   0.000  -0.000   0.000  -0.000   0.000   0.000   0.000   0.000   0.000  -0.111   0.000   0.000   0.000
  0.000   0.000  -0.000   0.000  -9.680   0.000  -0.000   0.000  -0.000   0.000  -0.000   0.000   0.000   0.000  -0.113   0.000
 -0.000   0.000  -0.000   0.000  -0.000   0.000  -9.698   0.000  -0.000   0.000   0.000   0.000   0.000   0.000   0.000   0.000
  0.000   0.000   0.000   0.000  -0.000   0.000  -0.000   0.000  -9.680   0.000  -0.000   0.000  -0.000   0.000   0.000   0.000
 -0.111   0.000   0.000   0.000  -0.000   0.000   0.000   0.000  -0.000   0.000   0.286   0.000  -0.000   0.000   0.000   0.000
  0.000   0.000  -0.111   0.000   0.000   0.000   0.000   0.000  -0.000   0.000  -0.000   0.000   0.286   0.000  -0.000   0.000
 -0.000   0.000   0.000   0.000  -0.113   0.000   0.000   0.000   0.000   0.000   0.000   0.000  -0.000   0.000   0.286   0.000
  0.000   0.000   0.000   0.000   0.000   0.000  -0.111   0.000   0.000   0.000  -0.000   0.000  -0.000   0.000  -0.000   0.000
 -0.000   0.000  -0.000   0.000   0.000   0.000   0.000   0.000  -0.113   0.000   0.000   0.000   0.000   0.000  -0.000   0.000
  0.000   0.000   0.000   0.000   0.000   0.000   0.000   0.000  -0.000   0.000   0.000   0.000   0.000   0.000  -0.000   0.000
 -0.000   0.000  -0.000   0.000  -0.000   0.000  -0.000   0.000   0.000   0.000   0.000   0.000   0.000   0.000   0.000   0.000
  0.000   0.000   0.000   0.000   0.000   0.000  -0.000   0.000   0.000   0.000  -0.000   0.000  -0.000   0.000  -0.000   0.000
 -0.000   0.000  -0.000   0.000  -0.000   0.000   0.000   0.000   0.000   0.000   0.000   0.000   0.000   0.000  -0.000   0.000
 -0.000   0.000  -0.000   0.000  -0.000   0.000   0.000   0.000   0.000   0.000   0.000   0.000   0.000   0.000   0.000   0.000
 -0.000   0.000  -0.000   0.000  -0.000   0.000   0.000   0.000  -0.000   0.000   0.000   0.000   0.000   0.000   0.000   0.000
  0.000   0.000   0.000   0.000   0.000   0.000  -0.000   0.000  -0.000   0.000  -0.000   0.000  -0.000   0.000  -0.000   0.000
  0.000   0.000   0.000   0.000   0.000   0.000  -0.000   0.000  -0.000   0.000  -0.000   0.000  -0.000   0.000  -0.000   0.000
 total augmentation occupancy for first ion, spin component:           1
  1.903  -0.000   0.000  -0.000   0.000  -0.028   0.000   0.000   0.000   0.000  -0.000   0.000   0.000   0.000   0.000   0.000
 -0.000   1.903   0.000  -0.000  -0.000   0.000  -0.028   0.000   0.000  -0.000   0.000  -0.000   0.000   0.000   0.000   0.000
  0.000   0.000   1.952  -0.000   0.000   0.000   0.000  -0.077  -0.000   0.000   0.000  -0.000   0.000   0.000   0.000   0.000
 -0.000  -0.000  -0.000   1.903   0.000   0.000   0.000  -0.000  -0.028  -0.000   0.000   0.000   0.000   0.000   0.000   0.000
  0.000  -0.000   0.000   0.000   1.952  -0.000  -0.000   0.000  -0.000  -0.077   0.000   0.000   0.000   0.000   0.000   0.000
 -0.028   0.000   0.000   0.000   0.000   0.226  -0.000  -0.000  -0.000  -0.000  -0.000   0.000   0.000   0.000   0.000   0.000
  0.000  -0.028  -0.000   0.000  -0.000  -0.000   0.226  -0.000  -0.000   0.000   0.000  -0.000   0.000   0.000   0.000   0.000
  0.000   0.000  -0.077  -0.000   0.000  -0.000  -0.000   0.180   0.000   0.000   0.000  -0.000   0.000   0.000   0.000   0.000
  0.000   0.000  -0.000  -0.028  -0.000  -0.000  -0.000   0.000   0.226  -0.000  -0.000  -0.000   0.000   0.000   0.000   0.000
 -0.000  -0.000   0.000  -0.000  -0.077   0.000   0.000   0.000  -0.000   0.180   0.000  -0.000   0.000   0.000   0.000   0.000
 -0.000   0.000   0.000  -0.000   0.000  -0.000   0.000   0.000   0.000   0.000   1.093  -0.404   0.000   0.000   0.000   0.000
  0.000  -0.000  -0.000  -0.000   0.000   0.000  -0.000  -0.000  -0.000  -0.000  -0.404   0.273   0.000   0.000   0.000   0.000
  0.000   0.000   0.000   0.000   0.000   0.000   0.000   0.000   0.000   0.000   0.000   0.000   0.176  -0.000   0.000  -0.013
  0.000   0.000   0.000   0.000   0.000   0.000   0.000   0.000   0.000   0.000   0.000   0.000  -0.000   0.176  -0.000   0.000
  0.000   0.000   0.000   0.000   0.000   0.000   0.000   0.000   0.000   0.000   0.000   0.000   0.000   0.000   0.176  -0.000
  0.000   0.000   0.000   0.000   0.000   0.000   0.000   0.000   0.000   0.000   0.000   0.000  -0.013   0.000  -0.000   0.001
  0.000   0.000   0.000   0.000   0.000   0.000   0.000   0.000   0.000   0.000   0.000   0.000   0.000  -0.013   0.000  -0.000
  0.000   0.000   0.000   0.000   0.000   0.000   0.000   0.000   0.000   0.000   0.000   0.000   0.000   0.000  -0.013   0.000


------------------------ aborting loop because EDIFF is reached ----------------------------------------


    CHARGE:  cpu time    0.0036: real time    0.0141
    FORLOC:  cpu time    0.0001: real time    0.0004
    FORNL :  cpu time    0.0082: real time    0.0207
    STRESS:  cpu time    0.0498: real time    0.1469
    FORCOR:  cpu time    0.0011: real time    0.0031
    FORHAR:  cpu time    0.0012: real time    0.0108
    MIXING:  cpu time    0.0000: real time    0.0003
    OFIELD:  cpu time    0.0000: real time    0.0000

  FORCE on cell =-STRESS in cart. coord.  units (eV):
  Direction    XX          YY          ZZ          XY          YZ          ZX
  --------------------------------------------------------------------------------------
  Alpha Z   110.66542   110.66542   110.66542
  Ewald    -328.74674  -328.74674  -328.74674     0.00000     0.00000    -0.00000
  Hartree    36.13629    36.13629    36.13629    -0.00000    -0.00000    -0.00000
  E(xc)     -49.15665   -49.15665   -49.15665     0.00000     0.00000     0.00000
  Local      83.09381    83.09381    83.09381     0.00012     0.00012     0.00012
  n-local   -48.92551   -45.98935   -49.79156     0.59948    -0.66598     0.01323
  augment    42.42585    42.42585    42.42585    -0.00002    -0.00002    -0.00002
  Kinetic   153.62482   152.48483   154.69028    -0.39030     0.19420     0.01385
  Fock        0.00000     0.00000     0.00000     0.00000     0.00000     0.00000
  -------------------------------------------------------------------------------------
  Total      -0.21752    -0.21752    -0.21752     0.00000     0.00000    -0.00000
  in kB     -20.98500   -20.98500   -20.98500     0.00000     0.00000    -0.00000
  external pressure =      -20.99 kB  Pullay stress =        0.00 kB


 VOLUME and BASIS-vectors are now :
 -----------------------------------------------------------------------------
  energy-cutoff  :      230.00
  volume of cell :       16.61
      direct lattice vectors                 reciprocal lattice vectors
     0.000000000  2.025000000  2.025000000    -0.246913580  0.246913580  0.246913580
     2.025000000  0.000000000  2.025000000     0.246913580 -0.246913580  0.246913580
     2.025000000  2.025000000  0.000000000     0.246913580  0.246913580 -0.246913580

  length of vectors
     2.863782464  2.863782464  2.863782464     0.427666866  0.427666866  0.427666866


 FORCES acting on ions
    electron-ion (+dipol)            ewald-force                    non-local-force                 convergence-correction
 -----------------------------------------------------------------------------------------------
   0.103E-14 0.909E-15 -.824E-15   0.111E-14 -.542E-15 -.107E-14   -.165E-23 -.165E-23 -.579E-23   0.502E-14 -.403E-14 -.751E-14
 -----------------------------------------------------------------------------------------------
   0.103E-14 0.909E-15 -.824E-15   0.111E-14 -.542E-15 -.107E-14   -.165E-23 -.165E-23 -.579E-23   0.502E-14 -.403E-14 -.751E-14
 
 
 POSITION                                       TOTAL-FORCE (eV/Angst)
 -----------------------------------------------------------------------------------
      0.00000      0.00000      0.00000         0.000000      0.000000     -0.000000
 -----------------------------------------------------------------------------------
    total drift:                                0.000000     -0.000000     -0.000000


--------------------------------------------------------------------------------------------------------



  FREE ENERGIE OF THE ION-ELECTRON SYSTEM (eV)
  ---------------------------------------------------
  free  energy   TOTEN  =        -4.39142074 eV

  energy  without entropy=       -4.39230131  energy(sigma->0) =       -4.39171426
 


--------------------------------------------------------------------------------------------------------


    POTLOK:  cpu time    0.0019: real time    0.0038


--------------------------------------------------------------------------------------------------------


 writing wavefunctions
     LOOP+:  cpu time    1.3719: real time    4.0569
    4ORBIT:  cpu time    0.0000: real time    0.0000

 total amount of memory used by VASP MPI-rank0    33647. kBytes
=======================================================================

   base      :      30000. kBytes
   nonl-proj :       2219. kBytes
   fftplans  :        238. kBytes
   grid      :        331. kBytes
   one-center:         15. kBytes
   wavefun   :        844. kBytes
 
  
  
 General timing and accounting informations for this job:
 ========================================================
  
                  Total CPU time used (sec):        1.812
                            User time (sec):        1.563
                          System time (sec):        0.249
                         Elapsed time (sec):        5.584
  
                   Maximum memory used (kb):       59804.
                   Average memory used (kb):           0.
  
                          Minor page faults:        13670
                          Major page faults:            0
                 Voluntary context switches:         1885
