<?xml version="1.0" encoding="ISO-8859-1"?>
<modeling>
 <generator>
  <i name="program" type="string">vasp </i>
  <i name="version" type="string">5.4.4.18Apr17-6-g9f103f2a35  </i>
  <i name="subversion" type="string">(build Jul 01 2019 03:25:34) complex            parallel </i>
  <i name="platform" type="string">LinuxIFC </i>
  <i name="date" type="string">2020 07 08 </i>
  <i name="time" type="string">00:55:37 </i>
 </generator>
 <incar>
  <i type="string" name="SYSTEM"> FCC Au</i>
  <i type="string" name="PREC">normal</i>
  <i name="EDIFF">      0.00010000</i>
  <i name="ENCUT">    230.00000000</i>
  <v type="int" name="KPOINT_BSE">    -1     0     0     0</v>
 </incar>
 <structure name="primitive_cell" >
  <crystal>
   <varray name="basis" >
    <v>       0.00000000       2.02500000       2.02500000 </v>
    <v>       2.02500000       0.00000000       2.02500000 </v>
    <v>       2.02500000       2.02500000       0.00000000 </v>
   </varray>
   <i name="volume">     16.60753125 </i>
   <varray name="rec_basis" >
    <v>      -0.24691358       0.24691358       0.24691358 </v>
    <v>       0.24691358      -0.24691358       0.24691358 </v>
    <v>       0.24691358       0.24691358      -0.24691358 </v>
   </varray>
  </crystal>
  <varray name="positions" >
   <v>       0.00000000       0.00000000       0.00000000 </v>
  </varray>
 </structure>
 <varray name="primitive_index" >
  <v type="int" >        1 </v>
 </varray>
 <kpoints>
  <generation param="Monkhorst-Pack">
   <v type="int" name="divisions">      10       10       10 </v>
   <v name="usershift">      0.00000000       0.00000000       0.00000000 </v>
   <v name="genvec1">      0.10000000       0.00000000       0.00000000 </v>
   <v name="genvec2">      0.00000000       0.10000000       0.00000000 </v>
   <v name="genvec3">      0.00000000       0.00000000       0.10000000 </v>
   <v name="shift">      0.50000000       0.50000000       0.50000000 </v>
  </generation>
  <varray name="kpointlist" >
   <v>       0.05000000       0.05000000       0.05000000 </v>
   <v>       0.15000000       0.05000000       0.05000000 </v>
   <v>       0.25000000       0.05000000       0.05000000 </v>
   <v>       0.35000000       0.05000000       0.05000000 </v>
   <v>       0.45000000       0.05000000       0.05000000 </v>
   <v>      -0.45000000       0.05000000       0.05000000 </v>
   <v>      -0.35000000       0.05000000       0.05000000 </v>
   <v>      -0.25000000       0.05000000       0.05000000 </v>
   <v>      -0.15000000       0.05000000       0.05000000 </v>
   <v>      -0.05000000       0.05000000       0.05000000 </v>
   <v>       0.15000000       0.15000000       0.05000000 </v>
   <v>       0.25000000       0.15000000       0.05000000 </v>
   <v>       0.35000000       0.15000000       0.05000000 </v>
   <v>       0.45000000       0.15000000       0.05000000 </v>
   <v>      -0.45000000       0.15000000       0.05000000 </v>
   <v>      -0.35000000       0.15000000       0.05000000 </v>
   <v>      -0.25000000       0.15000000       0.05000000 </v>
   <v>      -0.15000000       0.15000000       0.05000000 </v>
   <v>      -0.05000000       0.15000000       0.05000000 </v>
   <v>       0.25000000       0.25000000       0.05000000 </v>
   <v>       0.35000000       0.25000000       0.05000000 </v>
   <v>       0.45000000       0.25000000       0.05000000 </v>
   <v>      -0.45000000       0.25000000       0.05000000 </v>
   <v>      -0.35000000       0.25000000       0.05000000 </v>
   <v>      -0.25000000       0.25000000       0.05000000 </v>
   <v>      -0.15000000       0.25000000       0.05000000 </v>
   <v>      -0.05000000       0.25000000       0.05000000 </v>
   <v>       0.35000000       0.35000000       0.05000000 </v>
   <v>       0.45000000       0.35000000       0.05000000 </v>
   <v>      -0.45000000       0.35000000       0.05000000 </v>
   <v>      -0.35000000       0.35000000       0.05000000 </v>
   <v>      -0.25000000       0.35000000       0.05000000 </v>
   <v>      -0.15000000       0.35000000       0.05000000 </v>
   <v>      -0.05000000       0.35000000       0.05000000 </v>
   <v>       0.45000000       0.45000000       0.05000000 </v>
   <v>      -0.45000000       0.45000000       0.05000000 </v>
   <v>      -0.35000000       0.45000000       0.05000000 </v>
   <v>      -0.25000000       0.45000000       0.05000000 </v>
   <v>      -0.15000000       0.45000000       0.05000000 </v>
   <v>      -0.05000000       0.45000000       0.05000000 </v>
   <v>      -0.45000000      -0.45000000       0.05000000 </v>
   <v>      -0.35000000      -0.45000000       0.05000000 </v>
   <v>      -0.25000000      -0.45000000       0.05000000 </v>
   <v>      -0.15000000      -0.45000000       0.05000000 </v>
   <v>      -0.35000000      -0.35000000       0.05000000 </v>
   <v>      -0.25000000      -0.35000000       0.05000000 </v>
   <v>      -0.15000000      -0.35000000       0.05000000 </v>
   <v>      -0.25000000      -0.25000000       0.05000000 </v>
   <v>      -0.15000000      -0.25000000       0.05000000 </v>
   <v>      -0.15000000      -0.15000000       0.05000000 </v>
   <v>       0.15000000       0.15000000       0.15000000 </v>
   <v>       0.25000000       0.15000000       0.15000000 </v>
   <v>       0.35000000       0.15000000       0.15000000 </v>
   <v>       0.45000000       0.15000000       0.15000000 </v>
   <v>      -0.45000000       0.15000000       0.15000000 </v>
   <v>      -0.35000000       0.15000000       0.15000000 </v>
   <v>      -0.25000000       0.15000000       0.15000000 </v>
   <v>      -0.15000000       0.15000000       0.15000000 </v>
   <v>       0.25000000       0.25000000       0.15000000 </v>
   <v>       0.35000000       0.25000000       0.15000000 </v>
   <v>       0.45000000       0.25000000       0.15000000 </v>
   <v>      -0.45000000       0.25000000       0.15000000 </v>
   <v>      -0.35000000       0.25000000       0.15000000 </v>
   <v>      -0.25000000       0.25000000       0.15000000 </v>
   <v>      -0.15000000       0.25000000       0.15000000 </v>
   <v>       0.35000000       0.35000000       0.15000000 </v>
   <v>       0.45000000       0.35000000       0.15000000 </v>
   <v>      -0.45000000       0.35000000       0.15000000 </v>
   <v>      -0.35000000       0.35000000       0.15000000 </v>
   <v>      -0.25000000       0.35000000       0.15000000 </v>
   <v>      -0.15000000       0.35000000       0.15000000 </v>
   <v>       0.45000000       0.45000000       0.15000000 </v>
   <v>      -0.45000000       0.45000000       0.15000000 </v>
   <v>      -0.35000000       0.45000000       0.15000000 </v>
   <v>      -0.25000000       0.45000000       0.15000000 </v>
   <v>      -0.15000000       0.45000000       0.15000000 </v>
   <v>      -0.45000000      -0.45000000       0.15000000 </v>
   <v>      -0.35000000      -0.45000000       0.15000000 </v>
   <v>      -0.25000000      -0.45000000       0.15000000 </v>
   <v>      -0.35000000      -0.35000000       0.15000000 </v>
   <v>      -0.25000000      -0.35000000       0.15000000 </v>
   <v>      -0.25000000      -0.25000000       0.15000000 </v>
   <v>       0.25000000       0.25000000       0.25000000 </v>
   <v>       0.35000000       0.25000000       0.25000000 </v>
   <v>       0.45000000       0.25000000       0.25000000 </v>
   <v>      -0.45000000       0.25000000       0.25000000 </v>
   <v>      -0.35000000       0.25000000       0.25000000 </v>
   <v>      -0.25000000       0.25000000       0.25000000 </v>
   <v>       0.35000000       0.35000000       0.25000000 </v>
   <v>       0.45000000       0.35000000       0.25000000 </v>
   <v>      -0.45000000       0.35000000       0.25000000 </v>
   <v>      -0.35000000       0.35000000       0.25000000 </v>
   <v>      -0.25000000       0.35000000       0.25000000 </v>
   <v>       0.45000000       0.45000000       0.25000000 </v>
   <v>      -0.45000000       0.45000000       0.25000000 </v>
   <v>      -0.35000000       0.45000000       0.25000000 </v>
   <v>      -0.25000000       0.45000000       0.25000000 </v>
   <v>      -0.45000000      -0.45000000       0.25000000 </v>
   <v>      -0.35000000      -0.45000000       0.25000000 </v>
   <v>      -0.35000000      -0.35000000       0.25000000 </v>
   <v>       0.35000000       0.35000000       0.35000000 </v>
   <v>       0.45000000       0.35000000       0.35000000 </v>
   <v>      -0.45000000       0.35000000       0.35000000 </v>
   <v>      -0.35000000       0.35000000       0.35000000 </v>
   <v>       0.45000000       0.45000000       0.35000000 </v>
   <v>      -0.45000000       0.45000000       0.35000000 </v>
   <v>      -0.35000000       0.45000000       0.35000000 </v>
   <v>      -0.45000000      -0.45000000       0.35000000 </v>
   <v>       0.45000000       0.45000000       0.45000000 </v>
   <v>      -0.45000000       0.45000000       0.45000000 </v>
  </varray>
  <varray name="weights" >
   <v>       0.00200000 </v>
   <v>       0.00600000 </v>
   <v>       0.00600000 </v>
   <v>       0.00600000 </v>
   <v>       0.00600000 </v>
   <v>       0.00600000 </v>
   <v>       0.00600000 </v>
   <v>       0.00600000 </v>
   <v>       0.00600000 </v>
   <v>       0.00600000 </v>
   <v>       0.00600000 </v>
   <v>       0.01200000 </v>
   <v>       0.01200000 </v>
   <v>       0.01200000 </v>
   <v>       0.01200000 </v>
   <v>       0.01200000 </v>
   <v>       0.01200000 </v>
   <v>       0.01200000 </v>
   <v>       0.01200000 </v>
   <v>       0.00600000 </v>
   <v>       0.01200000 </v>
   <v>       0.01200000 </v>
   <v>       0.01200000 </v>
   <v>       0.01200000 </v>
   <v>       0.01200000 </v>
   <v>       0.01200000 </v>
   <v>       0.01200000 </v>
   <v>       0.00600000 </v>
   <v>       0.01200000 </v>
   <v>       0.01200000 </v>
   <v>       0.01200000 </v>
   <v>       0.01200000 </v>
   <v>       0.01200000 </v>
   <v>       0.01200000 </v>
   <v>       0.00600000 </v>
   <v>       0.01200000 </v>
   <v>       0.01200000 </v>
   <v>       0.01200000 </v>
   <v>       0.01200000 </v>
   <v>       0.01200000 </v>
   <v>       0.00600000 </v>
   <v>       0.01200000 </v>
   <v>       0.01200000 </v>
   <v>       0.01200000 </v>
   <v>       0.00600000 </v>
   <v>       0.01200000 </v>
   <v>       0.01200000 </v>
   <v>       0.00600000 </v>
   <v>       0.01200000 </v>
   <v>       0.00600000 </v>
   <v>       0.00200000 </v>
   <v>       0.00600000 </v>
   <v>       0.00600000 </v>
   <v>       0.00600000 </v>
   <v>       0.00600000 </v>
   <v>       0.00600000 </v>
   <v>       0.00600000 </v>
   <v>       0.00600000 </v>
   <v>       0.00600000 </v>
   <v>       0.01200000 </v>
   <v>       0.01200000 </v>
   <v>       0.01200000 </v>
   <v>       0.01200000 </v>
   <v>       0.01200000 </v>
   <v>       0.01200000 </v>
   <v>       0.00600000 </v>
   <v>       0.01200000 </v>
   <v>       0.01200000 </v>
   <v>       0.01200000 </v>
   <v>       0.01200000 </v>
   <v>       0.01200000 </v>
   <v>       0.00600000 </v>
   <v>       0.01200000 </v>
   <v>       0.01200000 </v>
   <v>       0.01200000 </v>
   <v>       0.01200000 </v>
   <v>       0.00600000 </v>
   <v>       0.01200000 </v>
   <v>       0.01200000 </v>
   <v>       0.00600000 </v>
   <v>       0.01200000 </v>
   <v>       0.00600000 </v>
   <v>       0.00200000 </v>
   <v>       0.00600000 </v>
   <v>       0.00600000 </v>
   <v>       0.00600000 </v>
   <v>       0.00600000 </v>
   <v>       0.00600000 </v>
   <v>       0.00600000 </v>
   <v>       0.01200000 </v>
   <v>       0.01200000 </v>
   <v>       0.01200000 </v>
   <v>       0.01200000 </v>
   <v>       0.00600000 </v>
   <v>       0.01200000 </v>
   <v>       0.01200000 </v>
   <v>       0.01200000 </v>
   <v>       0.00600000 </v>
   <v>       0.01200000 </v>
   <v>       0.00600000 </v>
   <v>       0.00200000 </v>
   <v>       0.00600000 </v>
   <v>       0.00600000 </v>
   <v>       0.00600000 </v>
   <v>       0.00600000 </v>
   <v>       0.01200000 </v>
   <v>       0.01200000 </v>
   <v>       0.00600000 </v>
   <v>       0.00200000 </v>
   <v>       0.00600000 </v>
  </varray>
 </kpoints>
 <parameters>
  <separator name="general" >
   <i type="string" name="SYSTEM">FCC Au</i>
   <i type="logical" name="LCOMPAT"> F  </i>
  </separator>
  <separator name="electronic" >
   <i type="string" name="PREC">normal</i>
   <i name="ENMAX">    230.00000000</i>
   <i name="ENAUG">    356.67000000</i>
   <i name="EDIFF">      0.00010000</i>
   <i type="int" name="IALGO">    38</i>
   <i type="int" name="IWAVPR">    10</i>
   <i type="int" name="NBANDS">    12</i>
   <i name="NELECT">     11.00000000</i>
   <i type="int" name="TURBO">     0</i>
   <i type="int" name="IRESTART">     0</i>
   <i type="int" name="NREBOOT">     0</i>
   <i type="int" name="NMIN">     0</i>
   <i name="EREF">      0.00000000</i>
   <separator name="electronic smearing" >
    <i type="int" name="ISMEAR">     1</i>
    <i name="SIGMA">      0.20000000</i>
    <i name="KSPACING">      0.50000000</i>
    <i type="logical" name="KGAMMA"> T  </i>
   </separator>
   <separator name="electronic projectors" >
    <i type="logical" name="LREAL"> F  </i>
    <v name="ROPT">      0.00000000</v>
    <i type="int" name="LMAXPAW">  -100</i>
    <i type="int" name="LMAXMIX">     2</i>
    <i type="logical" name="NLSPLINE"> F  </i>
   </separator>
   <separator name="electronic startup" >
    <i type="int" name="ISTART">     1</i>
    <i type="int" name="ICHARG">     0</i>
    <i type="int" name="INIWAV">     1</i>
   </separator>
   <separator name="electronic spin" >
    <i type="int" name="ISPIN">     1</i>
    <i type="logical" name="LNONCOLLINEAR"> F  </i>
    <v name="MAGMOM">      1.00000000</v>
    <i name="NUPDOWN">     -1.00000000</i>
    <i type="logical" name="LSORBIT"> F  </i>
    <v name="SAXIS">      0.00000000      0.00000000      1.00000000</v>
    <i type="logical" name="LSPIRAL"> F  </i>
    <v name="QSPIRAL">      0.00000000      0.00000000      0.00000000</v>
    <i type="logical" name="LZEROZ"> F  </i>
   </separator>
   <separator name="electronic exchange-correlation" >
    <i type="logical" name="LASPH"> F  </i>
    <i type="logical" name="LMETAGGA"> F  </i>
   </separator>
   <separator name="electronic convergence" >
    <i type="int" name="NELM">    60</i>
    <i type="int" name="NELMDL">     0</i>
    <i type="int" name="NELMIN">     2</i>
    <i name="ENINI">    230.00000000</i>
    <separator name="electronic convergence detail" >
     <i type="logical" name="LDIAG"> T  </i>
     <i type="logical" name="LSUBROT"> F  </i>
     <i name="WEIMIN">      0.00000000</i>
     <i name="EBREAK">      0.00000208</i>
     <i name="DEPER">      0.30000000</i>
     <i type="int" name="NRMM">     4</i>
     <i name="TIME">      0.40000000</i>
    </separator>
   </separator>
   <separator name="electronic mixer" >
    <i name="AMIX">      0.40000000</i>
    <i name="BMIX">      1.00000000</i>
    <i name="AMIN">      0.10000000</i>
    <i name="AMIX_MAG">      1.60000000</i>
    <i name="BMIX_MAG">      1.00000000</i>
    <separator name="electronic mixer details" >
     <i type="int" name="IMIX">     4</i>
     <i type="logical" name="MIXFIRST"> F  </i>
     <i type="int" name="MAXMIX">   -45</i>
     <i name="WC">    100.00000000</i>
     <i type="int" name="INIMIX">     1</i>
     <i type="int" name="MIXPRE">     1</i>
     <i type="int" name="MREMOVE">     5</i>
    </separator>
   </separator>
   <separator name="electronic dipolcorrection" >
    <i type="logical" name="LDIPOL"> F  </i>
    <i type="logical" name="LMONO"> F  </i>
    <i type="int" name="IDIPOL">     0</i>
    <i name="EPSILON">      1.00000000</i>
    <v name="DIPOL">   -100.00000000   -100.00000000   -100.00000000</v>
    <i name="EFIELD">      0.00000000</i>
   </separator>
  </separator>
  <separator name="grids" >
   <i type="int" name="NGX">    12</i>
   <i type="int" name="NGY">    12</i>
   <i type="int" name="NGZ">    12</i>
   <i type="int" name="NGXF">    24</i>
   <i type="int" name="NGYF">    24</i>
   <i type="int" name="NGZF">    24</i>
   <i type="logical" name="ADDGRID"> F  </i>
  </separator>
  <separator name="ionic" >
   <i type="int" name="NSW">     0</i>
   <i type="int" name="IBRION">    -1</i>
   <i type="int" name="MDALGO">     0</i>
   <i type="int" name="ISIF">     2</i>
   <i name="PSTRESS">      0.00000000</i>
   <i name="EDIFFG">      0.00100000</i>
   <i type="int" name="NFREE">     0</i>
   <i name="POTIM">      0.50000000</i>
   <i name="SMASS">     -3.00000000</i>
   <i name="SCALEE">      1.00000000</i>
  </separator>
  <separator name="ionic md" >
   <i name="TEBEG">      0.00010000</i>
   <i name="TEEND">      0.00010000</i>
   <i type="int" name="NBLOCK">     1</i>
   <i type="int" name="KBLOCK">     1</i>
   <i type="int" name="NPACO">   256</i>
   <i name="APACO">     16.00000000</i>
  </separator>
  <separator name="symmetry" >
   <i type="int" name="ISYM">     2</i>
   <i name="SYMPREC">      0.00001000</i>
  </separator>
  <separator name="dos" >
   <i type="int" name="LORBIT">     0</i>
   <v name="RWIGS">     -1.00000000</v>
   <i type="int" name="NEDOS">   301</i>
   <i name="EMIN">     10.00000000</i>
   <i name="EMAX">    -10.00000000</i>
   <i name="EFERMI">      0.00000000</i>
  </separator>
  <separator name="writing" >
   <i type="int" name="NWRITE">     2</i>
   <i type="logical" name="LWAVE"> T  </i>
   <i type="logical" name="LDOWNSAMPLE"> F  </i>
   <i type="logical" name="LCHARG"> T  </i>
   <i type="logical" name="LPARD"> F  </i>
   <i type="logical" name="LVTOT"> F  </i>
   <i type="logical" name="LVHAR"> F  </i>
   <i type="logical" name="LELF"> F  </i>
   <i type="logical" name="LOPTICS"> F  </i>
   <v name="STM">      0.00000000      0.00000000      0.00000000      0.00000000      0.00000000      0.00000000      0.00000000</v>
  </separator>
  <separator name="performance" >
   <i type="int" name="NPAR">     4</i>
   <i type="int" name="NSIM">     4</i>
   <i type="int" name="NBLK">    -1</i>
   <i type="logical" name="LPLANE"> T  </i>
   <i type="logical" name="LSCALAPACK"> T  </i>
   <i type="logical" name="LSCAAWARE"> F  </i>
   <i type="logical" name="LSCALU"> F  </i>
   <i type="logical" name="LASYNC"> F  </i>
   <i type="logical" name="LORBITALREAL"> F  </i>
  </separator>
  <separator name="miscellaneous" >
   <i type="int" name="IDIOT">     3</i>
   <i type="int" name="ISPECIAL">     0</i>
   <i type="logical" name="LMUSIC"> F  </i>
   <v name="POMASS">    196.96600000</v>
   <v name="DARWINR">      0.00000000</v>
   <v name="DARWINV">      1.00000000</v>
   <i type="logical" name="LCORR"> T  </i>
  </separator>
  <i type="logical" name="GGA_COMPAT"> T  </i>
  <i type="logical" name="LBERRY"> F  </i>
  <i type="int" name="ICORELEVEL">     0</i>
  <i type="logical" name="LDAU"> F  </i>
  <i type="int" name="I_CONSTRAINED_M">     0</i>
  <separator name="electronic exchange-correlation" >
   <i type="string" name="GGA">--</i>
   <i type="int" name="VOSKOWN">     0</i>
   <i type="logical" name="LHFCALC"> F  </i>
   <i type="string" name="PRECFOCK"></i>
   <i type="logical" name="LSYMGRAD"> F  </i>
   <i type="logical" name="LHFONE"> F  </i>
   <i type="logical" name="LRHFCALC"> F  </i>
   <i type="logical" name="LTHOMAS"> F  </i>
   <i type="logical" name="LMODELHF"> F  </i>
   <i name="ENCUT4O">     -1.00000000</i>
   <i type="int" name="EXXOEP">     0</i>
   <i type="int" name="FOURORBIT">     0</i>
   <i name="AEXX">      0.00000000</i>
   <i name="HFALPHA">      0.00000000</i>
   <i name="MCALPHA">      0.00000000</i>
   <i name="ALDAX">      1.00000000</i>
   <i name="AGGAX">      1.00000000</i>
   <i name="ALDAC">      1.00000000</i>
   <i name="AGGAC">      1.00000000</i>
   <i type="int" name="NKREDX">     1</i>
   <i type="int" name="NKREDY">     1</i>
   <i type="int" name="NKREDZ">     1</i>
   <i type="logical" name="SHIFTRED"> F  </i>
   <i type="logical" name="ODDONLY"> F  </i>
   <i type="logical" name="EVENONLY"> F  </i>
   <i type="int" name="LMAXFOCK">     0</i>
   <i type="int" name="NMAXFOCKAE">     0</i>
   <i type="logical" name="LFOCKAEDFT"> F  </i>
   <i name="HFSCREEN">      0.00000000</i>
   <i name="HFSCREENC">      0.00000000</i>
   <i type="int" name="NBANDSGWLOW">     0</i>
  </separator>
  <separator name="vdW DFT" >
   <i type="logical" name="LUSE_VDW"> F  </i>
   <i name="Zab_VDW">     -0.84910000</i>
   <i name="PARAM1">      0.12340000</i>
   <i name="PARAM2">      1.00000000</i>
   <i name="PARAM3">      0.00000000</i>
  </separator>
  <separator name="model GW" >
   <i type="int" name="MODEL_GW">     0</i>
   <i name="MODEL_EPS0">      9.96451875</i>
   <i name="MODEL_ALPHA">      1.00000000</i>
  </separator>
  <separator name="linear response parameters" >
   <i type="logical" name="LEPSILON"> F  </i>
   <i type="logical" name="LRPA"> F  </i>
   <i type="logical" name="LNABLA"> F  </i>
   <i type="logical" name="LVEL"> F  </i>
   <i type="int" name="KINTER">     0</i>
   <i name="CSHIFT">      0.10000000</i>
   <i name="OMEGAMAX">     -1.00000000</i>
   <i name="DEG_THRESHOLD">      0.00200000</i>
   <i name="RTIME">     -0.10000000</i>
   <i name="WPLASMAI">      0.00000000</i>
   <v name="DFIELD">      0.00000000      0.00000000      0.00000000</v>
   <v name="WPLASMA">      0.00000000      0.00000000      0.00000000      0.00000000      0.00000000      0.00000000      0.00000000      0.00000000      0.00000000</v>
  </separator>
  <separator name="orbital magnetization" >
   <i type="logical" name="NUCIND"> F  </i>
   <v name="MAGPOS">      0.00000000      0.00000000      0.00000000</v>
   <i type="logical" name="LNICSALL"> T  </i>
   <i type="logical" name="ORBITALMAG"> F  </i>
   <i type="logical" name="LMAGBLOCH"> F  </i>
   <i type="logical" name="LCHIMAG"> F  </i>
   <i type="logical" name="LGAUGE"> T  </i>
   <i type="int" name="MAGATOM">     0</i>
   <v name="MAGDIPOL">      0.00000000      0.00000000      0.00000000</v>
   <v name="AVECCONST">      0.00000000      0.00000000      0.00000000</v>
  </separator>
  <separator name="response functions" >
   <i type="logical" name="LADDER"> F  </i>
   <i type="logical" name="LRPAFORCE"> F  </i>
   <i type="logical" name="LFXC"> F  </i>
   <i type="logical" name="LHARTREE"> T  </i>
   <i type="int" name="IBSE">     0</i>
   <v type="int" name="KPOINT">    -1     0     0     0</v>
   <i type="logical" name="LTCTE"> F  </i>
   <i type="logical" name="LTETE"> F  </i>
   <i type="logical" name="LTRIPLET"> F  </i>
   <i type="logical" name="LFXCEPS"> F  </i>
   <i type="logical" name="LFXHEG"> F  </i>
   <i type="int" name="NATURALO">     2</i>
   <i type="logical" name="L2ORDER"> F  </i>
   <i type="logical" name="LMP2LT"> F  </i>
   <i type="logical" name="LUSEW"> F  </i>
   <i name="ENCUTGW">     -2.00000000</i>
   <i name="ENCUTGWSOFT">     -2.00000000</i>
   <i name="ENCUTLF">     -1.00000000</i>
   <i type="int" name="LMAXMP2">    -1</i>
   <i name="SCISSOR">      0.00000000</i>
   <i type="int" name="NOMEGA">     0</i>
   <i type="int" name="NOMEGAR">     0</i>
   <i type="int" name="NBANDSGW">    -1</i>
   <i type="int" name="NBANDSO">    -1</i>
   <i type="int" name="NBANDSV">    -1</i>
   <i type="int" name="NELM">     1</i>
   <i type="int" name="NELMHF">     1</i>
   <i type="int" name="DIM">     3</i>
   <i type="int" name="ANTIRES">     0</i>
   <i name="OMEGAMAX">    -30.00000000</i>
   <i name="OMEGAMIN">    -30.00000000</i>
   <i name="OMEGATL">   -200.00000000</i>
   <i type="int" name="OMEGAGRID">   140</i>
   <i name="CSHIFT">     -0.10000000</i>
   <i type="logical" name="SELFENERGY"> F  </i>
   <i type="logical" name="LSPECTRAL"> F  </i>
   <i type="logical" name="LSPECTRALGW"> F  </i>
   <i type="logical" name="LSINGLES"> F  </i>
   <i type="logical" name="LFERMIGW"> F  </i>
   <i type="logical" name="ODDONLYGW"> F  </i>
   <i type="logical" name="EVENONLYGW"> F  </i>
   <i type="int" name="NKREDLFX">     1</i>
   <i type="int" name="NKREDLFY">     1</i>
   <i type="int" name="NKREDLFZ">     1</i>
   <i type="int" name="MAXMEM">  2800</i>
   <i type="int" name="TELESCOPE">     0</i>
   <i type="int" name="TAUPAR">     1</i>
   <i type="int" name="OMEGAPAR">    -1</i>
   <i name="LAMBDA">      1.00000000</i>
  </separator>
  <separator name="External order field" >
   <i name="OFIELD_KAPPA">      0.00000000</i>
   <v name="OFIELD_K">      0.00000000      0.00000000      0.00000000</v>
   <i name="OFIELD_Q6_NEAR">      0.00000000</i>
   <i name="OFIELD_Q6_FAR">      0.00000000</i>
   <i name="OFIELD_A">      0.00000000</i>
  </separator>
 </parameters>
 <atominfo>
  <atoms>       1 </atoms>
  <types>       1 </types>
  <array name="atoms" >
   <dimension dim="1">ion</dimension>
   <field type="string">element</field>
   <field type="int">atomtype</field>
   <set>
    <rc><c>Au</c><c>   1</c></rc>
   </set>
  </array>
  <array name="atomtypes" >
   <dimension dim="1">type</dimension>
   <field type="int">atomspertype</field>
   <field type="string">element</field>
   <field>mass</field>
   <field>valence</field>
   <field type="string">pseudopotential</field>
   <set>
    <rc><c>   1</c><c>Au</c><c>    196.96600000</c><c>     11.00000000</c><c> PAW Au 04Feb1998                       </c></rc>
   </set>
  </array>
 </atominfo>
 <structure name="initialpos" >
  <crystal>
   <varray name="basis" >
    <v>       0.00000000       2.02500000       2.02500000 </v>
    <v>       2.02500000       0.00000000       2.02500000 </v>
    <v>       2.02500000       2.02500000       0.00000000 </v>
   </varray>
   <i name="volume">     16.60753125 </i>
   <varray name="rec_basis" >
    <v>      -0.24691358       0.24691358       0.24691358 </v>
    <v>       0.24691358      -0.24691358       0.24691358 </v>
    <v>       0.24691358       0.24691358      -0.24691358 </v>
   </varray>
  </crystal>
  <varray name="positions" >
   <v>       0.00000000       0.00000000       0.00000000 </v>
  </varray>
 </structure>
 <calculation>
  <scstep>
   <time name="dav">    0.32    0.94</time>
   <time name="total">    0.33    0.96</time>
   <energy>
    <i name="alphaZ">    110.66541513 </i>
    <i name="ewald">   -986.24019799 </i>
    <i name="hartreedc">   -109.43934093 </i>
    <i name="XCdc">     15.86068704 </i>
    <i name="pawpsdc">    757.73616444 </i>
    <i name="pawaedc">   -739.99431444 </i>
    <i name="eentropy">      0.00077999 </i>
    <i name="bandstr">     17.61811531 </i>
    <i name="atom">    929.39633208 </i>
    <i name="e_fr_energy">     -4.39635938 </i>
    <i name="e_wo_entrp">     -4.39713937 </i>
    <i name="e_0_energy">     -4.39661938 </i>
   </energy>
  </scstep>
  <scstep>
   <time name="dav">    0.30    0.89</time>
   <time name="total">    0.31    0.92</time>
   <energy>
    <i name="e_fr_energy">     -4.39158114 </i>
    <i name="e_wo_entrp">     -4.39244995 </i>
    <i name="e_0_energy">     -4.39187074 </i>
   </energy>
  </scstep>
  <scstep>
   <time name="dav">    0.30    0.91</time>
   <time name="total">    0.31    0.93</time>
   <energy>
    <i name="e_fr_energy">     -4.39141831 </i>
    <i name="e_wo_entrp">     -4.39229900 </i>
    <i name="e_0_energy">     -4.39171188 </i>
   </energy>
  </scstep>
  <scstep>
   <time name="dav">    0.22    0.67</time>
   <time name="total">    0.22    0.68</time>
   <energy>
    <i name="alphaZ">    110.66541513 </i>
    <i name="ewald">   -986.24019799 </i>
    <i name="hartreedc">   -108.40591801 </i>
    <i name="XCdc">     15.81074247 </i>
    <i name="pawpsdc">    756.34229171 </i>
    <i name="pawaedc">   -738.59929609 </i>
    <i name="eentropy">      0.00088057 </i>
    <i name="bandstr">     16.63832940 </i>
    <i name="atom">    929.39633208 </i>
    <i name="e_fr_energy">     -4.39142074 </i>
    <i name="e_wo_entrp">     -4.39230131 </i>
    <i name="e_0_energy">     -4.39171426 </i>
   </energy>
  </scstep>
  <structure>
   <crystal>
    <varray name="basis" >
     <v>       0.00000000       2.02500000       2.02500000 </v>
     <v>       2.02500000       0.00000000       2.02500000 </v>
     <v>       2.02500000       2.02500000       0.00000000 </v>
    </varray>
    <i name="volume">     16.60753125 </i>
    <varray name="rec_basis" >
     <v>      -0.24691358       0.24691358       0.24691358 </v>
     <v>       0.24691358      -0.24691358       0.24691358 </v>
     <v>       0.24691358       0.24691358      -0.24691358 </v>
    </varray>
   </crystal>
   <varray name="positions" >
    <v>       0.00000000       0.00000000       0.00000000 </v>
   </varray>
  </structure>
  <varray name="forces" >
   <v>       0.00000000       0.00000000      -0.00000000 </v>
  </varray>
  <varray name="stress" >
   <v>     -20.98500273      -0.00000000      -0.00000000 </v>
   <v>       0.00000000     -20.98500273       0.00000000 </v>
   <v>      -0.00000000       0.00000000     -20.98500273 </v>
  </varray>
  <energy>
   <i name="e_fr_energy">     -4.39142074 </i>
   <i name="e_wo_entrp">     -4.39171426 </i>
   <i name="e_0_energy">      0.00088057 </i>
  </energy>
  <time name="totalsc">    1.37    4.06</time>
  <eigenvalues>
   <array>
    <dimension dim="1">band</dimension>
    <dimension dim="2">kpoint</dimension>
    <dimension dim="3">spin</dimension>
    <field>eigene</field>
    <field>occ</field>
    <set>
     <set comment="spin 1">
      <set comment="kpoint 1">
       <r>   -4.2233    1.0000 </r>
       <r>    1.0091    1.0000 </r>
       <r>    1.0717    1.0000 </r>
       <r>    1.0717    1.0000 </r>
       <r>    2.6380    1.0000 </r>
       <r>    2.6380    1.0000 </r>
       <r>   21.3268    0.0000 </r>
       <r>   24.5378    0.0000 </r>
       <r>   25.3161    0.0000 </r>
       <r>   25.3161    0.0000 </r>
       <r>   30.1949    0.0000 </r>
       <r>   33.3630    0.0000 </r>
      </set>
      <set comment="kpoint 2">
       <r>   -3.7587    1.0000 </r>
       <r>    0.8507    1.0000 </r>
       <r>    1.2159    1.0000 </r>
       <r>    1.2499    1.0000 </r>
       <r>    2.4863    1.0000 </r>
       <r>    2.6918    1.0000 </r>
       <r>   21.6902    0.0000 </r>
       <r>   22.5667    0.0000 </r>
       <r>   24.9676    0.0000 </r>
       <r>   26.2639    0.0000 </r>
       <r>   29.6969    0.0000 </r>
       <r>   32.3669    0.0000 </r>
      </set>
      <set comment="kpoint 3">
       <r>   -2.7553    1.0000 </r>
       <r>    0.7261    1.0000 </r>
       <r>    1.3735    1.0000 </r>
       <r>    1.3982    1.0000 </r>
       <r>    2.4917    1.0000 </r>
       <r>    2.9134    1.0000 </r>
       <r>   18.7021    0.0000 </r>
       <r>   22.3067    0.0000 </r>
       <r>   25.1856    0.0000 </r>
       <r>   27.5978    0.0000 </r>
       <r>   27.6293    0.0000 </r>
       <r>   30.1376    0.0000 </r>
      </set>
      <set comment="kpoint 4">
       <r>   -1.8639    1.0000 </r>
       <r>    1.1864    1.0000 </r>
       <r>    1.2762    1.0000 </r>
       <r>    1.4141    1.0000 </r>
       <r>    2.9998    1.0000 </r>
       <r>    3.5030    1.0000 </r>
       <r>   14.6525    0.0000 </r>
       <r>   21.6070    0.0000 </r>
       <r>   24.2288    0.0000 </r>
       <r>   26.4656    0.0000 </r>
       <r>   28.8167    0.0000 </r>
       <r>   29.9437    0.0000 </r>
      </set>
      <set comment="kpoint 5">
       <r>   -1.6458    1.0000 </r>
       <r>    1.0297    1.0000 </r>
       <r>    1.1022    1.0000 </r>
       <r>    2.9628    1.0000 </r>
       <r>    3.6269    1.0000 </r>
       <r>    4.3969    1.0000 </r>
       <r>   10.8430   -0.0000 </r>
       <r>   20.8173    0.0000 </r>
       <r>   23.2689    0.0000 </r>
       <r>   24.3922    0.0000 </r>
       <r>   30.6731    0.0000 </r>
       <r>   30.9634    0.0000 </r>
      </set>
      <set comment="kpoint 6">
       <r>   -1.6429    1.0000 </r>
       <r>    0.9610    1.0000 </r>
       <r>    1.0627    1.0000 </r>
       <r>    3.4019    1.0000 </r>
       <r>    3.9198    1.0000 </r>
       <r>    5.2459    1.0000 </r>
       <r>    9.1702   -0.0000 </r>
       <r>   20.6016    0.0000 </r>
       <r>   23.3189    0.0000 </r>
       <r>   23.4372    0.0000 </r>
       <r>   31.1996    0.0000 </r>
       <r>   31.2758    0.0000 </r>
      </set>
      <set comment="kpoint 7">
       <r>   -1.6716    1.0000 </r>
       <r>    1.0615    1.0000 </r>
       <r>    1.1758    1.0000 </r>
       <r>    2.3776    1.0000 </r>
       <r>    3.7076    1.0000 </r>
       <r>    3.8291    1.0000 </r>
       <r>   12.0209    0.0000 </r>
       <r>   21.0578    0.0000 </r>
       <r>   23.7500    0.0000 </r>
       <r>   24.5946    0.0000 </r>
       <r>   30.6153    0.0000 </r>
       <r>   30.7492    0.0000 </r>
      </set>
      <set comment="kpoint 8">
       <r>   -2.0879    1.0000 </r>
       <r>    0.9841    1.0000 </r>
       <r>    1.2914    1.0000 </r>
       <r>    1.3561    1.0000 </r>
       <r>    2.9055    1.0000 </r>
       <r>    3.1833    1.0000 </r>
       <r>   16.0138    0.0000 </r>
       <r>   21.9876    0.0000 </r>
       <r>   24.7373    0.0000 </r>
       <r>   26.5984    0.0000 </r>
       <r>   28.4926    0.0000 </r>
       <r>   30.3098    0.0000 </r>
      </set>
      <set comment="kpoint 9">
       <r>   -3.1237    1.0000 </r>
       <r>    0.7157    1.0000 </r>
       <r>    1.3658    1.0000 </r>
       <r>    1.3793    1.0000 </r>
       <r>    2.4458    1.0000 </r>
       <r>    2.7849    1.0000 </r>
       <r>   19.9884    0.0000 </r>
       <r>   22.3945    0.0000 </r>
       <r>   25.1911    0.0000 </r>
       <r>   26.7232    0.0000 </r>
       <r>   28.3945    0.0000 </r>
       <r>   30.9957    0.0000 </r>
      </set>
      <set comment="kpoint 10">
       <r>   -3.9870    1.0000 </r>
       <r>    0.8986    1.0000 </r>
       <r>    1.1714    1.0000 </r>
       <r>    1.1779    1.0000 </r>
       <r>    2.5111    1.0000 </r>
       <r>    2.6984    1.0000 </r>
       <r>   21.5825    0.0000 </r>
       <r>   23.6185    0.0000 </r>
       <r>   25.0745    0.0000 </r>
       <r>   25.4473    0.0000 </r>
       <r>   30.8472    0.0000 </r>
       <r>   32.5873    0.0000 </r>
      </set>
      <set comment="kpoint 11">
       <r>   -3.5282    1.0000 </r>
       <r>    0.6737    1.0000 </r>
       <r>    1.3791    1.0000 </r>
       <r>    1.3838    1.0000 </r>
       <r>    2.2788    1.0000 </r>
       <r>    2.8142    1.0000 </r>
       <r>   21.9978    0.0000 </r>
       <r>   22.7443    0.0000 </r>
       <r>   24.4312    0.0000 </r>
       <r>   25.0491    0.0000 </r>
       <r>   30.1172    0.0000 </r>
       <r>   31.7881    0.0000 </r>
      </set>
      <set comment="kpoint 12">
       <r>   -2.6940    1.0000 </r>
       <r>    0.4163    1.0000 </r>
       <r>    1.4794    1.0000 </r>
       <r>    1.6712    1.0000 </r>
       <r>    2.2237    1.0000 </r>
       <r>    3.0425    1.0000 </r>
       <r>   20.2477    0.0000 </r>
       <r>   22.0536    0.0000 </r>
       <r>   24.0234    0.0000 </r>
       <r>   25.2855    0.0000 </r>
       <r>   28.0821    0.0000 </r>
       <r>   30.9437    0.0000 </r>
      </set>
      <set comment="kpoint 13">
       <r>   -1.6730    1.0000 </r>
       <r>    0.5037    1.0000 </r>
       <r>    1.1659    1.0000 </r>
       <r>    1.6812    1.0000 </r>
       <r>    2.9100    1.0000 </r>
       <r>    3.6432    1.0000 </r>
       <r>   16.2458    0.0000 </r>
       <r>   21.5137    0.0000 </r>
       <r>   22.9591    0.0000 </r>
       <r>   25.1878    0.0000 </r>
       <r>   28.8439    0.0000 </r>
       <r>   30.6351    0.0000 </r>
      </set>
      <set comment="kpoint 14">
       <r>   -1.2874    1.0000 </r>
       <r>    0.8523    1.0000 </r>
       <r>    1.4062    1.0000 </r>
       <r>    1.5709    1.0000 </r>
       <r>    3.6894    1.0000 </r>
       <r>    4.8498    1.0000 </r>
       <r>   12.2135    0.0000 </r>
       <r>   20.9816    0.0000 </r>
       <r>   21.7086    0.0000 </r>
       <r>   23.8755    0.0000 </r>
       <r>   30.6611    0.0000 </r>
       <r>   31.8039    0.0000 </r>
      </set>
      <set comment="kpoint 15">
       <r>   -1.2672    1.0000 </r>
       <r>    0.7190    1.0000 </r>
       <r>    1.3712    1.0000 </r>
       <r>    2.3246    1.0000 </r>
       <r>    3.8715    1.0000 </r>
       <r>    6.7274   -0.0000 </r>
       <r>    9.1478   -0.0000 </r>
       <r>   20.5052    0.0000 </r>
       <r>   21.3686    0.0000 </r>
       <r>   23.0789    0.0000 </r>
       <r>   31.1766    0.0000 </r>
       <r>   32.2091    0.0000 </r>
      </set>
      <set comment="kpoint 16">
       <r>   -1.2491    1.0000 </r>
       <r>    0.8031    1.0000 </r>
       <r>    1.3966    1.0000 </r>
       <r>    1.9838    1.0000 </r>
       <r>    3.5404    1.0000 </r>
       <r>    5.5641    1.0256 </r>
       <r>   11.0627   -0.0000 </r>
       <r>   20.2236    0.0000 </r>
       <r>   21.7695    0.0000 </r>
       <r>   24.0470    0.0000 </r>
       <r>   30.3046    0.0000 </r>
       <r>   31.8663    0.0000 </r>
      </set>
      <set comment="kpoint 17">
       <r>   -1.4291    1.0000 </r>
       <r>    0.7942    1.0000 </r>
       <r>    1.1136    1.0000 </r>
       <r>    1.5921    1.0000 </r>
       <r>    2.8184    1.0000 </r>
       <r>    4.2025    1.0000 </r>
       <r>   14.8971    0.0000 </r>
       <r>   20.4997    0.0000 </r>
       <r>   22.8733    0.0000 </r>
       <r>   26.0655    0.0000 </r>
       <r>   28.4279    0.0000 </r>
       <r>   30.9597    0.0000 </r>
      </set>
      <set comment="kpoint 18">
       <r>   -2.3327    1.0000 </r>
       <r>    0.4606    1.0000 </r>
       <r>    1.3699    1.0000 </r>
       <r>    1.6947    1.0000 </r>
       <r>    2.2189    1.0000 </r>
       <r>    3.3129    1.0000 </r>
       <r>   18.8425    0.0000 </r>
       <r>   21.1424    0.0000 </r>
       <r>   24.5876    0.0000 </r>
       <r>   25.6053    0.0000 </r>
       <r>   29.1543    0.0000 </r>
       <r>   29.8258    0.0000 </r>
      </set>
      <set comment="kpoint 19">
       <r>   -3.3161    1.0000 </r>
       <r>    0.6774    1.0000 </r>
       <r>    1.3817    1.0000 </r>
       <r>    1.3922    1.0000 </r>
       <r>    2.3209    1.0000 </r>
       <r>    2.8232    1.0000 </r>
       <r>   21.2295    0.0000 </r>
       <r>   22.1641    0.0000 </r>
       <r>   24.5343    0.0000 </r>
       <r>   26.3643    0.0000 </r>
       <r>   28.7625    0.0000 </r>
       <r>   31.8088    0.0000 </r>
      </set>
      <set comment="kpoint 20">
       <r>   -2.1388    1.0000 </r>
       <r>    0.0476    1.0000 </r>
       <r>    1.6368    1.0000 </r>
       <r>    2.0664    1.0000 </r>
       <r>    2.2667    1.0000 </r>
       <r>    3.1707    1.0000 </r>
       <r>   20.7244    0.0000 </r>
       <r>   21.8698    0.0000 </r>
       <r>   22.9243    0.0000 </r>
       <r>   23.8234    0.0000 </r>
       <r>   25.1298    0.0000 </r>
       <r>   32.3967    0.0000 </r>
      </set>
      <set comment="kpoint 21">
       <r>   -1.3324    1.0000 </r>
       <r>   -0.1853    1.0000 </r>
       <r>    1.3682    1.0000 </r>
       <r>    2.4279    1.0000 </r>
       <r>    2.9482    1.0000 </r>
       <r>    3.6674    1.0000 </r>
       <r>   17.9805    0.0000 </r>
       <r>   19.9501    0.0000 </r>
       <r>   21.5861    0.0000 </r>
       <r>   24.3068    0.0000 </r>
       <r>   25.7007    0.0000 </r>
       <r>   32.4675    0.0000 </r>
      </set>
      <set comment="kpoint 22">
       <r>   -0.8638    1.0000 </r>
       <r>    0.0805    1.0000 </r>
       <r>    1.1135    1.0000 </r>
       <r>    2.2898    1.0000 </r>
       <r>    3.7821    1.0000 </r>
       <r>    5.1304    1.0000 </r>
       <r>   13.8597    0.0000 </r>
       <r>   19.2643    0.0000 </r>
       <r>   19.8356    0.0000 </r>
       <r>   23.9083    0.0000 </r>
       <r>   28.9270    0.0000 </r>
       <r>   32.4479    0.0000 </r>
      </set>
      <set comment="kpoint 23">
       <r>   -0.7432    1.0000 </r>
       <r>    0.3514    1.0000 </r>
       <r>    1.3219    1.0000 </r>
       <r>    2.0835    1.0000 </r>
       <r>    3.9084    1.0000 </r>
       <r>    7.6267   -0.0000 </r>
       <r>   10.2327   -0.0000 </r>
       <r>   17.9665    0.0000 </r>
       <r>   19.9051    0.0000 </r>
       <r>   23.4730    0.0000 </r>
       <r>   31.5329    0.0000 </r>
       <r>   33.1472    0.0000 </r>
      </set>
      <set comment="kpoint 24">
       <r>   -0.5656    1.0000 </r>
       <r>    0.4194    1.0000 </r>
       <r>    1.3410    1.0000 </r>
       <r>    1.9746    1.0000 </r>
       <r>    3.4929    1.0000 </r>
       <r>    7.4628   -0.0000 </r>
       <r>   10.7819   -0.0000 </r>
       <r>   16.8680    0.0000 </r>
       <r>   21.1163    0.0000 </r>
       <r>   23.6515    0.0000 </r>
       <r>   30.6694    0.0000 </r>
       <r>   33.0554    0.0000 </r>
      </set>
      <set comment="kpoint 25">
       <r>   -0.4797    1.0000 </r>
       <r>    0.4992    1.0000 </r>
       <r>    0.7625    1.0000 </r>
       <r>    2.0574    1.0000 </r>
       <r>    2.7766    1.0000 </r>
       <r>    5.6480    1.0337 </r>
       <r>   14.2022    0.0000 </r>
       <r>   16.7885    0.0000 </r>
       <r>   22.3436    0.0000 </r>
       <r>   25.1549    0.0000 </r>
       <r>   28.4299    0.0000 </r>
       <r>   32.8818    0.0000 </r>
      </set>
      <set comment="kpoint 26">
       <r>   -1.2690    1.0000 </r>
       <r>    0.3792    1.0000 </r>
       <r>    1.0859    1.0000 </r>
       <r>    1.9318    1.0000 </r>
       <r>    2.3630    1.0000 </r>
       <r>    4.2964    1.0000 </r>
       <r>   16.3586    0.0000 </r>
       <r>   19.0542    0.0000 </r>
       <r>   23.3503    0.0000 </r>
       <r>   26.4404    0.0000 </r>
       <r>   27.5723    0.0000 </r>
       <r>   31.5052    0.0000 </r>
      </set>
      <set comment="kpoint 27">
       <r>   -2.2484    1.0000 </r>
       <r>    0.6468    1.0000 </r>
       <r>    1.3425    1.0000 </r>
       <r>    1.4972    1.0000 </r>
       <r>    2.5571    1.0000 </r>
       <r>    3.2377    1.0000 </r>
       <r>   17.4610    0.0000 </r>
       <r>   22.0498    0.0000 </r>
       <r>   24.2006    0.0000 </r>
       <r>   26.6245    0.0000 </r>
       <r>   28.4440    0.0000 </r>
       <r>   29.8573    0.0000 </r>
      </set>
      <set comment="kpoint 28">
       <r>   -1.1949    1.0000 </r>
       <r>   -0.5773    1.0000 </r>
       <r>    2.2747    1.0000 </r>
       <r>    2.9788    1.0000 </r>
       <r>    3.4170    1.0000 </r>
       <r>    3.6015    1.0000 </r>
       <r>   17.9178    0.0000 </r>
       <r>   18.9126    0.0000 </r>
       <r>   19.2027    0.0000 </r>
       <r>   23.1626    0.0000 </r>
       <r>   25.0904    0.0000 </r>
       <r>   34.8933    0.0000 </r>
      </set>
      <set comment="kpoint 29">
       <r>   -1.0494    1.0000 </r>
       <r>   -0.6896    1.0000 </r>
       <r>    2.3273    1.0000 </r>
       <r>    3.2893    1.0000 </r>
       <r>    3.7955    1.0000 </r>
       <r>    5.1743    1.0000 </r>
       <r>   15.0703    0.0000 </r>
       <r>   17.2080    0.0000 </r>
       <r>   17.8322    0.0000 </r>
       <r>   24.1931    0.0000 </r>
       <r>   26.1092    0.0000 </r>
       <r>   34.4733    0.0000 </r>
      </set>
      <set comment="kpoint 30">
       <r>   -0.8774    1.0000 </r>
       <r>   -0.3668    1.0000 </r>
       <r>    1.9595    1.0000 </r>
       <r>    2.9736    1.0000 </r>
       <r>    4.0129    1.0000 </r>
       <r>    7.8544   -0.0000 </r>
       <r>   11.8008    0.0000 </r>
       <r>   15.4709    0.0000 </r>
       <r>   17.9424    0.0000 </r>
       <r>   24.4043    0.0000 </r>
       <r>   28.8788    0.0000 </r>
       <r>   33.4618    0.0000 </r>
      </set>
      <set comment="kpoint 31">
       <r>   -0.5751    1.0000 </r>
       <r>    0.1571    1.0000 </r>
       <r>    1.3953    1.0000 </r>
       <r>    2.6304    1.0000 </r>
       <r>    3.6720    1.0000 </r>
       <r>    9.0856   -0.0000 </r>
       <r>   11.2355   -0.0000 </r>
       <r>   13.7850    0.0000 </r>
       <r>   19.3063    0.0000 </r>
       <r>   24.1450    0.0000 </r>
       <r>   32.0295    0.0000 </r>
       <r>   32.4797    0.0000 </r>
      </set>
      <set comment="kpoint 32">
       <r>   -0.2809    1.0000 </r>
       <r>    0.4621    1.0000 </r>
       <r>    0.8814    1.0000 </r>
       <r>    2.2575    1.0000 </r>
       <r>    3.2426    1.0000 </r>
       <r>    7.2891   -0.0000 </r>
       <r>   12.6575    0.0000 </r>
       <r>   14.7862    0.0000 </r>
       <r>   21.1226    0.0000 </r>
       <r>   24.0309    0.0000 </r>
       <r>   30.3180    0.0000 </r>
       <r>   33.3002    0.0000 </r>
      </set>
      <set comment="kpoint 33">
       <r>   -0.8800    1.0000 </r>
       <r>    0.6991    1.0000 </r>
       <r>    1.2073    1.0000 </r>
       <r>    1.7414    1.0000 </r>
       <r>    3.1534    1.0000 </r>
       <r>    5.6275    1.0355 </r>
       <r>   12.5975    0.0000 </r>
       <r>   18.5375    0.0000 </r>
       <r>   22.0632    0.0000 </r>
       <r>   24.6251    0.0000 </r>
       <r>   29.2783    0.0000 </r>
       <r>   32.3433    0.0000 </r>
      </set>
      <set comment="kpoint 34">
       <r>   -1.5905    1.0000 </r>
       <r>    1.0640    1.0000 </r>
       <r>    1.3221    1.0000 </r>
       <r>    1.5696    1.0000 </r>
       <r>    3.2890    1.0000 </r>
       <r>    4.0193    1.0000 </r>
       <r>   13.3880    0.0000 </r>
       <r>   21.3025    0.0000 </r>
       <r>   23.0051    0.0000 </r>
       <r>   25.3057    0.0000 </r>
       <r>   29.6817    0.0000 </r>
       <r>   30.7108    0.0000 </r>
      </set>
      <set comment="kpoint 35">
       <r>   -1.3204    1.0000 </r>
       <r>   -0.9886    1.0000 </r>
       <r>    3.6879    1.0000 </r>
       <r>    3.6939    1.0000 </r>
       <r>    4.0443    1.0000 </r>
       <r>    5.6455    1.0341 </r>
       <r>   13.6991    0.0000 </r>
       <r>   16.4504    0.0000 </r>
       <r>   16.7825    0.0000 </r>
       <r>   23.5089    0.0000 </r>
       <r>   25.9181    0.0000 </r>
       <r>   35.7895    0.0000 </r>
      </set>
      <set comment="kpoint 36">
       <r>   -1.2458    1.0000 </r>
       <r>   -0.9364    1.0000 </r>
       <r>    3.2861    1.0000 </r>
       <r>    3.6432    1.0000 </r>
       <r>    4.2010    1.0000 </r>
       <r>    7.6986   -0.0000 </r>
       <r>   11.8073    0.0000 </r>
       <r>   15.4090    0.0000 </r>
       <r>   16.3783    0.0000 </r>
       <r>   24.4617    0.0000 </r>
       <r>   26.4796    0.0000 </r>
       <r>   34.9073    0.0000 </r>
      </set>
      <set comment="kpoint 37">
       <r>   -0.9336    1.0000 </r>
       <r>   -0.4606    1.0000 </r>
       <r>    2.2580    1.0000 </r>
       <r>    3.1509    1.0000 </r>
       <r>    4.0100    1.0000 </r>
       <r>    9.2994   -0.0000 </r>
       <r>   10.9121   -0.0000 </r>
       <r>   14.1346    0.0000 </r>
       <r>   17.5875    0.0000 </r>
       <r>   24.6021    0.0000 </r>
       <r>   28.8874    0.0000 </r>
       <r>   33.6183    0.0000 </r>
      </set>
      <set comment="kpoint 38">
       <r>   -0.6093    1.0000 </r>
       <r>    0.2059    1.0000 </r>
       <r>    1.3499    1.0000 </r>
       <r>    2.3992    1.0000 </r>
       <r>    3.8029    1.0000 </r>
       <r>    9.1905   -0.0000 </r>
       <r>    9.7128   -0.0000 </r>
       <r>   15.8082    0.0000 </r>
       <r>   19.5049    0.0000 </r>
       <r>   23.8609    0.0000 </r>
       <r>   31.7506    0.0000 </r>
       <r>   32.8495    0.0000 </r>
      </set>
      <set comment="kpoint 39">
       <r>   -0.9375    1.0000 </r>
       <r>    0.5397    1.0000 </r>
       <r>    1.6459    1.0000 </r>
       <r>    1.8418    1.0000 </r>
       <r>    3.7416    1.0000 </r>
       <r>    7.5790   -0.0000 </r>
       <r>    9.2955   -0.0000 </r>
       <r>   18.9181    0.0000 </r>
       <r>   21.1177    0.0000 </r>
       <r>   23.2066    0.0000 </r>
       <r>   31.0457    0.0000 </r>
       <r>   32.6815    0.0000 </r>
      </set>
      <set comment="kpoint 40">
       <r>   -1.5095    1.0000 </r>
       <r>    0.8976    1.0000 </r>
       <r>    1.1813    1.0000 </r>
       <r>    2.7579    1.0000 </r>
       <r>    3.8259    1.0000 </r>
       <r>    5.4288    1.0037 </r>
       <r>    9.8550   -0.0000 </r>
       <r>   20.7456    0.0000 </r>
       <r>   22.4479    0.0000 </r>
       <r>   23.6068    0.0000 </r>
       <r>   31.0134    0.0000 </r>
       <r>   31.5404    0.0000 </r>
      </set>
      <set comment="kpoint 41">
       <r>   -1.3986    1.0000 </r>
       <r>   -1.0761    1.0000 </r>
       <r>    3.8195    1.0000 </r>
       <r>    3.9941    1.0000 </r>
       <r>    4.2162    1.0000 </r>
       <r>    6.8642   -0.0000 </r>
       <r>   12.0538    0.0000 </r>
       <r>   15.9303    0.0000 </r>
       <r>   16.2973    0.0000 </r>
       <r>   23.6535    0.0000 </r>
       <r>   26.0938    0.0000 </r>
       <r>   35.5816    0.0000 </r>
      </set>
      <set comment="kpoint 42">
       <r>   -1.1648    1.0000 </r>
       <r>   -0.8524    1.0000 </r>
       <r>    2.9085    1.0000 </r>
       <r>    3.5728    1.0000 </r>
       <r>    4.0362    1.0000 </r>
       <r>    6.4627   -0.0001 </r>
       <r>   13.3225    0.0000 </r>
       <r>   16.0206    0.0000 </r>
       <r>   16.8562    0.0000 </r>
       <r>   24.3420    0.0000 </r>
       <r>   26.3504    0.0000 </r>
       <r>   34.8541    0.0000 </r>
      </set>
      <set comment="kpoint 43">
       <r>   -0.8174    1.0000 </r>
       <r>   -0.1777    1.0000 </r>
       <r>    1.5117    1.0000 </r>
       <r>    2.6558    1.0000 </r>
       <r>    3.9600    1.0000 </r>
       <r>    6.3882   -0.0008 </r>
       <r>   12.7639    0.0000 </r>
       <r>   17.3988    0.0000 </r>
       <r>   18.6467    0.0000 </r>
       <r>   24.1096    0.0000 </r>
       <r>   28.8853    0.0000 </r>
       <r>   33.0824    0.0000 </r>
      </set>
      <set comment="kpoint 44">
       <r>   -0.9873    1.0000 </r>
       <r>    0.5900    1.0000 </r>
       <r>    1.3524    1.0000 </r>
       <r>    1.7786    1.0000 </r>
       <r>    3.8934    1.0000 </r>
       <r>    6.0944   -0.0330 </r>
       <r>   11.1457   -0.0000 </r>
       <r>   20.0223    0.0000 </r>
       <r>   20.4626    0.0000 </r>
       <r>   23.2981    0.0000 </r>
       <r>   31.2305    0.0000 </r>
       <r>   32.9084    0.0000 </r>
      </set>
      <set comment="kpoint 45">
       <r>   -1.2102    1.0000 </r>
       <r>   -0.8188    1.0000 </r>
       <r>    3.0830    1.0000 </r>
       <r>    3.4048    1.0000 </r>
       <r>    3.8183    1.0000 </r>
       <r>    4.3430    1.0000 </r>
       <r>   15.8898    0.0000 </r>
       <r>   17.4749    0.0000 </r>
       <r>   17.6873    0.0000 </r>
       <r>   23.3038    0.0000 </r>
       <r>   25.5781    0.0000 </r>
       <r>   35.8890    0.0000 </r>
      </set>
      <set comment="kpoint 46">
       <r>   -1.0303    1.0000 </r>
       <r>   -0.4611    1.0000 </r>
       <r>    1.7102    1.0000 </r>
       <r>    2.8704    1.0000 </r>
       <r>    3.4538    1.0000 </r>
       <r>    4.2154    1.0000 </r>
       <r>   16.6180    0.0000 </r>
       <r>   18.5910    0.0000 </r>
       <r>   19.5130    0.0000 </r>
       <r>   24.1532    0.0000 </r>
       <r>   25.8109    0.0000 </r>
       <r>   33.5886    0.0000 </r>
      </set>
      <set comment="kpoint 47">
       <r>   -1.1558    1.0000 </r>
       <r>    0.3250    1.0000 </r>
       <r>    0.9967    1.0000 </r>
       <r>    1.9511    1.0000 </r>
       <r>    3.4167    1.0000 </r>
       <r>    4.2066    1.0000 </r>
       <r>   15.0385    0.0000 </r>
       <r>   20.5312    0.0000 </r>
       <r>   21.5858    0.0000 </r>
       <r>   24.1240    0.0000 </r>
       <r>   28.9617    0.0000 </r>
       <r>   31.6030    0.0000 </r>
      </set>
      <set comment="kpoint 48">
       <r>   -1.4923    1.0000 </r>
       <r>   -0.2809    1.0000 </r>
       <r>    1.7209    1.0000 </r>
       <r>    2.5102    1.0000 </r>
       <r>    2.7647    1.0000 </r>
       <r>    3.3839    1.0000 </r>
       <r>   19.4530    0.0000 </r>
       <r>   20.3471    0.0000 </r>
       <r>   21.5433    0.0000 </r>
       <r>   23.3144    0.0000 </r>
       <r>   24.5225    0.0000 </r>
       <r>   33.5206    0.0000 </r>
      </set>
      <set comment="kpoint 49">
       <r>   -1.9724    1.0000 </r>
       <r>    0.1164    1.0000 </r>
       <r>    1.3930    1.0000 </r>
       <r>    2.0209    1.0000 </r>
       <r>    2.4628    1.0000 </r>
       <r>    3.3200    1.0000 </r>
       <r>   19.1849    0.0000 </r>
       <r>   21.2275    0.0000 </r>
       <r>   23.3265    0.0000 </r>
       <r>   24.4365    0.0000 </r>
       <r>   26.5340    0.0000 </r>
       <r>   31.4323    0.0000 </r>
      </set>
      <set comment="kpoint 50">
       <r>   -2.8833    1.0000 </r>
       <r>    0.3773    1.0000 </r>
       <r>    1.6282    1.0000 </r>
       <r>    1.6837    1.0000 </r>
       <r>    2.0681    1.0000 </r>
       <r>    2.9756    1.0000 </r>
       <r>   21.6910    0.0000 </r>
       <r>   22.7606    0.0000 </r>
       <r>   23.3092    0.0000 </r>
       <r>   24.2663    0.0000 </r>
       <r>   27.7825    0.0000 </r>
       <r>   31.7504    0.0000 </r>
      </set>
      <set comment="kpoint 51">
       <r>   -3.5422    1.0000 </r>
       <r>    0.8330    1.0000 </r>
       <r>    1.2696    1.0000 </r>
       <r>    1.2696    1.0000 </r>
       <r>    2.5910    1.0000 </r>
       <r>    2.5910    1.0000 </r>
       <r>   21.0747    0.0000 </r>
       <r>   22.2668    0.0000 </r>
       <r>   25.9760    0.0000 </r>
       <r>   25.9760    0.0000 </r>
       <r>   29.2591    0.0000 </r>
       <r>   31.7252    0.0000 </r>
      </set>
      <set comment="kpoint 52">
       <r>   -2.9062    1.0000 </r>
       <r>    0.6190    1.0000 </r>
       <r>    1.4003    1.0000 </r>
       <r>    1.4826    1.0000 </r>
       <r>    2.2642    1.0000 </r>
       <r>    2.9885    1.0000 </r>
       <r>   20.0143    0.0000 </r>
       <r>   21.8007    0.0000 </r>
       <r>   24.6393    0.0000 </r>
       <r>   26.8924    0.0000 </r>
       <r>   28.0219    0.0000 </r>
       <r>   31.2165    0.0000 </r>
      </set>
      <set comment="kpoint 53">
       <r>   -1.8369    1.0000 </r>
       <r>    0.4559    1.0000 </r>
       <r>    1.2865    1.0000 </r>
       <r>    1.7766    1.0000 </r>
       <r>    2.1686    1.0000 </r>
       <r>    3.7551    1.0000 </r>
       <r>   17.5504    0.0000 </r>
       <r>   20.1437    0.0000 </r>
       <r>   24.2822    0.0000 </r>
       <r>   26.0381    0.0000 </r>
       <r>   28.5390    0.0000 </r>
       <r>   30.5168    0.0000 </r>
      </set>
      <set comment="kpoint 54">
       <r>   -1.1607    1.0000 </r>
       <r>    0.8527    1.0000 </r>
       <r>    1.2300    1.0000 </r>
       <r>    1.5646    1.0000 </r>
       <r>    2.8701    1.0000 </r>
       <r>    4.8499    1.0000 </r>
       <r>   13.6838    0.0000 </r>
       <r>   19.4942    0.0000 </r>
       <r>   22.6752    0.0000 </r>
       <r>   25.6013    0.0000 </r>
       <r>   28.4926    0.0000 </r>
       <r>   31.6559    0.0000 </r>
      </set>
      <set comment="kpoint 55">
       <r>   -1.1331    1.0000 </r>
       <r>    0.7051    1.0000 </r>
       <r>    1.4496    1.0000 </r>
       <r>    2.0921    1.0000 </r>
       <r>    3.5886    1.0000 </r>
       <r>    6.4547   -0.0002 </r>
       <r>   10.0871   -0.0000 </r>
       <r>   19.5030    0.0000 </r>
       <r>   22.0216    0.0000 </r>
       <r>   23.2257    0.0000 </r>
       <r>   30.8361    0.0000 </r>
       <r>   31.9035    0.0000 </r>
      </set>
      <set comment="kpoint 56">
       <r>   -1.1734    1.0000 </r>
       <r>    0.6760    1.0000 </r>
       <r>    1.5000    1.0000 </r>
       <r>    1.9167    1.0000 </r>
       <r>    3.9522    1.0000 </r>
       <r>    6.4179   -0.0004 </r>
       <r>    9.9138   -0.0000 </r>
       <r>   20.2229    0.0000 </r>
       <r>   21.9178    0.0000 </r>
       <r>   22.2929    0.0000 </r>
       <r>   31.8558    0.0000 </r>
       <r>   32.0924    0.0000 </r>
      </set>
      <set comment="kpoint 57">
       <r>   -1.2522    1.0000 </r>
       <r>    0.7770    1.0000 </r>
       <r>    1.0183    1.0000 </r>
       <r>    1.6700    1.0000 </r>
       <r>    3.7965    1.0000 </r>
       <r>    4.2915    1.0000 </r>
       <r>   13.5473    0.0000 </r>
       <r>   21.3754    0.0000 </r>
       <r>   21.7666    0.0000 </r>
       <r>   23.3414    0.0000 </r>
       <r>   30.7781    0.0000 </r>
       <r>   31.7296    0.0000 </r>
      </set>
      <set comment="kpoint 58">
       <r>   -1.8652    1.0000 </r>
       <r>    0.2499    1.0000 </r>
       <r>    1.2937    1.0000 </r>
       <r>    1.8087    1.0000 </r>
       <r>    2.8289    1.0000 </r>
       <r>    3.3251    1.0000 </r>
       <r>   17.7152    0.0000 </r>
       <r>   22.3892    0.0000 </r>
       <r>   22.5692    0.0000 </r>
       <r>   24.5309    0.0000 </r>
       <r>   27.6439    0.0000 </r>
       <r>   31.6802    0.0000 </r>
      </set>
      <set comment="kpoint 59">
       <r>   -2.5390    1.0000 </r>
       <r>    0.5036    1.0000 </r>
       <r>    1.4195    1.0000 </r>
       <r>    1.5571    1.0000 </r>
       <r>    2.4551    1.0000 </r>
       <r>    3.0404    1.0000 </r>
       <r>   18.8660    0.0000 </r>
       <r>   22.5681    0.0000 </r>
       <r>   23.9021    0.0000 </r>
       <r>   26.0785    0.0000 </r>
       <r>   27.9858    0.0000 </r>
       <r>   31.0624    0.0000 </r>
      </set>
      <set comment="kpoint 60">
       <r>   -1.6649    1.0000 </r>
       <r>    0.2393    1.0000 </r>
       <r>    1.1901    1.0000 </r>
       <r>    1.9898    1.0000 </r>
       <r>    2.4369    1.0000 </r>
       <r>    3.7336    1.0000 </r>
       <r>   17.6926    0.0000 </r>
       <r>   20.1725    0.0000 </r>
       <r>   23.4063    0.0000 </r>
       <r>   25.4040    0.0000 </r>
       <r>   28.1199    0.0000 </r>
       <r>   30.4488    0.0000 </r>
      </set>
      <set comment="kpoint 61">
       <r>   -0.7249    1.0000 </r>
       <r>    0.2629    1.0000 </r>
       <r>    0.7821    1.0000 </r>
       <r>    2.2251    1.0000 </r>
       <r>    2.7589    1.0000 </r>
       <r>    4.9467    1.0000 </r>
       <r>   15.2499    0.0000 </r>
       <r>   17.9164    0.0000 </r>
       <r>   21.9143    0.0000 </r>
       <r>   26.1779    0.0000 </r>
       <r>   27.6514    0.0000 </r>
       <r>   32.0946    0.0000 </r>
      </set>
      <set comment="kpoint 62">
       <r>   -0.5919    1.0000 </r>
       <r>    0.4425    1.0000 </r>
       <r>    1.0983    1.0000 </r>
       <r>    2.0197    1.0000 </r>
       <r>    3.4826    1.0000 </r>
       <r>    6.6466   -0.0000 </r>
       <r>   11.6439    0.0000 </r>
       <r>   17.6604    0.0000 </r>
       <r>   20.5235    0.0000 </r>
       <r>   24.6631    0.0000 </r>
       <r>   29.7558    0.0000 </r>
       <r>   33.4276    0.0000 </r>
      </set>
      <set comment="kpoint 63">
       <r>   -0.6637    1.0000 </r>
       <r>    0.3479    1.0000 </r>
       <r>    1.4447    1.0000 </r>
       <r>    1.9511    1.0000 </r>
       <r>    3.7882    1.0000 </r>
       <r>    8.3305   -0.0000 </r>
       <r>    9.3067   -0.0000 </r>
       <r>   18.2883    0.0000 </r>
       <r>   19.4786    0.0000 </r>
       <r>   24.1405    0.0000 </r>
       <r>   30.6808    0.0000 </r>
       <r>   33.9004    0.0000 </r>
      </set>
      <set comment="kpoint 64">
       <r>   -0.7140    1.0000 </r>
       <r>    0.4425    1.0000 </r>
       <r>    0.8573    1.0000 </r>
       <r>    2.1521    1.0000 </r>
       <r>    3.6118    1.0000 </r>
       <r>    5.8826    0.4596 </r>
       <r>   12.6570    0.0000 </r>
       <r>   18.5391    0.0000 </r>
       <r>   20.0837    0.0000 </r>
       <r>   24.6329    0.0000 </r>
       <r>   29.7083    0.0000 </r>
       <r>   32.5234    0.0000 </r>
      </set>
      <set comment="kpoint 65">
       <r>   -1.0485    1.0000 </r>
       <r>    0.0015    1.0000 </r>
       <r>    1.0112    1.0000 </r>
       <r>    2.3564    1.0000 </r>
       <r>    2.8626    1.0000 </r>
       <r>    4.2664    1.0000 </r>
       <r>   16.5201    0.0000 </r>
       <r>   19.0118    0.0000 </r>
       <r>   21.6847    0.0000 </r>
       <r>   25.4191    0.0000 </r>
       <r>   27.2247    0.0000 </r>
       <r>   31.4502    0.0000 </r>
      </set>
      <set comment="kpoint 66">
       <r>   -1.2677    1.0000 </r>
       <r>   -0.0106    1.0000 </r>
       <r>    1.2166    1.0000 </r>
       <r>    2.1238    1.0000 </r>
       <r>    3.5137    1.0000 </r>
       <r>    3.6030    1.0000 </r>
       <r>   16.4990    0.0000 </r>
       <r>   20.8813    0.0000 </r>
       <r>   21.5661    0.0000 </r>
       <r>   23.5568    0.0000 </r>
       <r>   27.3537    0.0000 </r>
       <r>   32.5890    0.0000 </r>
      </set>
      <set comment="kpoint 67">
       <r>   -0.7325    1.0000 </r>
       <r>   -0.2258    1.0000 </r>
       <r>    1.1223    1.0000 </r>
       <r>    2.7688    1.0000 </r>
       <r>    3.3181    1.0000 </r>
       <r>    5.0117    1.0000 </r>
       <r>   15.3233    0.0000 </r>
       <r>   17.8028    0.0000 </r>
       <r>   19.7586    0.0000 </r>
       <r>   25.3587    0.0000 </r>
       <r>   27.0574    0.0000 </r>
       <r>   32.3091    0.0000 </r>
      </set>
      <set comment="kpoint 68">
       <r>   -0.3717    1.0000 </r>
       <r>   -0.0672    1.0000 </r>
       <r>    0.8970    1.0000 </r>
       <r>    2.8509    1.0000 </r>
       <r>    3.6223    1.0000 </r>
       <r>    6.9204   -0.0000 </r>
       <r>   13.2913    0.0000 </r>
       <r>   15.7602    0.0000 </r>
       <r>   18.2049    0.0000 </r>
       <r>   26.4564    0.0000 </r>
       <r>   28.2575    0.0000 </r>
       <r>   32.3345    0.0000 </r>
      </set>
      <set comment="kpoint 69">
       <r>   -0.1975    1.0000 </r>
       <r>    0.1041    1.0000 </r>
       <r>    0.9224    1.0000 </r>
       <r>    2.4739    1.0000 </r>
       <r>    3.8654    1.0000 </r>
       <r>    9.2929   -0.0000 </r>
       <r>   10.4755   -0.0000 </r>
       <r>   15.4224    0.0000 </r>
       <r>   17.5622    0.0000 </r>
       <r>   26.1383    0.0000 </r>
       <r>   30.0942    0.0000 </r>
       <r>   33.4128    0.0000 </r>
      </set>
      <set comment="kpoint 70">
       <r>    0.0296    1.0000 </r>
       <r>    0.1458    1.0000 </r>
       <r>    0.5426    1.0000 </r>
       <r>    2.5561    1.0000 </r>
       <r>    3.5965    1.0000 </r>
       <r>    7.6800   -0.0000 </r>
       <r>   12.6550    0.0000 </r>
       <r>   14.8357    0.0000 </r>
       <r>   18.5779    0.0000 </r>
       <r>   26.4216    0.0000 </r>
       <r>   29.0522    0.0000 </r>
       <r>   33.6121    0.0000 </r>
      </set>
      <set comment="kpoint 71">
       <r>   -0.3785    1.0000 </r>
       <r>    0.1259    1.0000 </r>
       <r>    0.6333    1.0000 </r>
       <r>    2.5825    1.0000 </r>
       <r>    3.2072    1.0000 </r>
       <r>    5.7922    0.8129 </r>
       <r>   14.2255    0.0000 </r>
       <r>   16.8026    0.0000 </r>
       <r>   20.0797    0.0000 </r>
       <r>   26.1390    0.0000 </r>
       <r>   27.9750    0.0000 </r>
       <r>   32.3357    0.0000 </r>
      </set>
      <set comment="kpoint 72">
       <r>   -0.9787    1.0000 </r>
       <r>   -0.5000    1.0000 </r>
       <r>    2.0367    1.0000 </r>
       <r>    2.8647    1.0000 </r>
       <r>    4.0113    1.0000 </r>
       <r>    5.6481    1.0337 </r>
       <r>   13.9567    0.0000 </r>
       <r>   17.3713    0.0000 </r>
       <r>   18.4113    0.0000 </r>
       <r>   23.8301    0.0000 </r>
       <r>   27.3255    0.0000 </r>
       <r>   34.2795    0.0000 </r>
      </set>
      <set comment="kpoint 73">
       <r>   -0.8772    1.0000 </r>
       <r>   -0.5831    1.0000 </r>
       <r>    2.0667    1.0000 </r>
       <r>    3.3031    1.0000 </r>
       <r>    3.9988    1.0000 </r>
       <r>    7.4242   -0.0000 </r>
       <r>   12.8090    0.0000 </r>
       <r>   15.4931    0.0000 </r>
       <r>   16.7531    0.0000 </r>
       <r>   25.6291    0.0000 </r>
       <r>   27.2869    0.0000 </r>
       <r>   33.3460    0.0000 </r>
      </set>
      <set comment="kpoint 74">
       <r>   -0.6074    1.0000 </r>
       <r>   -0.2664    1.0000 </r>
       <r>    1.5941    1.0000 </r>
       <r>    2.8727    1.0000 </r>
       <r>    4.1954    1.0000 </r>
       <r>    9.8307   -0.0000 </r>
       <r>   11.3304   -0.0000 </r>
       <r>   14.0032    0.0000 </r>
       <r>   15.9939    0.0000 </r>
       <r>   27.1079    0.0000 </r>
       <r>   28.8898    0.0000 </r>
       <r>   31.8881    0.0000 </r>
      </set>
      <set comment="kpoint 75">
       <r>   -0.2556    1.0000 </r>
       <r>    0.2054    1.0000 </r>
       <r>    0.8799    1.0000 </r>
       <r>    2.5400    1.0000 </r>
       <r>    3.9639    1.0000 </r>
       <r>    9.5744   -0.0000 </r>
       <r>   11.5817    0.0000 </r>
       <r>   13.6268    0.0000 </r>
       <r>   17.1482    0.0000 </r>
       <r>   26.7454    0.0000 </r>
       <r>   30.2677    0.0000 </r>
       <r>   32.6937    0.0000 </r>
      </set>
      <set comment="kpoint 76">
       <r>   -0.3205    1.0000 </r>
       <r>    0.1868    1.0000 </r>
       <r>    0.9983    1.0000 </r>
       <r>    2.2924    1.0000 </r>
       <r>    3.7132    1.0000 </r>
       <r>    7.9444   -0.0000 </r>
       <r>   10.8588   -0.0000 </r>
       <r>   16.7688    0.0000 </r>
       <r>   18.7399    0.0000 </r>
       <r>   25.3153    0.0000 </r>
       <r>   29.9556    0.0000 </r>
       <r>   34.1005    0.0000 </r>
      </set>
      <set comment="kpoint 77">
       <r>   -1.1454    1.0000 </r>
       <r>   -0.7646    1.0000 </r>
       <r>    2.9215    1.0000 </r>
       <r>    3.4394    1.0000 </r>
       <r>    4.0842    1.0000 </r>
       <r>    8.3536   -0.0000 </r>
       <r>   11.4376    0.0000 </r>
       <r>   14.6627    0.0000 </r>
       <r>   17.2043    0.0000 </r>
       <r>   24.2765    0.0000 </r>
       <r>   27.4497    0.0000 </r>
       <r>   34.6892    0.0000 </r>
      </set>
      <set comment="kpoint 78">
       <r>   -0.9638    1.0000 </r>
       <r>   -0.6609    1.0000 </r>
       <r>    2.4240    1.0000 </r>
       <r>    3.2945    1.0000 </r>
       <r>    4.1964    1.0000 </r>
       <r>    8.7962   -0.0000 </r>
       <r>   11.4783    0.0000 </r>
       <r>   14.7857    0.0000 </r>
       <r>   16.2108    0.0000 </r>
       <r>   25.7758    0.0000 </r>
       <r>   27.3635    0.0000 </r>
       <r>   33.4972    0.0000 </r>
      </set>
      <set comment="kpoint 79">
       <r>   -0.5077    1.0000 </r>
       <r>   -0.2038    1.0000 </r>
       <r>    1.2993    1.0000 </r>
       <r>    2.9258    1.0000 </r>
       <r>    3.9770    1.0000 </r>
       <r>    8.3156   -0.0000 </r>
       <r>   12.3965    0.0000 </r>
       <r>   14.7698    0.0000 </r>
       <r>   16.7194    0.0000 </r>
       <r>   26.8636    0.0000 </r>
       <r>   28.5775    0.0000 </r>
       <r>   32.1474    0.0000 </r>
      </set>
      <set comment="kpoint 80">
       <r>   -1.0744    1.0000 </r>
       <r>   -0.6747    1.0000 </r>
       <r>    2.5892    1.0000 </r>
       <r>    3.2091    1.0000 </r>
       <r>    4.0872    1.0000 </r>
       <r>    7.0377   -0.0000 </r>
       <r>   12.6642    0.0000 </r>
       <r>   15.6297    0.0000 </r>
       <r>   17.6181    0.0000 </r>
       <r>   24.1013    0.0000 </r>
       <r>   27.4004    0.0000 </r>
       <r>   34.6122    0.0000 </r>
      </set>
      <set comment="kpoint 81">
       <r>   -0.7538    1.0000 </r>
       <r>   -0.4312    1.0000 </r>
       <r>    1.5634    1.0000 </r>
       <r>    3.1291    1.0000 </r>
       <r>    3.6919    1.0000 </r>
       <r>    6.0741   -0.0257 </r>
       <r>   14.1071    0.0000 </r>
       <r>   16.6175    0.0000 </r>
       <r>   17.9651    0.0000 </r>
       <r>   25.4390    0.0000 </r>
       <r>   27.1601    0.0000 </r>
       <r>   32.9578    0.0000 </r>
      </set>
      <set comment="kpoint 82">
       <r>   -0.9768    1.0000 </r>
       <r>   -0.2652    1.0000 </r>
       <r>    1.4801    1.0000 </r>
       <r>    2.4866    1.0000 </r>
       <r>    3.8427    1.0000 </r>
       <r>    4.4561    1.0000 </r>
       <r>   15.2323    0.0000 </r>
       <r>   19.4889    0.0000 </r>
       <r>   19.5240    0.0000 </r>
       <r>   23.5798    0.0000 </r>
       <r>   27.2818    0.0000 </r>
       <r>   33.5508    0.0000 </r>
      </set>
      <set comment="kpoint 83">
       <r>   -2.4711    1.0000 </r>
       <r>    0.8901    1.0000 </r>
       <r>    1.3379    1.0000 </r>
       <r>    1.3379    1.0000 </r>
       <r>    2.8231    1.0000 </r>
       <r>    2.8231    1.0000 </r>
       <r>   17.3280    0.0000 </r>
       <r>   22.2195    0.0000 </r>
       <r>   26.3479    0.0000 </r>
       <r>   26.3479    0.0000 </r>
       <r>   28.4498    0.0000 </r>
       <r>   29.9159    0.0000 </r>
      </set>
      <set comment="kpoint 84">
       <r>   -1.8604    1.0000 </r>
       <r>    0.7643    1.0000 </r>
       <r>    1.2874    1.0000 </r>
       <r>    1.4838    1.0000 </r>
       <r>    2.5773    1.0000 </r>
       <r>    3.6637    1.0000 </r>
       <r>   16.1369    0.0000 </r>
       <r>   21.3308    0.0000 </r>
       <r>   23.7053    0.0000 </r>
       <r>   27.3328    0.0000 </r>
       <r>   27.8310    0.0000 </r>
       <r>   29.9171    0.0000 </r>
      </set>
      <set comment="kpoint 85">
       <r>   -0.8566    1.0000 </r>
       <r>    0.4781    1.0000 </r>
       <r>    0.9977    1.0000 </r>
       <r>    1.8849    1.0000 </r>
       <r>    2.4730    1.0000 </r>
       <r>    4.9282    1.0000 </r>
       <r>   15.1975    0.0000 </r>
       <r>   17.9105    0.0000 </r>
       <r>   23.2029    0.0000 </r>
       <r>   25.9253    0.0000 </r>
       <r>   27.6202    0.0000 </r>
       <r>   32.4782    0.0000 </r>
      </set>
      <set comment="kpoint 86">
       <r>   -0.3538    1.0000 </r>
       <r>    0.5693    1.0000 </r>
       <r>    0.8554    1.0000 </r>
       <r>    2.0531    1.0000 </r>
       <r>    2.9439    1.0000 </r>
       <r>    6.4004   -0.0006 </r>
       <r>   13.3586    0.0000 </r>
       <r>   15.7114    0.0000 </r>
       <r>   22.9350    0.0000 </r>
       <r>   23.3425    0.0000 </r>
       <r>   29.6032    0.0000 </r>
       <r>   32.6894    0.0000 </r>
      </set>
      <set comment="kpoint 87">
       <r>   -0.5968    1.0000 </r>
       <r>    0.3803    1.0000 </r>
       <r>    1.3644    1.0000 </r>
       <r>    2.1272    1.0000 </r>
       <r>    3.6363    1.0000 </r>
       <r>    8.4159   -0.0000 </r>
       <r>   10.0158   -0.0000 </r>
       <r>   16.2512    0.0000 </r>
       <r>   21.0754    0.0000 </r>
       <r>   22.9494    0.0000 </r>
       <r>   31.9930    0.0000 </r>
       <r>   32.7905    0.0000 </r>
      </set>
      <set comment="kpoint 88">
       <r>   -0.8127    1.0000 </r>
       <r>    0.1393    1.0000 </r>
       <r>    1.3913    1.0000 </r>
       <r>    2.2896    1.0000 </r>
       <r>    4.0130    1.0000 </r>
       <r>    6.9453   -0.0000 </r>
       <r>   11.4007    0.0000 </r>
       <r>   17.6892    0.0000 </r>
       <r>   19.7141    0.0000 </r>
       <r>   23.2632    0.0000 </r>
       <r>   30.7389    0.0000 </r>
       <r>   33.1080    0.0000 </r>
      </set>
      <set comment="kpoint 89">
       <r>   -1.6580    1.0000 </r>
       <r>    0.9723    1.0000 </r>
       <r>    1.1250    1.0000 </r>
       <r>    1.4680    1.0000 </r>
       <r>    3.3940    1.0000 </r>
       <r>    3.5223    1.0000 </r>
       <r>   14.7572    0.0000 </r>
       <r>   21.8042    0.0000 </r>
       <r>   23.1688    0.0000 </r>
       <r>   24.9275    0.0000 </r>
       <r>   29.7444    0.0000 </r>
       <r>   30.9656    0.0000 </r>
      </set>
      <set comment="kpoint 90">
       <r>   -1.0205    1.0000 </r>
       <r>    0.7702    1.0000 </r>
       <r>    0.8149    1.0000 </r>
       <r>    1.8332    1.0000 </r>
       <r>    3.2437    1.0000 </r>
       <r>    4.9018    1.0000 </r>
       <r>   13.7323    0.0000 </r>
       <r>   19.5527    0.0000 </r>
       <r>   21.7303    0.0000 </r>
       <r>   24.9214    0.0000 </r>
       <r>   29.2124    0.0000 </r>
       <r>   31.9599    0.0000 </r>
      </set>
      <set comment="kpoint 91">
       <r>   -0.1506    1.0000 </r>
       <r>    0.3690    1.0000 </r>
       <r>    0.5410    1.0000 </r>
       <r>    2.3501    1.0000 </r>
       <r>    3.1783    1.0000 </r>
       <r>    6.5394   -0.0000 </r>
       <r>   13.3595    0.0000 </r>
       <r>   15.7458    0.0000 </r>
       <r>   20.5564    0.0000 </r>
       <r>   25.5187    0.0000 </r>
       <r>   28.8757    0.0000 </r>
       <r>   33.8248    0.0000 </r>
      </set>
      <set comment="kpoint 92">
       <r>   -0.2322    1.0000 </r>
       <r>    0.2780    1.0000 </r>
       <r>    0.8931    1.0000 </r>
       <r>    2.4534    1.0000 </r>
       <r>    3.6102    1.0000 </r>
       <r>    8.3768   -0.0000 </r>
       <r>   12.0356    0.0000 </r>
       <r>   14.1046    0.0000 </r>
       <r>   19.0370    0.0000 </r>
       <r>   25.2712    0.0000 </r>
       <r>   30.4027    0.0000 </r>
       <r>   34.3435    0.0000 </r>
      </set>
      <set comment="kpoint 93">
       <r>   -0.5749    1.0000 </r>
       <r>   -0.0239    1.0000 </r>
       <r>    1.3236    1.0000 </r>
       <r>    2.7113    1.0000 </r>
       <r>    3.9197    1.0000 </r>
       <r>    8.6653   -0.0000 </r>
       <r>   11.0327   -0.0000 </r>
       <r>   15.4188    0.0000 </r>
       <r>   17.7951    0.0000 </r>
       <r>   25.2598    0.0000 </r>
       <r>   30.3087    0.0000 </r>
       <r>   32.2986    0.0000 </r>
      </set>
      <set comment="kpoint 94">
       <r>   -0.9540    1.0000 </r>
       <r>    0.4348    1.0000 </r>
       <r>    1.1359    1.0000 </r>
       <r>    1.9516    1.0000 </r>
       <r>    3.9710    1.0000 </r>
       <r>    5.4999    1.0120 </r>
       <r>   12.4085    0.0000 </r>
       <r>   19.8041    0.0000 </r>
       <r>   20.6017    0.0000 </r>
       <r>   22.9775    0.0000 </r>
       <r>   30.9263    0.0000 </r>
       <r>   32.4804    0.0000 </r>
      </set>
      <set comment="kpoint 95">
       <r>   -0.5731    1.0000 </r>
       <r>    0.1545    1.0000 </r>
       <r>    1.0503    1.0000 </r>
       <r>    2.4792    1.0000 </r>
       <r>    3.8200    1.0000 </r>
       <r>    7.1787   -0.0000 </r>
       <r>   11.7262    0.0000 </r>
       <r>   17.2418    0.0000 </r>
       <r>   18.5688    0.0000 </r>
       <r>   24.8737    0.0000 </r>
       <r>   30.0212    0.0000 </r>
       <r>   32.5258    0.0000 </r>
      </set>
      <set comment="kpoint 96">
       <r>   -0.1870    1.0000 </r>
       <r>    0.2225    1.0000 </r>
       <r>    0.6944    1.0000 </r>
       <r>    2.5960    1.0000 </r>
       <r>    3.9659    1.0000 </r>
       <r>    9.0306   -0.0000 </r>
       <r>   12.1004    0.0000 </r>
       <r>   14.0022    0.0000 </r>
       <r>   16.8568    0.0000 </r>
       <r>   27.5425    0.0000 </r>
       <r>   29.2108    0.0000 </r>
       <r>   32.6451    0.0000 </r>
      </set>
      <set comment="kpoint 97">
       <r>   -0.3142    1.0000 </r>
       <r>    0.2296    1.0000 </r>
       <r>    0.8592    1.0000 </r>
       <r>    2.5520    1.0000 </r>
       <r>    4.1984    1.0000 </r>
       <r>   10.3237   -0.0000 </r>
       <r>   11.7617    0.0000 </r>
       <r>   13.1259    0.0000 </r>
       <r>   15.8680    0.0000 </r>
       <r>   28.3319    0.0000 </r>
       <r>   29.8347    0.0000 </r>
       <r>   31.2965    0.0000 </r>
      </set>
      <set comment="kpoint 98">
       <r>   -0.7915    1.0000 </r>
       <r>   -0.0601    1.0000 </r>
       <r>    1.6931    1.0000 </r>
       <r>    2.6396    1.0000 </r>
       <r>    3.9339    1.0000 </r>
       <r>    8.5267   -0.0000 </r>
       <r>   10.6431   -0.0000 </r>
       <r>   15.5669    0.0000 </r>
       <r>   19.1214    0.0000 </r>
       <r>   23.6394    0.0000 </r>
       <r>   30.6084    0.0000 </r>
       <r>   33.5188    0.0000 </r>
      </set>
      <set comment="kpoint 99">
       <r>   -0.6159    1.0000 </r>
       <r>   -0.0986    1.0000 </r>
       <r>    1.5356    1.0000 </r>
       <r>    2.7959    1.0000 </r>
       <r>    3.9742    1.0000 </r>
       <r>    9.9115   -0.0000 </r>
       <r>   10.8109   -0.0000 </r>
       <r>   13.7623    0.0000 </r>
       <r>   17.4749    0.0000 </r>
       <r>   25.5326    0.0000 </r>
       <r>   30.5941    0.0000 </r>
       <r>   32.0102    0.0000 </r>
      </set>
      <set comment="kpoint 100">
       <r>   -0.8101    1.0000 </r>
       <r>   -0.1540    1.0000 </r>
       <r>    1.8952    1.0000 </r>
       <r>    2.9065    1.0000 </r>
       <r>    3.8063    1.0000 </r>
       <r>    9.7358   -0.0000 </r>
       <r>   10.4670   -0.0000 </r>
       <r>   13.8221    0.0000 </r>
       <r>   18.8258    0.0000 </r>
       <r>   23.8837    0.0000 </r>
       <r>   30.5572    0.0000 </r>
       <r>   33.7086    0.0000 </r>
      </set>
      <set comment="kpoint 101">
       <r>   -1.8072    1.0000 </r>
       <r>    1.1728    1.0000 </r>
       <r>    1.1728    1.0000 </r>
       <r>    2.0602    1.0000 </r>
       <r>    3.3922    1.0000 </r>
       <r>    3.3922    1.0000 </r>
       <r>   13.2740    0.0000 </r>
       <r>   21.2824    0.0000 </r>
       <r>   25.0311    0.0000 </r>
       <r>   25.0311    0.0000 </r>
       <r>   30.2333    0.0000 </r>
       <r>   30.2808    0.0000 </r>
      </set>
      <set comment="kpoint 102">
       <r>   -1.4554    1.0000 </r>
       <r>    0.9806    1.0000 </r>
       <r>    1.2878    1.0000 </r>
       <r>    1.9845    1.0000 </r>
       <r>    3.2791    1.0000 </r>
       <r>    4.6760    1.0000 </r>
       <r>   12.1580    0.0000 </r>
       <r>   20.7778    0.0000 </r>
       <r>   22.4225    0.0000 </r>
       <r>   25.0374    0.0000 </r>
       <r>   29.6694    0.0000 </r>
       <r>   31.1552    0.0000 </r>
      </set>
      <set comment="kpoint 103">
       <r>   -0.7336    1.0000 </r>
       <r>    0.5900    1.0000 </r>
       <r>    1.4221    1.0000 </r>
       <r>    1.7596    1.0000 </r>
       <r>    3.2574    1.0000 </r>
       <r>    6.4479   -0.0002 </r>
       <r>   11.6205    0.0000 </r>
       <r>   17.6262    0.0000 </r>
       <r>   22.5173    0.0000 </r>
       <r>   23.2848    0.0000 </r>
       <r>   30.1308    0.0000 </r>
       <r>   32.3482    0.0000 </r>
      </set>
      <set comment="kpoint 104">
       <r>   -0.4620    1.0000 </r>
       <r>    0.4047    1.0000 </r>
       <r>    1.1603    1.0000 </r>
       <r>    2.4067    1.0000 </r>
       <r>    3.4119    1.0000 </r>
       <r>    8.1222   -0.0000 </r>
       <r>   11.9706    0.0000 </r>
       <r>   14.1050    0.0000 </r>
       <r>   20.9339    0.0000 </r>
       <r>   23.2740    0.0000 </r>
       <r>   31.8551    0.0000 </r>
       <r>   33.0225    0.0000 </r>
      </set>
      <set comment="kpoint 105">
       <r>   -1.4551    1.0000 </r>
       <r>    0.8878    1.0000 </r>
       <r>    1.2888    1.0000 </r>
       <r>    2.1981    1.0000 </r>
       <r>    3.9077    1.0000 </r>
       <r>    4.9666    1.0000 </r>
       <r>   10.8984   -0.0000 </r>
       <r>   20.9515    0.0000 </r>
       <r>   22.7045    0.0000 </r>
       <r>   23.2168    0.0000 </r>
       <r>   31.2985    0.0000 </r>
       <r>   31.6118    0.0000 </r>
      </set>
      <set comment="kpoint 106">
       <r>   -0.9780    1.0000 </r>
       <r>    0.5711    1.0000 </r>
       <r>    1.5857    1.0000 </r>
       <r>    1.7958    1.0000 </r>
       <r>    3.7527    1.0000 </r>
       <r>    6.7974   -0.0000 </r>
       <r>   10.1047   -0.0000 </r>
       <r>   19.6236    0.0000 </r>
       <r>   20.4939    0.0000 </r>
       <r>   23.7264    0.0000 </r>
       <r>   30.6346    0.0000 </r>
       <r>   32.9219    0.0000 </r>
      </set>
      <set comment="kpoint 107">
       <r>   -0.3694    1.0000 </r>
       <r>    0.2173    1.0000 </r>
       <r>    1.1555    1.0000 </r>
       <r>    2.2433    1.0000 </r>
       <r>    3.7089    1.0000 </r>
       <r>    8.6994   -0.0000 </r>
       <r>   10.1051   -0.0000 </r>
       <r>   16.2244    0.0000 </r>
       <r>   19.1668    0.0000 </r>
       <r>   24.7826    0.0000 </r>
       <r>   30.5564    0.0000 </r>
       <r>   34.5628    0.0000 </r>
      </set>
      <set comment="kpoint 108">
       <r>   -0.8630    1.0000 </r>
       <r>    0.4818    1.0000 </r>
       <r>    1.6333    1.0000 </r>
       <r>    1.7937    1.0000 </r>
       <r>    3.8531    1.0000 </r>
       <r>    8.0433   -0.0000 </r>
       <r>    9.1420   -0.0000 </r>
       <r>   18.3812    0.0000 </r>
       <r>   21.3890    0.0000 </r>
       <r>   22.4942    0.0000 </r>
       <r>   32.1407    0.0000 </r>
       <r>   32.3822    0.0000 </r>
      </set>
      <set comment="kpoint 109">
       <r>   -1.7107    1.0000 </r>
       <r>    1.0246    1.0000 </r>
       <r>    1.0246    1.0000 </r>
       <r>    3.8511    1.0000 </r>
       <r>    3.8511    1.0000 </r>
       <r>    4.2011    1.0000 </r>
       <r>    9.8077   -0.0000 </r>
       <r>   20.6098    0.0000 </r>
       <r>   23.8250    0.0000 </r>
       <r>   23.8250    0.0000 </r>
       <r>   30.9930    0.0000 </r>
       <r>   30.9930    0.0000 </r>
      </set>
      <set comment="kpoint 110">
       <r>   -1.4465    1.0000 </r>
       <r>    0.8431    1.0000 </r>
       <r>    1.2075    1.0000 </r>
       <r>    2.7723    1.0000 </r>
       <r>    3.8280    1.0000 </r>
       <r>    6.1320   -0.0348 </r>
       <r>    9.1716   -0.0000 </r>
       <r>   20.5975    0.0000 </r>
       <r>   22.2201    0.0000 </r>
       <r>   23.2500    0.0000 </r>
       <r>   31.3126    0.0000 </r>
       <r>   31.5027    0.0000 </r>
      </set>
     </set>
    </set>
   </array>
  </eigenvalues>
  <separator name="orbital magnetization" >
   <v name="MAGDIPOLOUT">      0.00000000      0.00000000      0.00000000</v>
  </separator>
  <dos>
   <i name="efermi">      5.87305097 </i>
   <total>
    <array>
     <dimension dim="1">gridpoints</dimension>
     <dimension dim="2">spin</dimension>
     <field>energy</field>
     <field>total</field>
     <field>integrated</field>
     <set>
      <set comment="spin 1">
       <r>    -6.2289     0.0000     0.0000 </r>
       <r>    -6.0818     0.0000     0.0000 </r>
       <r>    -5.9348    -0.0000    -0.0000 </r>
       <r>    -5.7877    -0.0000    -0.0000 </r>
       <r>    -5.6406    -0.0000    -0.0000 </r>
       <r>    -5.4935    -0.0000    -0.0000 </r>
       <r>    -5.3464    -0.0000    -0.0000 </r>
       <r>    -5.1994    -0.0000    -0.0000 </r>
       <r>    -5.0523    -0.0000    -0.0000 </r>
       <r>    -4.9052    -0.0000    -0.0000 </r>
       <r>    -4.7581    -0.0000    -0.0000 </r>
       <r>    -4.6110    -0.0003    -0.0000 </r>
       <r>    -4.4640    -0.0009    -0.0002 </r>
       <r>    -4.3169     0.0034     0.0003 </r>
       <r>    -4.1698     0.0155     0.0026 </r>
       <r>    -4.0227     0.0358     0.0079 </r>
       <r>    -3.8757     0.0526     0.0156 </r>
       <r>    -3.7286     0.0530     0.0234 </r>
       <r>    -3.5815     0.0590     0.0321 </r>
       <r>    -3.4344     0.0793     0.0438 </r>
       <r>    -3.2873     0.1058     0.0593 </r>
       <r>    -3.1403     0.0893     0.0724 </r>
       <r>    -2.9932     0.0648     0.0820 </r>
       <r>    -2.8461     0.1170     0.0992 </r>
       <r>    -2.6990     0.1714     0.1244 </r>
       <r>    -2.5520     0.1363     0.1444 </r>
       <r>    -2.4049     0.1065     0.1601 </r>
       <r>    -2.2578     0.1797     0.1865 </r>
       <r>    -2.1107     0.1935     0.2150 </r>
       <r>    -1.9636     0.1936     0.2435 </r>
       <r>    -1.8166     0.2878     0.2858 </r>
       <r>    -1.6695     0.4597     0.3534 </r>
       <r>    -1.5224     0.5848     0.4394 </r>
       <r>    -1.3753     0.6659     0.5374 </r>
       <r>    -1.2282     0.9962     0.6839 </r>
       <r>    -1.0812     1.2437     0.8668 </r>
       <r>    -0.9341     1.5638     1.0968 </r>
       <r>    -0.7870     1.7560     1.3551 </r>
       <r>    -0.6399     1.7674     1.6150 </r>
       <r>    -0.4929     1.6901     1.8636 </r>
       <r>    -0.3458     1.4736     2.0803 </r>
       <r>    -0.1987     1.5236     2.3044 </r>
       <r>    -0.0516     1.2237     2.4844 </r>
       <r>     0.0955     1.1360     2.6515 </r>
       <r>     0.2425     1.5893     2.8852 </r>
       <r>     0.3896     1.7710     3.1457 </r>
       <r>     0.5367     1.8296     3.4148 </r>
       <r>     0.6838     1.7295     3.6692 </r>
       <r>     0.8309     1.9844     3.9610 </r>
       <r>     0.9779     2.1467     4.2768 </r>
       <r>     1.1250     2.1190     4.5884 </r>
       <r>     1.2721     2.5266     4.9600 </r>
       <r>     1.4192     3.1374     5.4215 </r>
       <r>     1.5662     2.6171     5.8064 </r>
       <r>     1.7133     1.7818     6.0685 </r>
       <r>     1.8604     1.3940     6.2735 </r>
       <r>     2.0075     1.5043     6.4948 </r>
       <r>     2.1546     1.5878     6.7283 </r>
       <r>     2.3016     1.7912     6.9917 </r>
       <r>     2.4487     2.1349     7.3057 </r>
       <r>     2.5958     1.9050     7.5859 </r>
       <r>     2.7429     1.6162     7.8236 </r>
       <r>     2.8900     1.9464     8.1099 </r>
       <r>     3.0370     1.6237     8.3487 </r>
       <r>     3.1841     1.2583     8.5338 </r>
       <r>     3.3312     1.6756     8.7802 </r>
       <r>     3.4783     1.5747     9.0118 </r>
       <r>     3.6253     1.7856     9.2744 </r>
       <r>     3.7724     2.4274     9.6315 </r>
       <r>     3.9195     2.4920     9.9980 </r>
       <r>     4.0666     1.9742    10.2883 </r>
       <r>     4.2137     1.2984    10.4793 </r>
       <r>     4.3607     0.8170    10.5995 </r>
       <r>     4.5078     0.2313    10.6335 </r>
       <r>     4.6549     0.0159    10.6358 </r>
       <r>     4.8020     0.1489    10.6577 </r>
       <r>     4.9490     0.4316    10.7212 </r>
       <r>     5.0961     0.4355    10.7852 </r>
       <r>     5.2432     0.2573    10.8231 </r>
       <r>     5.3903     0.1439    10.8443 </r>
       <r>     5.5374     0.2633    10.8830 </r>
       <r>     5.6844     0.4267    10.9457 </r>
       <r>     5.8315     0.3111    10.9915 </r>
       <r>     5.9786     0.1938    11.0200 </r>
       <r>     6.1257     0.2217    11.0526 </r>
       <r>     6.2728     0.1731    11.0781 </r>
       <r>     6.4198     0.3010    11.1223 </r>
       <r>     6.5669     0.4255    11.1849 </r>
       <r>     6.7140     0.3149    11.2312 </r>
       <r>     6.8611     0.3050    11.2761 </r>
       <r>     7.0081     0.2580    11.3140 </r>
       <r>     7.1552     0.1648    11.3383 </r>
       <r>     7.3023     0.1804    11.3648 </r>
       <r>     7.4494     0.2474    11.4012 </r>
       <r>     7.5965     0.3478    11.4523 </r>
       <r>     7.7435     0.3723    11.5071 </r>
       <r>     7.8906     0.2557    11.5447 </r>
       <r>     8.0377     0.1806    11.5713 </r>
       <r>     8.1848     0.1334    11.5909 </r>
       <r>     8.3319     0.2812    11.6322 </r>
       <r>     8.4789     0.3424    11.6826 </r>
       <r>     8.6260     0.2147    11.7142 </r>
       <r>     8.7731     0.2352    11.7488 </r>
       <r>     8.9202     0.1489    11.7707 </r>
       <r>     9.0672     0.2496    11.8074 </r>
       <r>     9.2143     0.5893    11.8940 </r>
       <r>     9.3614     0.5687    11.9777 </r>
       <r>     9.5085     0.2047    12.0078 </r>
       <r>     9.6556     0.1340    12.0275 </r>
       <r>     9.8026     0.3153    12.0739 </r>
       <r>     9.9497     0.4129    12.1346 </r>
       <r>    10.0968     0.3717    12.1893 </r>
       <r>    10.2439     0.3159    12.2357 </r>
       <r>    10.3910     0.2321    12.2699 </r>
       <r>    10.5380     0.1736    12.2954 </r>
       <r>    10.6851     0.1442    12.3166 </r>
       <r>    10.8322     0.3477    12.3678 </r>
       <r>    10.9793     0.4661    12.4363 </r>
       <r>    11.1263     0.3560    12.4887 </r>
       <r>    11.2734     0.2808    12.5300 </r>
       <r>    11.4205     0.2724    12.5700 </r>
       <r>    11.5676     0.3234    12.6176 </r>
       <r>    11.7147     0.4350    12.6816 </r>
       <r>    11.8617     0.4289    12.7447 </r>
       <r>    12.0088     0.3277    12.7929 </r>
       <r>    12.1559     0.3583    12.8456 </r>
       <r>    12.3030     0.2422    12.8812 </r>
       <r>    12.4500     0.1588    12.9045 </r>
       <r>    12.5971     0.3090    12.9500 </r>
       <r>    12.7442     0.5119    13.0253 </r>
       <r>    12.8913     0.2936    13.0685 </r>
       <r>    13.0384     0.0488    13.0756 </r>
       <r>    13.1854     0.1219    13.0936 </r>
       <r>    13.3325     0.3666    13.1475 </r>
       <r>    13.4796     0.3707    13.2020 </r>
       <r>    13.6267     0.2644    13.2409 </r>
       <r>    13.7738     0.4576    13.3082 </r>
       <r>    13.9208     0.4810    13.3790 </r>
       <r>    14.0679     0.5128    13.4544 </r>
       <r>    14.2150     0.5541    13.5359 </r>
       <r>    14.3621     0.2260    13.5691 </r>
       <r>    14.5091    -0.0129    13.5672 </r>
       <r>    14.6562     0.1224    13.5852 </r>
       <r>    14.8033     0.4593    13.6528 </r>
       <r>    14.9504     0.4565    13.7199 </r>
       <r>    15.0975     0.2693    13.7595 </r>
       <r>    15.2445     0.2904    13.8022 </r>
       <r>    15.3916     0.4817    13.8731 </r>
       <r>    15.5387     0.5281    13.9507 </r>
       <r>    15.6858     0.3559    14.0031 </r>
       <r>    15.8329     0.4298    14.0663 </r>
       <r>    15.9799     0.4600    14.1340 </r>
       <r>    16.1270     0.3887    14.1911 </r>
       <r>    16.2741     0.4717    14.2605 </r>
       <r>    16.4212     0.4727    14.3300 </r>
       <r>    16.5682     0.3803    14.3860 </r>
       <r>    16.7153     0.5607    14.4684 </r>
       <r>    16.8624     0.7651    14.5810 </r>
       <r>    17.0095     0.3850    14.6376 </r>
       <r>    17.1566     0.1782    14.6638 </r>
       <r>    17.3036     0.3371    14.7134 </r>
       <r>    17.4507     0.4484    14.7793 </r>
       <r>    17.5978     0.6463    14.8744 </r>
       <r>    17.7449     0.7265    14.9813 </r>
       <r>    17.8920     0.7448    15.0908 </r>
       <r>    18.0390     0.6301    15.1835 </r>
       <r>    18.1861     0.2521    15.2205 </r>
       <r>    18.3332     0.1708    15.2457 </r>
       <r>    18.4803     0.3246    15.2934 </r>
       <r>    18.6273     0.5856    15.3795 </r>
       <r>    18.7744     0.5196    15.4560 </r>
       <r>    18.9215     0.4398    15.5207 </r>
       <r>    19.0686     0.5065    15.5951 </r>
       <r>    19.2157     0.5047    15.6694 </r>
       <r>    19.3627     0.4174    15.7308 </r>
       <r>    19.5098     0.5807    15.8162 </r>
       <r>    19.6569     0.5921    15.9033 </r>
       <r>    19.8040     0.3725    15.9580 </r>
       <r>    19.9510     0.4497    16.0242 </r>
       <r>    20.0981     0.5893    16.1109 </r>
       <r>    20.2452     0.5284    16.1886 </r>
       <r>    20.3923     0.4062    16.2483 </r>
       <r>    20.5394     0.6914    16.3500 </r>
       <r>    20.6864     0.6660    16.4480 </r>
       <r>    20.8335     0.3403    16.4980 </r>
       <r>    20.9806     0.3494    16.5494 </r>
       <r>    21.1277     0.6040    16.6382 </r>
       <r>    21.2748     0.6827    16.7386 </r>
       <r>    21.4218     0.5129    16.8141 </r>
       <r>    21.5689     0.5485    16.8948 </r>
       <r>    21.7160     0.7777    17.0091 </r>
       <r>    21.8631     0.6839    17.1097 </r>
       <r>    22.0101     0.5539    17.1912 </r>
       <r>    22.1572     0.5120    17.2665 </r>
       <r>    22.3043     0.4115    17.3270 </r>
       <r>    22.4514     0.4737    17.3967 </r>
       <r>    22.5985     0.4244    17.4591 </r>
       <r>    22.7455     0.2881    17.5015 </r>
       <r>    22.8926     0.3460    17.5524 </r>
       <r>    23.0397     0.4819    17.6232 </r>
       <r>    23.1868     0.6467    17.7184 </r>
       <r>    23.3339     1.0540    17.8734 </r>
       <r>    23.4809     0.8744    18.0020 </r>
       <r>    23.6280     0.5894    18.0887 </r>
       <r>    23.7751     0.6190    18.1797 </r>
       <r>    23.9222     0.6484    18.2751 </r>
       <r>    24.0692     0.7849    18.3905 </r>
       <r>    24.2163     0.9824    18.5350 </r>
       <r>    24.3634     0.8342    18.6577 </r>
       <r>    24.5105     0.7927    18.7743 </r>
       <r>    24.6576     0.8508    18.8994 </r>
       <r>    24.8046     0.5530    18.9808 </r>
       <r>    24.9517     0.3745    19.0359 </r>
       <r>    25.0988     0.4930    19.1084 </r>
       <r>    25.2459     0.7673    19.2212 </r>
       <r>    25.3930     0.9280    19.3577 </r>
       <r>    25.5400     0.7762    19.4719 </r>
       <r>    25.6871     0.5731    19.5562 </r>
       <r>    25.8342     0.3708    19.6107 </r>
       <r>    25.9813     0.3287    19.6591 </r>
       <r>    26.1283     0.5570    19.7410 </r>
       <r>    26.2754     0.5637    19.8239 </r>
       <r>    26.4225     0.6026    19.9125 </r>
       <r>    26.5696     0.6407    20.0068 </r>
       <r>    26.7167     0.3804    20.0627 </r>
       <r>    26.8637     0.2396    20.0979 </r>
       <r>    27.0108     0.2041    20.1279 </r>
       <r>    27.1579     0.3302    20.1765 </r>
       <r>    27.3050     0.5109    20.2517 </r>
       <r>    27.4521     0.5065    20.3262 </r>
       <r>    27.5991     0.4792    20.3966 </r>
       <r>    27.7462     0.3948    20.4547 </r>
       <r>    27.8933     0.2024    20.4845 </r>
       <r>    28.0404     0.2773    20.5253 </r>
       <r>    28.1874     0.3112    20.5710 </r>
       <r>    28.3345     0.3455    20.6218 </r>
       <r>    28.4816     0.5485    20.7025 </r>
       <r>    28.6287     0.3894    20.7598 </r>
       <r>    28.7758     0.3433    20.8103 </r>
       <r>    28.9228     0.7773    20.9246 </r>
       <r>    29.0699     0.6450    21.0194 </r>
       <r>    29.2170     0.4018    21.0785 </r>
       <r>    29.3641     0.2669    21.1178 </r>
       <r>    29.5111     0.0478    21.1248 </r>
       <r>    29.6582     0.2515    21.1618 </r>
       <r>    29.8053     0.6219    21.2533 </r>
       <r>    29.9524     0.6217    21.3447 </r>
       <r>    30.0995     0.4657    21.4132 </r>
       <r>    30.2465     0.4868    21.4848 </r>
       <r>    30.3936     0.5736    21.5692 </r>
       <r>    30.5407     0.6444    21.6640 </r>
       <r>    30.6878     0.9569    21.8047 </r>
       <r>    30.8349     0.7825    21.9198 </r>
       <r>    30.9819     0.6217    22.0112 </r>
       <r>    31.1290     0.6428    22.1058 </r>
       <r>    31.2761     0.5639    22.1887 </r>
       <r>    31.4232     0.5360    22.2676 </r>
       <r>    31.5702     0.6097    22.3572 </r>
       <r>    31.7173     0.6560    22.4537 </r>
       <r>    31.8644     0.7800    22.5684 </r>
       <r>    32.0115     0.7469    22.6783 </r>
       <r>    32.1586     0.5882    22.7648 </r>
       <r>    32.3056     0.6971    22.8673 </r>
       <r>    32.4527     0.9783    23.0112 </r>
       <r>    32.5998     0.8573    23.1373 </r>
       <r>    32.7469     0.5643    23.2203 </r>
       <r>    32.8940     0.5220    23.2971 </r>
       <r>    33.0410     0.5835    23.3829 </r>
       <r>    33.1881     0.4145    23.4439 </r>
       <r>    33.3352     0.3419    23.4942 </r>
       <r>    33.4823     0.6083    23.5836 </r>
       <r>    33.6293     0.6585    23.6805 </r>
       <r>    33.7764     0.3582    23.7332 </r>
       <r>    33.9235     0.1909    23.7612 </r>
       <r>    34.0706     0.1337    23.7809 </r>
       <r>    34.2177     0.1160    23.7980 </r>
       <r>    34.3647     0.1648    23.8222 </r>
       <r>    34.5118     0.2303    23.8561 </r>
       <r>    34.6589     0.2217    23.8887 </r>
       <r>    34.8060     0.1919    23.9169 </r>
       <r>    34.9531     0.2326    23.9511 </r>
       <r>    35.1001     0.0997    23.9658 </r>
       <r>    35.2472    -0.0080    23.9646 </r>
       <r>    35.3943    -0.0059    23.9637 </r>
       <r>    35.5414     0.0247    23.9674 </r>
       <r>    35.6884     0.0578    23.9759 </r>
       <r>    35.8355     0.0830    23.9881 </r>
       <r>    35.9826     0.0713    23.9986 </r>
       <r>    36.1297     0.0141    24.0007 </r>
       <r>    36.2768    -0.0035    24.0001 </r>
       <r>    36.4238    -0.0009    24.0000 </r>
       <r>    36.5709    -0.0000    24.0000 </r>
       <r>    36.7180    -0.0000    24.0000 </r>
       <r>    36.8651    -0.0000    24.0000 </r>
       <r>    37.0121    -0.0000    24.0000 </r>
       <r>    37.1592    -0.0000    24.0000 </r>
       <r>    37.3063     0.0000    24.0000 </r>
       <r>    37.4534     0.0000    24.0000 </r>
       <r>    37.6005     0.0000    24.0000 </r>
       <r>    37.7475     0.0000    24.0000 </r>
       <r>    37.8946     0.0000    24.0000 </r>
      </set>
     </set>
    </array>
   </total>
  </dos>
 </calculation>
 <structure name="finalpos" >
  <crystal>
   <varray name="basis" >
    <v>       0.00000000       2.02500000       2.02500000 </v>
    <v>       2.02500000       0.00000000       2.02500000 </v>
    <v>       2.02500000       2.02500000       0.00000000 </v>
   </varray>
   <i name="volume">     16.60753125 </i>
   <varray name="rec_basis" >
    <v>      -0.24691358       0.24691358       0.24691358 </v>
    <v>       0.24691358      -0.24691358       0.24691358 </v>
    <v>       0.24691358       0.24691358      -0.24691358 </v>
   </varray>
  </crystal>
  <varray name="positions" >
   <v>       0.00000000       0.00000000       0.00000000 </v>
  </varray>
 </structure>
</modeling>
