fcc Au                                  
   4.06379000000000     
     0.000000    0.500000    0.500000
     0.500000    0.000000    0.500000
     0.500000    0.500000    0.000000
   Au
     1
Direct
  0.000000  0.000000  0.000000
 
   24   24   24
  81.183      78.115      70.183      60.087      49.849      39.954      30.269      21.254      13.979      9.1730    
  6.5485      5.2028      4.7764      5.2028      6.5485      9.1730      13.979      21.254      30.269      39.954    
  49.849      60.087      70.183      78.115      78.115      72.640      63.752      53.839      44.045      34.410    
  25.087      16.960      11.036      7.5218      5.6770      4.8265      4.8265      5.6770      7.5217      11.036    
  16.961      25.089      34.413      44.047      53.836      63.745      72.631      78.111      70.183      63.752    
  55.283      46.244      37.075      27.931      19.501      12.845      8.5393      6.1891      4.9604      4.5739    
  4.9604      6.1889      8.5389      12.845      19.502      27.934      37.078      46.244      55.278      63.743    
  70.176      72.631      60.087      53.839      46.244      37.995      29.436      21.196      14.280      9.4580    
  6.6646      5.1364      4.4349      4.4349      5.1365      6.6645      9.4575      14.279      21.196      29.438    
  37.996      46.244      53.838      60.084      63.743      63.745      49.849      44.045      37.075      29.436    
  21.789      15.072      10.102      7.0397      5.3043      4.3759      4.0888      4.3760      5.3046      7.0400    
  10.102      15.071      21.788      29.435      37.075      44.047      49.851      53.838      55.278      53.836    
  39.954      34.410      27.931      21.196      15.072      10.334      7.2491      5.4220      4.3595      3.8840    
  3.8839      4.3595      5.4224      7.2501      10.335      15.072      21.195      27.929      34.408      39.953    
  44.047      46.244      46.244      44.047      30.269      25.087      19.501      14.280      10.102      7.2491    
  5.4639      4.3580      3.7799      3.6032      3.7796      4.3576      5.4639      7.2501      10.105      14.283    
  19.502      25.085      30.264      34.408      37.075      37.996      37.078      34.413      21.254      16.960    
  12.845      9.4580      7.0397      5.4220      4.3580      3.7484      3.4789      3.4788      3.7479      4.3570    
  5.4208      7.0396      9.4600      12.849      16.963      21.253      25.085      27.929      29.435      29.438    
  27.934      25.089      13.979      11.036      8.5393      6.6646      5.3043      4.3595      3.7799      3.4789    
  3.3871      3.4792      3.7799      4.3584      5.3020      6.6625      8.5393      11.039      13.983      16.963    
  19.502      21.195      21.788      21.196      19.502      16.961      9.1730      7.5218      6.1891      5.1364    
  4.3759      3.8840      3.6032      3.4788      3.4792      3.6044      3.8851      4.3759      5.1344      6.1857    
  7.5192      9.1730      11.039      12.849      14.283      15.072      15.071      14.279      12.845      11.036    
  6.5485      5.6770      4.9604      4.4349      4.0888      3.8839      3.7796      3.7479      3.7799      3.8851    
  4.0910      4.4369      4.9604      5.6744      6.5448      7.5192      8.5393      9.4600      10.105      10.335    
  10.102      9.4575      8.5389      7.5217      5.2028      4.8265      4.5739      4.4349      4.3760      4.3595    
  4.3576      4.3570      4.3584      4.3759      4.4369      4.5773      4.8291      5.2029      5.6744      6.1857    
  6.6625      7.0396      7.2501      7.2501      7.0400      6.6645      6.1889      5.6770      4.7764      4.8265    
  4.9604      5.1365      5.3046      5.4224      5.4639      5.4208      5.3020      5.1344      4.9604      4.8291    
  4.7803      4.8291      4.9604      5.1344      5.3020      5.4208      5.4639      5.4224      5.3046      5.1365    
  4.9604      4.8265      5.2028      5.6770      6.1889      6.6645      7.0400      7.2501      7.2501      7.0396    
  6.6625      6.1857      5.6744      5.2029      4.8291      4.5773      4.4369      4.3759      4.3584      4.3570    
  4.3576      4.3595      4.3760      4.4349      4.5739      4.8265      6.5485      7.5217      8.5389      9.4575    
  10.102      10.335      10.105      9.4600      8.5393      7.5192      6.5448      5.6744      4.9604      4.4369    
  4.0910      3.8851      3.7799      3.7479      3.7796      3.8839      4.0888      4.4349      4.9604      5.6770    
  9.1730      11.036      12.845      14.279      15.071      15.072      14.283      12.849      11.039      9.1730    
  7.5192      6.1857      5.1344      4.3759      3.8851      3.6044      3.4792      3.4788      3.6032      3.8840    
  4.3759      5.1364      6.1891      7.5218      13.979      16.961      19.502      21.196      21.788      21.195    
  19.502      16.963      13.983      11.039      8.5393      6.6625      5.3020      4.3584      3.7799      3.4792    
  3.3871      3.4789      3.7799      4.3595      5.3043      6.6646      8.5393      11.036      21.254      25.089    
  27.934      29.438      29.435      27.929      25.085      21.253      16.963      12.849      9.4600      7.0396    
  5.4208      4.3570      3.7479      3.4788      3.4789      3.7484      4.3580      5.4220      7.0397      9.4580    
  12.845      16.960      30.269      34.413      37.078      37.996      37.075      34.408      30.264      25.085    
  19.502      14.283      10.105      7.2501      5.4639      4.3576      3.7796      3.6032      3.7799      4.3580    
  5.4639      7.2491      10.102      14.280      19.501      25.087      39.954      44.047      46.244      46.244    
  44.047      39.953      34.408      27.929      21.195      15.072      10.335      7.2501      5.4224      4.3595    
  3.8839      3.8840      4.3595      5.4220      7.2491      10.334      15.072      21.196      27.931      34.410    
  49.849      53.836      55.278      53.838      49.851      44.047      37.075      29.435      21.788      15.071    
  10.102      7.0400      5.3046      4.3760      4.0888      4.3759      5.3043      7.0397      10.102      15.072    
  21.789      29.436      37.075      44.045      60.087      63.745      63.743      60.084      53.838      46.244    
  37.996      29.438      21.196      14.279      9.4575      6.6645      5.1365      4.4349      4.4349      5.1364    
  6.6646      9.4580      14.280      21.196      29.436      37.995      46.244      53.839      70.183      72.631    
  70.176      63.743      55.278      46.244      37.078      27.934      19.502      12.845      8.5389      6.1889    
  4.9604      4.5739      4.9604      6.1891      8.5393      12.845      19.501      27.931      37.075      46.244    
  55.283      63.752      78.115      78.111      72.631      63.745      53.836      44.047      34.413      25.089    
  16.961      11.036      7.5217      5.6770      4.8265      4.8265      5.6770      7.5218      11.036      16.960    
  25.087      34.410      44.045      53.839      63.752      72.640      78.115      72.640      63.752      53.839    
  44.045      34.410      25.087      16.960      11.036      7.5218      5.6770      4.8265      4.8265      5.6770    
  7.5217      11.036      16.961      25.089      34.413      44.047      53.836      63.745      72.631      78.111    
  72.640      65.723      56.731      47.314      37.929      28.635      20.039      13.200      8.7425      6.3092    
  5.0440      4.6450      5.0440      6.3091      8.7421      13.200      20.041      28.639      37.934      47.314    
  56.723      65.710      72.629      75.286      63.752      56.731      48.463      39.773      30.912      22.360    
  15.088      9.9389      6.9346      5.3136      4.5667      4.5668      5.3136      6.9343      9.9382      15.087    
  22.361      30.915      39.777      48.462      56.725      63.744      67.941      67.945      53.839      47.314    
  39.773      31.694      23.598      16.367      10.902      7.4844      5.5802      4.5629      4.2467      4.5630    
  5.5803      7.4842      10.901      16.366      23.597      31.695      39.775      47.316      53.840      58.486    
  60.200      58.486      44.045      37.929      30.912      23.598      16.819      11.439      7.8678      5.7901    
  4.5940      4.0546      4.0546      4.5941      5.7904      7.8681      11.439      16.818      23.596      30.911    
  37.930      44.049      48.710      51.282      51.281      48.706      34.410      28.635      22.360      16.367    
  11.439      8.0057      5.9045      4.6260      3.9523      3.7459      3.9521      4.6260      5.9051      8.0068    
  11.440      16.368      22.358      28.633      34.409      39.063      42.104      43.165      42.103      39.063    
  25.087      20.039      15.088      10.902      7.8678      5.9045      4.6388      3.9090      3.5858      3.5857    
  3.9085      4.6382      5.9045      7.8689      10.904      15.090      20.040      25.085      29.532      32.817    
  34.559      34.561      32.821      29.535      16.960      13.200      9.9389      7.4844      5.7901      4.6260    
  3.9090      3.5370      3.4235      3.5369      3.9084      4.6247      5.7886      7.4842      9.9408      13.204    
  16.963      20.686      23.804      25.864      26.582      25.866      23.807      20.686      11.036      8.7425    
  6.9346      5.5802      4.5940      3.9523      3.5858      3.4235      3.4239      3.5865      3.9523      4.5926    
  5.5776      6.9323      8.7423      11.039      13.602      16.045      17.951      18.992      18.992      17.950    
  16.042      13.598      7.5218      6.3092      5.3136      4.5629      4.0546      3.7459      3.5857      3.5369    
  3.5865      3.7474      4.0560      4.5629      5.3114      6.3057      7.5191      8.9527      10.476      11.844    
  12.795      13.134      12.792      11.841      10.473      8.9527      5.6770      5.0440      4.5667      4.2467    
  4.0546      3.9521      3.9085      3.9084      3.9523      4.0560      4.2493      4.5690      5.0440      5.6744    
  6.4165      7.2042      7.9697      8.5916      8.9417      8.9408      8.5899      7.9695      7.2065      6.4201    
  4.8265      4.6450      4.5668      4.5630      4.5941      4.6260      4.6382      4.6247      4.5926      4.5629    
  4.5690      4.6485      4.8291      5.1130      5.4699      5.8438      6.1688      6.3898      6.4687      6.3905    
  6.1708      5.8467      5.4723      5.1130      4.8265      5.0440      5.3136      5.5803      5.7904      5.9051    
  5.9045      5.7886      5.5776      5.3114      5.0440      4.8291      4.7035      4.6752      4.7229      4.8083    
  4.8908      4.9401      4.9410      4.8928      4.8101      4.7229      4.6727      4.6999      5.6770      6.3091    
  6.9343      7.4842      7.8681      8.0068      7.8689      7.4842      6.9323      6.3057      5.6744      5.1130    
  4.6752      4.3748      4.1932      4.0964      4.0525      4.0405      4.0530      4.0964      4.1915      4.3719    
  4.6727      5.1130      7.5217      8.7421      9.9382      10.901      11.439      11.440      10.904      9.9408    
  8.7423      7.5191      6.4165      5.4699      4.7229      4.1932      3.8535      3.6598      3.5735      3.5732    
  3.6588      3.8517      4.1915      4.7229      5.4723      6.4201      11.036      13.200      15.087      16.366    
  16.818      16.368      15.090      13.204      11.039      8.9527      7.2042      5.8438      4.8083      4.0964    
  3.6598      3.4316      3.3613      3.4309      3.6589      4.0964      4.8099      5.8467      7.2066      8.9527    
  16.961      20.041      22.361      23.597      23.596      22.358      20.040      16.963      13.602      10.476    
  7.9697      6.1688      4.8908      4.0525      3.5735      3.3613      3.3612      3.5735      4.0533      4.8925    
  6.1705      7.9697      10.473      13.598      25.089      28.639      30.915      31.695      30.911      28.633    
  25.085      20.686      16.045      11.844      8.5916      6.3898      4.9401      4.0405      3.5732      3.4309    
  3.5735      4.0412      4.9409      6.3898      8.5899      11.841      16.042      20.686      34.413      37.934    
  39.777      39.775      37.930      34.409      29.532      23.804      17.951      12.795      8.9417      6.4687    
  4.9410      4.0530      3.6588      3.6589      4.0533      4.9409      6.4678      8.9399      12.793      17.950    
  23.806      29.535      44.047      47.314      48.462      47.316      44.049      39.063      32.817      25.864    
  18.992      13.134      8.9408      6.3905      4.8928      4.0964      3.8517      4.0964      4.8925      6.3898    
  8.9399      13.134      18.993      25.866      32.819      39.063      53.836      56.723      56.725      53.840    
  48.710      42.104      34.559      26.582      18.992      12.792      8.5899      6.1708      4.8101      4.1915    
  4.1915      4.8099      6.1705      8.5899      12.793      18.993      26.584      34.560      42.102      48.706    
  63.745      65.710      63.744      58.486      51.282      43.165      34.561      25.866      17.950      11.841    
  7.9695      5.8467      4.7229      4.3719      4.7229      5.8467      7.9697      11.841      17.950      25.866    
  34.560      43.163      51.281      58.486      72.631      72.629      67.941      60.200      51.281      42.103    
  32.821      23.807      16.042      10.473      7.2065      5.4723      4.6727      4.6727      5.4723      7.2066    
  10.473      16.042      23.806      32.819      42.102      51.281      60.203      67.945      78.111      75.286    
  67.945      58.486      48.706      39.063      29.535      20.686      13.598      8.9527      6.4201      5.1130    
  4.6999      5.1130      6.4201      8.9527      13.598      20.686      29.535      39.063      48.706      58.486    
  67.945      75.286      70.183      63.752      55.283      46.244      37.075      27.931      19.501      12.845    
  8.5393      6.1891      4.9604      4.5739      4.9604      6.1889      8.5389      12.845      19.502      27.934    
  37.078      46.244      55.278      63.743      70.176      72.631      63.752      56.731      48.463      39.773    
  30.912      22.360      15.088      9.9389      6.9346      5.3136      4.5667      4.5668      5.3136      6.9343    
  9.9382      15.087      22.361      30.915      39.777      48.462      56.725      63.744      67.941      67.945    
  55.283      48.463      40.698      32.462      24.220      16.821      11.186      7.6431      5.6774      4.6288    
  4.3023      4.6289      5.6773      7.6426      11.185      16.820      24.220      32.464      40.701      48.464    
  55.283      60.202      62.029      60.203      46.244      39.773      32.462      24.862      17.760      12.048    
  8.2118      5.9897      4.7216      4.1471      4.1471      4.7217      5.9899      8.2115      12.046      17.758    
  24.860      32.462      39.777      46.250      51.287      54.113      54.111      51.281      37.075      30.912    
  24.220      17.760      12.355      8.5305      6.1990      4.8061      4.0673      3.8406      4.0674      4.8063    
  6.1996      8.5309      12.354      17.758      24.217      30.911      37.078      42.108      45.448      46.625    
  45.443      42.102      27.931      22.360      16.821      12.048      8.5305      6.2728      4.8549      4.0322    
  3.6671      3.6670      4.0320      4.8549      6.2735      8.5317      12.048      16.820      22.358      27.929    
  32.819      36.445      38.379      38.378      36.444      32.819      19.501      15.088      11.186      8.2118    
  6.1990      4.8549      4.0226      3.5904      3.4585      3.5901      4.0220      4.8542      6.1990      8.2130    
  11.188      15.089      19.501      23.804      27.377      29.726      30.545      29.728      27.379      23.806    
  12.845      9.9389      7.6431      5.9897      4.8061      4.0322      3.5904      3.3947      3.3948      3.5904    
  4.0315      4.8045      5.9882      7.6428      9.9405      12.848      16.044      19.044      21.359      22.616    
  22.616      21.360      19.044      16.042      8.5393      6.9346      5.6774      4.7216      4.0673      3.6671    
  3.4585      3.3948      3.4592      3.6679      4.0674      4.7201      5.6747      6.9323      8.5389      10.475    
  12.522      14.340      15.592      16.038      15.591      14.337      12.519      10.473      6.1891      5.3136    
  4.6288      4.1471      3.8406      3.6670      3.5901      3.5904      3.6679      3.8422      4.1486      4.6289    
  5.3115      6.1856      7.2041      8.3350      9.4553      10.367      10.880      10.878      10.364      9.4529    
  8.3350      7.2066      4.9604      4.5667      4.3023      4.1471      4.0674      4.0320      4.0220      4.0315    
  4.0674      4.1486      4.3050      4.5690      4.9604      5.4699      6.0510      6.6311      7.1416      7.4987    
  7.6273      7.4980      7.1416      6.6331      6.0542      5.4723      4.5739      4.5668      4.6289      4.7217    
  4.8063      4.8549      4.8542      4.8045      4.7201      4.6289      4.5690      4.5773      4.6751      4.8575    
  5.0923      5.3308      5.5223      5.6284      5.6289      5.5240      5.3332      5.0944      4.8575      4.6727    
  4.9604      5.3136      5.6773      5.9899      6.1996      6.2735      6.1990      5.9882      5.6747      5.3115    
  4.9604      4.6751      4.4853      4.3908      4.3675      4.3817      4.4032      4.4130      4.4045      4.3831    
  4.3675      4.3887      4.4821      4.6727      6.1889      6.9343      7.6426      8.2115      8.5309      8.5317    
  8.2130      7.6428      6.9323      6.1856      5.4699      4.8575      4.3908      4.0710      3.8726      3.7628    
  3.7149      3.7150      3.7626      3.8714      4.0687      4.3887      4.8575      5.4723      8.5389      9.9382    
  11.185      12.046      12.354      12.048      11.188      9.9405      8.5389      7.2041      6.0510      5.0923    
  4.3675      3.8726      3.5679      3.4072      3.3574      3.4066      3.5667      3.8714      4.3675      5.0944    
  6.0542      7.2065      12.845      15.087      16.820      17.758      17.758      16.820      15.089      12.848    
  10.475      8.3350      6.6311      5.3308      4.3817      3.7628      3.4072      3.2484      3.2482      3.4067    
  3.7627      4.3830      5.3331      6.6332      8.3350      10.473      19.502      22.361      24.220      24.860    
  24.217      22.358      19.501      16.044      12.522      9.4553      7.1416      5.5223      4.4032      3.7149    
  3.3574      3.2482      3.3574      3.7154      4.4044      5.5236      7.1416      9.4532      12.519      16.042    
  27.934      30.915      32.464      32.462      30.911      27.929      23.804      19.044      14.340      10.367    
  7.4987      5.6284      4.4130      3.7150      3.4066      3.4067      3.7154      4.4135      5.6283      7.4975    
  10.365      14.338      19.044      23.807      37.078      39.777      40.701      39.777      37.078      32.819    
  27.377      21.359      15.592      10.880      7.6273      5.6289      4.4045      3.7626      3.5667      3.7627    
  4.4044      5.6283      7.6260      10.878      15.592      21.361      27.379      32.821      46.244      48.462    
  48.464      46.250      42.108      36.445      29.726      22.616      16.038      10.878      7.4980      5.5240    
  4.3831      3.8714      3.8714      4.3830      5.5236      7.4975      10.878      16.039      22.618      29.728    
  36.444      42.103      55.278      56.725      55.283      51.287      45.448      38.379      30.545      22.616    
  15.591      10.364      7.1416      5.3332      4.3675      4.0687      4.3675      5.3331      7.1416      10.365    
  15.592      22.618      30.547      38.377      45.443      51.281      63.743      63.744      60.202      54.113    
  46.625      38.378      29.728      21.360      14.337      9.4529      6.6331      5.0944      4.3887      4.3887    
  5.0944      6.6332      9.4532      14.338      21.361      29.728      38.377      46.623      54.111      60.200    
  70.176      67.941      62.029      54.111      45.443      36.444      27.379      19.044      12.519      8.3350    
  6.0542      4.8575      4.4821      4.8575      6.0542      8.3350      12.519      19.044      27.379      36.444    
  45.443      54.111      62.029      67.941      72.631      67.945      60.203      51.281      42.102      32.819    
  23.806      16.042      10.473      7.2066      5.4723      4.6727      4.6727      5.4723      7.2065      10.473    
  16.042      23.807      32.821      42.103      51.281      60.200      67.941      72.629      60.087      53.839    
  46.244      37.995      29.436      21.196      14.280      9.4580      6.6646      5.1364      4.4349      4.4349    
  5.1365      6.6645      9.4575      14.279      21.196      29.438      37.996      46.244      53.838      60.084    
  63.743      63.745      53.839      47.314      39.773      31.694      23.598      16.367      10.902      7.4844    
  5.5802      4.5629      4.2467      4.5630      5.5803      7.4842      10.901      16.366      23.597      31.695    
  39.775      47.316      53.840      58.486      60.200      58.486      46.244      39.773      32.462      24.862    
  17.760      12.048      8.2118      5.9897      4.7216      4.1471      4.1471      4.7217      5.9899      8.2115    
  12.046      17.758      24.860      32.462      39.777      46.250      51.287      54.113      54.111      51.281    
  37.995      31.694      24.862      18.247      12.680      8.7186      6.3029      4.8696      4.1078      3.8738    
  4.1079      4.8699      6.3034      8.7186      12.679      18.244      24.858      31.694      38.000      43.173    
  46.630      47.854      46.623      43.163      29.436      23.598      17.760      12.680      8.9006      6.4737    
  4.9724      4.0992      3.7110      3.7109      4.0992      4.9730      6.4748      8.9015      12.679      17.757    
  23.594      29.436      34.563      38.383      40.429      40.426      38.377      34.560      21.196      16.367    
  12.048      8.7186      6.4737      5.0090      4.0998      3.6271      3.4829      3.6269      4.0996      5.0093    
  6.4749      8.7203      12.048      16.366      21.193      25.864      29.727      32.268      33.154      32.268    
  29.728      25.866      14.280      10.902      8.2118      6.3029      4.9724      4.0998      3.6015      3.3810    
  3.3809      3.6012      4.0991      4.9718      6.3032      8.2133      10.904      14.281      17.950      21.359    
  23.972      25.385      25.386      23.974      21.361      17.950      9.4580      7.4844      5.9897      4.8696    
  4.0992      3.6271      3.3810      3.3056      3.3812      3.6271      4.0984      4.8681      5.9884      7.4844    
  9.4595      11.843      14.339      16.535      18.037      18.570      18.037      16.535      14.338      11.841    
  6.6646      5.5802      4.7216      4.1078      3.7110      3.4829      3.3809      3.3812      3.4837      3.7118    
  4.1079      4.7202      5.5778      6.6626      7.9694      9.4548      10.928      12.121      12.789      12.788    
  12.119      10.925      9.4532      7.9697      5.1364      4.5629      4.1471      3.8738      3.7109      3.6269    
  3.6012      3.6271      3.7118      3.8755      4.1486      4.5630      5.1345      5.8438      6.6311      7.4371    
  8.1662      8.6814      8.8672      8.6798      8.1645      7.4371      6.6332      5.8467      4.4349      4.2467    
  4.1471      4.1079      4.0992      4.0996      4.0991      4.0984      4.1079      4.1486      4.2493      4.4369    
  4.7229      5.0924      5.5018      5.8891      6.1906      6.3569      6.3568      6.1909      5.8907      5.5043    
  5.0944      4.7229      4.4349      4.5630      4.7217      4.8699      4.9730      5.0093      4.9718      4.8681    
  4.7202      4.5630      4.4369      4.3748      4.3907      4.4748      4.5973      4.7201      4.8089      4.8414    
  4.8100      4.7219      4.5989      4.4748      4.3887      4.3719      5.1365      5.5803      5.9899      6.3034    
  6.4748      6.4749      6.3032      5.9884      5.5778      5.1345      4.7229      4.3907      4.1577      4.0166    
  3.9435      3.9116      3.9010      3.9014      3.9124      3.9435      4.0151      4.1552      4.3887      4.7229    
  6.6645      7.4842      8.2115      8.7186      8.9015      8.7203      8.2133      7.4844      6.6626      5.8438    
  5.0924      4.4748      4.0166      3.7064      3.5152      3.4136      3.3820      3.4134      3.5143      3.7048    
  4.0151      4.4748      5.0944      5.8467      9.4575      10.901      12.046      12.679      12.679      12.048    
  10.904      9.4595      7.9694      6.6311      5.5018      4.5973      3.9435      3.5152      3.2655      3.1523    
  3.1520      3.2647      3.5143      3.9435      4.5988      5.5043      6.6331      7.9695      14.279      16.366    
  17.758      18.244      17.757      16.366      14.281      11.843      9.4548      7.4371      5.8891      4.7201    
  3.9116      3.4136      3.1523      3.0718      3.1521      3.4136      3.9124      4.7218      5.8906      7.4371    
  9.4529      11.841      21.196      23.597      24.860      24.858      23.594      21.193      17.950      14.339    
  10.928      8.1662      6.1906      4.8089      3.9010      3.3820      3.1520      3.1521      3.3822      3.9017    
  4.8097      6.1906      8.1647      10.925      14.337      17.950      29.438      31.695      32.462      31.694    
  29.436      25.864      21.359      16.535      12.121      8.6814      6.3569      4.8414      3.9014      3.4134    
  3.2647      3.4136      3.9017      4.8414      6.3560      8.6798      12.120      16.535      21.360      25.866    
  37.996      39.775      39.777      38.000      34.563      29.727      23.972      18.037      12.789      8.8672    
  6.3568      4.8100      3.9124      3.5143      3.5143      3.9124      4.8097      6.3560      8.8665      12.789    
  18.039      23.974      29.728      34.561      46.244      47.316      46.250      43.173      38.383      32.268    
  25.385      18.570      12.788      8.6798      6.1909      4.7219      3.9435      3.7048      3.9435      4.7218    
  6.1906      8.6798      12.789      18.573      25.388      32.268      38.378      43.165      53.838      53.840    
  51.287      46.630      40.429      33.154      25.386      18.037      12.119      8.1645      5.8907      4.5989    
  4.0151      4.0151      4.5988      5.8906      8.1647      12.120      18.039      25.388      33.154      40.426    
  46.625      51.282      60.084      58.486      54.113      47.854      40.426      32.268      23.974      16.535    
  10.925      7.4371      5.5043      4.4748      4.1552      4.4748      5.5043      7.4371      10.925      16.535    
  23.974      32.268      40.426      47.854      54.113      58.486      63.743      60.200      54.111      46.623    
  38.377      29.728      21.361      14.338      9.4532      6.6332      5.0944      4.3887      4.3887      5.0944    
  6.6331      9.4529      14.337      21.360      29.728      38.378      46.625      54.113      60.202      63.744    
  63.745      58.486      51.281      43.163      34.560      25.866      17.950      11.841      7.9697      5.8467    
  4.7229      4.3719      4.7229      5.8467      7.9695      11.841      17.950      25.866      34.561      43.165    
  51.282      58.486      63.744      65.710      49.849      44.045      37.075      29.436      21.789      15.072    
  10.102      7.0397      5.3043      4.3759      4.0888      4.3760      5.3046      7.0400      10.102      15.071    
  21.788      29.435      37.075      44.047      49.851      53.838      55.278      53.836      44.045      37.929    
  30.912      23.598      16.819      11.439      7.8678      5.7901      4.5940      4.0546      4.0546      4.5941    
  5.7904      7.8681      11.439      16.818      23.596      30.911      37.930      44.049      48.710      51.282    
  51.281      48.706      37.075      30.912      24.220      17.760      12.355      8.5305      6.1990      4.8061    
  4.0673      3.8406      4.0674      4.8063      6.1996      8.5309      12.354      17.758      24.217      30.911    
  37.078      42.108      45.448      46.625      45.443      42.102      29.436      23.598      17.760      12.680    
  8.9006      6.4737      4.9724      4.0992      3.7110      3.7109      4.0992      4.9730      6.4748      8.9015    
  12.679      17.757      23.594      29.436      34.563      38.383      40.429      40.426      38.377      34.560    
  21.789      16.819      12.355      8.9006      6.5711      5.0633      4.1271      3.6401      3.4916      3.6400    
  4.1271      5.0640      6.5728      8.9023      12.355      16.817      21.786      26.582      30.547      33.155    
  34.064      33.154      30.547      26.584      15.072      11.439      8.5305      6.4737      5.0633      4.1378    
  3.6092      3.3754      3.3753      3.6089      4.1375      5.0637      6.4753      8.5329      11.440      15.071    
  18.990      22.614      25.385      26.881      26.882      25.388      22.618      18.993      10.102      7.8678    