   1   1   0   0
  0.1677775E+02  0.2873534E-09  0.2873534E-09  0.2873534E-09  0.5000000E-15
  1.000000000000000E-004
  CAR 
 fcc Au                                  
     37.63947795     -6.25185873  301      5.72598791      1.00000000
     -6.252  0.0000E+00  0.0000E+00
     -6.106  0.0000E+00  0.0000E+00
     -5.959 -0.1470E-32 -0.2151E-33
     -5.813 -0.2091E-27 -0.3059E-28
     -5.667 -0.1011E-22 -0.1479E-23
     -5.520 -0.1658E-18 -0.2426E-19
     -5.374 -0.8911E-15 -0.1304E-15
     -5.228 -0.1650E-11 -0.2415E-12
     -5.081 -0.1017E-08 -0.1490E-09
     -4.935 -0.2055E-06 -0.3021E-07
     -4.789 -0.1315E-04 -0.1955E-05
     -4.643 -0.2439E-03 -0.3763E-04
     -4.496 -0.8640E-03 -0.1640E-03
     -4.350  0.3134E-02  0.2945E-03
     -4.204  0.1520E-01  0.2518E-02
     -4.057  0.3536E-01  0.7691E-02
     -3.911  0.5280E-01  0.1542E-01
     -3.765  0.5347E-01  0.2324E-01
     -3.618  0.5939E-01  0.3193E-01
     -3.472  0.7971E-01  0.4359E-01
     -3.326  0.1063E+00  0.5914E-01
     -3.179  0.9025E-01  0.7234E-01
     -3.033  0.6577E-01  0.8196E-01
     -2.887  0.1177E+00  0.9918E-01
     -2.741  0.1722E+00  0.1244E+00
     -2.594  0.1371E+00  0.1444E+00
     -2.448  0.1081E+00  0.1602E+00
     -2.302  0.1807E+00  0.1867E+00
     -2.155  0.1943E+00  0.2151E+00
     -2.009  0.1958E+00  0.2438E+00
     -1.863  0.2885E+00  0.2860E+00
     -1.716  0.4578E+00  0.3529E+00
     -1.570  0.5834E+00  0.4383E+00
     -1.424  0.6675E+00  0.5359E+00
     -1.278  0.9955E+00  0.6816E+00
     -1.131  0.1249E+01  0.8643E+00
     -0.985  0.1573E+01  0.1094E+01
     -0.839  0.1777E+01  0.1354E+01
     -0.692  0.1789E+01  0.1616E+01
     -0.546  0.1707E+01  0.1866E+01
     -0.400  0.1498E+01  0.2085E+01
     -0.253  0.1535E+01  0.2310E+01
     -0.107  0.1229E+01  0.2489E+01
      0.039  0.1173E+01  0.2661E+01
      0.186  0.1626E+01  0.2899E+01
      0.332  0.1808E+01  0.3163E+01
      0.478  0.1855E+01  0.3435E+01
      0.624  0.1771E+01  0.3694E+01
      0.771  0.2049E+01  0.3994E+01
      0.917  0.2177E+01  0.4312E+01
      1.063  0.2182E+01  0.4632E+01
      1.210  0.2672E+01  0.5022E+01
      1.356  0.3182E+01  0.5488E+01
      1.502  0.2507E+01  0.5855E+01
      1.649  0.1719E+01  0.6106E+01
      1.795  0.1402E+01  0.6311E+01
      1.941  0.1565E+01  0.6540E+01
      2.087  0.1629E+01  0.6779E+01
      2.234  0.1921E+01  0.7060E+01
      2.380  0.2178E+01  0.7379E+01
      2.526  0.1826E+01  0.7646E+01
      2.673  0.1703E+01  0.7895E+01
      2.819  0.1987E+01  0.8186E+01
      2.965  0.1469E+01  0.8400E+01
      3.112  0.1396E+01  0.8605E+01
      3.258  0.1726E+01  0.8857E+01
      3.404  0.1588E+01  0.9090E+01
      3.551  0.2072E+01  0.9393E+01
      3.697  0.2575E+01  0.9769E+01
      3.843  0.2407E+01  0.1012E+02
      3.989  0.1705E+01  0.1037E+02
      4.136  0.1119E+01  0.1053E+02
      4.282  0.5773E+00  0.1062E+02
      4.428  0.1035E+00  0.1063E+02
      4.575  0.3813E-01  0.1064E+02
      4.721  0.2702E+00  0.1068E+02
      4.867  0.4789E+00  0.1075E+02
      5.014  0.3576E+00  0.1080E+02
      5.160  0.1899E+00  0.1083E+02
      5.306  0.1633E+00  0.1085E+02
      5.452  0.3598E+00  0.1091E+02
      5.599  0.4192E+00  0.1097E+02
      5.745  0.2478E+00  0.1100E+02
      5.891  0.1933E+00  0.1103E+02
      6.038  0.2092E+00  0.1106E+02
      6.184  0.1915E+00  0.1109E+02
      6.330  0.3905E+00  0.1115E+02
      6.477  0.3853E+00  0.1120E+02
      6.623  0.2891E+00  0.1125E+02
      6.769  0.3097E+00  0.1129E+02
      6.916  0.2269E+00  0.1132E+02
      7.062  0.1652E+00  0.1135E+02
      7.208  0.2022E+00  0.1138E+02
      7.354  0.2791E+00  0.1142E+02
      7.501  0.3742E+00  0.1147E+02
      7.647  0.3390E+00  0.1152E+02
      7.793  0.2286E+00  0.1156E+02
      7.940  0.1497E+00  0.1158E+02
      8.086  0.1735E+00  0.1160E+02
      8.232  0.3530E+00  0.1166E+02
      8.379  0.2838E+00  0.1170E+02
      8.525  0.2152E+00  0.1173E+02
      8.671  0.2020E+00  0.1176E+02
      8.818  0.1688E+00  0.1178E+02
      8.964  0.4497E+00  0.1185E+02
      9.110  0.6398E+00  0.1194E+02
      9.256  0.3757E+00  0.1200E+02
      9.403  0.1120E+00  0.1201E+02
      9.549  0.2102E+00  0.1204E+02
      9.695  0.4037E+00  0.1210E+02
      9.842  0.4008E+00  0.1216E+02
      9.988  0.3473E+00  0.1221E+02
     10.134  0.2713E+00  0.1225E+02
     10.281  0.1924E+00  0.1228E+02
     10.427  0.1448E+00  0.1230E+02
     10.573  0.2223E+00  0.1233E+02
     10.719  0.4489E+00  0.1240E+02
     10.866  0.4240E+00  0.1246E+02
     11.012  0.3144E+00  0.1251E+02
     11.158  0.2782E+00  0.1255E+02
     11.305  0.2932E+00  0.1259E+02
     11.451  0.3620E+00  0.1265E+02
     11.597  0.4678E+00  0.1271E+02
     11.744  0.3786E+00  0.1277E+02
     11.890  0.3471E+00  0.1282E+02
     12.036  0.3154E+00  0.1287E+02
     12.183  0.1762E+00  0.1289E+02
     12.329  0.1991E+00  0.1292E+02
     12.475  0.4376E+00  0.1298E+02
     12.621  0.4572E+00  0.1305E+02
     12.768  0.1454E+00  0.1307E+02
     12.914  0.4611E-01  0.1308E+02
     13.060  0.2464E+00  0.1312E+02
     13.207  0.4255E+00  0.1318E+02
     13.353  0.2867E+00  0.1322E+02
     13.499  0.3548E+00  0.1327E+02
     13.646  0.4927E+00  0.1334E+02
     13.792  0.4520E+00  0.1341E+02
     13.938  0.5779E+00  0.1349E+02
     14.084  0.4375E+00  0.1356E+02
     14.231  0.7229E-01  0.1357E+02
     14.377  0.2858E-02  0.1357E+02
     14.523  0.2779E+00  0.1361E+02
     14.670  0.5246E+00  0.1369E+02
     14.816  0.3670E+00  0.1374E+02
     14.962  0.2523E+00  0.1378E+02
     15.109  0.3626E+00  0.1383E+02
     15.255  0.5495E+00  0.1391E+02
     15.401  0.4490E+00  0.1398E+02
     15.548  0.3715E+00  0.1403E+02
     15.694  0.4560E+00  0.1410E+02
     15.840  0.4101E+00  0.1416E+02
     15.986  0.4139E+00  0.1422E+02
     16.133  0.4895E+00  0.1429E+02
     16.279  0.4266E+00  0.1435E+02
     16.425  0.4371E+00  0.1442E+02
     16.572  0.6974E+00  0.1452E+02
     16.718  0.6537E+00  0.1461E+02
     16.864  0.2219E+00  0.1465E+02
     17.011  0.2518E+00  0.1468E+02
     17.157  0.3877E+00  0.1474E+02
     17.303  0.5162E+00  0.1482E+02
     17.449  0.7025E+00  0.1492E+02
     17.596  0.7461E+00  0.1503E+02
     17.742  0.7555E+00  0.1514E+02
     17.888  0.4609E+00  0.1521E+02
     18.035  0.1744E+00  0.1523E+02
     18.181  0.2093E+00  0.1526E+02
     18.327  0.4451E+00  0.1533E+02
     18.474  0.5930E+00  0.1541E+02
     18.620  0.4617E+00  0.1548E+02
     18.766  0.4835E+00  0.1555E+02
     18.913  0.5298E+00  0.1563E+02
     19.059  0.4597E+00  0.1570E+02
     19.205  0.4449E+00  0.1576E+02
     19.351  0.6494E+00  0.1586E+02
     19.498  0.4834E+00  0.1593E+02
     19.644  0.3694E+00  0.1598E+02
     19.790  0.5132E+00  0.1606E+02
     19.937  0.5933E+00  0.1614E+02
     20.083  0.4482E+00  0.1621E+02
     20.229  0.4500E+00  0.1627E+02
     20.376  0.7201E+00  0.1638E+02
     20.522  0.5135E+00  0.1646E+02
     20.668  0.3189E+00  0.1650E+02
     20.814  0.4561E+00  0.1657E+02
     20.961  0.6890E+00  0.1667E+02
     21.107  0.6141E+00  0.1676E+02
     21.253  0.4926E+00  0.1683E+02
     21.400  0.6049E+00  0.1692E+02
     21.546  0.7831E+00  0.1703E+02
     21.692  0.6287E+00  0.1713E+02
     21.839  0.5112E+00  0.1720E+02
     21.985  0.4943E+00  0.1727E+02
     22.131  0.4484E+00  0.1734E+02
     22.278  0.4774E+00  0.1741E+02
     22.424  0.3782E+00  0.1746E+02
     22.570  0.2845E+00  0.1751E+02
     22.716  0.4027E+00  0.1756E+02
     22.863  0.5611E+00  0.1765E+02
     23.009  0.8036E+00  0.1776E+02
     23.155  0.1056E+01  0.1792E+02
     23.302  0.7511E+00  0.1803E+02
     23.448  0.5888E+00  0.1812E+02
     23.594  0.6400E+00  0.1821E+02
     23.741  0.6775E+00  0.1831E+02
     23.887  0.8851E+00  0.1844E+02
     24.033  0.9914E+00  0.1858E+02
     24.179  0.7791E+00  0.1870E+02
     24.326  0.7967E+00  0.1881E+02
     24.472  0.7769E+00  0.1893E+02
     24.618  0.4809E+00  0.1900E+02
     24.765  0.4302E+00  0.1906E+02
     24.911  0.5788E+00  0.1914E+02
     25.057  0.7914E+00  0.1926E+02
     25.204  0.8872E+00  0.1939E+02
     25.350  0.7579E+00  0.1950E+02
     25.496  0.5411E+00  0.1958E+02
     25.643  0.3340E+00  0.1963E+02
     25.789  0.3647E+00  0.1968E+02
     25.935  0.5762E+00  0.1977E+02
     26.081  0.5625E+00  0.1985E+02
     26.228  0.6870E+00  0.1995E+02
     26.374  0.5537E+00  0.2003E+02
     26.520  0.2865E+00  0.2007E+02
     26.667  0.2292E+00  0.2011E+02
     26.813  0.2412E+00  0.2014E+02
     26.959  0.4171E+00  0.2020E+02
     27.106  0.5361E+00  0.2028E+02
     27.252  0.4637E+00  0.2035E+02
     27.398  0.4710E+00  0.2042E+02
     27.544  0.3501E+00  0.2047E+02
     27.691  0.2210E+00  0.2050E+02
     27.837  0.3304E+00  0.2055E+02
     27.983  0.2526E+00  0.2059E+02
     28.130  0.3713E+00  0.2064E+02
     28.276  0.5542E+00  0.2072E+02
     28.422  0.3440E+00  0.2077E+02
     28.569  0.4948E+00  0.2084E+02
     28.715  0.8039E+00  0.2096E+02
     28.861  0.5077E+00  0.2104E+02
     29.008  0.3663E+00  0.2109E+02
     29.154  0.2027E+00  0.2112E+02
     29.300  0.5055E-01  0.2113E+02
     29.446  0.3707E+00  0.2118E+02
     29.593  0.6821E+00  0.2128E+02
     29.739  0.5851E+00  0.2137E+02
     29.885  0.4357E+00  0.2143E+02
     30.032  0.4776E+00  0.2150E+02
     30.178  0.5961E+00  0.2159E+02
     30.324  0.7930E+00  0.2170E+02
     30.471  0.9777E+00  0.2185E+02
     30.617  0.6952E+00  0.2195E+02
     30.763  0.6615E+00  0.2205E+02
     30.909  0.6556E+00  0.2214E+02
     31.056  0.5183E+00  0.2222E+02
     31.202  0.5195E+00  0.2229E+02
     31.348  0.6233E+00  0.2238E+02
     31.495  0.6681E+00  0.2248E+02
     31.641  0.7986E+00  0.2260E+02
     31.787  0.7141E+00  0.2270E+02
     31.934  0.6152E+00  0.2279E+02
     32.080  0.7958E+00  0.2291E+02
     32.226  0.9928E+00  0.2305E+02
     32.373  0.7790E+00  0.2317E+02
     32.519  0.5025E+00  0.2324E+02
     32.665  0.5243E+00  0.2332E+02
     32.811  0.5549E+00  0.2340E+02
     32.958  0.3742E+00  0.2345E+02
     33.104  0.3738E+00  0.2351E+02
     33.250  0.6356E+00  0.2360E+02
     33.397  0.6131E+00  0.2369E+02
     33.543  0.3202E+00  0.2374E+02
     33.689  0.2002E+00  0.2377E+02
     33.836  0.1421E+00  0.2379E+02
     33.982  0.1066E+00  0.2380E+02
     34.128  0.1625E+00  0.2383E+02
     34.274  0.2111E+00  0.2386E+02
     34.421  0.2083E+00  0.2389E+02
     34.567  0.1800E+00  0.2392E+02
     34.713  0.2250E+00  0.2395E+02
     34.860  0.1101E+00  0.2397E+02
     35.006 -0.3465E-02  0.2396E+02
     35.152 -0.6511E-02  0.2396E+02
     35.299  0.2496E-01  0.2397E+02
     35.445  0.5870E-01  0.2398E+02
     35.591  0.8458E-01  0.2399E+02
     35.738  0.7069E-01  0.2400E+02
     35.884  0.1313E-01  0.2400E+02
     36.030 -0.3570E-02  0.2400E+02
     36.176 -0.8457E-03  0.2400E+02
     36.323 -0.4234E-04  0.2400E+02
     36.469 -0.6378E-06  0.2400E+02
     36.615 -0.3102E-08  0.2400E+02
     36.762 -0.4989E-11  0.2400E+02
     36.908 -0.2695E-14  0.2400E+02
     37.054  0.0000E+00  0.2400E+02
     37.201  0.0000E+00  0.2400E+02
     37.347  0.0000E+00  0.2400E+02
     37.493  0.0000E+00  0.2400E+02
     37.639  0.0000E+00  0.2400E+02
