    1    1    1    1
  0.1677775E+02  0.2873533E-09  0.2873533E-09  0.2873533E-09  0.5000000E-15
  1.000000000000000E-004
  CAR 
 fcc Au                                  
     11    110     12
 
  0.5000000E-01  0.5000000E-01  0.5000000E-01  0.2000000E-02
    1       -4.251859   1.000000
    2        0.928922   1.000000
    3        0.990382   1.000000
    4        0.990382   1.000000
    5        2.529574   1.000000
    6        2.529574   1.000000
    7       21.186852   0.000000
    8       24.338894   0.000000
    9       25.113175   0.000000
   10       25.113175   0.000000
   11       29.969696   0.000000
   12       33.055055   0.000000
 
  0.1500000E+00  0.5000000E-01  0.5000000E-01  0.6000000E-02
    1       -3.791564   1.000000
    2        0.773656   1.000000
    3        1.132255   1.000000
    4        1.165949   1.000000
    5        2.378942   1.000000
    6        2.581970   1.000000
    7       21.525961   0.000000
    8       22.376839   0.000000
    9       24.750031   0.000000
   10       26.049813   0.000000
   11       29.428646   0.000000
   12       32.087603   0.000000
 
  0.2500000E+00  0.5000000E-01  0.5000000E-01  0.6000000E-02
    1       -2.796209   1.000000
    2        0.652197   1.000000
    3        1.287792   1.000000
    4        1.312032   1.000000
    5        2.386645   1.000000
    6        2.800797   1.000000
    7       18.490485   0.000000
    8       22.137720   0.000000
    9       24.940663   0.000000
   10       27.343302   0.000000
   11       27.403356   0.000000
   12       29.866373   0.000000
 
  0.3500000E+00  0.5000000E-01  0.5000000E-01  0.6000000E-02
    1       -1.908576   1.000000
    2        1.103245   1.000000
    3        1.192034   1.000000
    4        1.333159   1.000000
    5        2.885697   1.000000
    6        3.380356   1.000000
    7       14.446163   0.000000
    8       21.446310   0.000000
    9       23.976020   0.000000
   10       26.194006   0.000000
   11       28.584914   0.000000
   12       29.688973   0.000000
 
  0.4500000E+00  0.5000000E-01  0.5000000E-01  0.6000000E-02
    1       -1.689245   1.000000
    2        0.949927   1.000000
    3        1.021071   1.000000
    4        2.863409   1.000000
    5        3.499664   1.000000
    6        4.271462   1.000000
    7       10.644639  -0.000000
    8       20.672600   0.000000
    9       23.032767   0.000000
   10       24.150146   0.000000
   11       30.393340   0.000000
   12       30.677528   0.000000
 
 -0.4500000E+00  0.5000000E-01  0.5000000E-01  0.6000000E-02
    1       -1.685426   1.000000
    2        0.881971   1.000000
    3        0.979957   1.000000
    4        3.289797   1.000000
    5        3.787342   1.000000
    6        5.135907   1.000123
    7        8.974442  -0.000000
    8       20.459376   0.000000
    9       23.085106   0.000000
   10       23.202938   0.000000
   11       30.895609   0.000000
   12       30.980892   0.000000
 
 -0.3500000E+00  0.5000000E-01  0.5000000E-01  0.6000000E-02
    1       -1.715210   1.000000
    2        0.980447   1.000000
    3        1.093399   1.000000
    4        2.286964   1.000000
    5        3.580045   1.000000
    6        3.707523   1.000000
    7       11.824012   0.000000
    8       20.911094   0.000000
    9       23.507534   0.000000
   10       24.344077   0.000000
   11       30.339459   0.000000
   12       30.488689   0.000000
 
 -0.2500000E+00  0.5000000E-01  0.5000000E-01  0.6000000E-02
    1       -2.132233   1.000000
    2        0.907055   1.000000
    3        1.207293   1.000000
    4        1.269268   1.000000
    5        2.793650   1.000000
    6        3.064843   1.000000
    7       15.803127   0.000000
    8       21.827642   0.000000
    9       24.476809   0.000000
   10       26.327709   0.000000
   11       28.255786   0.000000
   12       30.076121   0.000000
 
 -0.1500000E+00  0.5000000E-01  0.5000000E-01  0.6000000E-02
    1       -3.161876   1.000000
    2        0.641613   1.000000
    3        1.279352   1.000000
    4        1.293368   1.000000
    5        2.340661   1.000000
    6        2.674510   1.000000
    7       19.778019   0.000000
    8       22.234166   0.000000
    9       24.948307   0.000000
   10       26.499135   0.000000
   11       28.132309   0.000000
   12       30.743740   0.000000
 
 -0.5000000E-01  0.5000000E-01  0.5000000E-01  0.6000000E-02
    1       -4.017734   1.000000
    2        0.819458   1.000000
    3        1.088195   1.000000
    4        1.093520   1.000000
    5        2.404482   1.000000
    6        2.588344   1.000000
    7       21.431984   0.000000
    8       23.419752   0.000000
    9       24.858251   0.000000
   10       25.238569   0.000000
   11       30.582032   0.000000
   12       32.282433   0.000000
 
  0.1500000E+00  0.1500000E+00  0.5000000E-01  0.6000000E-02
    1       -3.563099   1.000000
    2        0.600030   1.000000
    3        1.293053   1.000000
    4        1.297782   1.000000
    5        2.177330   1.000000
    6        2.703008   1.000000
    7       21.829762   0.000000
    8       22.551856   0.000000
    9       24.202467   0.000000
   10       24.832565   0.000000
   11       29.815823   0.000000
   12       31.526388   0.000000
 
  0.2500000E+00  0.1500000E+00  0.5000000E-01  0.1200000E-01
    1       -2.735803   1.000000
    2        0.347156   1.000000
    3        1.392193   1.000000
    4        1.580414   1.000000
    5        2.123651   1.000000
    6        2.927301   1.000000
    7       20.035283   0.000000
    8       21.845112   0.000000
    9       23.816320   0.000000
   10       25.071867   0.000000
   11       27.781199   0.000000
   12       30.687554   0.000000
 
  0.3500000E+00  0.1500000E+00  0.5000000E-01  0.1200000E-01
    1       -1.721175   1.000000
    2        0.433620   1.000000
    3        1.084586   1.000000
    4        1.589495   1.000000
    5        2.797759   1.000000
    6        3.518173   1.000000
    7       16.034660   0.000000
    8       21.300566   0.000000
    9       22.753391   0.000000
   10       24.938704   0.000000
   11       28.579792   0.000000
   12       30.389425   0.000000
 
  0.4500000E+00  0.1500000E+00  0.5000000E-01  0.1200000E-01
    1       -1.335110   1.000000
    2        0.776639   1.000000
    3        1.322875   1.000000
    4        1.485028   1.000000
    5        3.563399   1.000000
    6        4.716618   1.000000
    7       12.020057   0.000000
    8       20.794608   0.000000
    9       21.489157   0.000000
   10       23.634670   0.000000
   11       30.410024   0.000000
   12       31.529144   0.000000
 
 -0.4500000E+00  0.1500000E+00  0.5000000E-01  0.1200000E-01
    1       -1.314098   1.000000
    2        0.645595   1.000000
    3        1.284396   1.000000
    4        2.231085   1.000000
    5        3.740545   1.000000
    6        6.595622  -0.000000
    7        8.957553  -0.000000
    8       20.324122   0.000000
    9       21.143738   0.000000
   10       22.858366   0.000000
   11       30.886704   0.000000
   12       31.938215   0.000000
 
 -0.3500000E+00  0.1500000E+00  0.5000000E-01  0.1200000E-01
    1       -1.296821   1.000000
    2        0.728024   1.000000
    3        1.310757   1.000000
    4        1.895837   1.000000
    5        3.416047   1.000000
    6        5.425070   1.027446
    7       10.872418  -0.000000
    8       20.017804   0.000000
    9       21.577044   0.000000
   10       23.807241   0.000000
   11       30.049848   0.000000
   12       31.588918   0.000000
 
 -0.2500000E+00  0.1500000E+00  0.5000000E-01  0.1200000E-01
    1       -1.478300   1.000000
    2        0.719796   1.000000
    3        1.034481   1.000000
    4        1.502648   1.000000
    5        2.707701   1.000000
    6        4.069677   1.000000
    7       14.691198   0.000000
    8       20.281564   0.000000
    9       22.682761   0.000000
   10       25.807990   0.000000
   11       28.195545   0.000000
   12       30.686236   0.000000
 
 -0.1500000E+00  0.1500000E+00  0.5000000E-01  0.1200000E-01
    1       -2.377344   1.000000
    2        0.390887   1.000000
    3        1.284928   1.000000
    4        1.603367   1.000000
    5        2.118930   1.000000
    6        3.193333   1.000000
    7       18.630824   0.000000
    8       20.920282   0.000000
    9       24.387130   0.000000
   10       25.399599   0.000000
   11       28.885807   0.000000
   12       29.537524   0.000000
 
 -0.5000000E-01  0.1500000E+00  0.5000000E-01  0.1200000E-01
    1       -3.352782   1.000000
    2        0.603605   1.000000
    3        1.295633   1.000000
    4        1.305829   1.000000
    5        2.218134   1.000000
    6        2.710828   1.000000
    7       21.025215   0.000000
    8       21.990336   0.000000
    9       24.314773   0.000000
   10       26.141808   0.000000
   11       28.500364   0.000000
   12       31.523490   0.000000
 
  0.2500000E+00  0.2500000E+00  0.5000000E-01  0.6000000E-02
    1       -2.184470   1.000000
    2       -0.015704   1.000000
    3        1.547600   1.000000
    4        1.968971   1.000000
    5        2.165337   1.000000
    6        3.053358   1.000000
    7       20.501519   0.000000
    8       21.636431   0.000000
    9       22.728374   0.000000
   10       23.617482   0.000000
   11       24.825665   0.000000
   12       32.164719   0.000000
 
  0.3500000E+00  0.2500000E+00  0.5000000E-01  0.1200000E-01
    1       -1.382421   1.000000
    2       -0.244845   1.000000
    3        1.283721   1.000000
    4        2.324379   1.000000
    5        2.835502   1.000000
    6        3.542079   1.000000
    7       17.762556   0.000000
    8       19.725255   0.000000
    9       21.364210   0.000000
   10       24.066105   0.000000
   11       25.453032   0.000000
   12       32.228634   0.000000
 
  0.4500000E+00  0.2500000E+00  0.5000000E-01  0.1200000E-01
    1       -0.915459   1.000000
    2        0.018084   1.000000
    3        1.032929   1.000000
    4        2.188333   1.000000
    5        3.651881   1.000000
    6        4.990039   1.000001
    7       13.663431   0.000000
    8       19.036805   0.000000
    9       19.617007   0.000000
   10       23.679686   0.000000
   11       28.668049   0.000000
   12       32.186462   0.000000
 
 -0.4500000E+00  0.2500000E+00  0.5000000E-01  0.1200000E-01
    1       -0.795588   1.000000
    2        0.285982   1.000000
    3        1.239624   1.000000
    4        1.985630   1.000000
    5        3.777452   1.000000
    6        7.467919  -0.000000
    7       10.057829  -0.000000
    8       17.745835   0.000000
    9       19.688254   0.000000
   10       23.263319   0.000000
   11       31.275047   0.000000
   12       32.851410   0.000000
 
 -0.3500000E+00  0.2500000E+00  0.5000000E-01  0.1200000E-01
    1       -0.621309   1.000000
    2        0.352427   1.000000
    3        1.260607   1.000000
    4        1.879655   1.000000
    5        3.370057   1.000000
    6        7.306263  -0.000000
    7       10.597382  -0.000000
    8       16.653666   0.000000
    9       20.895341   0.000000
   10       23.442630   0.000000
   11       30.426842   0.000000
   12       32.799446   0.000000
 
 -0.2500000E+00  0.2500000E+00  0.5000000E-01  0.1200000E-01
    1       -0.538254   1.000000
    2        0.429095   1.000000
    3        0.690788   1.000000
    4        1.960926   1.000000
    5        2.666076   1.000000
    6        5.499471   1.033979
    7       14.002348   0.000000
    8       16.570451   0.000000
    9       22.138893   0.000000
   10       24.907587   0.000000
   11       28.220253   0.000000
   12       32.615628   0.000000
 
 -0.1500000E+00  0.2500000E+00  0.5000000E-01  0.1200000E-01
    1       -1.321594   1.000000
    2        0.310925   1.000000
    3        1.006199   1.000000
    4        1.835665   1.000000
    5        2.259620   1.000000
    6        4.160759   1.000000
    7       16.148586   0.000000
    8       18.825860   0.000000
    9       23.156196   0.000000
   10       26.227220   0.000000
   11       27.305454   0.000000
   12       31.220476   0.000000
 
 -0.5000000E-01  0.2500000E+00  0.5000000E-01  0.1200000E-01
    1       -2.292788   1.000000
    2        0.574489   1.000000
    3        1.257791   1.000000
    4        1.409094   1.000000
    5        2.450276   1.000000
    6        3.119269   1.000000
    7       17.248591   0.000000
    8       21.863332   0.000000
    9       23.965684   0.000000
   10       26.396275   0.000000
   11       28.166375   0.000000
   12       29.614306   0.000000
 
  0.3500000E+00  0.3500000E+00  0.5000000E-01  0.6000000E-02
    1       -1.241942   1.000000
    2       -0.630252   1.000000
    3        2.179759   1.000000
    4        2.865619   1.000000
    5        3.300629   1.000000
    6        3.476279   1.000000
    7       17.696924   0.000000
    8       18.704573   0.000000
    9       18.972473   0.000000
   10       22.928604   0.000000
   11       24.850635   0.000000
   12       34.706131   0.000000
 
  0.4500000E+00  0.3500000E+00  0.5000000E-01  0.1200000E-01
    1       -1.095726   1.000000
    2       -0.740871   1.000000
    3        2.229761   1.000000
    4        3.170967   1.000000
    5        3.667237   1.000000
    6        5.039139   1.000007
    7       14.862516   0.000000
    8       17.001642   0.000000
    9       17.627554   0.000000
   10       23.948383   0.000000
   11       25.857198   0.000000
   12       34.222680   0.000000
 
 -0.4500000E+00  0.3500000E+00  0.5000000E-01  0.1200000E-01
    1       -0.925746   1.000000
    2       -0.422354   1.000000
    3        1.867511   1.000000
    4        2.860380   1.000000
    5        3.879846   1.000000
    6        7.695145  -0.000000
    7       11.622370   0.000000
    8       15.259288   0.000000
    9       17.739216   0.000000
   10       24.161269   0.000000
   11       28.610629   0.000000
   12       33.213737   0.000000
 
 -0.3500000E+00  0.3500000E+00  0.5000000E-01  0.1200000E-01
    1       -0.628167   1.000000
    2        0.094572   1.000000
    3        1.311694   1.000000
    4        2.523423   1.000000
    5        3.545736   1.000000
    6        8.915925  -0.000000
    7       11.056727  -0.000000
    8       13.580980   0.000000
    9       19.088015   0.000000
   10       23.919573   0.000000
   11       31.783442   0.000000
   12       32.200340   0.000000
 
 -0.2500000E+00  0.3500000E+00  0.5000000E-01  0.1200000E-01
    1       -0.340079   1.000000
    2        0.395484   1.000000
    3        0.806864   1.000000
    4        2.157924   1.000000
    5        3.124396   1.000000
    6        7.130887  -0.000000
    7       12.464663   0.000000
    8       14.582296   0.000000
    9       20.896095   0.000000
   10       23.815800   0.000000
   11       30.094354   0.000000
   12       33.049164   0.000000
 
 -0.1500000E+00  0.3500000E+00  0.5000000E-01  0.1200000E-01
    1       -0.932852   1.000000
    2        0.626062   1.000000
    3        1.129070   1.000000
    4        1.650592   1.000000
    5        3.037191   1.000000
    6        5.480100   1.035455
    7       12.403380   0.000000
    8       18.318156   0.000000
    9       21.871219   0.000000
   10       24.383228   0.000000
   11       29.049100   0.000000
   12       32.070407   0.000000
 
 -0.5000000E-01  0.3500000E+00  0.5000000E-01  0.1200000E-01
    1       -1.636298   1.000000
    2        0.983704   1.000000
    3        1.237207   1.000000
    4        1.487301   1.000000
    5        3.170649   1.000000
    6        3.890199   1.000000
    7       13.187324   0.000000
    8       21.135303   0.000000
    9       22.772280   0.000000
   10       25.046495   0.000000
   11       29.439534   0.000000
   12       30.440230   0.000000
 
  0.4500000E+00  0.4500000E+00  0.5000000E-01  0.6000000E-02
    1       -1.361919   1.000000
    2       -1.035403   1.000000
    3        3.563536   1.000000
    4        3.567283   1.000000
    5        3.909937   1.000000
    6        5.522977   1.026620
    7       13.477762   0.000000
    8       16.265760   0.000000
    9       16.599750   0.000000
   10       23.262138   0.000000
   11       25.647954   0.000000
   12       35.543677   0.000000
 
 -0.4500000E+00  0.4500000E+00  0.5000000E-01  0.1200000E-01
    1       -1.287692   1.000000
    2       -0.984077   1.000000
    3        3.171911   1.000000
    4        3.516165   1.000000
    5        4.063092   1.000000
    6        7.563034  -0.000000
    7       11.595504   0.000000
    8       15.226325   0.000000
    9       16.195009   0.000000
   10       24.207928   0.000000
   11       26.210730   0.000000
   12       34.665372   0.000000
 
 -0.3500000E+00  0.4500000E+00  0.5000000E-01  0.1200000E-01
    1       -0.980738   1.000000
    2       -0.514696   1.000000
    3        2.161769   1.000000
    4        3.033888   1.000000
    5        3.876567   1.000000
    6        9.136275  -0.000000
    7       10.729843  -0.000000
    8       13.935889   0.000000
    9       17.387446   0.000000
   10       24.352118   0.000000
   11       28.617764   0.000000
   12       33.376922   0.000000
 
 -0.2500000E+00  0.4500000E+00  0.5000000E-01  0.1200000E-01
    1       -0.662810   1.000000
    2        0.142678   1.000000
    3        1.267701   1.000000
    4        2.296920   1.000000
    5        3.673464   1.000000
    6        9.006334  -0.000000
    7        9.556090  -0.000000
    8       15.593571   0.000000
    9       19.288094   0.000000
   10       23.642529   0.000000
   11       31.497334   0.000000
   12       32.563220   0.000000
 
 -0.1500000E+00  0.4500000E+00  0.5000000E-01  0.1200000E-01
    1       -0.988238   1.000000
    2        0.469481   1.000000
    3        1.556199   1.000000
    4        1.754794   1.000000
    5        3.613840   1.000000
    6        7.434205  -0.000000
    7        9.110803  -0.000000
    8       18.698972   0.000000
    9       20.907486   0.000000
   10       22.999207   0.000000
   11       30.782320   0.000000
   12       32.415722   0.000000
 
 -0.5000000E-01  0.4500000E+00  0.5000000E-01  0.1200000E-01
    1       -1.553644   1.000000
    2        0.820536   1.000000
    3        1.098913   1.000000
    4        2.658160   1.000000
    5        3.696929   1.000000
    6        5.302180   1.005341
    7        9.664224  -0.000000
    8       20.594565   0.000000
    9       22.215801   0.000000
   10       23.371382   0.000000
   11       30.733235   0.000000
   12       31.258741   0.000000
 
 -0.4500000E+00 -0.4500000E+00  0.5000000E-01  0.6000000E-02
    1       -1.438346   1.000000
    2       -1.121555   1.000000
    3        3.688872   1.000000
    4        3.860574   1.000000
    5        4.077143   1.000000
    6        6.744434  -0.000000
    7       11.832871   0.000000
    8       15.753427   0.000000
    9       16.121029   0.000000
   10       23.401955   0.000000
   11       25.818076   0.000000
   12       35.337435   0.000000
 
 -0.3500000E+00 -0.4500000E+00  0.5000000E-01  0.1200000E-01
    1       -1.208367   1.000000
    2       -0.901301   1.000000
    3        2.801294   1.000000
    4        3.448564   1.000000
    5        3.902892   1.000000
    6        6.325096  -0.000096
    7       13.114618   0.000000
    8       15.827929   0.000000
    9       16.666091   0.000000
   10       24.092556   0.000000
   11       26.087067   0.000000
   12       34.608574   0.000000
 
 -0.2500000E+00 -0.4500000E+00  0.5000000E-01  0.1200000E-01
    1       -0.867526   1.000000
    2       -0.235780   1.000000
    3        1.426629   1.000000
    4        2.548668   1.000000
    5        3.827683   1.000000
    6        6.240232  -0.000837
    7       12.579046   0.000000
    8       17.176899   0.000000
    9       18.437502   0.000000
   10       23.877509   0.000000
   11       28.622751   0.000000
   12       32.827339   0.000000
 
 -0.1500000E+00 -0.4500000E+00  0.5000000E-01  0.1200000E-01
    1       -1.037559   1.000000
    2        0.519711   1.000000
    3        1.270508   1.000000
    4        1.687004   1.000000
    5        3.760318   1.000000
    6        5.950164  -0.033551
    7       10.960433  -0.000000
    8       19.802617   0.000000
    9       20.250540   0.000000
   10       23.085051   0.000000
   11       30.971151   0.000000
   12       32.632279   0.000000
 
 -0.3500000E+00 -0.3500000E+00  0.5000000E-01  0.6000000E-02
    1       -1.254335   1.000000
    2       -0.868046   1.000000
    3        2.974763   1.000000
    4        3.283821   1.000000
    5        3.689131   1.000000
    6        4.222309   1.000000
    7       15.663950   0.000000
    8       17.273907   0.000000
    9       17.493200   0.000000
   10       23.065846   0.000000
   11       25.321203   0.000000
   12       35.639478   0.000000
 
 -0.2500000E+00 -0.3500000E+00  0.5000000E-01  0.1200000E-01
    1       -1.079376   1.000000
    2       -0.515938   1.000000
    3        1.621942   1.000000
    4        2.759574   1.000000
    5        3.333368   1.000000
    6        4.086184   1.000000
    7       16.406685   0.000000
    8       18.377313   0.000000
    9       19.288984   0.000000
   10       23.911297   0.000000
   11       25.571443   0.000000
   12       33.342644   0.000000
 
 -0.1500000E+00 -0.3500000E+00  0.5000000E-01  0.1200000E-01
    1       -1.206652   1.000000
    2        0.258405   1.000000
    3        0.918349   1.000000
    4        1.855079   1.000000
    5        3.296736   1.000000
    6        4.076242   1.000000
    7       14.833324   0.000000
    8       20.304846   0.000000
    9       21.379985   0.000000
   10       23.882526   0.000000
   11       28.704550   0.000000
   12       31.348406   0.000000
 
 -0.2500000E+00 -0.2500000E+00  0.5000000E-01  0.6000000E-02
    1       -1.540625   1.000000
    2       -0.338571   1.000000
    3        1.631851   1.000000
    4        2.405125   1.000000
    5        2.656529   1.000000
    6        3.262663   1.000000
    7       19.230123   0.000000
    8       20.125029   0.000000
    9       21.311473   0.000000
   10       23.063316   0.000000
   11       24.300573   0.000000
   12       33.282149   0.000000
 
 -0.1500000E+00 -0.2500000E+00  0.5000000E-01  0.1200000E-01
    1       -2.019456   1.000000
    2        0.052049   1.000000
    3        1.307821   1.000000
    4        1.923143   1.000000
    5        2.359445   1.000000
    6        3.199762   1.000000
    7       18.966376   0.000000
    8       20.998395   0.000000
    9       23.121230   0.000000
   10       24.222134   0.000000
   11       26.240808   0.000000
   12       31.197035   0.000000
 
 -0.1500000E+00 -0.1500000E+00  0.5000000E-01  0.6000000E-02
    1       -2.923569   1.000000
    2        0.308791   1.000000
    3        1.538260   1.000000
    4        1.592618   1.000000
    5        1.970896   1.000000
    6        2.861592   1.000000
    7       21.479576   0.000000
    8       22.582863   0.000000
    9       23.072133   0.000000
   10       24.054238   0.000000
   11       27.463864   0.000000
   12       31.521870   0.000000
 
  0.1500000E+00  0.1500000E+00  0.1500000E+00  0.2000000E-02
    1       -3.576885   1.000000
    2        0.756580   1.000000
    3        1.185524   1.000000
    4        1.185524   1.000000
    5        2.484169   1.000000
    6        2.484169   1.000000
    7       20.872418   0.000000
    8       22.111933   0.000000
    9       25.749832   0.000000
   10       25.749832   0.000000
   11       29.004847   0.000000
   12       31.439834   0.000000
 
  0.2500000E+00  0.1500000E+00  0.1500000E+00  0.6000000E-02
    1       -2.946368   1.000000
    2        0.546459   1.000000
    3        1.313614   1.000000
    4        1.394240   1.000000
    5        2.161611   1.000000
    6        2.874136   1.000000
    7       19.805094   0.000000
    8       21.600371   0.000000
    9       24.435683   0.000000
   10       26.659360   0.000000
   11       27.788179   0.000000
   12       30.895374   0.000000
 
  0.3500000E+00  0.1500000E+00  0.1500000E+00  0.6000000E-02
    1       -1.885290   1.000000
    2        0.386392   1.000000
    3        1.203647   1.000000
    4        1.684130   1.000000
    5        2.069423   1.000000
    6        3.628555   1.000000
    7       17.339496   0.000000
    8       19.915273   0.000000
    9       24.087312   0.000000
   10       25.845890   0.000000
   11       28.253918   0.000000
   12       30.236354   0.000000
 
  0.4500000E+00  0.1500000E+00  0.1500000E+00  0.6000000E-02
    1       -1.211637   1.000000
    2        0.776431   1.000000
    3        1.152236   1.000000
    4        1.476136   1.000000
    5        2.758648   1.000000
    6        4.706374   1.000000
    7       13.482533   0.000000
    8       19.273122   0.000000
    9       22.496913   0.000000
   10       25.334024   0.000000
   11       28.274250   0.000000
   12       31.377007   0.000000
 
 -0.4500000E+00  0.1500000E+00  0.1500000E+00  0.6000000E-02
    1       -1.181729   1.000000
    2        0.631148   1.000000
    3        1.362848   1.000000
    4        2.002272   1.000000
    5        3.463553   1.000000
    6        6.311459  -0.000139
    7        9.900948  -0.000000
    8       19.286915   0.000000
    9       21.842138   0.000000
   10       22.984009   0.000000
   11       30.579111   0.000000
   12       31.623742   0.000000
 
 -0.3500000E+00  0.1500000E+00  0.1500000E+00  0.6000000E-02
    1       -1.221554   1.000000
    2        0.603612   1.000000
    3        1.412584   1.000000
    4        1.828252   1.000000
    5        3.820064   1.000000
    6        6.279131  -0.000326
    7        9.727587  -0.000000
    8       20.023324   0.000000
    9       21.688202   0.000000
   10       22.086682   0.000000
   11       31.593752   0.000000
   12       31.812154   0.000000
 
 -0.2500000E+00  0.1500000E+00  0.1500000E+00  0.6000000E-02
    1       -1.301022   1.000000
    2        0.704455   1.000000
    3        0.939075   1.000000
    4        1.579256   1.000000
    5        3.666968   1.000000
    6        4.162934   1.000000
    7       13.348573   0.000000
    8       21.192998   0.000000
    9       21.533480   0.000000
   10       23.093636   0.000000
   11       30.512969   0.000000
   12       31.484035   0.000000
 
 -0.1500000E+00  0.1500000E+00  0.1500000E+00  0.6000000E-02
    1       -1.912671   1.000000
    2        0.183732   1.000000
    3        1.209517   1.000000
    4        1.715546   1.000000
    5        2.719909   1.000000
    6        3.202097   1.000000
    7       17.499847   0.000000
    8       22.149495   0.000000
    9       22.383933   0.000000
   10       24.284137   0.000000
   11       27.373899   0.000000
   12       31.451498   0.000000
 
  0.2500000E+00  0.2500000E+00  0.1500000E+00  0.6000000E-02
    1       -2.581724   1.000000
    2        0.433123   1.000000
    3        1.333418   1.000000
    4        1.467961   1.000000
    5        2.351168   1.000000
    6        2.925232   1.000000
    7       18.651942   0.000000
    8       22.394983   0.000000
    9       23.654778   0.000000
   10       25.860065   0.000000
   11       27.699239   0.000000
   12       30.829234   0.000000
 
  0.3500000E+00  0.2500000E+00  0.1500000E+00  0.1200000E-01
    1       -1.714360   1.000000
    2        0.173250   1.000000
    3        1.108625   1.000000
    4        1.893863   1.000000
    5        2.333826   1.000000
    6        3.607544   1.000000
    7       17.479313   0.000000
    8       19.943347   0.000000
    9       23.201815   0.000000
   10       25.197772   0.000000
   11       27.822600   0.000000
   12       30.205386   0.000000
 
  0.4500000E+00  0.2500000E+00  0.1500000E+00  0.1200000E-01
    1       -0.781369   1.000000
    2        0.196352   1.000000
    3        0.707616   1.000000
    4        2.124347   1.000000
    5        2.648869   1.000000
    6        4.801950   1.000000
    7       15.044368   0.000000
    8       17.693461   0.000000
    9       21.704572   0.000000
   10       25.938979   0.000000
   11       27.422250   0.000000
   12       31.799023   0.000000
 
 -0.4500000E+00  0.2500000E+00  0.1500000E+00  0.1200000E-01
    1       -0.647384   1.000000
    2        0.374584   1.000000
    3        1.020865   1.000000
    4        1.923685   1.000000
    5        3.360296   1.000000
    6        6.493993  -0.000000
    7       11.456812   0.000000
    8       17.443230   0.000000
    9       20.308378   0.000000
   10       24.448398   0.000000
   11       29.512179   0.000000
   12       33.161804   0.000000
 
 -0.3500000E+00  0.2500000E+00  0.1500000E+00  0.1200000E-01
    1       -0.718009   1.000000
    2        0.281903   1.000000
    3        1.362367   1.000000
    4        1.856192   1.000000
    5        3.659052   1.000000
    6        8.172520  -0.000000
    7        9.128707  -0.000000
    8       18.064333   0.000000
    9       19.270052   0.000000
   10       23.934971   0.000000
   11       30.413700   0.000000
   12       33.641469   0.000000
 
 -0.2500000E+00  0.2500000E+00  0.1500000E+00  0.1200000E-01
    1       -0.767636   1.000000
    2        0.375194   1.000000
    3        0.781735   1.000000
    4        2.053642   1.000000
    5        3.487125   1.000000
    6        5.736266   0.456573
    7       12.466492   0.000000
    8       18.316954   0.000000
    9       19.868996   0.000000
   10       24.413071   0.000000
   11       29.462365   0.000000
   12       32.227745   0.000000
 
 -0.1500000E+00  0.2500000E+00  0.1500000E+00  0.1200000E-01
    1       -1.101498   1.000000
    2       -0.060640   1.000000
    3        0.932799   1.000000
    4        2.253762   1.000000
    5        2.752321   1.000000
    6        4.133127   1.000000
    7       16.309919   0.000000
    8       18.786907   0.000000
    9       21.470138   0.000000
   10       25.190709   0.000000
   11       26.965427   0.000000