 running on    4 total cores
 distrk:  each k-point on    4 cores,    1 groups
 distr:  one band on    1 cores,    4 groups
 using from now: INCAR     
 vasp.5.4.4.18Apr17-6-g9f103f2a35 (build Jul 01 2019 03:25:34) complex          
  
 POSCAR found type information on POSCAR  Au
 POSCAR found :  1 types and       1 ions
 scaLAPACK will be used
 LDA part: xc-table for Ceperly-Alder, standard interpolation
 POSCAR, INCAR and KPOINTS ok, starting setup
 FFT: planning ...
 WAVECAR not read
 entering main loop
       N       E                     dE             d eps       ncg     rms          rms(c)
DAV:   1     0.316993358936E+02    0.31699E+02   -0.35100E+03  3192   0.426E+02
DAV:   2    -0.436398764263E+01   -0.36063E+02   -0.33853E+02  2984   0.146E+02
DAV:   3    -0.471446840143E+01   -0.35048E+00   -0.35035E+00  3232   0.149E+01
DAV:   4    -0.471536293553E+01   -0.89453E-03   -0.89450E-03  3128   0.793E-01
DAV:   5    -0.471536897489E+01   -0.60394E-05   -0.60394E-05  3028   0.633E-02    0.318E+00
DAV:   6    -0.442183430217E+01    0.29353E+00   -0.78366E-01  3132   0.865E+00    0.823E-01
DAV:   7    -0.439733697001E+01    0.24497E-01   -0.51453E-02  3180   0.186E+00    0.279E-01
DAV:   8    -0.439243175172E+01    0.49052E-02   -0.17770E-03  3008   0.448E-01    0.982E-03
DAV:   9    -0.439243058600E+01    0.11657E-05   -0.84451E-06  1812   0.212E-02
   1 F= -.43924306E+01 E0= -.43927297E+01  d E =0.897268E-03
 writing wavefunctions
