 vasp.5.4.4.18Apr17-6-g9f103f2a35 (build Jul 01 2019 03:25:34) complex          
  
 executed on             LinuxIFC date 2020.07.01  18:43:33
 running on    4 total cores
 distrk:  each k-point on    4 cores,    1 groups
 distr:  one band on NCORES_PER_BAND=   1 cores,    4 groups


--------------------------------------------------------------------------------------------------------


 INCAR:
 POTCAR:   PAW Au 04Feb1998                       
 POTCAR:   PAW Au 04Feb1998                       
   VRHFIN =Au: s1d10                                                            
   LEXCH  = CA                                                                  
   EATOM  =   929.4667 eV,   68.3139 Ry                                         
                                                                                
   TITEL  = PAW Au 04Feb1998                                                    
   LULTRA =        F    use ultrasoft PP ?                                      
   IUNSCR =        1    unscreen: 0-lin 1-nonlin 2-no                           
   RPACOR =    2.330    partial core radius                                     
   POMASS =  196.966; ZVAL   =   11.000    mass and valenz                      
   RCORE  =    2.500    outmost cutoff radius                                   
   RWIGS  =    2.840; RWIGS  =    1.503    wigner-seitz radius (au A)           
   ENMAX  =  229.869; ENMIN  =  172.402 eV                                      
   RCLOC  =    1.964    cutoff for local pot                                    
   LCOR   =        T    correct aug charges                                     
   LPAW   =        T    paw PP                                                  
   EAUG   =  356.670                                                            
   DEXC   =    -.020                                                            
   RMAX   =    3.041    core radius for proj-oper                               
   RDEP   =    2.598    core radius for depl-charge                             
   QCUT   =   -4.110; QGAM   =    8.221    optimization parameters              
                                                                                
   Description                                                                  
     l     E      TYP  RCUT    TYP  RCUT                                        
     2   .000     23  2.500                                                     
     2   .000     23  2.500                                                     
     0   .000     23  2.500                                                     
     0   .000     23  2.500                                                     
     1  -.200     23  2.500                                                     
     1   .000     23  2.500                                                     
     3   .000      7   .000                                                     
  local pseudopotential read in
  partial core-charges read in
  atomic valenz-charges read in
  non local Contribution for L=           2  read in
    real space projection operators read in
  non local Contribution for L=           2  read in
    real space projection operators read in
  non local Contribution for L=           0  read in
    real space projection operators read in
  non local Contribution for L=           0  read in
    real space projection operators read in
  non local Contribution for L=           1  read in
    real space projection operators read in
  non local Contribution for L=           1  read in
    real space projection operators read in
    PAW grid and wavefunctions read in
 
   number of l-projection  operators is LMAX  =           6
   number of lm-projection operators is LMMAX =          18
 
 PAW Au 04Feb1998                       :
 energy of atom  1       EATOM= -929.4667
 kinetic energy error for atom=    0.0704 (will be added to EATOM!!)
 
 
 POSCAR: Au bulk FCC                             
  positions in direct lattice
  No initial velocities read in
 exchange correlation table for  LEXCH =        2
   RHO(1)=    0.500       N(1)  =     2000
   RHO(2)=  100.500       N(2)  =     4000
 


--------------------------------------------------------------------------------------------------------


 ion  position               nearest neighbor table
   1  0.000  0.000  0.000-
 
  LATTYP: Found a face centered cubic cell.
 ALAT       =     4.0637900000
  
  Lattice vectors:
  
 A1 = (   0.0000000000,   2.0318950000,   2.0318950000)
 A2 = (   2.0318950000,   0.0000000000,   2.0318950000)
 A3 = (   2.0318950000,   2.0318950000,   0.0000000000)


Analysis of symmetry for initial positions (statically):
=====================================================================
 Subroutine PRICEL returns:
 Original cell was already a primitive cell.
 

 Routine SETGRP: Setting up the symmetry group for a 
 face centered cubic supercell.


 Subroutine GETGRP returns: Found 48 space group operations
 (whereof 48 operations were pure point group operations)
 out of a pool of 48 trial point group operations.


The static configuration has the point symmetry O_h .


Analysis of symmetry for dynamics (positions and initial velocities):
=====================================================================
 Subroutine PRICEL returns:
 Original cell was already a primitive cell.
 

 Routine SETGRP: Setting up the symmetry group for a 
 face centered cubic supercell.


 Subroutine GETGRP returns: Found 48 space group operations
 (whereof 48 operations were pure point group operations)
 out of a pool of 48 trial point group operations.


The dynamic configuration has the point symmetry O_h .


 Subroutine INISYM returns: Found 48 space group operations
 (whereof 48 operations are pure point group operations),
 and found     1 'primitive' translations

 
 
 KPOINTS: 10x10x10                                

Automatic generation of k-mesh.
Space group operators:
 irot       det(A)        alpha          n_x          n_y          n_z        tau_x        tau_y        tau_z
    1     1.000000     0.000000     1.000000     0.000000     0.000000     0.000000     0.000000     0.000000
    2    -1.000000     0.000000     1.000000     0.000000     0.000000     0.000000     0.000000     0.000000
    3     1.000000   120.000000    -0.577350    -0.577350    -0.577350     0.000000     0.000000     0.000000
    4    -1.000000   120.000000    -0.577350    -0.577350    -0.577350     0.000000     0.000000     0.000000
    5     1.000000   120.000000     0.577350     0.577350     0.577350     0.000000     0.000000     0.000000
    6    -1.000000   120.000000     0.577350     0.577350     0.577350     0.000000     0.000000     0.000000
    7     1.000000    90.000000     0.000000     0.000000    -1.000000     0.000000     0.000000     0.000000
    8    -1.000000    90.000000     0.000000     0.000000    -1.000000     0.000000     0.000000     0.000000
    9     1.000000   180.000000     0.000000     0.707107     0.707107     0.000000     0.000000     0.000000
   10    -1.000000   180.000000     0.000000     0.707107     0.707107     0.000000     0.000000     0.000000
   11     1.000000    90.000000     0.000000     1.000000     0.000000     0.000000     0.000000     0.000000
   12    -1.000000    90.000000     0.000000     1.000000     0.000000     0.000000     0.000000     0.000000
   13     1.000000   180.000000     0.000000     0.000000     1.000000     0.000000     0.000000     0.000000
   14    -1.000000   180.000000     0.000000     0.000000     1.000000     0.000000     0.000000     0.000000
   15     1.000000   120.000000    -0.577350     0.577350     0.577350     0.000000     0.000000     0.000000
   16    -1.000000   120.000000    -0.577350     0.577350     0.577350     0.000000     0.000000     0.000000
   17     1.000000   120.000000    -0.577350     0.577350    -0.577350     0.000000     0.000000     0.000000
   18    -1.000000   120.000000    -0.577350     0.577350    -0.577350     0.000000     0.000000     0.000000
   19     1.000000    90.000000     0.000000     0.000000     1.000000     0.000000     0.000000     0.000000
   20    -1.000000    90.000000     0.000000     0.000000     1.000000     0.000000     0.000000     0.000000
   21     1.000000    90.000000    -1.000000     0.000000     0.000000     0.000000     0.000000     0.000000
   22    -1.000000    90.000000    -1.000000     0.000000     0.000000     0.000000     0.000000     0.000000
   23     1.000000   180.000000     0.707107     0.000000     0.707107     0.000000     0.000000     0.000000
   24    -1.000000   180.000000     0.707107     0.000000     0.707107     0.000000     0.000000     0.000000
   25     1.000000   120.000000     0.577350    -0.577350     0.577350     0.000000     0.000000     0.000000
   26    -1.000000   120.000000     0.577350    -0.577350     0.577350     0.000000     0.000000     0.000000
   27     1.000000   120.000000    -0.577350    -0.577350     0.577350     0.000000     0.000000     0.000000
   28    -1.000000   120.000000    -0.577350    -0.577350     0.577350     0.000000     0.000000     0.000000
   29     1.000000   180.000000     1.000000     0.000000     0.000000     0.000000     0.000000     0.000000
   30    -1.000000   180.000000     1.000000     0.000000     0.000000     0.000000     0.000000     0.000000
   31     1.000000    90.000000     0.000000    -1.000000     0.000000     0.000000     0.000000     0.000000
   32    -1.000000    90.000000     0.000000    -1.000000     0.000000     0.000000     0.000000     0.000000
   33     1.000000   180.000000     0.707107     0.707107     0.000000     0.000000     0.000000     0.000000
   34    -1.000000   180.000000     0.707107     0.707107     0.000000     0.000000     0.000000     0.000000
   35     1.000000    90.000000     1.000000     0.000000     0.000000     0.000000     0.000000     0.000000
   36    -1.000000    90.000000     1.000000     0.000000     0.000000     0.000000     0.000000     0.000000
   37     1.000000   120.000000     0.577350    -0.577350    -0.577350     0.000000     0.000000     0.000000
   38    -1.000000   120.000000     0.577350    -0.577350    -0.577350     0.000000     0.000000     0.000000
   39     1.000000   180.000000     0.000000     1.000000     0.000000     0.000000     0.000000     0.000000
   40    -1.000000   180.000000     0.000000     1.000000     0.000000     0.000000     0.000000     0.000000
   41     1.000000   120.000000     0.577350     0.577350    -0.577350     0.000000     0.000000     0.000000
   42    -1.000000   120.000000     0.577350     0.577350    -0.577350     0.000000     0.000000     0.000000
   43     1.000000   180.000000     0.000000    -0.707107     0.707107     0.000000     0.000000     0.000000
   44    -1.000000   180.000000     0.000000    -0.707107     0.707107     0.000000     0.000000     0.000000
   45     1.000000   180.000000     0.707107    -0.707107     0.000000     0.000000     0.000000     0.000000
   46    -1.000000   180.000000     0.707107    -0.707107     0.000000     0.000000     0.000000     0.000000
   47     1.000000   180.000000     0.707107     0.000000    -0.707107     0.000000     0.000000     0.000000
   48    -1.000000   180.000000     0.707107     0.000000    -0.707107     0.000000     0.000000     0.000000
 
 Subroutine IBZKPT returns following result:
 ===========================================
 
 Found    110 irreducible k-points:
 
 Following reciprocal coordinates:
            Coordinates               Weight
  0.050000  0.050000  0.050000     96.000000
  0.150000  0.050000  0.050000    288.000000
  0.250000  0.050000  0.050000    288.000000
  0.350000  0.050000  0.050000    288.000000
  0.450000  0.050000  0.050000    288.000000
 -0.450000  0.050000  0.050000    288.000000
 -0.350000  0.050000  0.050000    288.000000
 -0.250000  0.050000  0.050000    288.000000
 -0.150000  0.050000  0.050000    288.000000
 -0.050000  0.050000  0.050000    288.000000
  0.150000  0.150000  0.050000    288.000000
  0.250000  0.150000  0.050000    576.000000
  0.350000  0.150000  0.050000    576.000000
  0.450000  0.150000  0.050000    576.000000
 -0.450000  0.150000  0.050000    576.000000
 -0.350000  0.150000  0.050000    576.000000
 -0.250000  0.150000  0.050000    576.000000
 -0.150000  0.150000  0.050000    576.000000
 -0.050000  0.150000  0.050000    576.000000
  0.250000  0.250000  0.050000    288.000000
  0.350000  0.250000  0.050000    576.000000
  0.450000  0.250000  0.050000    576.000000
 -0.450000  0.250000  0.050000    576.000000
 -0.350000  0.250000  0.050000    576.000000
 -0.250000  0.250000  0.050000    576.000000
 -0.150000  0.250000  0.050000    576.000000
 -0.050000  0.250000  0.050000    576.000000
  0.350000  0.350000  0.050000    288.000000
  0.450000  0.350000  0.050000    576.000000
 -0.450000  0.350000  0.050000    576.000000
 -0.350000  0.350000  0.050000    576.000000
 -0.250000  0.350000  0.050000    576.000000
 -0.150000  0.350000  0.050000    576.000000
 -0.050000  0.350000  0.050000    576.000000
  0.450000  0.450000  0.050000    288.000000
 -0.450000  0.450000  0.050000    576.000000
 -0.350000  0.450000  0.050000    576.000000
 -0.250000  0.450000  0.050000    576.000000
 -0.150000  0.450000  0.050000    576.000000
 -0.050000  0.450000  0.050000    576.000000
 -0.450000 -0.450000  0.050000    288.000000
 -0.350000 -0.450000  0.050000    576.000000
 -0.250000 -0.450000  0.050000    576.000000
 -0.150000 -0.450000  0.050000    576.000000
 -0.350000 -0.350000  0.050000    288.000000
 -0.250000 -0.350000  0.050000    576.000000
 -0.150000 -0.350000  0.050000    576.000000
 -0.250000 -0.250000  0.050000    288.000000
 -0.150000 -0.250000  0.050000    576.000000
 -0.150000 -0.150000  0.050000    288.000000
  0.150000  0.150000  0.150000     96.000000
  0.250000  0.150000  0.150000    288.000000
  0.350000  0.150000  0.150000    288.000000
  0.450000  0.150000  0.150000    288.000000
 -0.450000  0.150000  0.150000    288.000000
 -0.350000  0.150000  0.150000    288.000000
 -0.250000  0.150000  0.150000    288.000000
 -0.150000  0.150000  0.150000    288.000000
  0.250000  0.250000  0.150000    288.000000
  0.350000  0.250000  0.150000    576.000000
  0.450000  0.250000  0.150000    576.000000
 -0.450000  0.250000  0.150000    576.000000
 -0.350000  0.250000  0.150000    576.000000
 -0.250000  0.250000  0.150000    576.000000
 -0.150000  0.250000  0.150000    576.000000
  0.350000  0.350000  0.150000    288.000000
  0.450000  0.350000  0.150000    576.000000
 -0.450000  0.350000  0.150000    576.000000
 -0.350000  0.350000  0.150000    576.000000
 -0.250000  0.350000  0.150000    576.000000
 -0.150000  0.350000  0.150000    576.000000
  0.450000  0.450000  0.150000    288.000000
 -0.450000  0.450000  0.150000    576.000000
 -0.350000  0.450000  0.150000    576.000000
 -0.250000  0.450000  0.150000    576.000000
 -0.150000  0.450000  0.150000    576.000000
 -0.450000 -0.450000  0.150000    288.000000
 -0.350000 -0.450000  0.150000    576.000000
 -0.250000 -0.450000  0.150000    576.000000
 -0.350000 -0.350000  0.150000    288.000000
 -0.250000 -0.350000  0.150000    576.000000
 -0.250000 -0.250000  0.150000    288.000000
  0.250000  0.250000  0.250000     96.000000
  0.350000  0.250000  0.250000    288.000000
  0.450000  0.250000  0.250000    288.000000
 -0.450000  0.250000  0.250000    288.000000
 -0.350000  0.250000  0.250000    288.000000
 -0.250000  0.250000  0.250000    288.000000
  0.350000  0.350000  0.250000    288.000000
  0.450000  0.350000  0.250000    576.000000
 -0.450000  0.350000  0.250000    576.000000
 -0.350000  0.350000  0.250000    576.000000
 -0.250000  0.350000  0.250000    576.000000
  0.450000  0.450000  0.250000    288.000000
 -0.450000  0.450000  0.250000    576.000000
 -0.350000  0.450000  0.250000    576.000000
 -0.250000  0.450000  0.250000    576.000000
 -0.450000 -0.450000  0.250000    288.000000
 -0.350000 -0.450000  0.250000    576.000000
 -0.350000 -0.350000  0.250000    288.000000
  0.350000  0.350000  0.350000     96.000000
  0.450000  0.350000  0.350000    288.000000
 -0.450000  0.350000  0.350000    288.000000
 -0.350000  0.350000  0.350000    288.000000
  0.450000  0.450000  0.350000    288.000000
 -0.450000  0.450000  0.350000    576.000000
 -0.350000  0.450000  0.350000    576.000000
 -0.450000 -0.450000  0.350000    288.000000
  0.450000  0.450000  0.450000     96.000000
 -0.450000  0.450000  0.450000    288.000000
 
 Following cartesian coordinates:
            Coordinates               Weight
  0.050000  0.050000  0.050000     96.000000
 -0.050000  0.150000  0.150000    288.000000
 -0.150000  0.250000  0.250000    288.000000
 -0.250000  0.350000  0.350000    288.000000
 -0.350000  0.450000  0.450000    288.000000
  0.550000 -0.450000 -0.450000    288.000000
  0.450000 -0.350000 -0.350000    288.000000
  0.350000 -0.250000 -0.250000    288.000000
  0.250000 -0.150000 -0.150000    288.000000
  0.150000 -0.050000 -0.050000    288.000000
  0.050000  0.050000  0.250000    288.000000
 -0.050000  0.150000  0.350000    576.000000
 -0.150000  0.250000  0.450000    576.000000
 -0.250000  0.350000  0.550000    576.000000
  0.650000 -0.550000 -0.350000    576.000000
  0.550000 -0.450000 -0.250000    576.000000
  0.450000 -0.350000 -0.150000    576.000000
  0.350000 -0.250000 -0.050000    576.000000
  0.250000 -0.150000  0.050000    576.000000
  0.050000  0.050000  0.450000    288.000000
 -0.050000  0.150000  0.550000    576.000000
 -0.150000  0.250000  0.650000    576.000000
  0.750000 -0.650000 -0.250000    576.000000
  0.650000 -0.550000 -0.150000    576.000000
  0.550000 -0.450000 -0.050000    576.000000
  0.450000 -0.350000  0.050000    576.000000
  0.350000 -0.250000  0.150000    576.000000
  0.050000  0.050000  0.650000    288.000000
 -0.050000  0.150000  0.750000    576.000000
  0.850000 -0.750000 -0.150000    576.000000
  0.750000 -0.650000 -0.050000    576.000000
  0.650000 -0.550000  0.050000    576.000000
  0.550000 -0.450000  0.150000    576.000000
  0.450000 -0.350000  0.250000    576.000000
  0.050000  0.050000  0.850000    288.000000
  0.950000 -0.850000 -0.050000    576.000000
  0.850000 -0.750000  0.050000    576.000000
  0.750000 -0.650000  0.150000    576.000000
  0.650000 -0.550000  0.250000    576.000000
  0.550000 -0.450000  0.350000    576.000000
  0.050000  0.050000 -0.950000    288.000000
 -0.050000  0.150000 -0.850000    576.000000
 -0.150000  0.250000 -0.750000    576.000000
 -0.250000  0.350000 -0.650000    576.000000
  0.050000  0.050000 -0.750000    288.000000
 -0.050000  0.150000 -0.650000    576.000000
 -0.150000  0.250000 -0.550000    576.000000
  0.050000  0.050000 -0.550000    288.000000
 -0.050000  0.150000 -0.450000    576.000000
  0.050000  0.050000 -0.350000    288.000000
  0.150000  0.150000  0.150000     96.000000
  0.050000  0.250000  0.250000    288.000000
 -0.050000  0.350000  0.350000    288.000000
 -0.150000  0.450000  0.450000    288.000000
  0.750000 -0.450000 -0.450000    288.000000
  0.650000 -0.350000 -0.350000    288.000000
  0.550000 -0.250000 -0.250000    288.000000
  0.450000 -0.150000 -0.150000    288.000000
  0.150000  0.150000  0.350000    288.000000
  0.050000  0.250000  0.450000    576.000000
 -0.050000  0.350000  0.550000    576.000000
  0.850000 -0.550000 -0.350000    576.000000
  0.750000 -0.450000 -0.250000    576.000000
  0.650000 -0.350000 -0.150000    576.000000
  0.550000 -0.250000 -0.050000    576.000000
  0.150000  0.150000  0.550000    288.000000
  0.050000  0.250000  0.650000    576.000000
  0.950000 -0.650000 -0.250000    576.000000
  0.850000 -0.550000 -0.150000    576.000000
  0.750000 -0.450000 -0.050000    576.000000
  0.650000 -0.350000  0.050000    576.000000
  0.150000  0.150000  0.750000    288.000000
  1.050000 -0.750000 -0.150000    576.000000
  0.950000 -0.650000 -0.050000    576.000000
  0.850000 -0.550000  0.050000    576.000000
  0.750000 -0.450000  0.150000    576.000000
  0.150000  0.150000 -1.050000    288.000000
  0.050000  0.250000 -0.950000    576.000000
 -0.050000  0.350000 -0.850000    576.000000
  0.150000  0.150000 -0.850000    288.000000
  0.050000  0.250000 -0.750000    576.000000
  0.150000  0.150000 -0.650000    288.000000
  0.250000  0.250000  0.250000     96.000000
  0.150000  0.350000  0.350000    288.000000
  0.050000  0.450000  0.450000    288.000000
  0.950000 -0.450000 -0.450000    288.000000
  0.850000 -0.350000 -0.350000    288.000000
  0.750000 -0.250000 -0.250000    288.000000
  0.250000  0.250000  0.450000    288.000000
  0.150000  0.350000  0.550000    576.000000
  1.050000 -0.550000 -0.350000    576.000000
  0.950000 -0.450000 -0.250000    576.000000
  0.850000 -0.350000 -0.150000    576.000000
  0.250000  0.250000  0.650000    288.000000
  1.150000 -0.650000 -0.250000    576.000000
  1.050000 -0.550000 -0.150000    576.000000
  0.950000 -0.450000 -0.050000    576.000000
  0.250000  0.250000 -1.150000    288.000000
  0.150000  0.350000 -1.050000    576.000000
  0.250000  0.250000 -0.950000    288.000000
  0.350000  0.350000  0.350000     96.000000
  0.250000  0.450000  0.450000    288.000000
  1.150000 -0.450000 -0.450000    288.000000
  1.050000 -0.350000 -0.350000    288.000000
  0.350000  0.350000  0.550000    288.000000
  1.250000 -0.550000 -0.350000    576.000000
  1.150000 -0.450000 -0.250000    576.000000
  0.350000  0.350000 -1.250000    288.000000
  0.450000  0.450000  0.450000     96.000000
  1.350000 -0.450000 -0.450000    288.000000
 


--------------------------------------------------------------------------------------------------------




 Dimension of arrays:
   k-points           NKPTS =    110   k-points in BZ     NKDIM =    110   number of bands    NBANDS=     12
   number of dos      NEDOS =    301   number of ions     NIONS =      1
   non local maximal  LDIM  =      6   non local SUM 2l+1 LMDIM =     18
   total plane-waves  NPLWV =   1728
   max r-space proj   IRMAX =      1   max aug-charges    IRDMAX=   6497
   dimension x,y,z NGX =    12 NGY =   12 NGZ =   12
   dimension x,y,z NGXF=    24 NGYF=   24 NGZF=   24
   support grid    NGXF=    24 NGYF=   24 NGZF=   24
   ions per type =               1
   NGX,Y,Z   is equivalent  to a cutoff of   6.94,  6.94,  6.94 a.u.
   NGXF,Y,Z  is equivalent  to a cutoff of  13.89, 13.89, 13.89 a.u.

 SYSTEM =  fcc Au                                  
 POSCAR =  Au bulk FCC                             

 Startparameter for this run:
   NWRITE =      2    write-flag & timer
   PREC   = normal    normal or accurate (medium, high low for compatibility)
   ISTART =      0    job   : 0-new  1-cont  2-samecut
   ICHARG =      2    charge: 1-file 2-atom 10-const
   ISPIN  =      1    spin polarized calculation?
   LNONCOLLINEAR =      F non collinear calculations
   LSORBIT =      F    spin-orbit coupling
   INIWAV =      1    electr: 0-lowe 1-rand  2-diag
   LASPH  =      F    aspherical Exc in radial PAW
   METAGGA=      F    non-selfconsistent MetaGGA calc.

 Electronic Relaxation 1
   ENCUT  =  230.0 eV  16.90 Ry    4.11 a.u.   3.55  3.55  3.55*2*pi/ulx,y,z
   ENINI  =  230.0     initial cutoff
   ENAUG  =  356.7 eV  augmentation charge cutoff
   NELM   =     60;   NELMIN=  2; NELMDL= -5     # of ELM steps 
   EDIFF  = 0.1E-03   stopping-criterion for ELM
   LREAL  =      F    real-space projection
   NLSPLINE    = F    spline interpolate recip. space projectors
   LCOMPAT=      F    compatible to vasp.4.4
   GGA_COMPAT  = T    GGA compatible to vasp.4.4-vasp.4.6
   LMAXPAW     = -100 max onsite density
   LMAXMIX     =    2 max onsite mixed and CHGCAR
   VOSKOWN=      0    Vosko Wilk Nusair interpolation
   ROPT   =    0.00000
 Ionic relaxation
   EDIFFG = 0.1E-02   stopping-criterion for IOM
   NSW    =      0    number of steps for IOM
   NBLOCK =      1;   KBLOCK =      1    inner block; outer block 
   IBRION =     -1    ionic relax: 0-MD 1-quasi-New 2-CG
   NFREE  =      0    steps in history (QN), initial steepest desc. (CG)
   ISIF   =      2    stress and relaxation
   IWAVPR =     10    prediction:  0-non 1-charg 2-wave 3-comb
   ISYM   =      2    0-nonsym 1-usesym 2-fastsym
   LCORR  =      T    Harris-Foulkes like correction to forces

   POTIM  = 0.5000    time-step for ionic-motion
   TEIN   =    0.0    initial temperature
   TEBEG  =    0.0;   TEEND  =   0.0 temperature during run
   SMASS  =  -3.00    Nose mass-parameter (am)
   estimated Nose-frequenzy (Omega)   =  0.10E-29 period in steps =****** mass=  -0.189E-27a.u.
   SCALEE = 1.0000    scale energy and forces
   NPACO  =    256;   APACO  = 16.0  distance and # of slots for P.C.
   PSTRESS=    0.0 pullay stress

  Mass of Ions in am
   POMASS = 196.97
  Ionic Valenz
   ZVAL   =  11.00
  Atomic Wigner-Seitz radii
   RWIGS  =  -1.00
  virtual crystal weights 
   VCA    =   1.00
   NELECT =      11.0000    total number of electrons
   NUPDOWN=      -1.0000    fix difference up-down

 DOS related values:
   EMIN   =  10.00;   EMAX   =-10.00  energy-range for DOS
   EFERMI =   0.00
   ISMEAR =     1;   SIGMA  =   0.20  broadening in eV -4-tet -1-fermi 0-gaus

 Electronic relaxation 2 (details)
   IALGO  =     38    algorithm
   LDIAG  =      T    sub-space diagonalisation (order eigenvalues)
   LSUBROT=      F    optimize rotation matrix (better conditioning)
   TURBO    =      0    0=normal 1=particle mesh
   IRESTART =      0    0=no restart 2=restart with 2 vectors
   NREBOOT  =      0    no. of reboots
   NMIN     =      0    reboot dimension
   EREF     =   0.00    reference energy to select bands
   IMIX   =      4    mixing-type and parameters
     AMIX     =   0.40;   BMIX     =  1.00
     AMIX_MAG =   1.60;   BMIX_MAG =  1.00
     AMIN     =   0.10
     WC   =   100.;   INIMIX=   1;  MIXPRE=   1;  MAXMIX= -45

 Intra band minimization:
   WEIMIN = 0.0000     energy-eigenvalue tresh-hold
   EBREAK =  0.21E-05  absolut break condition
   DEPER  =   0.30     relativ break condition  

   TIME   =   0.40     timestep for ELM

  volume/ion in A,a.u.               =      16.78       113.22
  Fermi-wavevector in a.u.,A,eV,Ry     =   1.422202  2.687571 27.519921  2.022657
  Thomas-Fermi vector in A             =   2.542930
 
 Write flags
   LWAVE        =      T    write WAVECAR
   LDOWNSAMPLE  =      F    k-point downsampling of WAVECAR
   LCHARG       =      T    write CHGCAR
   LVTOT        =      F    write LOCPOT, total local potential
   LVHAR        =      F    write LOCPOT, Hartree potential only
   LELF         =      F    write electronic localiz. function (ELF)
   LORBIT       =      0    0 simple, 1 ext, 2 COOP (PROOUT), +10 PAW based schemes


 Dipole corrections
   LMONO  =      F    monopole corrections only (constant potential shift)
   LDIPOL =      F    correct potential (dipole corrections)
   IDIPOL =      0    1-x, 2-y, 3-z, 4-all directions 
   EPSILON=  1.0000000 bulk dielectric constant

 Exchange correlation treatment:
   GGA     =    --    GGA type
   LEXCH   =     2    internal setting for exchange type
   VOSKOWN=      0    Vosko Wilk Nusair interpolation
   LHFCALC =     F    Hartree Fock is set to
   LHFONE  =     F    Hartree Fock one center treatment
   AEXX    =    0.0000 exact exchange contribution

 Linear response parameters
   LEPSILON=     F    determine dielectric tensor
   LRPA    =     F    only Hartree local field effects (RPA)
   LNABLA  =     F    use nabla operator in PAW spheres
   LVEL    =     F    velocity operator in full k-point grid
   LINTERFAST=   F  fast interpolation
   KINTER  =     0    interpolate to denser k-point grid
   CSHIFT  =0.1000    complex shift for real part using Kramers Kronig
   OMEGAMAX=  -1.0    maximum frequency
   DEG_THRESHOLD= 0.2000000E-02 threshold for treating states as degnerate
   RTIME   =   -0.100 relaxation time in fs
  (WPLASMAI=    0.000 imaginary part of plasma frequency in eV, 0.658/RTIME)
   DFIELD  = 0.0000000 0.0000000 0.0000000 field for delta impulse in time
 
 Orbital magnetization related:
   ORBITALMAG=     F  switch on orbital magnetization
   LCHIMAG   =     F  perturbation theory with respect to B field
   DQ        =  0.001000  dq finite difference perturbation B field
   LLRAUG    =     F  two centre corrections for induced B field



--------------------------------------------------------------------------------------------------------


 Static calculation
 charge density and potential will be updated during run
 non-spin polarized calculation
 Variant of blocked Davidson
 Davidson routine will perform the subspace rotation
 perform sub-space diagonalisation
    after iterative eigenvector-optimisation
 modified Broyden-mixing scheme, WC =      100.0
 initial mixing is a Kerker type mixing with AMIX =  0.4000 and BMIX =      1.0000
 Hartree-type preconditioning will be used
 using additional bands            6
 reciprocal scheme for non local part
 use partial core corrections
 calculate Harris-corrections to forces 
   (improved forces if not selfconsistent)
 use of overlap-Matrix (Vanderbilt PP)
 Methfessel and Paxton  Order N= 1 SIGMA  =   0.20


--------------------------------------------------------------------------------------------------------


  energy-cutoff  :      230.00
  volume of cell :       16.78
      direct lattice vectors                 reciprocal lattice vectors
     0.000000000  2.031895000  2.031895000    -0.246075708  0.246075708  0.246075708
     2.031895000  0.000000000  2.031895000     0.246075708 -0.246075708  0.246075708
     2.031895000  2.031895000  0.000000000     0.246075708  0.246075708 -0.246075708

  length of vectors
     2.873533466  2.873533466  2.873533466     0.426215628  0.426215628  0.426215628


 
 k-points in units of 2pi/SCALE and weight: 10x10x10                                
   0.05000000  0.05000000  0.05000000       0.002
  -0.05000000  0.15000000  0.15000000       0.006
  -0.15000000  0.25000000  0.25000000       0.006
  -0.25000000  0.35000000  0.35000000       0.006
  -0.35000000  0.45000000  0.45000000       0.006
   0.55000000 -0.45000000 -0.45000000       0.006
   0.45000000 -0.35000000 -0.35000000       0.006
   0.35000000 -0.25000000 -0.25000000       0.006
   0.25000000 -0.15000000 -0.15000000       0.006
   0.15000000 -0.05000000 -0.05000000       0.006
   0.05000000  0.05000000  0.25000000       0.006
  -0.05000000  0.15000000  0.35000000       0.012
  -0.15000000  0.25000000  0.45000000       0.012
  -0.25000000  0.35000000  0.55000000       0.012
   0.65000000 -0.55000000 -0.35000000       0.012
   0.55000000 -0.45000000 -0.25000000       0.012
   0.45000000 -0.35000000 -0.15000000       0.012
   0.35000000 -0.25000000 -0.05000000       0.012
   0.25000000 -0.15000000  0.05000000       0.012
   0.05000000  0.05000000  0.45000000       0.006
  -0.05000000  0.15000000  0.55000000       0.012
  -0.15000000  0.25000000  0.65000000       0.012
   0.75000000 -0.65000000 -0.25000000       0.012
   0.65000000 -0.55000000 -0.15000000       0.012
   0.55000000 -0.45000000 -0.05000000       0.012
   0.45000000 -0.35000000  0.05000000       0.012
   0.35000000 -0.25000000  0.15000000       0.012
   0.05000000  0.05000000  0.65000000       0.006
  -0.05000000  0.15000000  0.75000000       0.012
   0.85000000 -0.75000000 -0.15000000       0.012
   0.75000000 -0.65000000 -0.05000000       0.012
   0.65000000 -0.55000000  0.05000000       0.012
   0.55000000 -0.45000000  0.15000000       0.012
   0.45000000 -0.35000000  0.25000000       0.012
   0.05000000  0.05000000  0.85000000       0.006
   0.95000000 -0.85000000 -0.05000000       0.012
   0.85000000 -0.75000000  0.05000000       0.012
   0.75000000 -0.65000000  0.15000000       0.012
   0.65000000 -0.55000000  0.25000000       0.012
   0.55000000 -0.45000000  0.35000000       0.012
   0.05000000  0.05000000 -0.95000000       0.006
  -0.05000000  0.15000000 -0.85000000       0.012
  -0.15000000  0.25000000 -0.75000000       0.012
  -0.25000000  0.35000000 -0.65000000       0.012
   0.05000000  0.05000000 -0.75000000       0.006
  -0.05000000  0.15000000 -0.65000000       0.012
  -0.15000000  0.25000000 -0.55000000       0.012
   0.05000000  0.05000000 -0.55000000       0.006
  -0.05000000  0.15000000 -0.45000000       0.012
   0.05000000  0.05000000 -0.35000000       0.006
   0.15000000  0.15000000  0.15000000       0.002
   0.05000000  0.25000000  0.25000000       0.006
  -0.05000000  0.35000000  0.35000000       0.006
  -0.15000000  0.45000000  0.45000000       0.006
   0.75000000 -0.45000000 -0.45000000       0.006
   0.65000000 -0.35000000 -0.35000000       0.006
   0.55000000 -0.25000000 -0.25000000       0.006
   0.45000000 -0.15000000 -0.15000000       0.006
   0.15000000  0.15000000  0.35000000       0.006
   0.05000000  0.25000000  0.45000000       0.012
  -0.05000000  0.35000000  0.55000000       0.012
   0.85000000 -0.55000000 -0.35000000       0.012
   0.75000000 -0.45000000 -0.25000000       0.012
   0.65000000 -0.35000000 -0.15000000       0.012
   0.55000000 -0.25000000 -0.05000000       0.012
   0.15000000  0.15000000  0.55000000       0.006
   0.05000000  0.25000000  0.65000000       0.012
   0.95000000 -0.65000000 -0.25000000       0.012
   0.85000000 -0.55000000 -0.15000000       0.012
   0.75000000 -0.45000000 -0.05000000       0.012
   0.65000000 -0.35000000  0.05000000       0.012
   0.15000000  0.15000000  0.75000000       0.006
   1.05000000 -0.75000000 -0.15000000       0.012
   0.95000000 -0.65000000 -0.05000000       0.012
   0.85000000 -0.55000000  0.05000000       0.012
   0.75000000 -0.45000000  0.15000000       0.012
   0.15000000  0.15000000 -1.05000000       0.006
   0.05000000  0.25000000 -0.95000000       0.012
  -0.05000000  0.35000000 -0.85000000       0.012
   0.15000000  0.15000000 -0.85000000       0.006
   0.05000000  0.25000000 -0.75000000       0.012
   0.15000000  0.15000000 -0.65000000       0.006
   0.25000000  0.25000000  0.25000000       0.002
   0.15000000  0.35000000  0.35000000       0.006
   0.05000000  0.45000000  0.45000000       0.006
   0.95000000 -0.45000000 -0.45000000       0.006
   0.85000000 -0.35000000 -0.35000000       0.006
   0.75000000 -0.25000000 -0.25000000       0.006
   0.25000000  0.25000000  0.45000000       0.006
   0.15000000  0.35000000  0.55000000       0.012
   1.05000000 -0.55000000 -0.35000000       0.012
   0.95000000 -0.45000000 -0.25000000       0.012
   0.85000000 -0.35000000 -0.15000000       0.012
   0.25000000  0.25000000  0.65000000       0.006
   1.15000000 -0.65000000 -0.25000000       0.012
   1.05000000 -0.55000000 -0.15000000       0.012
   0.95000000 -0.45000000 -0.05000000       0.012
   0.25000000  0.25000000 -1.15000000       0.006
   0.15000000  0.35000000 -1.05000000       0.012
   0.25000000  0.25000000 -0.95000000       0.006
   0.35000000  0.35000000  0.35000000       0.002
   0.25000000  0.45000000  0.45000000       0.006
   1.15000000 -0.45000000 -0.45000000       0.006
   1.05000000 -0.35000000 -0.35000000       0.006
   0.35000000  0.35000000  0.55000000       0.006
   1.25000000 -0.55000000 -0.35000000       0.012
   1.15000000 -0.45000000 -0.25000000       0.012
   0.35000000  0.35000000 -1.25000000       0.006
   0.45000000  0.45000000  0.45000000       0.002
   1.35000000 -0.45000000 -0.45000000       0.006
 
 k-points in reciprocal lattice and weights: 10x10x10                                
   0.05000000  0.05000000  0.05000000       0.002
   0.15000000  0.05000000  0.05000000       0.006
   0.25000000  0.05000000  0.05000000       0.006
   0.35000000  0.05000000  0.05000000       0.006
   0.45000000  0.05000000  0.05000000       0.006
  -0.45000000  0.05000000  0.05000000       0.006
  -0.35000000  0.05000000  0.05000000       0.006
  -0.25000000  0.05000000  0.05000000       0.006
  -0.15000000  0.05000000  0.05000000       0.006
  -0.05000000  0.05000000  0.05000000       0.006
   0.15000000  0.15000000  0.05000000       0.006
   0.25000000  0.15000000  0.05000000       0.012
   0.35000000  0.15000000  0.05000000       0.012
   0.45000000  0.15000000  0.05000000       0.012
  -0.45000000  0.15000000  0.05000000       0.012
  -0.35000000  0.15000000  0.05000000       0.012
  -0.25000000  0.15000000  0.05000000       0.012
  -0.15000000  0.15000000  0.05000000       0.012
  -0.05000000  0.15000000  0.05000000       0.012
   0.25000000  0.25000000  0.05000000       0.006
   0.35000000  0.25000000  0.05000000       0.012
   0.45000000  0.25000000  0.05000000       0.012
  -0.45000000  0.25000000  0.05000000       0.012
  -0.35000000  0.25000000  0.05000000       0.012
  -0.25000000  0.25000000  0.05000000       0.012
  -0.15000000  0.25000000  0.05000000       0.012
  -0.05000000  0.25000000  0.05000000       0.012
   0.35000000  0.35000000  0.05000000       0.006
   0.45000000  0.35000000  0.05000000       0.012
  -0.45000000  0.35000000  0.05000000       0.012
  -0.35000000  0.35000000  0.05000000       0.012
  -0.25000000  0.35000000  0.05000000       0.012
  -0.15000000  0.35000000  0.05000000       0.012
  -0.05000000  0.35000000  0.05000000       0.012
   0.45000000  0.45000000  0.05000000       0.006
  -0.45000000  0.45000000  0.05000000       0.012
  -0.35000000  0.45000000  0.05000000       0.012
  -0.25000000  0.45000000  0.05000000       0.012
  -0.15000000  0.45000000  0.05000000       0.012
  -0.05000000  0.45000000  0.05000000       0.012
  -0.45000000 -0.45000000  0.05000000       0.006
  -0.35000000 -0.45000000  0.05000000       0.012
  -0.25000000 -0.45000000  0.05000000       0.012
  -0.15000000 -0.45000000  0.05000000       0.012
  -0.35000000 -0.35000000  0.05000000       0.006
  -0.25000000 -0.35000000  0.05000000       0.012
  -0.15000000 -0.35000000  0.05000000       0.012
  -0.25000000 -0.25000000  0.05000000       0.006
  -0.15000000 -0.25000000  0.05000000       0.012
  -0.15000000 -0.15000000  0.05000000       0.006
   0.15000000  0.15000000  0.15000000       0.002
   0.25000000  0.15000000  0.15000000       0.006
   0.35000000  0.15000000  0.15000000       0.006
   0.45000000  0.15000000  0.15000000       0.006
  -0.45000000  0.15000000  0.15000000       0.006
  -0.35000000  0.15000000  0.15000000       0.006
  -0.25000000  0.15000000  0.15000000       0.006
  -0.15000000  0.15000000  0.15000000       0.006
   0.25000000  0.25000000  0.15000000       0.006
   0.35000000  0.25000000  0.15000000       0.012
   0.45000000  0.25000000  0.15000000       0.012
  -0.45000000  0.25000000  0.15000000       0.012
  -0.35000000  0.25000000  0.15000000       0.012
  -0.25000000  0.25000000  0.15000000       0.012
  -0.15000000  0.25000000  0.15000000       0.012
   0.35000000  0.35000000  0.15000000       0.006
   0.45000000  0.35000000  0.15000000       0.012
  -0.45000000  0.35000000  0.15000000       0.012
  -0.35000000  0.35000000  0.15000000       0.012
  -0.25000000  0.35000000  0.15000000       0.012
  -0.15000000  0.35000000  0.15000000       0.012
   0.45000000  0.45000000  0.15000000       0.006
  -0.45000000  0.45000000  0.15000000       0.012
  -0.35000000  0.45000000  0.15000000       0.012
  -0.25000000  0.45000000  0.15000000       0.012
  -0.15000000  0.45000000  0.15000000       0.012
  -0.45000000 -0.45000000  0.15000000       0.006
  -0.35000000 -0.45000000  0.15000000       0.012
  -0.25000000 -0.45000000  0.15000000       0.012
  -0.35000000 -0.35000000  0.15000000       0.006
  -0.25000000 -0.35000000  0.15000000       0.012
  -0.25000000 -0.25000000  0.15000000       0.006
   0.25000000  0.25000000  0.25000000       0.002
   0.35000000  0.25000000  0.25000000       0.006
   0.45000000  0.25000000  0.25000000       0.006
  -0.45000000  0.25000000  0.25000000       0.006
  -0.35000000  0.25000000  0.25000000       0.006
  -0.25000000  0.25000000  0.25000000       0.006
   0.35000000  0.35000000  0.25000000       0.006
   0.45000000  0.35000000  0.25000000       0.012
  -0.45000000  0.35000000  0.25000000       0.012
  -0.35000000  0.35000000  0.25000000       0.012
  -0.25000000  0.35000000  0.25000000       0.012
   0.45000000  0.45000000  0.25000000       0.006
  -0.45000000  0.45000000  0.25000000       0.012
  -0.35000000  0.45000000  0.25000000       0.012
  -0.25000000  0.45000000  0.25000000       0.012
  -0.45000000 -0.45000000  0.25000000       0.006
  -0.35000000 -0.45000000  0.25000000       0.012
  -0.35000000 -0.35000000  0.25000000       0.006
   0.35000000  0.35000000  0.35000000       0.002
   0.45000000  0.35000000  0.35000000       0.006
  -0.45000000  0.35000000  0.35000000       0.006
  -0.35000000  0.35000000  0.35000000       0.006
   0.45000000  0.45000000  0.35000000       0.006
  -0.45000000  0.45000000  0.35000000       0.012
  -0.35000000  0.45000000  0.35000000       0.012
  -0.45000000 -0.45000000  0.35000000       0.006
   0.45000000  0.45000000  0.45000000       0.002
  -0.45000000  0.45000000  0.45000000       0.006
 
 position of ions in fractional coordinates (direct lattice) 
   0.00000000  0.00000000  0.00000000
 
 position of ions in cartesian coordinates  (Angst):
   0.00000000  0.00000000  0.00000000
 


--------------------------------------------------------------------------------------------------------


 k-point  1 :   0.0500 0.0500 0.0500  plane waves:     137
 k-point  2 :   0.1500 0.0500 0.0500  plane waves:     135
 k-point  3 :   0.2500 0.0500 0.0500  plane waves:     137
 k-point  4 :   0.3500 0.0500 0.0500  plane waves:     141
 k-point  5 :   0.4500 0.0500 0.0500  plane waves:     135
 k-point  6 :  -0.4500 0.0500 0.0500  plane waves:     135
 k-point  7 :  -0.3500 0.0500 0.0500  plane waves:     139
 k-point  8 :  -0.2500 0.0500 0.0500  plane waves:     141
 k-point  9 :  -0.1500 0.0500 0.0500  plane waves:     137
 k-point 10 :  -0.0500 0.0500 0.0500  plane waves:     136
 k-point 11 :   0.1500 0.1500 0.0500  plane waves:     134
 k-point 12 :   0.2500 0.1500 0.0500  plane waves:     136
 k-point 13 :   0.3500 0.1500 0.0500  plane waves:     138
 k-point 14 :   0.4500 0.1500 0.0500  plane waves:     134
 k-point 15 :  -0.4500 0.1500 0.0500  plane waves:     132
 k-point 16 :  -0.3500 0.1500 0.0500  plane waves:     134
 k-point 17 :  -0.2500 0.1500 0.0500  plane waves:     137
 k-point 18 :  -0.1500 0.1500 0.0500  plane waves:     137
 k-point 19 :  -0.0500 0.1500 0.0500  plane waves:     137
 k-point 20 :   0.2500 0.2500 0.0500  plane waves:     133
 k-point 21 :   0.3500 0.2500 0.0500  plane waves:     135
 k-point 22 :   0.4500 0.2500 0.0500  plane waves:     136
 k-point 23 :  -0.4500 0.2500 0.0500  plane waves:     131
 k-point 24 :  -0.3500 0.2500 0.0500  plane waves:     129
 k-point 25 :  -0.2500 0.2500 0.0500  plane waves:     134
 k-point 26 :  -0.1500 0.2500 0.0500  plane waves:     138
 k-point 27 :  -0.0500 0.2500 0.0500  plane waves:     137
 k-point 28 :   0.3500 0.3500 0.0500  plane waves:     129
 k-point 29 :   0.4500 0.3500 0.0500  plane waves:     131
 k-point 30 :  -0.4500 0.3500 0.0500  plane waves:     129
 k-point 31 :  -0.3500 0.3500 0.0500  plane waves:     131
 k-point 32 :  -0.2500 0.3500 0.0500  plane waves:     131
 k-point 33 :  -0.1500 0.3500 0.0500  plane waves:     133
 k-point 34 :  -0.0500 0.3500 0.0500  plane waves:     137
 k-point 35 :   0.4500 0.4500 0.0500  plane waves:     129
 k-point 36 :  -0.4500 0.4500 0.0500  plane waves:     128
 k-point 37 :  -0.3500 0.4500 0.0500  plane waves:     130
 k-point 38 :  -0.2500 0.4500 0.0500  plane waves:     131
 k-point 39 :  -0.1500 0.4500 0.0500  plane waves:     129
 k-point 40 :  -0.0500 0.4500 0.0500  plane waves:     133
 k-point 41 :  -0.4500-0.4500 0.0500  plane waves:     125
 k-point 42 :  -0.3500-0.4500 0.0500  plane waves:     129
 k-point 43 :  -0.2500-0.4500 0.0500  plane waves:     130
 k-point 44 :  -0.1500-0.4500 0.0500  plane waves:     133
 k-point 45 :  -0.3500-0.3500 0.0500  plane waves:     129
 k-point 46 :  -0.2500-0.3500 0.0500  plane waves:     132
 k-point 47 :  -0.1500-0.3500 0.0500  plane waves:     136
 k-point 48 :  -0.2500-0.2500 0.0500  plane waves:     133
 k-point 49 :  -0.1500-0.2500 0.0500  plane waves:     137
 k-point 50 :  -0.1500-0.1500 0.0500  plane waves:     134
 k-point 51 :   0.1500 0.1500 0.1500  plane waves:     132
 k-point 52 :   0.2500 0.1500 0.1500  plane waves:     139
 k-point 53 :   0.3500 0.1500 0.1500  plane waves:     137
 k-point 54 :   0.4500 0.1500 0.1500  plane waves:     135
 k-point 55 :  -0.4500 0.1500 0.1500  plane waves:     131
 k-point 56 :  -0.3500 0.1500 0.1500  plane waves:     134
 k-point 57 :  -0.2500 0.1500 0.1500  plane waves:     136
 k-point 58 :  -0.1500 0.1500 0.1500  plane waves:     138
 k-point 59 :   0.2500 0.2500 0.1500  plane waves:     138
 k-point 60 :   0.3500 0.2500 0.1500  plane waves:     136
 k-point 61 :   0.4500 0.2500 0.1500  plane waves:     138
 k-point 62 :  -0.4500 0.2500 0.1500  plane waves:     133
 k-point 63 :  -0.3500 0.2500 0.1500  plane waves:     131
 k-point 64 :  -0.2500 0.2500 0.1500  plane waves:     134
 k-point 65 :  -0.1500 0.2500 0.1500  plane waves:     135
 k-point 66 :   0.3500 0.3500 0.1500  plane waves:     136
 k-point 67 :   0.4500 0.3500 0.1500  plane waves:     133
 k-point 68 :  -0.4500 0.3500 0.1500  plane waves:     131
 k-point 69 :  -0.3500 0.3500 0.1500  plane waves:     131
 k-point 70 :  -0.2500 0.3500 0.1500  plane waves:     131
 k-point 71 :  -0.1500 0.3500 0.1500  plane waves:     132
 k-point 72 :   0.4500 0.4500 0.1500  plane waves:     131
 k-point 73 :  -0.4500 0.4500 0.1500  plane waves:     129
 k-point 74 :  -0.3500 0.4500 0.1500  plane waves:     130
 k-point 75 :  -0.2500 0.4500 0.1500  plane waves:     128
 k-point 76 :  -0.1500 0.4500 0.1500  plane waves:     133
 k-point 77 :  -0.4500-0.4500 0.1500  plane waves:     131
 k-point 78 :  -0.3500-0.4500 0.1500  plane waves:     130
 k-point 79 :  -0.2500-0.4500 0.1500  plane waves:     130
 k-point 80 :  -0.3500-0.3500 0.1500  plane waves:     129
 k-point 81 :  -0.2500-0.3500 0.1500  plane waves:     130
 k-point 82 :  -0.2500-0.2500 0.1500  plane waves:     134
 k-point 83 :   0.2500 0.2500 0.2500  plane waves:     138
 k-point 84 :   0.3500 0.2500 0.2500  plane waves:     138
 k-point 85 :   0.4500 0.2500 0.2500  plane waves:     137
 k-point 86 :  -0.4500 0.2500 0.2500  plane waves:     135
 k-point 87 :  -0.3500 0.2500 0.2500  plane waves:     129
 k-point 88 :  -0.2500 0.2500 0.2500  plane waves:     132
 k-point 89 :   0.3500 0.3500 0.2500  plane waves:     140
 k-point 90 :   0.4500 0.3500 0.2500  plane waves:     135
 k-point 91 :  -0.4500 0.3500 0.2500  plane waves:     132
 k-point 92 :  -0.3500 0.3500 0.2500  plane waves:     131
 k-point 93 :  -0.2500 0.3500 0.2500  plane waves:     130
 k-point 94 :   0.4500 0.4500 0.2500  plane waves:     134
 k-point 95 :  -0.4500 0.4500 0.2500  plane waves:     130
 k-point 96 :  -0.3500 0.4500 0.2500  plane waves:     132
 k-point 97 :  -0.2500 0.4500 0.2500  plane waves:     130
 k-point 98 :  -0.4500-0.4500 0.2500  plane waves:     130
 k-point 99 :  -0.3500-0.4500 0.2500  plane waves:     129
 k-point ** :  -0.3500-0.3500 0.2500  plane waves:     130
 k-point ** :   0.3500 0.3500 0.3500  plane waves:     138
 k-point ** :   0.4500 0.3500 0.3500  plane waves:     135
 k-point ** :  -0.4500 0.3500 0.3500  plane waves:     131
 k-point ** :  -0.3500 0.3500 0.3500  plane waves:     129
 k-point ** :   0.4500 0.4500 0.3500  plane waves:     132
 k-point ** :  -0.4500 0.4500 0.3500  plane waves:     132
 k-point ** :  -0.3500 0.4500 0.3500  plane waves:     129
 k-point ** :  -0.4500-0.4500 0.3500  plane waves:     129
 k-point ** :   0.4500 0.4500 0.4500  plane waves:     135
 k-point ** :  -0.4500 0.4500 0.4500  plane waves:     129

 maximum and minimum number of plane-waves per node :       141      125

 maximum number of plane-waves:       141
 maximum index in each direction: 
   IXMAX=    3   IYMAX=    3   IZMAX=    3
   IXMIN=   -4   IYMIN=   -3   IZMIN=   -3


 serial   3D FFT for wavefunctions
 parallel 3D FFT for charge:
    minimum data exchange during FFTs selected (reduces bandwidth)


 total amount of memory used by VASP MPI-rank0    33732. kBytes
=======================================================================

   base      :      30000. kBytes
   nonl-proj :       2283. kBytes
   fftplans  :        238. kBytes
   grid      :        331. kBytes
   one-center:         15. kBytes
   wavefun   :        865. kBytes
 
     INWAV:  cpu time    0.0001: real time    0.0002
 Broyden mixing: mesh for mixing (old mesh)
   NGX =  7   NGY =  7   NGZ =  7
  (NGX  = 24   NGY  = 24   NGZ  = 24)
  gives a total of    343 points

 initial charge density was supplied:
 charge density of overlapping atoms calculated
 number of electron      11.0000000 magnetization 
 keeping initial charge density in first step


--------------------------------------------------------------------------------------------------------


 Maximum index for augmentation-charges         1509 (set IRDMAX)


--------------------------------------------------------------------------------------------------------


 First call to EWALD:  gamma=   0.692
 Maximum number of real-space cells 3x 3x 3
 Maximum number of reciprocal cells 3x 3x 3

    FEWALD:  cpu time    0.0013: real time    0.0013


--------------------------------------- Iteration      1(   1)  ---------------------------------------


    POTLOK:  cpu time    0.0021: real time    0.0253
    SETDIJ:  cpu time    0.0017: real time    0.0017
     EDDAV:  cpu time    0.1973: real time    0.2122
       DOS:  cpu time    0.0014: real time    0.0019
    --------------------------------------------
      LOOP:  cpu time    0.2026: real time    0.2412

 eigenvalue-minimisations  :  3192
 total energy-change (2. order) : 0.3169934E+02  (-0.3509980E+03)
 number of electron      11.0000000 magnetization 
 augmentation part       11.0000000 magnetization 

 Free energy of the ion-electron system (eV)
  ---------------------------------------------------
  alpha Z        PSCENC =       109.54264301
  Ewald energy   TEWEN  =      -982.89350627
  -Hartree energ DENC   =      -120.88611528
  -exchange      EXHF   =         0.00000000
  -V(xc)+E(xc)   XCENC  =        16.35565909
  PAW double counting   =       746.10209728     -725.46159323
  entropy T*S    EENTRO =         0.00015749
  eigenvalues    EBANDS =        59.54366172
  atomic energy  EATOM  =       929.39633208
  Solvation  Ediel_sol  =         0.00000000
  ---------------------------------------------------
  free energy    TOTEN  =        31.69933589 eV

  energy without entropy =       31.69917840  energy(sigma->0) =       31.69928340


--------------------------------------------------------------------------------------------------------




--------------------------------------- Iteration      1(   2)  ---------------------------------------


     EDDAV:  cpu time    0.1780: real time    0.1813
       DOS:  cpu time    0.0014: real time    0.0013
    --------------------------------------------
      LOOP:  cpu time    0.1795: real time    0.1826

 eigenvalue-minimisations  :  2984
 total energy-change (2. order) :-0.3606332E+02  (-0.3385339E+02)
 number of electron      11.0000000 magnetization 
 augmentation part       11.0000000 magnetization 

 Free energy of the ion-electron system (eV)
  ---------------------------------------------------
  alpha Z        PSCENC =       109.54264301
  Ewald energy   TEWEN  =      -982.89350627
  -Hartree energ DENC   =      -120.88611528
  -exchange      EXHF   =         0.00000000
  -V(xc)+E(xc)   XCENC  =        16.35565909
  PAW double counting   =       746.10209728     -725.46159323
  entropy T*S    EENTRO =        -0.00065324
  eigenvalues    EBANDS =        23.48114891
  atomic energy  EATOM  =       929.39633208
  Solvation  Ediel_sol  =         0.00000000
  ---------------------------------------------------
  free energy    TOTEN  =        -4.36398764 eV

  energy without entropy =       -4.36333441  energy(sigma->0) =       -4.36376990


--------------------------------------------------------------------------------------------------------




--------------------------------------- Iteration      1(   3)  ---------------------------------------


     EDDAV:  cpu time    0.1890: real time    0.1925
       DOS:  cpu time    0.0014: real time    0.0014
    --------------------------------------------
      LOOP:  cpu time    0.1904: real time    0.1938

 eigenvalue-minimisations  :  3232
 total energy-change (2. order) :-0.3504808E+00  (-0.3503452E+00)
 number of electron      11.0000000 magnetization 
 augmentation part       11.0000000 magnetization 

 Free energy of the ion-electron system (eV)
  ---------------------------------------------------
  alpha Z        PSCENC =       109.54264301
  Ewald energy   TEWEN  =      -982.89350627
  -Hartree energ DENC   =      -120.88611528
  -exchange      EXHF   =         0.00000000
  -V(xc)+E(xc)   XCENC  =        16.35565909
  PAW double counting   =       746.10209728     -725.46159323
  entropy T*S    EENTRO =        -0.00061450
  eigenvalues    EBANDS =        23.13062942
  atomic energy  EATOM  =       929.39633208
  Solvation  Ediel_sol  =         0.00000000
  ---------------------------------------------------
  free energy    TOTEN  =        -4.71446840 eV

  energy without entropy =       -4.71385390  energy(sigma->0) =       -4.71426357


--------------------------------------------------------------------------------------------------------




--------------------------------------- Iteration      1(   4)  ---------------------------------------


     EDDAV:  cpu time    0.1837: real time    0.1870
       DOS:  cpu time    0.0015: real time    0.0014
    --------------------------------------------
      LOOP:  cpu time    0.1851: real time    0.1884

 eigenvalue-minimisations  :  3128
 total energy-change (2. order) :-0.8945341E-03  (-0.8945030E-03)
 number of electron      11.0000000 magnetization 
 augmentation part       11.0000000 magnetization 

 Free energy of the ion-electron system (eV)
  ---------------------------------------------------
  alpha Z        PSCENC =       109.54264301
  Ewald energy   TEWEN  =      -982.89350627
  -Hartree energ DENC   =      -120.88611528
  -exchange      EXHF   =         0.00000000
  -V(xc)+E(xc)   XCENC  =        16.35565909
  PAW double counting   =       746.10209728     -725.46159323
  entropy T*S    EENTRO =        -0.00061428
  eigenvalues    EBANDS =        23.12973466
  atomic energy  EATOM  =       929.39633208
  Solvation  Ediel_sol  =         0.00000000
  ---------------------------------------------------
  free energy    TOTEN  =        -4.71536294 eV

  energy without entropy =       -4.71474865  energy(sigma->0) =       -4.71515818


--------------------------------------------------------------------------------------------------------




--------------------------------------- Iteration      1(   5)  ---------------------------------------


     EDDAV:  cpu time    0.1825: real time    0.1859
       DOS:  cpu time    0.0014: real time    0.0014
    CHARGE:  cpu time    0.0048: real time    0.0048
    MIXING:  cpu time    0.0002: real time    0.0003
    --------------------------------------------
      LOOP:  cpu time    0.1890: real time    0.1924

 eigenvalue-minimisations  :  3028
 total energy-change (2. order) :-0.6039361E-05  (-0.6039439E-05)
 number of electron      11.0000045 magnetization 
 augmentation part        3.8209797 magnetization 

 Broyden mixing:
  rms(total) = 0.31788E+00    rms(broyden)= 0.31758E+00
  rms(prec ) = 0.13174E+01
  weight for this iteration     100.00

 Free energy of the ion-electron system (eV)
  ---------------------------------------------------
  alpha Z        PSCENC =       109.54264301
  Ewald energy   TEWEN  =      -982.89350627
  -Hartree energ DENC   =      -120.88611528
  -exchange      EXHF   =         0.00000000
  -V(xc)+E(xc)   XCENC  =        16.35565909
  PAW double counting   =       746.10209728     -725.46159323
  entropy T*S    EENTRO =        -0.00061428
  eigenvalues    EBANDS =        23.12972862
  atomic energy  EATOM  =       929.39633208
  Solvation  Ediel_sol  =         0.00000000
  ---------------------------------------------------
  free energy    TOTEN  =        -4.71536897 eV

  energy without entropy =       -4.71475470  energy(sigma->0) =       -4.71516422


--------------------------------------------------------------------------------------------------------




--------------------------------------- Iteration      1(   6)  ---------------------------------------


    POTLOK:  cpu time    0.0013: real time    0.0014
    SETDIJ:  cpu time    0.0014: real time    0.0014
     EDDAV:  cpu time    0.1853: real time    0.1888
       DOS:  cpu time    0.0014: real time    0.0014
    CHARGE:  cpu time    0.0038: real time    0.0037
    MIXING:  cpu time    0.0004: real time    0.0005
    --------------------------------------------
      LOOP:  cpu time    0.1936: real time    0.1973

 eigenvalue-minimisations  :  3132
 total energy-change (2. order) : 0.2935347E+00  (-0.7836577E-01)
 number of electron      11.0000047 magnetization 
 augmentation part        3.9624161 magnetization 

 Broyden mixing:
  rms(total) = 0.82272E-01    rms(broyden)= 0.82231E-01
  rms(prec ) = 0.32965E+00
  weight for this iteration     100.00

 eigenvalues of (default mixing * dielectric matrix)
  average eigenvalue GAMMA=   1.2512
  1.2512

 Free energy of the ion-electron system (eV)
  ---------------------------------------------------
  alpha Z        PSCENC =       109.54264301
  Ewald energy   TEWEN  =      -982.89350627
  -Hartree energ DENC   =      -112.92680495
  -exchange      EXHF   =         0.00000000
  -V(xc)+E(xc)   XCENC  =        15.95144139
  PAW double counting   =       741.15992852     -721.82596761
  entropy T*S    EENTRO =         0.00071919
  eigenvalues    EBANDS =        17.17338035
  atomic energy  EATOM  =       929.39633208
  Solvation  Ediel_sol  =         0.00000000
  ---------------------------------------------------
  free energy    TOTEN  =        -4.42183430 eV

  energy without entropy =       -4.42255349  energy(sigma->0) =       -4.42207403


--------------------------------------------------------------------------------------------------------




--------------------------------------- Iteration      1(   7)  ---------------------------------------


    POTLOK:  cpu time    0.0013: real time    0.0014
    SETDIJ:  cpu time    0.0013: real time    0.0013
     EDDAV:  cpu time    0.1859: real time    0.1891
       DOS:  cpu time    0.0014: real time    0.0014
    CHARGE:  cpu time    0.0033: real time    0.0033
    MIXING:  cpu time    0.0002: real time    0.0002
    --------------------------------------------
      LOOP:  cpu time    0.1934: real time    0.1966

 eigenvalue-minimisations  :  3180
 total energy-change (2. order) : 0.2449733E-01  (-0.5145343E-02)
 number of electron      11.0000047 magnetization 
 augmentation part        3.9956760 magnetization 

 Broyden mixing:
  rms(total) = 0.27884E-01    rms(broyden)= 0.27871E-01
  rms(prec ) = 0.66558E-01
  weight for this iteration     100.00

 eigenvalues of (default mixing * dielectric matrix)
  average eigenvalue GAMMA=   1.7876
  1.2066  2.3686

 Free energy of the ion-electron system (eV)
  ---------------------------------------------------
  alpha Z        PSCENC =       109.54264301
  Ewald energy   TEWEN  =      -982.89350627
  -Hartree energ DENC   =      -110.43231647
  -exchange      EXHF   =         0.00000000
  -V(xc)+E(xc)   XCENC  =        15.82113537
  PAW double counting   =       745.62305191     -727.14189823
  entropy T*S    EENTRO =         0.00089264
  eigenvalues    EBANDS =        15.68632899
  atomic energy  EATOM  =       929.39633208
  Solvation  Ediel_sol  =         0.00000000
  ---------------------------------------------------
  free energy    TOTEN  =        -4.39733697 eV

  energy without entropy =       -4.39822962  energy(sigma->0) =       -4.39763452


--------------------------------------------------------------------------------------------------------




--------------------------------------- Iteration      1(   8)  ---------------------------------------


    POTLOK:  cpu time    0.0013: real time    0.0013
    SETDIJ:  cpu time    0.0013: real time    0.0012
     EDDAV:  cpu time    0.1785: real time    0.1817
       DOS:  cpu time    0.0015: real time    0.0014
    CHARGE:  cpu time    0.0033: real time    0.0033
    MIXING:  cpu time    0.0002: real time    0.0002
    --------------------------------------------
      LOOP:  cpu time    0.1861: real time    0.1893

 eigenvalue-minimisations  :  3008
 total energy-change (2. order) : 0.4905218E-02  (-0.1777044E-03)
 number of electron      11.0000047 magnetization 
 augmentation part        3.9948826 magnetization 

 Broyden mixing:
  rms(total) = 0.98242E-03    rms(broyden)= 0.97472E-03
  rms(prec ) = 0.22642E-02
  weight for this iteration     100.00

 eigenvalues of (default mixing * dielectric matrix)
  average eigenvalue GAMMA=   1.6592
  1.2100  1.3210  2.4465

 Free energy of the ion-electron system (eV)
  ---------------------------------------------------
  alpha Z        PSCENC =       109.54264301
  Ewald energy   TEWEN  =      -982.89350627
  -Hartree energ DENC   =      -109.69408582
  -exchange      EXHF   =         0.00000000
  -V(xc)+E(xc)   XCENC  =        15.77840065
  PAW double counting   =       753.52554296     -735.71983428
  entropy T*S    EENTRO =         0.00089722
  eigenvalues    EBANDS =        15.67117870
  atomic energy  EATOM  =       929.39633208
  Solvation  Ediel_sol  =         0.00000000
  ---------------------------------------------------
  free energy    TOTEN  =        -4.39243175 eV

  energy without entropy =       -4.39332897  energy(sigma->0) =       -4.39273083


--------------------------------------------------------------------------------------------------------




--------------------------------------- Iteration      1(   9)  ---------------------------------------


    POTLOK:  cpu time    0.0013: real time    0.0014
    SETDIJ:  cpu time    0.0012: real time    0.0012
     EDDAV:  cpu time    0.1345: real time    0.1375
       DOS:  cpu time    0.0014: real time    0.0014
    --------------------------------------------
      LOOP:  cpu time    0.1384: real time    0.1415

 eigenvalue-minimisations  :  1812
 total energy-change (2. order) : 0.1165723E-05  (-0.8445052E-06)
 number of electron      11.0000047 magnetization 
 augmentation part        3.9948826 magnetization 

 Free energy of the ion-electron system (eV)
  ---------------------------------------------------
  alpha Z        PSCENC =       109.54264301
  Ewald energy   TEWEN  =      -982.89350627
  -Hartree energ DENC   =      -109.67824419
  -exchange      EXHF   =         0.00000000
  -V(xc)+E(xc)   XCENC  =        15.77742075
  PAW double counting   =       754.20014882     -736.40451571
  entropy T*S    EENTRO =         0.00089727
  eigenvalues    EBANDS =        15.66639366
  atomic energy  EATOM  =       929.39633208
  Solvation  Ediel_sol  =         0.00000000
  ---------------------------------------------------
  free energy    TOTEN  =        -4.39243059 eV

  energy without entropy =       -4.39332785  energy(sigma->0) =       -4.39272968


--------------------------------------------------------------------------------------------------------




 average (electrostatic) potential at core
  the test charge radii are     1.2098
  (the norm of the test charge is              1.0000)
       1 -45.6773
 
 
 
 E-fermi :   5.7260     XC(G=0): -13.0740     alpha+bet :-10.4532


 k-point     1 :       0.0500    0.0500    0.0500
  band No.  band energies     occupation 
      1      -4.2519      2.00000
      2       0.9289      2.00000
      3       0.9904      2.00000
      4       0.9904      2.00000
      5       2.5296      2.00000
      6       2.5296      2.00000
      7      21.1869      0.00000
      8      24.3389      0.00000
      9      25.1132      0.00000
     10      25.1132      0.00000
     11      29.9697      0.00000
     12      33.0551      0.00000

 k-point     2 :       0.1500    0.0500    0.0500
  band No.  band energies     occupation 
      1      -3.7916      2.00000
      2       0.7737      2.00000
      3       1.1323      2.00000
      4       1.1659      2.00000
      5       2.3789      2.00000
      6       2.5820      2.00000
      7      21.5260      0.00000
      8      22.3768      0.00000
      9      24.7500      0.00000
     10      26.0498      0.00000
     11      29.4286      0.00000
     12      32.0876      0.00000

 k-point     3 :       0.2500    0.0500    0.0500
  band No.  band energies     occupation 
      1      -2.7962      2.00000
      2       0.6522      2.00000
      3       1.2878      2.00000
      4       1.3120      2.00000
      5       2.3866      2.00000
      6       2.8008      2.00000
      7      18.4905      0.00000
      8      22.1377      0.00000
      9      24.9407      0.00000
     10      27.3433      0.00000
     11      27.4034      0.00000
     12      29.8664      0.00000

 k-point     4 :       0.3500    0.0500    0.0500
  band No.  band energies     occupation 
      1      -1.9086      2.00000
      2       1.1032      2.00000
      3       1.1920      2.00000
      4       1.3332      2.00000
      5       2.8857      2.00000
      6       3.3804      2.00000
      7      14.4462      0.00000
      8      21.4463      0.00000
      9      23.9760      0.00000
     10      26.1940      0.00000
     11      28.5849      0.00000
     12      29.6890      0.00000

 k-point     5 :       0.4500    0.0500    0.0500
  band No.  band energies     occupation 
      1      -1.6892      2.00000
      2       0.9499      2.00000
      3       1.0211      2.00000
      4       2.8634      2.00000
      5       3.4997      2.00000
      6       4.2715      2.00000
      7      10.6446     -0.00000
      8      20.6726      0.00000
      9      23.0328      0.00000
     10      24.1501      0.00000
     11      30.3933      0.00000
     12      30.6775      0.00000

 k-point     6 :      -0.4500    0.0500    0.0500
  band No.  band energies     occupation 
      1      -1.6854      2.00000
      2       0.8820      2.00000
      3       0.9800      2.00000
      4       3.2898      2.00000
      5       3.7873      2.00000
      6       5.1359      2.00025
      7       8.9744     -0.00000
      8      20.4594      0.00000
      9      23.0851      0.00000
     10      23.2029      0.00000
     11      30.8956      0.00000
     12      30.9809      0.00000

 k-point     7 :      -0.3500    0.0500    0.0500
  band No.  band energies     occupation 
      1      -1.7152      2.00000
      2       0.9804      2.00000
      3       1.0934      2.00000
      4       2.2870      2.00000
      5       3.5800      2.00000
      6       3.7075      2.00000
      7      11.8240      0.00000
      8      20.9111      0.00000
      9      23.5075      0.00000
     10      24.3441      0.00000
     11      30.3395      0.00000
     12      30.4887      0.00000

 k-point     8 :      -0.2500    0.0500    0.0500
  band No.  band energies     occupation 
      1      -2.1322      2.00000
      2       0.9071      2.00000
      3       1.2073      2.00000
      4       1.2693      2.00000
      5       2.7937      2.00000
      6       3.0648      2.00000
      7      15.8031      0.00000
      8      21.8276      0.00000
      9      24.4768      0.00000
     10      26.3277      0.00000
     11      28.2558      0.00000
     12      30.0761      0.00000

 k-point     9 :      -0.1500    0.0500    0.0500
  band No.  band energies     occupation 
      1      -3.1619      2.00000
      2       0.6416      2.00000
      3       1.2794      2.00000
      4       1.2934      2.00000
      5       2.3407      2.00000
      6       2.6745      2.00000
      7      19.7780      0.00000
      8      22.2342      0.00000
      9      24.9483      0.00000
     10      26.4991      0.00000
     11      28.1323      0.00000
     12      30.7437      0.00000

 k-point    10 :      -0.0500    0.0500    0.0500
  band No.  band energies     occupation 
      1      -4.0177      2.00000
      2       0.8195      2.00000
      3       1.0882      2.00000
      4       1.0935      2.00000
      5       2.4045      2.00000
      6       2.5883      2.00000
      7      21.4320      0.00000
      8      23.4198      0.00000
      9      24.8583      0.00000
     10      25.2386      0.00000
     11      30.5820      0.00000
     12      32.2824      0.00000

 k-point    11 :       0.1500    0.1500    0.0500
  band No.  band energies     occupation 
      1      -3.5631      2.00000
      2       0.6000      2.00000
      3       1.2931      2.00000
      4       1.2978      2.00000
      5       2.1773      2.00000
      6       2.7030      2.00000
      7      21.8298      0.00000
      8      22.5519      0.00000
      9      24.2025      0.00000
     10      24.8326      0.00000
     11      29.8158      0.00000
     12      31.5264      0.00000

 k-point    12 :       0.2500    0.1500    0.0500
  band No.  band energies     occupation 
      1      -2.7358      2.00000
      2       0.3472      2.00000
      3       1.3922      2.00000
      4       1.5804      2.00000
      5       2.1237      2.00000
      6       2.9273      2.00000
      7      20.0353      0.00000
      8      21.8451      0.00000
      9      23.8163      0.00000
     10      25.0719      0.00000
     11      27.7812      0.00000
     12      30.6876      0.00000

 k-point    13 :       0.3500    0.1500    0.0500
  band No.  band energies     occupation 
      1      -1.7212      2.00000
      2       0.4336      2.00000
      3       1.0846      2.00000
      4       1.5895      2.00000
      5       2.7978      2.00000
      6       3.5182      2.00000
      7      16.0347      0.00000
      8      21.3006      0.00000
      9      22.7534      0.00000
     10      24.9387      0.00000
     11      28.5798      0.00000
     12      30.3894      0.00000

 k-point    14 :       0.4500    0.1500    0.0500
  band No.  band energies     occupation 
      1      -1.3351      2.00000
      2       0.7766      2.00000
      3       1.3229      2.00000
      4       1.4850      2.00000
      5       3.5634      2.00000
      6       4.7166      2.00000
      7      12.0201      0.00000
      8      20.7946      0.00000
      9      21.4892      0.00000
     10      23.6347      0.00000
     11      30.4100      0.00000
     12      31.5291      0.00000

 k-point    15 :      -0.4500    0.1500    0.0500
  band No.  band energies     occupation 
      1      -1.3141      2.00000
      2       0.6456      2.00000
      3       1.2844      2.00000
      4       2.2311      2.00000
      5       3.7405      2.00000
      6       6.5956     -0.00000
      7       8.9576     -0.00000
      8      20.3241      0.00000
      9      21.1437      0.00000
     10      22.8584      0.00000
     11      30.8867      0.00000
     12      31.9382      0.00000

 k-point    16 :      -0.3500    0.1500    0.0500
  band No.  band energies     occupation 
      1      -1.2968      2.00000
      2       0.7280      2.00000
      3       1.3108      2.00000
      4       1.8958      2.00000
      5       3.4160      2.00000
      6       5.4251      2.05489
      7      10.8724     -0.00000
      8      20.0178      0.00000
      9      21.5770      0.00000
     10      23.8072      0.00000
     11      30.0498      0.00000
     12      31.5889      0.00000

 k-point    17 :      -0.2500    0.1500    0.0500
  band No.  band energies     occupation 
      1      -1.4783      2.00000
      2       0.7198      2.00000
      3       1.0345      2.00000
      4       1.5026      2.00000
      5       2.7077      2.00000
      6       4.0697      2.00000
      7      14.6912      0.00000
      8      20.2816      0.00000
      9      22.6828      0.00000
     10      25.8080      0.00000
     11      28.1955      0.00000
     12      30.6862      0.00000

 k-point    18 :      -0.1500    0.1500    0.0500
  band No.  band energies     occupation 
      1      -2.3773      2.00000
      2       0.3909      2.00000
      3       1.2849      2.00000
      4       1.6034      2.00000
      5       2.1189      2.00000
      6       3.1933      2.00000
      7      18.6308      0.00000
      8      20.9203      0.00000
      9      24.3871      0.00000
     10      25.3996      0.00000
     11      28.8858      0.00000
     12      29.5375      0.00000

 k-point    19 :      -0.0500    0.1500    0.0500
  band No.  band energies     occupation 
      1      -3.3528      2.00000
      2       0.6036      2.00000
      3       1.2956      2.00000
      4       1.3058      2.00000
      5       2.2181      2.00000
      6       2.7108      2.00000
      7      21.0252      0.00000
      8      21.9903      0.00000
      9      24.3148      0.00000
     10      26.1418      0.00000
     11      28.5004      0.00000
     12      31.5235      0.00000

 k-point    20 :       0.2500    0.2500    0.0500
  band No.  band energies     occupation 
      1      -2.1845      2.00000
      2      -0.0157      2.00000
      3       1.5476      2.00000
      4       1.9690      2.00000
      5       2.1653      2.00000
      6       3.0534      2.00000
      7      20.5015      0.00000
      8      21.6364      0.00000
      9      22.7284      0.00000
     10      23.6175      0.00000
     11      24.8257      0.00000
     12      32.1647      0.00000

 k-point    21 :       0.3500    0.2500    0.0500
  band No.  band energies     occupation 
      1      -1.3824      2.00000
      2      -0.2448      2.00000
      3       1.2837      2.00000
      4       2.3244      2.00000
      5       2.8355      2.00000
      6       3.5421      2.00000
      7      17.7626      0.00000
      8      19.7253      0.00000
      9      21.3642      0.00000
     10      24.0661      0.00000
     11      25.4530      0.00000
     12      32.2286      0.00000

 k-point    22 :       0.4500    0.2500    0.0500
  band No.  band energies     occupation 
      1      -0.9155      2.00000
      2       0.0181      2.00000
      3       1.0329      2.00000
      4       2.1883      2.00000
      5       3.6519      2.00000
      6       4.9900      2.00000
      7      13.6634      0.00000
      8      19.0368      0.00000
      9      19.6170      0.00000
     10      23.6797      0.00000
     11      28.6680      0.00000
     12      32.1865      0.00000

 k-point    23 :      -0.4500    0.2500    0.0500
  band No.  band energies     occupation 
      1      -0.7956      2.00000
      2       0.2860      2.00000
      3       1.2396      2.00000
      4       1.9856      2.00000
      5       3.7775      2.00000
      6       7.4679     -0.00000
      7      10.0578     -0.00000
      8      17.7458      0.00000
      9      19.6883      0.00000
     10      23.2633      0.00000
     11      31.2750      0.00000
     12      32.8514      0.00000

 k-point    24 :      -0.3500    0.2500    0.0500
  band No.  band energies     occupation 
      1      -0.6213      2.00000
      2       0.3524      2.00000
      3       1.2606      2.00000
      4       1.8797      2.00000
      5       3.3701      2.00000
      6       7.3063     -0.00000
      7      10.5974     -0.00000
      8      16.6537      0.00000
      9      20.8953      0.00000
     10      23.4426      0.00000
     11      30.4268      0.00000
     12      32.7994      0.00000

 k-point    25 :      -0.2500    0.2500    0.0500
  band No.  band energies     occupation 
      1      -0.5383      2.00000
      2       0.4291      2.00000
      3       0.6908      2.00000
      4       1.9609      2.00000
      5       2.6661      2.00000
      6       5.4995      2.06796
      7      14.0023      0.00000
      8      16.5705      0.00000
      9      22.1389      0.00000
     10      24.9076      0.00000
     11      28.2203      0.00000
     12      32.6156      0.00000

 k-point    26 :      -0.1500    0.2500    0.0500
  band No.  band energies     occupation 
      1      -1.3216      2.00000
      2       0.3109      2.00000
      3       1.0062      2.00000
      4       1.8357      2.00000
      5       2.2596      2.00000
      6       4.1608      2.00000
      7      16.1486      0.00000
      8      18.8259      0.00000
      9      23.1562      0.00000
     10      26.2272      0.00000
     11      27.3055      0.00000
     12      31.2205      0.00000

 k-point    27 :      -0.0500    0.2500    0.0500
  band No.  band energies     occupation 
      1      -2.2928      2.00000
      2       0.5745      2.00000
      3       1.2578      2.00000
      4       1.4091      2.00000
      5       2.4503      2.00000
      6       3.1193      2.00000
      7      17.2486      0.00000
      8      21.8633      0.00000
      9      23.9657      0.00000
     10      26.3963      0.00000
     11      28.1664      0.00000
     12      29.6143      0.00000

 k-point    28 :       0.3500    0.3500    0.0500
  band No.  band energies     occupation 
      1      -1.2419      2.00000
      2      -0.6303      2.00000
      3       2.1798      2.00000
      4       2.8656      2.00000
      5       3.3006      2.00000
      6       3.4763      2.00000
      7      17.6969      0.00000
      8      18.7046      0.00000
      9      18.9725      0.00000
     10      22.9286      0.00000
     11      24.8506      0.00000
     12      34.7061      0.00000

 k-point    29 :       0.4500    0.3500    0.0500
  band No.  band energies     occupation 
      1      -1.0957      2.00000
      2      -0.7409      2.00000
      3       2.2298      2.00000
      4       3.1710      2.00000
      5       3.6672      2.00000
      6       5.0391      2.00001
      7      14.8625      0.00000
      8      17.0016      0.00000
      9      17.6276      0.00000
     10      23.9484      0.00000
     11      25.8572      0.00000
     12      34.2227      0.00000

 k-point    30 :      -0.4500    0.3500    0.0500
  band No.  band energies     occupation 
      1      -0.9257      2.00000
      2      -0.4224      2.00000
      3       1.8675      2.00000
      4       2.8604      2.00000
      5       3.8798      2.00000
      6       7.6951     -0.00000
      7      11.6224      0.00000
      8      15.2593      0.00000
      9      17.7392      0.00000
     10      24.1613      0.00000
     11      28.6106      0.00000
     12      33.2137      0.00000

 k-point    31 :      -0.3500    0.3500    0.0500
  band No.  band energies     occupation 
      1      -0.6282      2.00000
      2       0.0946      2.00000
      3       1.3117      2.00000
      4       2.5234      2.00000
      5       3.5457      2.00000
      6       8.9159     -0.00000
      7      11.0567     -0.00000
      8      13.5810      0.00000
      9      19.0880      0.00000
     10      23.9196      0.00000
     11      31.7834      0.00000
     12      32.2003      0.00000

 k-point    32 :      -0.2500    0.3500    0.0500
  band No.  band energies     occupation 
      1      -0.3401      2.00000
      2       0.3955      2.00000
      3       0.8069      2.00000
      4       2.1579      2.00000
      5       3.1244      2.00000
      6       7.1309     -0.00000
      7      12.4647      0.00000
      8      14.5823      0.00000
      9      20.8961      0.00000
     10      23.8158      0.00000
     11      30.0944      0.00000
     12      33.0492      0.00000

 k-point    33 :      -0.1500    0.3500    0.0500
  band No.  band energies     occupation 
      1      -0.9329      2.00000
      2       0.6261      2.00000
[...]
      6       6.3851     -0.00003
      7      13.1646      0.00000
      8      15.5371      0.00000
      9      20.3371      0.00000
     10      25.2944      0.00000
     11      28.6520      0.00000
     12      33.5552      0.00000

 k-point    92 :      -0.3500    0.3500    0.2500
  band No.  band energies     occupation 
      1      -0.2906      2.00000
      2       0.2135      2.00000
      3       0.8174      2.00000
      4       2.3503      2.00000
      5       3.4847      2.00000
      6       8.2100     -0.00000
      7      11.8481      0.00000
      8      13.9035      0.00000
      9      18.8184      0.00000
     10      25.0477      0.00000
     11      30.1697      0.00000
     12      34.0477      0.00000

 k-point    93 :      -0.2500    0.3500    0.2500
  band No.  band energies     occupation 
      1      -0.6276      2.00000
      2      -0.0840      2.00000
      3       1.2417      2.00000
      4       2.6040      2.00000
      5       3.7869      2.00000
      6       8.4956     -0.00000
      7      10.8616     -0.00000
      8      15.2079      0.00000
      9      17.5884      0.00000
     10      25.0299      0.00000
     11      30.0481      0.00000
     12      32.0316      0.00000

 k-point    94 :       0.4500    0.4500    0.2500
  band No.  band energies     occupation 
      1      -1.0044      2.00000
      2       0.3678      2.00000
      3       1.0558      2.00000
      4       1.8565      2.00000
      5       3.8354      2.00000
      6       5.3606      2.02685
      7      12.2191      0.00000
      8      19.5848      0.00000
      9      20.3795      0.00000
     10      22.7612      0.00000
     11      30.6530      0.00000
     12      32.2339      0.00000

 k-point    95 :      -0.4500    0.4500    0.2500
  band No.  band energies     occupation 
      1      -0.6270      2.00000
      2       0.0919      2.00000
      3       0.9715      2.00000
      4       2.3748      2.00000
      5       3.6906      2.00000
      6       7.0208     -0.00000
      7      11.5456      0.00000
      8      17.0213      0.00000
      9      18.3589      0.00000
     10      24.6517      0.00000
     11      29.7677      0.00000
     12      32.2371      0.00000

 k-point    96 :      -0.3500    0.4500    0.2500
  band No.  band energies     occupation 
      1      -0.2436      2.00000
      2       0.1566      2.00000
      3       0.6216      2.00000
      4       2.4903      2.00000
      5       3.8336      2.00000
      6       8.8569     -0.00000
      7      11.9176      0.00000
      8      13.8072      0.00000
      9      16.6469      0.00000
     10      27.3106      0.00000
     11      28.9667      0.00000
     12      32.3497      0.00000

 k-point    97 :      -0.2500    0.4500    0.2500
  band No.  band energies     occupation 
      1      -0.3687      2.00000
      2       0.1639      2.00000
      3       0.7838      2.00000
      4       2.4464      2.00000
      5       4.0581      2.00000
      6      10.1351     -0.00000
      7      11.5854      0.00000
      8      12.9391      0.00000
      9      15.6620      0.00000
     10      28.0890      0.00000
     11      29.5915      0.00000
     12      31.0207      0.00000

 k-point    98 :      -0.4500   -0.4500    0.2500
  band No.  band energies     occupation 
      1      -0.8415      2.00000
      2      -0.1195      2.00000
      3       1.6047      2.00000
      4       2.5321      2.00000
      5       3.8027      2.00000
      6       8.3570     -0.00000
      7      10.4760     -0.00000
      8      15.3526      0.00000
      9      18.9104      0.00000
     10      23.4107      0.00000
     11      30.3300      0.00000
     12      33.2730      0.00000

 k-point    99 :      -0.3500   -0.4500    0.2500
  band No.  band energies     occupation 
      1      -0.6674      2.00000
      2      -0.1579      2.00000
      3       1.4508      2.00000
      4       2.6870      2.00000
      5       3.8426      2.00000
      6       9.7302     -0.00000
      7      10.6451     -0.00000
      8      13.5622      0.00000
      9      17.2696      0.00000
     10      25.2951      0.00000
     11      30.3210      0.00000
     12      31.7682      0.00000

 k-point   100 :      -0.3500   -0.3500    0.2500
  band No.  band energies     occupation 
      1      -0.8593      2.00000
      2      -0.2121      2.00000
      3       1.8052      2.00000
      4       2.7950      2.00000
      5       3.6776      2.00000
      6       9.5574     -0.00000
      7      10.3045     -0.00000
      8      13.6181      0.00000
      9      18.6176      0.00000
     10      23.6493      0.00000
     11      30.2809      0.00000
     12      33.4654      0.00000

 k-point   101 :       0.3500    0.3500    0.3500
  band No.  band energies     occupation 
      1      -1.8506      2.00000
      2       1.0906      2.00000
      3       1.0906      2.00000
      4       1.9748      2.00000
      5       3.2707      2.00000
      6       3.2707      2.00000
      7      13.0728      0.00000
      8      21.1352      0.00000
      9      24.7760      0.00000
     10      24.7760      0.00000
     11      29.9834      0.00000
     12      30.0234      0.00000

 k-point   102 :       0.4500    0.3500    0.3500
  band No.  band energies     occupation 
      1      -1.5014      2.00000
      2       0.9020      2.00000
      3       1.2039      2.00000
      4       1.8981      2.00000
      5       3.1599      2.00000
      6       4.5420      2.00000
      7      11.9626      0.00000
      8      20.5934      0.00000
      9      22.2170      0.00000
     10      24.7832      0.00000
     11      29.4261      0.00000
     12      30.8734      0.00000

 k-point   103 :      -0.4500    0.3500    0.3500
  band No.  band energies     occupation 
      1      -0.7876      2.00000
      2       0.5195      2.00000
      3       1.3416      2.00000
      4       1.6680      2.00000
      5       3.1390      2.00000
      6       6.2970     -0.00041
      7      11.4313      0.00000
      8      17.4105      0.00000
      9      22.3353      0.00000
     10      23.0354      0.00000
     11      29.9015      0.00000
     12      32.0805      0.00000

 k-point   104 :      -0.3500    0.3500    0.3500
  band No.  band energies     occupation 
      1      -0.5175      2.00000
      2       0.3391      2.00000
      3       1.0811      2.00000
      4       2.3044      2.00000
      5       3.2878      2.00000
      6       7.9603     -0.00000
      7      11.7819      0.00000
      8      13.9028      0.00000
      9      20.7028      0.00000
     10      23.0640      0.00000
     11      31.6287      0.00000
     12      32.7686      0.00000

 k-point   105 :       0.4500    0.4500    0.3500
  band No.  band energies     occupation 
      1      -1.5002      2.00000
      2       0.8111      2.00000
      3       1.2048      2.00000
      4       2.1071      2.00000
      5       3.7769      2.00000
      6       4.8389      2.00000
      7      10.7083     -0.00000
      8      20.7969      0.00000
      9      22.4707      0.00000
     10      22.9739      0.00000
     11      31.0363      0.00000
     12      31.3292      0.00000

 k-point   106 :      -0.4500    0.4500    0.3500
  band No.  band energies     occupation 
      1      -1.0286      2.00000
      2       0.5007      2.00000
      3       1.4981      2.00000
      4       1.7081      2.00000
      5       3.6252      2.00000
      6       6.6513     -0.00000
      7       9.9197     -0.00000
      8      19.4013      0.00000
      9      20.2910      0.00000
     10      23.5156      0.00000
     11      30.3689      0.00000
     12      32.6576      0.00000

 k-point   107 :      -0.3500    0.4500    0.3500
  band No.  band energies     occupation 
      1      -0.4269      2.00000
      2       0.1540      2.00000
      3       1.0771      2.00000
      4       2.1440      2.00000
      5       3.5811      2.00000
      6       8.5315     -0.00000
      7       9.9310     -0.00000
      8      16.0119      0.00000
      9      18.9511      0.00000
     10      24.5702      0.00000
     11      30.3089      0.00000
     12      34.3134      0.00000

 k-point   108 :      -0.4500   -0.4500    0.3500
  band No.  band energies     occupation 
      1      -0.9143      2.00000
      2       0.4138      2.00000
      3       1.5479      2.00000
      4       1.6998      2.00000
      5       3.7234      2.00000
      6       7.8950     -0.00000
      7       8.9596     -0.00000
      8      18.1646      0.00000
      9      21.1568      0.00000
     10      22.3011      0.00000
     11      31.8786      0.00000
     12      32.1193      0.00000

 k-point   109 :       0.4500    0.4500    0.4500
  band No.  band energies     occupation 
      1      -1.7524      2.00000
      2       0.9447      2.00000
      3       0.9447      2.00000
      4       3.7214      2.00000
      5       3.7214      2.00000
      6       4.1083      2.00000
      7       9.6156     -0.00000
      8      20.4716      0.00000
      9      23.5912      0.00000
     10      23.5912      0.00000
     11      30.7058      0.00000
     12      30.7058      0.00000

 k-point   110 :      -0.4500    0.4500    0.4500
  band No.  band energies     occupation 
      1      -1.4910      2.00000
      2       0.7671      2.00000
      3       1.1250      2.00000
      4       2.6727      2.00000
      5       3.6988      2.00000
      6       6.0071     -0.06313
      7       8.9804     -0.00000
      8      20.4346      0.00000
      9      22.0015      0.00000
     10      23.0153      0.00000
     11      31.0361      0.00000
     12      31.2205      0.00000


--------------------------------------------------------------------------------------------------------


 soft charge-density along one line, spin component           1
         0         1         2         3         4         5         6         7         8         9
 total charge-density along one line
 
 pseudopotential strength for first ion, spin component:           1
 -9.743   0.000  -0.000   0.000   0.000   0.000  -0.000   0.000  -0.000   0.000  -0.104   0.000   0.000   0.000  -0.000   0.000
 -0.000   0.000  -9.743   0.000  -0.000   0.000  -0.000   0.000   0.000   0.000   0.000   0.000  -0.104   0.000   0.000   0.000
  0.000   0.000  -0.000   0.000  -9.724   0.000  -0.000   0.000  -0.000   0.000  -0.000   0.000   0.000   0.000  -0.107   0.000
 -0.000   0.000  -0.000   0.000  -0.000   0.000  -9.743   0.000  -0.000   0.000   0.000   0.000   0.000   0.000   0.000   0.000
 -0.000   0.000   0.000   0.000  -0.000   0.000  -0.000   0.000  -9.724   0.000   0.000   0.000  -0.000   0.000   0.000   0.000
 -0.104   0.000   0.000   0.000  -0.000   0.000   0.000   0.000   0.000   0.000   0.285   0.000  -0.000   0.000   0.000   0.000
  0.000   0.000  -0.104   0.000   0.000   0.000   0.000   0.000  -0.000   0.000  -0.000   0.000   0.285   0.000  -0.000   0.000
 -0.000   0.000   0.000   0.000  -0.107   0.000   0.000   0.000   0.000   0.000   0.000   0.000  -0.000   0.000   0.285   0.000
  0.000   0.000   0.000   0.000   0.000   0.000  -0.104   0.000   0.000   0.000  -0.000   0.000  -0.000   0.000  -0.000   0.000
  0.000   0.000  -0.000   0.000   0.000   0.000   0.000   0.000  -0.107   0.000  -0.000   0.000   0.000   0.000  -0.000   0.000
  0.000   0.000   0.000   0.000   0.000   0.000   0.000   0.000  -0.000   0.000   0.000   0.000   0.000   0.000  -0.000   0.000
 -0.000   0.000  -0.000   0.000  -0.000   0.000  -0.000   0.000   0.000   0.000   0.000   0.000   0.000   0.000   0.000   0.000
 -0.000   0.000   0.000   0.000  -0.000   0.000   0.000   0.000  -0.000   0.000   0.000   0.000  -0.000   0.000   0.000   0.000
  0.000   0.000   0.000   0.000   0.000   0.000  -0.000   0.000   0.000   0.000  -0.000   0.000  -0.000   0.000  -0.000   0.000
  0.000   0.000   0.000   0.000   0.000   0.000   0.000   0.000  -0.000   0.000  -0.000   0.000  -0.000   0.000  -0.000   0.000
  0.000   0.000  -0.000   0.000   0.000   0.000  -0.000   0.000   0.000   0.000  -0.000   0.000   0.000   0.000  -0.000   0.000
 -0.000   0.000  -0.000   0.000  -0.000   0.000   0.000   0.000  -0.000   0.000   0.000   0.000   0.000   0.000   0.000   0.000
 -0.000   0.000  -0.000   0.000  -0.000   0.000  -0.000   0.000   0.000   0.000   0.000   0.000   0.000   0.000   0.000   0.000
 total augmentation occupancy for first ion, spin component:           1
  1.903  -0.000  -0.000   0.000   0.000  -0.031   0.000   0.000  -0.000  -0.000   0.000   0.000   0.000   0.000   0.000   0.000
 -0.000   1.903   0.000   0.000  -0.000  -0.000  -0.031  -0.000   0.000   0.000   0.000  -0.000   0.000   0.000   0.000   0.000
  0.000   0.000   1.952   0.000   0.000   0.000   0.000  -0.080  -0.000   0.000   0.000   0.000   0.000   0.000   0.000   0.000
  0.000   0.000  -0.000   1.903  -0.000  -0.000  -0.000  -0.000  -0.031  -0.000  -0.000   0.000   0.000   0.000   0.000   0.000
  0.000  -0.000   0.000   0.000   1.952  -0.000   0.000   0.000   0.000  -0.080   0.000   0.000   0.000   0.000   0.000   0.000
 -0.031  -0.000   0.000  -0.000   0.000   0.218   0.000   0.000   0.000   0.000   0.000   0.000   0.000   0.000   0.000   0.000
 -0.000  -0.031   0.000   0.000   0.000  -0.000   0.218  -0.000  -0.000   0.000   0.000   0.000   0.000   0.000   0.000   0.000
  0.000  -0.000  -0.080  -0.000   0.000   0.000   0.000   0.174   0.000   0.000  -0.000  -0.000   0.000   0.000   0.000   0.000
 -0.000   0.000  -0.000  -0.031  -0.000   0.000  -0.000  -0.000   0.218  -0.000   0.000   0.000   0.000   0.000   0.000   0.000
  0.000  -0.000   0.000   0.000  -0.080  -0.000   0.000   0.000  -0.000   0.174   0.000  -0.000   0.000   0.000   0.000   0.000
  0.000  -0.000   0.000  -0.000   0.000   0.000   0.000  -0.000   0.000   0.000   1.087  -0.395   0.000   0.000   0.000   0.000
  0.000   0.000   0.000  -0.000   0.000   0.000   0.000  -0.000   0.000  -0.000  -0.395   0.265   0.000   0.000   0.000   0.000
  0.000   0.000   0.000   0.000   0.000   0.000   0.000   0.000   0.000   0.000   0.000   0.000   0.172  -0.000   0.000  -0.013
  0.000   0.000   0.000   0.000   0.000   0.000   0.000   0.000   0.000   0.000   0.000   0.000   0.000   0.172  -0.000  -0.000
  0.000   0.000   0.000   0.000   0.000   0.000   0.000   0.000   0.000   0.000   0.000   0.000  -0.000   0.000   0.172   0.000
  0.000   0.000   0.000   0.000   0.000   0.000   0.000   0.000   0.000   0.000   0.000   0.000  -0.013  -0.000   0.000   0.001
  0.000   0.000   0.000   0.000   0.000   0.000   0.000   0.000   0.000   0.000   0.000   0.000   0.000  -0.013  -0.000   0.000
  0.000   0.000   0.000   0.000   0.000   0.000   0.000   0.000   0.000   0.000   0.000   0.000  -0.000  -0.000  -0.013  -0.000


------------------------ aborting loop because EDIFF is reached ----------------------------------------


    CHARGE:  cpu time    0.0035: real time    0.0035
    FORLOC:  cpu time    0.0002: real time    0.0002
    FORNL :  cpu time    0.0090: real time    0.0090
    STRESS:  cpu time    0.0498: real time    0.0500
    FORCOR:  cpu time    0.0008: real time    0.0008
    FORHAR:  cpu time    0.0007: real time    0.0006
    MIXING:  cpu time    0.0002: real time    0.0002
    OFIELD:  cpu time    0.0000: real time    0.0000

  FORCE on cell =-STRESS in cart. coord.  units (eV):
  Direction    XX          YY          ZZ          XY          YZ          ZX
  --------------------------------------------------------------------------------------
  Alpha Z   109.54264   109.54264   109.54264
  Ewald    -327.63118  -327.63118  -327.63118     0.00000     0.00000    -0.00000
  Hartree    36.56255    36.56255    36.56255    -0.00000    -0.00000    -0.00000
  E(xc)     -49.10817   -49.10817   -49.10817     0.00001     0.00001     0.00001
  Local      82.71490    82.71490    82.71490     0.00013     0.00013     0.00013
  n-local   -49.14692   -46.23277   -50.03150     0.60178    -0.66337     0.01100
  augment    42.44804    42.44804    42.44804    -0.00002    -0.00002    -0.00002
  Kinetic   153.53892   152.39124   154.59850    -0.40032     0.20503     0.01331
  Fock        0.00000     0.00000     0.00000     0.00000     0.00000     0.00000
  -------------------------------------------------------------------------------------
  Total      -0.43205    -0.43205    -0.43205     0.00000     0.00000    -0.00000
  in kB     -41.25867   -41.25867   -41.25867     0.00000     0.00000    -0.00000
  external pressure =      -41.26 kB  Pullay stress =        0.00 kB


 VOLUME and BASIS-vectors are now :
 -----------------------------------------------------------------------------
  energy-cutoff  :      230.00
  volume of cell :       16.78
      direct lattice vectors                 reciprocal lattice vectors
     0.000000000  2.031895000  2.031895000    -0.246075708  0.246075708  0.246075708
     2.031895000  0.000000000  2.031895000     0.246075708 -0.246075708  0.246075708
     2.031895000  2.031895000  0.000000000     0.246075708  0.246075708 -0.246075708

  length of vectors
     2.873533466  2.873533466  2.873533466     0.426215628  0.426215628  0.426215628


 FORCES acting on ions
    electron-ion (+dipol)            ewald-force                    non-local-force                 convergence-correction
 -----------------------------------------------------------------------------------------------
   -.142E-14 -.286E-14 -.271E-14   -.123E-14 0.876E-15 0.276E-14   0.000E+00 0.000E+00 0.000E+00   0.163E-14 0.156E-14 0.187E-14
 -----------------------------------------------------------------------------------------------
   -.142E-14 -.286E-14 -.271E-14   -.123E-14 0.876E-15 0.276E-14   0.000E+00 0.000E+00 0.000E+00   0.163E-14 0.156E-14 0.187E-14
 
 
 POSITION                                       TOTAL-FORCE (eV/Angst)
 -----------------------------------------------------------------------------------
      0.00000      0.00000      0.00000         0.000000      0.000000     -0.000000
 -----------------------------------------------------------------------------------
    total drift:                               -0.000000     -0.000000      0.000000


--------------------------------------------------------------------------------------------------------



  FREE ENERGIE OF THE ION-ELECTRON SYSTEM (eV)
  ---------------------------------------------------
  free  energy   TOTEN  =        -4.39243059 eV

  energy  without entropy=       -4.39332785  energy(sigma->0) =       -4.39272968
 


--------------------------------------------------------------------------------------------------------


    POTLOK:  cpu time    0.0028: real time    0.0034


--------------------------------------------------------------------------------------------------------


 writing wavefunctions
     LOOP+:  cpu time    1.7955: real time    1.9981
    4ORBIT:  cpu time    0.0000: real time    0.0000

 total amount of memory used by VASP MPI-rank0    33732. kBytes
=======================================================================

   base      :      30000. kBytes
   nonl-proj :       2283. kBytes
   fftplans  :        238. kBytes
   grid      :        331. kBytes
   one-center:         15. kBytes
   wavefun   :        865. kBytes
 
  
  
 General timing and accounting informations for this job:
 ========================================================
  
                  Total CPU time used (sec):        2.331
                            User time (sec):        1.989
                          System time (sec):        0.342
                         Elapsed time (sec):        4.424
  
                   Maximum memory used (kb):       63156.
                   Average memory used (kb):           0.
  
                          Minor page faults:        21869
                          Major page faults:           70
                 Voluntary context switches:         2123
