BCC W                                   
   3.15000000000000     
    -0.500000    0.500000    0.500000
     0.500000   -0.500000    0.500000
     0.500000    0.500000   -0.500000
   W 
     1
Direct
  0.000000  0.000000  0.000000
 
   20   20   20
  13.594      12.993      11.789      11.022      10.902      10.682      9.7119      8.2361      6.9767      6.2659    
  6.0345      6.2659      6.9767      8.2361      9.7119      10.682      10.902      11.022      11.789      12.993    
  12.993      12.759      11.693      10.772      10.521      10.449      9.7917      8.4935      7.1816      6.3424    
  5.9732      6.0469      6.5684      7.5907      8.9923      10.153      10.597      10.664      11.139      12.182    
  11.789      11.693      10.794      9.8264      9.4371      9.4334      9.1192      8.2010      7.0727      6.2364    
  5.7956      5.7405      6.0740      6.8121      7.9598      9.1599      9.8969      10.151      10.453      11.139    
  11.022      10.772      9.8264      8.7281      8.1156      8.0291      7.9410      7.4351      6.6413      5.9478    
  5.5226      5.3989      5.5798      6.0872      6.9285      8.0147      9.0025      9.6658      10.151      10.664    
  10.902      10.521      9.4371      8.1156      7.1741      6.8214      6.7319      6.4862      6.0133      5.5290    
  5.1910      5.0641      5.1523      5.4812      6.0757      6.9374      7.9780      9.0025      9.8969      10.597    
  10.682      10.449      9.4334      8.0291      6.8214      6.1395      5.8607      5.6597      5.3744      5.0709    
  4.8486      4.7653      4.8193      5.0244      5.4326      6.0649      6.9374      8.0147      9.1599      10.153    
  9.7119      9.7917      9.1192      7.9410      6.7319      5.8607      5.3727      5.0881      4.8570      4.6618    
  4.5406      4.5165      4.5762      4.7186      4.9855      5.4326      6.0757      6.9285      7.9598      8.9923    
  8.2361      8.4935      8.2010      7.4351      6.4862      5.6597      5.0881      4.7286      4.4965      4.3534    
  4.2968      4.3193      4.3994      4.5255      4.7186      5.0244      5.4812      6.0872      6.8121      7.5907    
  6.9767      7.1816      7.0727      6.6413      6.0133      5.3744      4.8570      4.4965      4.2718      4.1556    
  4.1279      4.1712      4.2661      4.3994      4.5762      4.8193      5.1523      5.5798      6.0740      6.5684    
  6.2659      6.3424      6.2364      5.9478      5.5290      5.0709      4.6618      4.3534      4.1556      4.0540    
  4.0309      4.0731      4.1712      4.3193      4.5165      4.7653      5.0641      5.3989      5.7405      6.0469    
  6.0345      5.9732      5.7956      5.5226      5.1910      4.8486      4.5406      4.2968      4.1279      4.0309    
  3.9995      4.0309      4.1279      4.2968      4.5406      4.8486      5.1910      5.5226      5.7956      5.9732    
  6.2659      6.0469      5.7405      5.3989      5.0641      4.7653      4.5165      4.3193      4.1712      4.0731    
  4.0309      4.0540      4.1556      4.3534      4.6618      5.0709      5.5290      5.9478      6.2364      6.3424    
  6.9767      6.5684      6.0740      5.5798      5.1523      4.8193      4.5762      4.3994      4.2661      4.1712    
  4.1279      4.1556      4.2718      4.4965      4.8570      5.3744      6.0133      6.6413      7.0727      7.1816    
  8.2361      7.5907      6.8121      6.0872      5.4812      5.0244      4.7186      4.5255      4.3994      4.3193    
  4.2968      4.3534      4.4965      4.7286      5.0881      5.6597      6.4862      7.4351      8.2010      8.4935    
  9.7119      8.9923      7.9598      6.9285      6.0757      5.4326      4.9855      4.7186      4.5762      4.5165    
  4.5406      4.6618      4.8570      5.0881      5.3727      5.8607      6.7319      7.9410      9.1192      9.7917    
  10.682      10.153      9.1599      8.0147      6.9374      6.0649      5.4326      5.0244      4.8193      4.7653    
  4.8486      5.0709      5.3744      5.6597      5.8607      6.1395      6.8214      8.0291      9.4334      10.449    
  10.902      10.597      9.8969      9.0025      7.9780      6.9374      6.0757      5.4812      5.1523      5.0641    
  5.1910      5.5290      6.0133      6.4862      6.7319      6.8214      7.1741      8.1156      9.4371      10.521    
  11.022      10.664      10.151      9.6658      9.0025      8.0147      6.9285      6.0872      5.5798      5.3989    
  5.5226      5.9478      6.6413      7.4351      7.9410      8.0291      8.1156      8.7281      9.8264      10.772    
  11.789      11.139      10.453      10.151      9.8969      9.1599      7.9598      6.8121      6.0740      5.7405    
  5.7956      6.2364      7.0727      8.2010      9.1192      9.4334      9.4371      9.8264      10.794      11.693    
  12.993      12.182      11.139      10.664      10.597      10.153      8.9923      7.5907      6.5684      6.0469    
  5.9732      6.3424      7.1816      8.4935      9.7917      10.449      10.521      10.772      11.693      12.759    
  12.993      12.759      11.693      10.772      10.521      10.449      9.7917      8.4935      7.1816      6.3424    
  5.9732      6.0469      6.5684      7.5907      8.9923      10.153      10.597      10.664      11.139      12.182    
  12.759      12.981      12.165      11.126      10.658      10.596      10.152      8.9921      7.5921      6.5706    
  6.0475      5.9716      6.3406      7.1817      8.4951      9.7934      10.452      10.528      10.783      11.703    
  11.693      12.165      11.687      10.736      10.126      10.005      9.7651      8.9079      7.6594      6.6048    
  5.9915      5.7895      5.9914      6.6047      7.6593      8.9078      9.7659      10.009      10.134      10.745    
  10.772      11.126      10.736      9.8283      9.0883      8.8441      8.7294      8.2240      7.3079      6.4013    
  5.7990      5.5309      5.5979      6.0082      6.7678      7.8256      8.8174      9.3964      9.6921      10.128    
  10.521      10.658      10.126      9.0883      8.1184      7.6294      7.4734      7.2066      6.6423      5.9892    
  5.4922      5.2300      5.2203      5.4681      5.9975      6.8035      7.7850      8.6874      9.3952      10.004    
  10.449      10.596      10.005      8.8441      7.6294      6.8234      6.4604      6.2313      5.8907      5.4734    
  5.1227      4.9224      4.8950      5.0382      5.3918      5.9773      6.7947      7.7859      8.8174      9.7640    
  9.7917      10.152      9.7651      8.7294      7.4734      6.4604      5.8612      5.5274      5.2515      4.9781    
  4.7563      4.6395      4.6351      4.7320      4.9578      5.3675      5.9785      6.8049      7.8259      8.9065    
  8.4935      8.9921      8.9079      8.2240      7.2066      6.2313      5.5274      5.0873      4.7954      4.5836    
  4.4484      4.4028      4.4352      4.5263      4.6858      4.9586      5.3929      5.9979      6.7667      7.6573    
  7.1816      7.5921      7.6594      7.3079      6.6423      5.8907      5.2515      4.7954      4.4964      4.3132    
  4.2262      4.2223      4.2820      4.3843      4.5265      4.7323      5.0380      5.4669      6.0064      6.6032    
  6.3424      6.5706      6.6048      6.4013      5.9892      5.4734      4.9781      4.5836      4.3132      4.1559    
  4.0908      4.1001      4.1684      4.2819      4.4350      4.6346      4.8941      5.2192      5.5973      5.9921    
  5.9732      6.0475      5.9915      5.7990      5.4922      5.1227      4.7563      4.4484      4.2262      4.0908    
  4.0309      4.0358      4.0999      4.2220      4.4024      4.6390      4.9221      5.2305      5.5322      5.7914    
  6.0469      5.9716      5.7895      5.5309      5.2300      4.9224      4.6395      4.4028      4.2223      4.1001    
  4.0358      4.0308      4.0905      4.2258      4.4483      4.7567      5.1236      5.4936      5.8004      5.9921    
  6.5684      6.3406      5.9914      5.5979      5.2203      4.8950      4.6351      4.4352      4.2820      4.1684    
  4.0999      4.0905      4.1557      4.3134      4.5843      4.9793      5.4746      5.9898      6.4009      6.6032    
  7.5907      7.1817      6.6047      6.0082      5.4681      5.0382      4.7320      4.5263      4.3843      4.2819    
  4.2220      4.2258      4.3134      4.4972      4.7966      5.2524      5.8907      6.6413      7.3059      7.6573    
  8.9923      8.4951      7.6593      6.7678      5.9975      5.3918      4.9578      4.6858      4.5265      4.4350    
  4.4024      4.4483      4.5843      4.7966      5.0881      5.5272      6.2299      7.2044      8.2218      8.9065    
  10.153      9.7934      8.9078      7.8256      6.8035      5.9773      5.3675      4.9586      4.7323      4.6346    
  4.6390      4.7567      4.9793      5.2524      5.5272      5.8596      6.4579      7.4707      8.7271      9.7640    
  10.597      10.452      9.7659      8.8174      7.7850      6.7947      5.9785      5.3929      5.0380      4.8941    
  4.9221      5.1236      5.4746      5.8907      6.2299      6.4579      6.8203      7.6260      8.8413      10.004    
  10.664      10.528      10.009      9.3964      8.6874      7.7859      6.8049      5.9979      5.4669      5.2192    
  5.2305      5.4936      5.9898      6.6413      7.2044      7.4707      7.6260      8.1147      9.0864      10.128    
  11.139      10.783      10.134      9.6921      9.3952      8.8174      7.8259      6.7667      6.0064      5.5973    
  5.5322      5.8004      6.4009      7.3059      8.2218      8.7271      8.8413      9.0864      9.8307      10.745    
  12.182      11.703      10.745      10.128      10.004      9.7640      8.9065      7.6573      6.6032      5.9921    
  5.7914      5.9921      6.6032      7.6573      8.9065      9.7640      10.004      10.128      10.745      11.703    
  11.789      11.693      10.794      9.8264      9.4371      9.4334      9.1192      8.2010      7.0727      6.2364    
  5.7956      5.7405      6.0740      6.8121      7.9598      9.1599      9.8969      10.151      10.453      11.139    
  11.693      12.165      11.687      10.736      10.126      10.005      9.7651      8.9079      7.6594      6.6048    
  5.9915      5.7895      5.9914      6.6047      7.6593      8.9078      9.7659      10.009      10.134      10.745    
  10.794      11.687      11.778      11.128      10.446      10.149      9.8976      9.1610      7.9603      6.8124    
  6.0741      5.7405      5.7956      6.2365      7.0728      8.2014      9.1203      9.4364      9.4420      9.8307    
  9.8264      10.736      11.128      10.775      10.130      9.6934      9.3980      8.8195      7.8268      6.7670    
  6.0065      5.5974      5.5322      5.8004      6.4011      7.3062      8.2224      8.7286      8.8432      9.0864    
  9.4371      10.126      10.446      10.130      9.4435      8.8474      8.4583      8.0049      7.2834      6.4487    
  5.7818      5.3738      5.2425      5.3738      5.7818      6.4485      7.2828      8.0029      8.4542      8.8413    
  9.4334      10.005      10.149      9.6934      8.8474      8.0338      7.4746      7.0425      6.5312      5.9446    
  5.4377      5.0973      4.9597      5.0107      5.2658      5.7451      6.4242      7.2239      8.0025      8.7271    
  9.1192      9.7651      9.8976      9.3980      8.4583      7.4746      6.7328      6.2300      5.8098      5.4001    
  5.0475      4.8068      4.7075      4.7323      4.8858      5.2113      5.7260      6.4242      7.2827      8.2218    
  8.2010      8.9079      9.1610      8.8195      8.0049      7.0425      6.2300      5.6577      5.2507      4.9317    
  4.6882      4.5420      4.4977      4.5323      4.6379      4.8478      5.2113      5.7451      6.4485      7.3059    
  7.0727      7.6594      7.9603      7.8268      7.2834      6.5312      5.8098      5.2507      4.8564      4.5839    
  4.4099      4.3307      4.3323      4.3889      4.4856      4.6379      4.8858      5.2658      5.7817      6.4009    
  6.2364      6.6048      6.8124      6.7670      6.4487      5.9446      5.4001      4.9317      4.5839      4.3541    
  4.2263      4.1840      4.2094      4.2824      4.3889      4.5323      4.7323      5.0107      5.3738      5.8004    
  5.7956      5.9915      6.0741      6.0065      5.7818      5.4377      5.0475      4.6882      4.4099      4.2263    
  4.1280      4.1000      4.1301      4.2094      4.3323      4.4978      4.7075      4.9598      5.2425      5.5322    
  5.7405      5.7895      5.7405      5.5974      5.3738      5.0973      4.8068      4.5420      4.3307      4.1840    
  4.1000      4.0730      4.1000      4.1839      4.3307      4.5420      4.8069      5.0973      5.3738      5.5973    
  6.0740      5.9914      5.7956      5.5322      5.2425      4.9597      4.7075      4.4977      4.3323      4.2094    
  4.1301      4.1000      4.1280      4.2262      4.4100      4.6884      5.0477      5.4378      5.7817      6.0064    
  6.8121      6.6047      6.2365      5.8004      5.3738      5.0107      4.7323      4.5323      4.3889      4.2824    
  4.2094      4.1839      4.2262      4.3542      4.5843      4.9322      5.4006      5.9448      6.4485      6.7667    
  7.9598      7.6593      7.0728      6.4011      5.7818      5.2658      4.8858      4.6379      4.4856      4.3889    
  4.3323      4.3307      4.4100      4.5843      4.8571      5.2515      5.8103      6.5310      7.2827      7.8259    
  9.1599      8.9078      8.2014      7.3062      6.4485      5.7451      5.2113      4.8478      4.6379      4.5323    
  4.4978      4.5420      4.6884      4.9322      5.2515      5.6584      6.2297      7.0409      8.0025      8.8174    
  9.8969      9.7659      9.1203      8.2224      7.2828      6.4242      5.7260      5.2113      4.8858      4.7323    
  4.7075      4.8069      5.0477      5.4006      5.8103      6.2297      6.7308      7.4709      8.4542      9.3952    
  10.151      10.009      9.4364      8.7286      8.0029      7.2239      6.4242      5.7451      5.2658      5.0107    
  4.9598      5.0973      5.4378      5.9448      6.5310      7.0409      7.4709      8.0287      8.8432      9.6921    
  10.453      10.134      9.4420      8.8432      8.4542      8.0025      7.2827      6.4485      5.7817      5.3738    
  5.2425      5.3738      5.7817      6.4485      7.2827      8.0025      8.4542      8.8432      9.4420      10.134    
  11.139      10.745      9.8307      9.0864      8.8413      8.7271      8.2218      7.3059      6.4009      5.8004    
  5.5322      5.5973      6.0064      6.7667      7.8259      8.8174      9.3952      9.6921      10.134      10.783    
  11.022      10.772      9.8264      8.7281      8.1156      8.0291      7.9410      7.4351      6.6413      5.9478    
  5.5226      5.3989      5.5798      6.0872      6.9285      8.0147      9.0025      9.6658      10.151      10.664    
  10.772      11.126      10.736      9.8283      9.0883      8.8441      8.7294      8.2240      7.3079      6.4013    
  5.7990      5.5309      5.5979      6.0082      6.7678      7.8256      8.8174      9.3964      9.6921      10.128    
  9.8264      10.736      11.128      10.775      10.130      9.6934      9.3980      8.8195      7.8268      6.7670    
  6.0065      5.5974      5.5322      5.8004      6.4011      7.3062      8.2224      8.7286      8.8432      9.0864    
  8.7281      9.8283      10.775      11.024      10.666      10.153      9.6685      9.0047      8.0150      6.9270    
  6.0859      5.5803      5.4003      5.5231      5.9466      6.6396      7.4344      7.9410      8.0287      8.1147    
  8.1156      9.0883      10.130      10.666      10.530      10.012      9.3996      8.6890      7.7850      6.8031    
  5.9973      5.4680      5.2203      5.2300      5.4921      5.9890      6.6418      7.2052      7.4709      7.6260    
  8.0291      8.8441      9.6934      10.153      10.012      9.4401      8.7311      8.0028      7.2219      6.4225    
  5.7452      5.2669      5.0110      4.9589      5.0964      5.4381      5.9460      6.5319      7.0409      7.4707    
  7.9410      8.7294      9.3980      9.6685      9.3996      8.7311      7.9413      7.2031      6.5292      5.9086    
  5.3889      5.0080      4.7945      4.7306      4.7946      5.0081      5.3894      5.9098      6.5310      7.2044    
  7.4351      8.2240      8.8195      9.0047      8.6890      8.0028      7.2031      6.4826      5.8884      5.4002    
  5.0134      4.7388      4.5926      4.5516      4.5888      4.7162      4.9755      5.3884      5.9448      6.6413    
  6.6413      7.3079      7.8268      8.0150      7.7850      7.2219      6.5292      5.8884      5.3730      4.9788    
  4.6884      4.5043      4.4226      4.4164      4.4576      4.5462      4.7155      5.0072      5.4378      5.9898    
  5.9478      6.4013      6.7670      6.9270      6.8031      6.4225      5.9086      5.4002      4.9788      4.6626    
  4.4487      4.3306      4.2940      4.3155      4.3720      4.4574      4.5885      4.7947      5.0973      5.4936    
  5.5226      5.7990      6.0065      6.0859      5.9973      5.7452      5.3889      5.0134      4.6884      4.4487    
  4.2972      4.2222      4.2094      4.2447      4.3155      4.4165      4.5520      4.7314      4.9598      5.2305    
  5.3989      5.5309      5.5974      5.5803      5.4680      5.2669      5.0080      4.7388      4.5043      4.3306    
  4.2222      4.1711      4.1684      4.2096      4.2942      4.4230      4.5930      4.7947      5.0107      5.2192    
  5.5798      5.5979      5.5322      5.4003      5.2203      5.0110      4.7945      4.5926      4.4226      4.2940    
  4.2094      4.1684      4.1712      4.2223      4.3307      4.5041      4.7383      5.0072      5.2658      5.4669    
  6.0872      6.0082      5.8004      5.5231      5.2300      4.9589      4.7306      4.5516      4.4164      4.3155    
  4.2447      4.2096      4.2223      4.2971      4.4482      4.6877      5.0126      5.3884      5.7451      5.9979    
  6.9285      6.7678      6.4011      5.9466      5.4921      5.0964      4.7946      4.5888      4.4576      4.3720    
  4.3155      4.2942      4.3307      4.4482      4.6618      4.9782      5.4006      5.9098      6.4242      6.8049    
  8.0147      7.8256      7.3062      6.6396      5.9890      5.4381      5.0081      4.7162      4.5462      4.4574    
  4.4165      4.4230      4.5041      4.6877      4.9782      5.3737      5.8906      6.5319      7.2239      7.7859    
  9.0025      8.8174      8.2224      7.4344      6.6418      5.9460      5.3894      4.9755      4.7155      4.5885    
  4.5520      4.5930      4.7383      5.0126      5.4006      5.8906      6.4856      7.2052      8.0029      8.6874    
  9.6658      9.3964      8.7286      7.9410      7.2052      6.5319      5.9098      5.3884      5.0072      4.7947    
  4.7314      4.7947      5.0072      5.3884      5.9098      6.5319      7.2052      7.9410      8.7286      9.3964    
  10.151      9.6921      8.8432      8.0287      7.4709      7.0409      6.5310      5.9448      5.4378      5.0973    
  4.9598      5.0107      5.2658      5.7451      6.4242      7.2239      8.0029      8.7286      9.4364      10.009    
  10.664      10.128      9.0864      8.1147      7.6260      7.4707      7.2044      6.6413      5.9898      5.4936    
  5.2305      5.2192      5.4669      5.9979      6.8049      7.7859      8.6874      9.3964      10.009      10.528    
  10.902      10.521      9.4371      8.1156      7.1741      6.8214      6.7319      6.4862      6.0133      5.5290    
  5.1910      5.0641      5.1523      5.4812      6.0757      6.9374      7.9780      9.0025      9.8969      10.597    
  10.521      10.658      10.126      9.0883      8.1184      7.6294      7.4734      7.2066      6.6423      5.9892    
  5.4922      5.2300      5.2203      5.4681      5.9975      6.8035      7.7850      8.6874      9.3952      10.004    
  9.4371      10.126      10.446      10.130      9.4435      8.8474      8.4583      8.0049      7.2834      6.4487    
  5.7818      5.3738      5.2425      5.3738      5.7818      6.4485      7.2828      8.0029      8.4542      8.8413    
  8.1156      9.0883      10.130      10.666      10.530      10.012      9.3996      8.6890      7.7850      6.8031    
  5.9973      5.4680      5.2203      5.2300      5.4921      5.9890      6.6418      7.2052      7.4709      7.6260    
  7.1741      8.1184      9.4435      10.530      10.912      10.604      9.8996      9.0023      7.9767      6.9363    
  6.0751      5.4810      5.1522      5.0641      5.1910      5.5289      6.0130      6.4856      6.7308      6.8203    
  6.8214      7.6294      8.8474      10.012      10.604      10.456      9.7655      8.8147      7.7820      6.7928    
  5.9776      5.3926      5.0379      4.8940      4.9221      5.1236      5.4745      5.8906      6.2297      6.4579    
  6.7319      7.4734      8.4583      9.3996      9.8996      9.7655      9.1170      8.2180      7.2792      6.4222    
  5.7254      5.2111      4.8858      4.7323      4.7075      4.8069      5.0477      5.4006      5.8103      6.2299    
  6.4862      7.2066      8.0049      8.6890      9.0023      8.8147      8.2180      7.4300      6.6388      5.9448    
  5.3893      4.9758      4.7157      4.5886      4.5520      4.5930      4.7383      5.0126      5.4006      5.8907    
  6.0133      6.6423      7.2834      7.7850      7.9767      7.7820      7.2792      6.6388      6.0116      5.4745    
  5.0483      4.7388      4.5540      4.4696      4.4475      4.4695      4.5537      4.7383      5.0477      5.4746    
  5.5290      5.9892      6.4487      6.8031      6.9363      6.7928      6.4222      5.9448      5.4745      5.0722    
  4.7572      4.5419      4.4227      4.3782      4.3791      4.4073      4.4695      4.5930      4.8069      5.1236    
  5.1910      5.4922      5.7818      5.9973      6.0751      5.9776      5.7254      5.3893      5.0483      4.7572    
  4.5413      4.4027      4.3323      4.3155      4.3351      4.3791      4.4474      4.5520      4.7075      4.9221    
  5.0641      5.2300      5.3738      5.4680      5.4810      5.3926      5.2111      4.9758      4.7388      4.5419    
  4.4027      4.3192      4.2819      4.2824      4.3155      4.3782      4.4695      4.5885      4.7323      4.8941    
  5.1523      5.2203      5.2425      5.2203      5.1522      5.0379      4.8858      4.7157      4.5540      4.4227    
  4.3323      4.2819      4.2660      4.2819      4.3322      4.4225      4.5537      4.7155      4.8858      5.0380    
  5.4812      5.4681      5.3738      5.2300      5.0641      4.8940      4.7323      4.5886      4.4696      4.3782    
  4.3155      4.2824      4.2819      4.3191      4.4023      4.5414      4.7383      4.9755      5.2113      5.3929    
  6.0757      5.9975      5.7818      5.4921      5.1910      4.9221      4.7075      4.5520      4.4475      4.3791    
  4.3351      4.3155      4.3322      4.4023      4.5406      4.7564      5.0477      5.3894      5.7260      5.9785    
  6.9374      6.8035      6.4485      5.9890      5.5289      5.1236      4.8069      4.5930      4.4695      4.4073    
  4.3791      4.3782      4.4225      4.5414      4.7564      5.0714      5.4745      5.9460      6.4242      6.7947    
  7.9780      7.7850      7.2828      6.6418      6.0130      5.4745      5.0477      4.7383      4.5537      4.4695    
  4.4474      4.4695      4.5537      4.7383      5.0477      5.4745      6.0130      6.6418      7.2828      7.7850    
  9.0025      8.6874      8.0029      7.2052      6.4856      5.8906      5.4006      5.0126      4.7383      4.5930    
  4.5520      4.5885      4.7155      4.9755      5.3894      5.9460      6.6418      7.4344      8.2224      8.8174    
  9.8969      9.3952      8.4542      7.4709      6.7308      6.2297      5.8103      5.4006      5.0477      4.8069    
  4.7075      4.7323      4.8858      5.2113      5.7260      6.4242      7.2828      8.2224      9.1203      9.7659    
  10.597      10.004      8.8413      7.6260      6.8203      6.4579      6.2299      5.8907      5.4746      5.1236    
  4.9221      4.8941      5.0380      5.3929      5.9785      6.7947      7.7850      8.8174      9.7659      10.452    
  10.682      10.449      9.4334      8.0291      6.8214      6.1395      5.8607      5.6597      5.3744      5.0709    
  4.8486      4.7653      4.8193      5.0244      5.4326      6.0649      6.9374      8.0147      9.1599      10.153    
  10.449      10.596      10.005      8.8441      7.6294      6.8234      6.4604      6.2313      5.8907      5.4734    
  5.1227      4.9224      4.8950      5.0382      5.3918      5.9773      6.7947      7.7859      8.8174      9.7640    
  9.4334      10.005      10.149      9.6934      8.8474      8.0338      7.4746      7.0425      6.5312      5.9446    
  5.4377      5.0973      4.9597      5.0107      5.2658      5.7451      6.4242      7.2239      8.0025      8.7271    
  8.0291      8.8441      9.6934      10.153      10.012      9.4401      8.7311      8.0028      7.2219      6.4225    
  5.7452      5.2669      5.0110      4.9589      5.0964      5.4381      5.9460      6.5319      7.0409      7.4707    
  6.8214      7.6294      8.8474      10.012      10.604      10.456      9.7655      8.8147      7.7820      6.7928    
  5.9776      5.3926      5.0379      4.8940      4.9221      5.1236      5.4745      5.8906      6.2297      6.4579    
  6.1395      6.8234      8.0338      9.4401      10.456      10.684      10.150      9.1537      8.0097      6.9358    
  6.0655      5.4331      5.0238      4.8186      4.7656      4.8496      5.0714      5.3737      5.6584      5.8596    
  5.8607      6.4604      7.4746      8.7311      9.7655      10.150      9.7862      8.9004      7.8215      6.8030    
  5.9783      5.3678      4.9580      4.7321      4.6352      4.6396      4.7564      4.9782      5.2515      5.5272    
  5.6597      6.2313      7.0425      8.0028      8.8147      9.1537      8.9004      8.1960      7.3047      6.4499    
  5.7467      5.2117      4.8475      4.6380      4.5327      4.4978      4.5414      4.6877      4.9322      5.2524    
  5.3744      5.8907      6.5312      7.2219      7.7820      8.0097      7.8215      7.3047      6.6410      5.9915    
  5.4398      5.0085      4.7161      4.5464      4.4576      4.4164      4.4225      4.5041      4.6884      4.9793    
  5.0709      5.4734      5.9446      6.4225      6.7928      6.9358      6.8030      6.4499      5.9915      5.5311    
  5.1247      4.8070      4.5929      4.4696      4.4074      4.3790      4.3782      4.4230      4.5420      4.7567    
  4.8486      5.1227      5.4377      5.7452      5.9776      6.0655      5.9783      5.7467      5.4398      5.1247    
  4.8499      4.6394      4.4977      4.4164      4.3791      4.3690      4.3791      4.4165      4.4978      4.6390    
  4.7653      4.9224      5.0973      5.2669      5.3926      5.4331      5.3678      5.2117      5.0085      4.8070    
  4.6394      4.5162      4.4349      4.3888      4.3719      4.3790      4.4073      4.4574      4.5323      4.6346    
  4.8193      4.8950      4.9597      5.0110      5.0379      5.0238      4.9580      4.8475      4.7161      4.5929    
  4.4977      4.4349      4.3991      4.3842      4.3889      4.4164      4.4695      4.5462      4.6379      4.7323    
  5.0244      5.0382      5.0107      4.9589      4.8940      4.8186      4.7321      4.6380      4.5464      4.4696    
  4.4164      4.3888      4.3842      4.3992      4.4351      4.4978      4.5930      4.7162      4.8478      4.9586    
  5.4326      5.3918      5.2658      5.0964      4.9221      4.7656      4.6352      4.5327      4.4576      4.4074    
  4.3791      4.3719      4.3889      4.4351      4.5165      4.6396      4.8069      5.0081      5.2113      5.3675    
  6.0649      5.9773      5.7451      5.4381      5.1236      4.8496      4.6396      4.4978      4.4164      4.3790    
  4.3690      4.3790      4.4164      4.4978      4.6396      4.8496      5.1236      5.4381      5.7451      5.9773    
  6.9374      6.7947      6.4242      5.9460      5.4745      5.0714      4.7564      4.5414      4.4225      4.3782    
  4.3791      4.4073      4.4695      4.5930      4.8069      5.1236      5.5289      5.9890      6.4485      6.8035    
  8.0147      7.7859      7.2239      6.5319      5.8906      5.3737      4.9782      4.6877      4.5041      4.4230    
  4.4165      4.4574      4.5462      4.7162      5.0081      5.4381      5.9890      6.6396      7.3062      7.8256    
  9.1599      8.8174      8.0025      7.0409      6.2297      5.6584      5.2515      4.9322      4.6884      4.5420    
  4.4978      4.5323      4.6379      4.8478      5.2113      5.7451      6.4485      7.3062      8.2014      8.9078    
  10.153      9.7640      8.7271      7.4707      6.4579      5.8596      5.5272      5.2524      4.9793      4.7567    
  4.6390      4.6346      4.7323      4.9586      5.3675      5.9773      6.8035      7.8256      8.9078      9.7934    
  9.7119      9.7917      9.1192      7.9410      6.7319      5.8607      5.3727      5.0881      4.8570      4.6618    
  4.5406      4.5165      4.5762      4.7186      4.9855      5.4326      6.0757      6.9285      7.9598      8.9923    
  9.7917      10.152      9.7651      8.7294      7.4734      6.4604      5.8612      5.5274      5.2515      4.9781    
  4.7563      4.6395      4.6351      4.7320      4.9578      5.3675      5.9785      6.8049      7.8259      8.9065    
  9.1192      9.7651      9.8976      9.3980      8.4583      7.4746      6.7328      6.2300      5.8098      5.4001    