BCC W                                   
   3.15000000000000     
    -0.500000    0.500000    0.500000
     0.500000   -0.500000    0.500000
     0.500000    0.500000   -0.500000
   W 
     1
Direct
  0.000000  0.000000  0.000000
 
   20   20   20
 0.13594067807E+02 0.12992740629E+02 0.11788767382E+02 0.11021583494E+02 0.10902475189E+02
 0.10681780588E+02 0.97118798915E+01 0.82360571764E+01 0.69767327332E+01 0.62658942366E+01
 0.60345394574E+01 0.62658942366E+01 0.69767327332E+01 0.82360571764E+01 0.97118798915E+01
 0.10681780588E+02 0.10902475189E+02 0.11021583494E+02 0.11788767382E+02 0.12992740629E+02
 0.12992740629E+02 0.12759181782E+02 0.11693306206E+02 0.10771838016E+02 0.10521321221E+02
 0.10449484744E+02 0.97916777070E+01 0.84935076554E+01 0.71815569543E+01 0.63424221696E+01
 0.59732386813E+01 0.60468978856E+01 0.65684030602E+01 0.75907110208E+01 0.89922810321E+01
 0.10153020512E+02 0.10597468420E+02 0.10664493406E+02 0.11138648359E+02 0.12181624205E+02
 0.11788767382E+02 0.11693306206E+02 0.10793929282E+02 0.98263863109E+01 0.94371294427E+01
 0.94333684752E+01 0.91191660399E+01 0.82010460773E+01 0.70726582093E+01 0.62364427072E+01
 0.57956416226E+01 0.57405155175E+01 0.60739856122E+01 0.68121460317E+01 0.79597723984E+01
 0.91598927336E+01 0.98969088434E+01 0.10151026461E+02 0.10452777428E+02 0.11138648359E+02
 0.11021583494E+02 0.10771838016E+02 0.98263863109E+01 0.87280531066E+01 0.81156155236E+01
 0.80291302612E+01 0.79409983438E+01 0.74351059189E+01 0.66412651525E+01 0.59477902373E+01
 0.55225635748E+01 0.53988711544E+01 0.55798291115E+01 0.60872008682E+01 0.69285372754E+01
 0.80147307836E+01 0.90024659125E+01 0.96658479980E+01 0.10151026461E+02 0.10664493406E+02
 0.10902475189E+02 0.10521321221E+02 0.94371294427E+01 0.81156155236E+01 0.71740645995E+01
 0.68214412277E+01 0.67318810975E+01 0.64862375893E+01 0.60132739485E+01 0.55289658389E+01
 0.51909939642E+01 0.50640931886E+01 0.51522969592E+01 0.54812318144E+01 0.60757369175E+01
 0.69374491638E+01 0.79780295877E+01 0.90024659125E+01 0.98969088434E+01 0.10597468420E+02
 0.10681780588E+02 0.10449484744E+02 0.94333684752E+01 0.80291302612E+01 0.68214412277E+01
 0.61394619550E+01 0.58607293322E+01 0.56596984793E+01 0.53743993296E+01 0.50709459126E+01
 0.48486081011E+01 0.47652685298E+01 0.48193085562E+01 0.50243596472E+01 0.54326468208E+01
 0.60649280789E+01 0.69374491638E+01 0.80147307836E+01 0.91598927336E+01 0.10153020512E+02
 0.97118798915E+01 0.97916777070E+01 0.91191660399E+01 0.79409983438E+01 0.67318810975E+01
 0.58607293322E+01 0.53727020938E+01 0.50881408856E+01 0.48570374766E+01 0.46617934845E+01
 0.45406086286E+01 0.45164576048E+01 0.45761781988E+01 0.47186318034E+01 0.49854665190E+01
 0.54326468208E+01 0.60757369175E+01 0.69285372754E+01 0.79597723984E+01 0.89922810321E+01
 0.82360571764E+01 0.84935076554E+01 0.82010460773E+01 0.74351059189E+01 0.64862375893E+01
 0.56596984793E+01 0.50881408856E+01 0.47285888265E+01 0.44965437071E+01 0.43534277663E+01
 0.42968446054E+01 0.43193090558E+01 0.43993574923E+01 0.45255318416E+01 0.47186318034E+01
 0.50243596472E+01 0.54812318144E+01 0.60872008682E+01 0.68121460317E+01 0.75907110208E+01
 0.69767327332E+01 0.71815569543E+01 0.70726582093E+01 0.66412651525E+01 0.60132739485E+01
 0.53743993296E+01 0.48570374766E+01 0.44965437071E+01 0.42718481941E+01 0.41556207709E+01
 0.41278616509E+01 0.41712216896E+01 0.42661393435E+01 0.43993574923E+01 0.45761781988E+01
 0.48193085562E+01 0.51522969592E+01 0.55798291115E+01 0.60739856122E+01 0.65684030602E+01
 0.62658942366E+01 0.63424221696E+01 0.62364427072E+01 0.59477902373E+01 0.55289658389E+01
 0.50709459126E+01 0.46617934845E+01 0.43534277663E+01 0.41556207709E+01 0.40540459302E+01
 0.40308883587E+01 0.40730647598E+01 0.41712216896E+01 0.43193090558E+01 0.45164576048E+01
 0.47652685298E+01 0.50640931886E+01 0.53988711544E+01 0.57405155175E+01 0.60468978856E+01
 0.60345394574E+01 0.59732386813E+01 0.57956416226E+01 0.55225635748E+01 0.51909939642E+01
 0.48486081011E+01 0.45406086286E+01 0.42968446054E+01 0.41278616509E+01 0.40308883587E+01
 0.39995354526E+01 0.40308883587E+01 0.41278616509E+01 0.42968446054E+01 0.45406086286E+01
 0.48486081011E+01 0.51909939642E+01 0.55225635748E+01 0.57956416226E+01 0.59732386813E+01
 0.62658942366E+01 0.60468978856E+01 0.57405155175E+01 0.53988711544E+01 0.50640931886E+01
 0.47652685298E+01 0.45164576048E+01 0.43193090558E+01 0.41712216896E+01 0.40730647598E+01
 0.40308883587E+01 0.40540459302E+01 0.41556207709E+01 0.43534277663E+01 0.46617934845E+01
 0.50709459126E+01 0.55289658389E+01 0.59477902373E+01 0.62364427072E+01 0.63424221696E+01
 0.69767327332E+01 0.65684030602E+01 0.60739856122E+01 0.55798291115E+01 0.51522969592E+01
 0.48193085562E+01 0.45761781988E+01 0.43993574923E+01 0.42661393435E+01 0.41712216896E+01
 0.41278616509E+01 0.41556207709E+01 0.42718481941E+01 0.44965437071E+01 0.48570374766E+01
 0.53743993296E+01 0.60132739485E+01 0.66412651525E+01 0.70726582093E+01 0.71815569543E+01
 0.82360571764E+01 0.75907110208E+01 0.68121460317E+01 0.60872008682E+01 0.54812318144E+01
 0.50243596472E+01 0.47186318034E+01 0.45255318416E+01 0.43993574923E+01 0.43193090558E+01
 0.42968446054E+01 0.43534277663E+01 0.44965437071E+01 0.47285888265E+01 0.50881408856E+01
 0.56596984793E+01 0.64862375893E+01 0.74351059189E+01 0.82010460773E+01 0.84935076554E+01
 0.97118798915E+01 0.89922810321E+01 0.79597723984E+01 0.69285372754E+01 0.60757369175E+01
 0.54326468208E+01 0.49854665190E+01 0.47186318034E+01 0.45761781988E+01 0.45164576048E+01
 0.45406086286E+01 0.46617934845E+01 0.48570374766E+01 0.50881408856E+01 0.53727020938E+01
 0.58607293322E+01 0.67318810975E+01 0.79409983438E+01 0.91191660399E+01 0.97916777070E+01
 0.10681780588E+02 0.10153020512E+02 0.91598927336E+01 0.80147307836E+01 0.69374491638E+01
 0.60649280789E+01 0.54326468208E+01 0.50243596472E+01 0.48193085562E+01 0.47652685298E+01
 0.48486081011E+01 0.50709459126E+01 0.53743993296E+01 0.56596984793E+01 0.58607293322E+01
 0.61394619550E+01 0.68214412277E+01 0.80291302612E+01 0.94333684752E+01 0.10449484744E+02
 0.10902475189E+02 0.10597468420E+02 0.98969088434E+01 0.90024659125E+01 0.79780295877E+01
 0.69374491638E+01 0.60757369175E+01 0.54812318144E+01 0.51522969592E+01 0.50640931886E+01
 0.51909939642E+01 0.55289658389E+01 0.60132739485E+01 0.64862375893E+01 0.67318810975E+01
 0.68214412277E+01 0.71740645995E+01 0.81156155236E+01 0.94371294427E+01 0.10521321221E+02
 0.11021583494E+02 0.10664493406E+02 0.10151026461E+02 0.96658479980E+01 0.90024659125E+01
 0.80147307836E+01 0.69285372754E+01 0.60872008682E+01 0.55798291115E+01 0.53988711544E+01
 0.55225635748E+01 0.59477902373E+01 0.66412651525E+01 0.74351059189E+01 0.79409983438E+01
 0.80291302612E+01 0.81156155236E+01 0.87280531066E+01 0.98263863109E+01 0.10771838016E+02
 0.11788767382E+02 0.11138648359E+02 0.10452777428E+02 0.10151026461E+02 0.98969088434E+01
 0.91598927336E+01 0.79597723984E+01 0.68121460317E+01 0.60739856122E+01 0.57405155175E+01
 0.57956416226E+01 0.62364427072E+01 0.70726582093E+01 0.82010460773E+01 0.91191660399E+01
 0.94333684752E+01 0.94371294427E+01 0.98263863109E+01 0.10793929282E+02 0.11693306206E+02
 0.12992740629E+02 0.12181624205E+02 0.11138648359E+02 0.10664493406E+02 0.10597468420E+02
 0.10153020512E+02 0.89922810321E+01 0.75907110208E+01 0.65684030602E+01 0.60468978856E+01
 0.59732386813E+01 0.63424221696E+01 0.71815569543E+01 0.84935076554E+01 0.97916777070E+01
 0.10449484744E+02 0.10521321221E+02 0.10771838016E+02 0.11693306206E+02 0.12759181782E+02
 0.12992740629E+02 0.12759181782E+02 0.11693306206E+02 0.10771838016E+02 0.10521321221E+02
 0.10449484744E+02 0.97916777070E+01 0.84935076554E+01 0.71815569543E+01 0.63424221696E+01
 0.59732386813E+01 0.60468978856E+01 0.65684030602E+01 0.75907110208E+01 0.89922810321E+01
 0.10153020512E+02 0.10597468420E+02 0.10664493406E+02 0.11138648359E+02 0.12181624205E+02
 0.12759181782E+02 0.12981319428E+02 0.12165062881E+02 0.11125551795E+02 0.10658396192E+02
 0.10595843714E+02 0.10152367768E+02 0.89920986007E+01 0.75920602933E+01 0.65705639477E+01
 0.60475290395E+01 0.59716135006E+01 0.63406270488E+01 0.71817064210E+01 0.84951446799E+01
 0.97933953455E+01 0.10452356583E+02 0.10528385544E+02 0.10783112658E+02 0.11702821501E+02
 0.11693306206E+02 0.12165062881E+02 0.11686975390E+02 0.10735645971E+02 0.10126319531E+02
 0.10005337880E+02 0.97650727688E+01 0.89079259319E+01 0.76594232162E+01 0.66047616959E+01
 0.59914823352E+01 0.57894895940E+01 0.59914038901E+01 0.66046961298E+01 0.76593105657E+01
 0.89078317635E+01 0.97659497976E+01 0.10008955679E+02 0.10133561597E+02 0.10744602148E+02
 0.10771838016E+02 0.11125551795E+02 0.10735645971E+02 0.98283101346E+01 0.90883242802E+01
 0.88441374544E+01 0.87293982809E+01 0.82240347756E+01 0.73078795137E+01 0.64013186376E+01
 0.57990461973E+01 0.55309172106E+01 0.55978753258E+01 0.60082180672E+01 0.67677842548E+01
 0.78256357316E+01 0.88174138394E+01 0.93963734456E+01 0.96921109008E+01 0.10128377548E+02
 0.10521321221E+02 0.10658396192E+02 0.10126319531E+02 0.90883242802E+01 0.81183647568E+01
 0.76293938201E+01 0.74734242380E+01 0.72066252438E+01 0.66423282951E+01 0.59891675530E+01
 0.54921983635E+01 0.52300293075E+01 0.52202995332E+01 0.54680885025E+01 0.59975441887E+01
 0.68034860065E+01 0.77849846114E+01 0.86873745799E+01 0.93952042155E+01 0.10004464344E+02
 0.10449484744E+02 0.10595843714E+02 0.10005337880E+02 0.88441374544E+01 0.76293938201E+01
 0.68234286222E+01 0.64603681381E+01 0.62313259629E+01 0.58906605973E+01 0.54734236707E+01
 0.51226560089E+01 0.49223816987E+01 0.48949666226E+01 0.50381926696E+01 0.53917738303E+01
 0.59772957280E+01 0.67947088959E+01 0.77858756867E+01 0.88174456930E+01 0.97640250583E+01
 0.97916777070E+01 0.10152367768E+02 0.97650727688E+01 0.87293982809E+01 0.74734242380E+01
 0.64603681381E+01 0.58612167232E+01 0.55274429797E+01 0.52514633080E+01 0.49781378234E+01
 0.47563422194E+01 0.46394988625E+01 0.46350785389E+01 0.47319526314E+01 0.49578132777E+01
 0.53674614127E+01 0.59785024179E+01 0.68049350562E+01 0.78258976119E+01 0.89065485176E+01
 0.84935076554E+01 0.89920986007E+01 0.89079259319E+01 0.82240347756E+01 0.72066252438E+01
 0.62313259629E+01 0.55274429797E+01 0.50872780363E+01 0.47954348797E+01 0.45835789358E+01
 0.44483768771E+01 0.44028489417E+01 0.44351644321E+01 0.45262638938E+01 0.46857552856E+01
 0.49585746717E+01 0.53928713664E+01 0.59978764263E+01 0.67666764414E+01 0.76572770684E+01
 0.71815569543E+01 0.75920602933E+01 0.76594232162E+01 0.73078795137E+01 0.66423282951E+01
 0.58906605973E+01 0.52514633080E+01 0.47954348797E+01 0.44963733275E+01 0.43132189701E+01
 0.42261573359E+01 0.42223385368E+01 0.42819886423E+01 0.43843046558E+01 0.45265214965E+01
 0.47323246806E+01 0.50380451118E+01 0.54669340812E+01 0.60063745906E+01 0.66032099865E+01
 0.63424221696E+01 0.65705639477E+01 0.66047616959E+01 0.64013186376E+01 0.59891675530E+01
 0.54734236707E+01 0.49781378234E+01 0.45835789358E+01 0.43132189701E+01 0.41559317862E+01
 0.40907846835E+01 0.41001007524E+01 0.41684015006E+01 0.42819376170E+01 0.44350377205E+01
 0.46346415805E+01 0.48940620517E+01 0.52192215661E+01 0.55973496314E+01 0.59920600596E+01
 0.59732386813E+01 0.60475290395E+01 0.59914823352E+01 0.57990461973E+01 0.54921983635E+01
 0.51226560089E+01 0.47563422194E+01 0.44483768771E+01 0.42261573359E+01 0.40907846835E+01
 0.40309476440E+01 0.40358338765E+01 0.40999398273E+01 0.42220289765E+01 0.44023937208E+01
 0.46389966254E+01 0.49221381132E+01 0.52304652480E+01 0.55322319451E+01 0.57913526528E+01
 0.60468978856E+01 0.59716135006E+01 0.57894895940E+01 0.55309172106E+01 0.52300293075E+01
 0.49223816987E+01 0.46394988625E+01 0.44028489417E+01 0.42223385368E+01 0.41001007524E+01
 0.40358338765E+01 0.40307716515E+01 0.40904734271E+01 0.42258389851E+01 0.44482629566E+01
 0.47566828633E+01 0.51236076462E+01 0.54936202332E+01 0.58004038039E+01 0.59920600596E+01
 0.65684030602E+01 0.63406270488E+01 0.59914038901E+01 0.55978753258E+01 0.52202995332E+01
 0.48949666226E+01 0.46350785389E+01 0.44351644321E+01 0.42819886423E+01 0.41684015006E+01
 0.40999398273E+01 0.40904734271E+01 0.41556995741E+01 0.43133672726E+01 0.45842663661E+01
 0.49792601006E+01 0.54745995104E+01 0.59898215334E+01 0.64009230613E+01 0.66032099865E+01
 0.75907110208E+01 0.71817064210E+01 0.66046961298E+01 0.60082180672E+01 0.54680885025E+01
 0.50381926696E+01 0.47319526314E+01 0.45262638938E+01 0.43843046558E+01 0.42819376170E+01
 0.42220289765E+01 0.42258389851E+01 0.43133672726E+01 0.44971857933E+01 0.47966039205E+01
 0.52523736012E+01 0.58907388009E+01 0.66413014756E+01 0.73059375979E+01 0.76572770684E+01
 0.89922810321E+01 0.84951446799E+01 0.76593105657E+01 0.67677842548E+01 0.59975441887E+01
 0.53917738303E+01 0.49578132777E+01 0.46857552856E+01 0.45265214965E+01 0.44350377205E+01
 0.44023937208E+01 0.44482629566E+01 0.45842663661E+01 0.47966039205E+01 0.50880850278E+01
 0.55272004353E+01 0.62299046991E+01 0.72044174037E+01 0.82217848502E+01 0.89065485176E+01
 0.10153020512E+02 0.97933953455E+01 0.89078317635E+01 0.78256357316E+01 0.68034860065E+01
 0.59772957280E+01 0.53674614127E+01 0.49585746717E+01 0.47323246806E+01 0.46346415805E+01
 0.46389966254E+01 0.47566828633E+01 0.49792601006E+01 0.52523736012E+01 0.55272004353E+01
 0.58596395198E+01 0.64578853783E+01 0.74706551818E+01 0.87270750268E+01 0.97640250583E+01
 0.10597468420E+02 0.10452356583E+02 0.97659497976E+01 0.88174138394E+01 0.77849846114E+01
 0.67947088959E+01 0.59785024179E+01 0.53928713664E+01 0.50380451118E+01 0.48940620517E+01
 0.49221381132E+01 0.51236076462E+01 0.54745995104E+01 0.58907388009E+01 0.62299046991E+01
 0.64578853783E+01 0.68203277126E+01 0.76260093848E+01 0.88413319308E+01 0.10004464344E+02
 0.10664493406E+02 0.10528385544E+02 0.10008955679E+02 0.93963734456E+01 0.86873745799E+01
 0.77858756867E+01 0.68049350562E+01 0.59978764263E+01 0.54669340812E+01 0.52192215661E+01
 0.52304652480E+01 0.54936202332E+01 0.59898215334E+01 0.66413014756E+01 0.72044174037E+01
 0.74706551818E+01 0.76260093848E+01 0.81147265372E+01 0.90863681475E+01 0.10128377548E+02
 0.11138648359E+02 0.10783112658E+02 0.10133561597E+02 0.96921109008E+01 0.93952042155E+01
 0.88174456930E+01 0.78258976119E+01 0.67666764414E+01 0.60063745906E+01 0.55973496314E+01
 0.55322319451E+01 0.58004038039E+01 0.64009230613E+01 0.73059375979E+01 0.82217848502E+01
 0.87270750268E+01 0.88413319308E+01 0.90863681475E+01 0.98306821077E+01 0.10744602148E+02
 0.12181624205E+02 0.11702821501E+02 0.10744602148E+02 0.10128377548E+02 0.10004464344E+02
 0.97640250583E+01 0.89065485176E+01 0.76572770684E+01 0.66032099865E+01 0.59920600596E+01
 0.57913526528E+01 0.59920600596E+01 0.66032099865E+01 0.76572770684E+01 0.89065485176E+01
 0.97640250583E+01 0.10004464344E+02 0.10128377548E+02 0.10744602148E+02 0.11702821501E+02
 0.11788767382E+02 0.11693306206E+02 0.10793929282E+02 0.98263863109E+01 0.94371294427E+01
 0.94333684752E+01 0.91191660399E+01 0.82010460773E+01 0.70726582093E+01 0.62364427072E+01
 0.57956416226E+01 0.57405155175E+01 0.60739856122E+01 0.68121460317E+01 0.79597723984E+01
 0.91598927336E+01 0.98969088434E+01 0.10151026461E+02 0.10452777428E+02 0.11138648359E+02
 0.11693306206E+02 0.12165062881E+02 0.11686975390E+02 0.10735645971E+02 0.10126319531E+02
 0.10005337880E+02 0.97650727688E+01 0.89079259319E+01 0.76594232162E+01 0.66047616959E+01
 0.59914823352E+01 0.57894895940E+01 0.59914038901E+01 0.66046961298E+01 0.76593105657E+01
 0.89078317635E+01 0.97659497976E+01 0.10008955679E+02 0.10133561597E+02 0.10744602148E+02
 0.10793929282E+02 0.11686975390E+02 0.11777927042E+02 0.11127903005E+02 0.10446047253E+02
 0.10149003256E+02 0.98975782516E+01 0.91609697285E+01 0.79603395730E+01 0.68123741377E+01
 0.60741196192E+01 0.57405481729E+01 0.57956073346E+01 0.62364790179E+01 0.70727861661E+01
 0.82013523012E+01 0.91203296596E+01 0.94364243898E+01 0.94420047061E+01 0.98306821077E+01
 0.98263863109E+01 0.10735645971E+02 0.11127903005E+02 0.10774911805E+02 0.10130482926E+02
 0.96933748059E+01 0.93980125141E+01 0.88195470643E+01 0.78268123480E+01 0.67669772178E+01
 0.60065142124E+01 0.55973861174E+01 0.55322045222E+01 0.58004459302E+01 0.64010528961E+01
 0.73061522474E+01 0.82224236910E+01 0.87285760930E+01 0.88431511955E+01 0.90863681475E+01
 0.94371294427E+01 0.10126319531E+02 0.10446047253E+02 0.10130482926E+02 0.94435130801E+01
 0.88473946606E+01 0.84583118611E+01 0.80048869668E+01 0.72834472170E+01 0.64486540772E+01
 0.57817692802E+01 0.53737540714E+01 0.52424764897E+01 0.53737637459E+01 0.57817785460E+01
 0.64485401813E+01 0.72827788874E+01 0.80028640684E+01 0.84541889799E+01 0.88413319308E+01
 0.94333684752E+01 0.10005337880E+02 0.10149003256E+02 0.96933748059E+01 0.88473946606E+01
 0.80338220164E+01 0.74745692523E+01 0.70425019975E+01 0.65311714634E+01 0.59445807322E+01
 0.54377157234E+01 0.50972509505E+01 0.49596982826E+01 0.50106988233E+01 0.52658359784E+01
 0.57451428708E+01 0.64241752616E+01 0.72239287048E+01 0.80025191527E+01 0.87270750268E+01
 0.91191660399E+01 0.97650727688E+01 0.98975782516E+01 0.93980125141E+01 0.84583118611E+01
 0.74745692523E+01 0.67328385298E+01 0.62299605491E+01 0.58097900581E+01 0.54001326335E+01
 0.50475212980E+01 0.48068042088E+01 0.47074740485E+01 0.47322869203E+01 0.48857981659E+01
 0.52112668483E+01 0.57260460793E+01 0.64241998881E+01 0.72826528642E+01 0.82217848502E+01
 0.82010460773E+01 0.89079259319E+01 0.91609697285E+01 0.88195470643E+01 0.80048869668E+01
 0.70425019975E+01 0.62299605491E+01 0.56576943389E+01 0.52507010618E+01 0.49316605624E+01
 0.46882388457E+01 0.45419779072E+01 0.44977408769E+01 0.45322823721E+01 0.46379472233E+01
 0.48477573689E+01 0.52112502659E+01 0.57451478610E+01 0.64485027237E+01 0.73059375979E+01
 0.70726582093E+01 0.76594232162E+01 0.79603395730E+01 0.78268123480E+01 0.72834472170E+01
 0.65311714634E+01 0.58097900581E+01 0.52507010618E+01 0.48563831719E+01 0.45839462870E+01
 0.44098694669E+01 0.43306994889E+01 0.43323225609E+01 0.43889235675E+01 0.44856212989E+01
 0.46379257130E+01 0.48857558910E+01 0.52657946113E+01 0.57817155837E+01 0.64009230613E+01
 0.62364427072E+01 0.66047616959E+01 0.68123741377E+01 0.67669772178E+01 0.64486540772E+01
 0.59445807322E+01 0.54001326335E+01 0.49316605624E+01 0.45839462870E+01 0.43540529680E+01
 0.42262784539E+01 0.41839831338E+01 0.42094229464E+01 0.42824037775E+01 0.43889297954E+01
 0.45322895493E+01 0.47322914841E+01 0.50107021404E+01 0.53737520325E+01 0.58004038039E+01
 0.57956416226E+01 0.59914823352E+01 0.60741196192E+01 0.60065142124E+01 0.57817692802E+01
 0.54377157234E+01 0.50475212980E+01 0.46882388457E+01 0.44098694669E+01 0.42262784539E+01
 0.41280337755E+01 0.41000341220E+01 0.41301058464E+01 0.42094127549E+01 0.43323363217E+01
 0.44977860118E+01 0.47075365136E+01 0.49597587888E+01 0.52425205854E+01 0.55322319451E+01
 0.57405155175E+01 0.57894895940E+01 0.57405481729E+01 0.55973861174E+01 0.53737540714E+01
 0.50972509505E+01 0.48068042088E+01 0.45419779072E+01 0.43306994889E+01 0.41839831338E+01
 0.41000341220E+01 0.40729696243E+01 0.40999914063E+01 0.41839427608E+01 0.43307088664E+01
 0.45420433923E+01 0.48068869387E+01 0.50973017137E+01 0.53737520325E+01 0.55973496314E+01
 0.60739856122E+01 0.59914038901E+01 0.57956073346E+01 0.55322045222E+01 0.52424764897E+01
 0.49596982826E+01 0.47074740485E+01 0.44977408769E+01 0.43323225609E+01 0.42094229464E+01
 0.41301058464E+01 0.40999914063E+01 0.41279629187E+01 0.42262497364E+01 0.44099522940E+01
 0.46884261027E+01 0.50477163634E+01 0.54378055614E+01 0.57817155837E+01 0.60063745906E+01
 0.68121460317E+01 0.66046961298E+01 0.62364790179E+01 0.58004459302E+01 0.53737637459E+01
 0.50106988233E+01 0.47322869203E+01 0.45322823721E+01 0.43889235675E+01 0.42824037775E+01
 0.42094127549E+01 0.41839427608E+01 0.42262497364E+01 0.43541581860E+01 0.45842871890E+01
 0.49321778715E+01 0.54005950992E+01 0.59447555203E+01 0.64485027237E+01 0.67666764414E+01
 0.79597723984E+01 0.76593105657E+01 0.70727861661E+01 0.64010528961E+01 0.57817785460E+01
 0.52658359784E+01 0.48857981659E+01 0.46379472233E+01 0.44856212989E+01 0.43889297954E+01
 0.43323363217E+01 0.43307088664E+01 0.44099522940E+01 0.45842871890E+01 0.48570816005E+01
 0.52515431503E+01 0.58102994751E+01 0.65309836417E+01 0.72826528642E+01 0.78258976119E+01
 0.91598927336E+01 0.89078317635E+01 0.82013523012E+01 0.73061522474E+01 0.64485401813E+01
 0.57451428708E+01 0.52112668483E+01 0.48477573689E+01 0.46379257130E+01 0.45322895493E+01
 0.44977860118E+01 0.45420433923E+01 0.46884261027E+01 0.49321778715E+01 0.52515431503E+01
 0.56583577760E+01 0.62296765357E+01 0.70409188809E+01 0.80025191527E+01 0.88174456930E+01
 0.98969088434E+01 0.97659497976E+01 0.91203296596E+01 0.82224236910E+01 0.72827788874E+01
 0.64241752616E+01 0.57260460793E+01 0.52112502659E+01 0.48857558910E+01 0.47322914841E+01
 0.47075365136E+01 0.48068869387E+01 0.50477163634E+01 0.54005950992E+01 0.58102994751E+01
 0.62296765357E+01 0.67308417970E+01 0.74708624375E+01 0.84541889799E+01 0.93952042155E+01
 0.10151026461E+02 0.10008955679E+02 0.94364243898E+01 0.87285760930E+01 0.80028640684E+01
 0.72239287048E+01 0.64241998881E+01 0.57451478610E+01 0.52657946113E+01 0.50107021404E+01
 0.49597587888E+01 0.50973017137E+01 0.54378055614E+01 0.59447555203E+01 0.65309836417E+01
 0.70409188809E+01 0.74708624375E+01 0.80287358518E+01 0.88431511955E+01 0.96921109008E+01
 0.10452777428E+02 0.10133561597E+02 0.94420047061E+01 0.88431511955E+01 0.84541889799E+01
 0.80025191527E+01 0.72826528642E+01 0.64485027237E+01 0.57817155837E+01 0.53737520325E+01
 0.52425205854E+01 0.53737520325E+01 0.57817155837E+01 0.64485027237E+01 0.72826528642E+01
 0.80025191527E+01 0.84541889799E+01 0.88431511955E+01 0.94420047061E+01 0.10133561597E+02
 0.11138648359E+02 0.10744602148E+02 0.98306821077E+01 0.90863681475E+01 0.88413319308E+01
 0.87270750268E+01 0.82217848502E+01 0.73059375979E+01 0.64009230613E+01 0.58004038039E+01
 0.55322319451E+01 0.55973496314E+01 0.60063745906E+01 0.67666764414E+01 0.78258976119E+01
 0.88174456930E+01 0.93952042155E+01 0.96921109008E+01 0.10133561597E+02 0.10783112658E+02
 0.11021583494E+02 0.10771838016E+02 0.98263863109E+01 0.87280531066E+01 0.81156155236E+01
 0.80291302612E+01 0.79409983438E+01 0.74351059189E+01 0.66412651525E+01 0.59477902373E+01
 0.55225635748E+01 0.53988711544E+01 0.55798291115E+01 0.60872008682E+01 0.69285372754E+01
 0.80147307836E+01 0.90024659125E+01 0.96658479980E+01 0.10151026461E+02 0.10664493406E+02
 0.10771838016E+02 0.11125551795E+02 0.10735645971E+02 0.98283101346E+01 0.90883242802E+01
 0.88441374544E+01 0.87293982809E+01 0.82240347756E+01 0.73078795137E+01 0.64013186376E+01
 0.57990461973E+01 0.55309172106E+01 0.55978753258E+01 0.60082180672E+01 0.67677842548E+01
 0.78256357316E+01 0.88174138394E+01 0.93963734456E+01 0.96921109008E+01 0.10128377548E+02
 0.98263863109E+01 0.10735645971E+02 0.11127903005E+02 0.10774911805E+02 0.10130482926E+02
 0.96933748059E+01 0.93980125141E+01 0.88195470643E+01 0.78268123480E+01 0.67669772178E+01
 0.60065142124E+01 0.55973861174E+01 0.55322045222E+01 0.58004459302E+01 0.64010528961E+01
 0.73061522474E+01 0.82224236910E+01 0.87285760930E+01 0.88431511955E+01 0.90863681475E+01
 0.87280531066E+01 0.98283101346E+01 0.10774911805E+02 0.11024185128E+02 0.10666201369E+02
 0.10152882303E+02 0.96684702041E+01 0.90047298214E+01 0.80150260476E+01 0.69270135051E+01
 0.60858897942E+01 0.55802881614E+01 0.54003471767E+01 0.55230524607E+01 0.59465670165E+01
 0.66395968302E+01 0.74343938938E+01 0.79410207936E+01 0.80287358518E+01 0.81147265372E+01
 0.81156155236E+01 0.90883242802E+01 0.10130482926E+02 0.10666201369E+02 0.10530379705E+02
 0.10011983850E+02 0.93996461200E+01 0.86889881173E+01 0.77850368847E+01 0.68031317151E+01
 0.59972930202E+01 0.54679779602E+01 0.52202523496E+01 0.52300021621E+01 0.54921493776E+01
 0.59889871763E+01 0.66417573614E+01 0.72052305653E+01 0.74708624375E+01 0.76260093848E+01
 0.80291302612E+01 0.88441374544E+01 0.96933748059E+01 0.10152882303E+02 0.10011983850E+02
 0.94401233494E+01 0.87311138775E+01 0.80027835027E+01 0.72219022215E+01 0.64224951107E+01
 0.57452245666E+01 0.52668831591E+01 0.50110442818E+01 0.49588641827E+01 0.50964020072E+01
 0.54381276673E+01 0.59459959672E+01 0.65318765067E+01 0.70409188809E+01 0.74706551818E+01
 0.79409983438E+01 0.87293982809E+01 0.93980125141E+01 0.96684702041E+01 0.93996461200E+01
 0.87311138775E+01 0.79412665985E+01 0.72031221821E+01 0.65292237200E+01 0.59086185143E+01
 0.53888817341E+01 0.50079649116E+01 0.47945096127E+01 0.47306344327E+01 0.47945967271E+01
 0.50081238021E+01 0.53893634956E+01 0.59098150594E+01 0.65309836417E+01 0.72044174037E+01
 0.74351059189E+01 0.82240347756E+01 0.88195470643E+01 0.90047298214E+01 0.86889881173E+01
 0.80027835027E+01 0.72031221821E+01 0.64826016686E+01 0.58884422171E+01 0.54002356886E+01
 0.50133589459E+01 0.47387572096E+01 0.45926312511E+01 0.45515946149E+01 0.45888327762E+01
 0.47161674820E+01 0.49755274422E+01 0.53883689751E+01 0.59447555203E+01 0.66413014756E+01
 0.66412651525E+01 0.73078795137E+01 0.78268123480E+01 0.80150260476E+01 0.77850368847E+01
 0.72219022215E+01 0.65292237200E+01 0.58884422171E+01 0.53729817057E+01 0.49787508892E+01
 0.46884244588E+01 0.45042708859E+01 0.44226333425E+01 0.44163788670E+01 0.44575680541E+01
 0.45462290337E+01 0.47155142695E+01 0.50071797241E+01 0.54378055614E+01 0.59898215334E+01
 0.59477902373E+01 0.64013186376E+01 0.67669772178E+01 0.69270135051E+01 0.68031317151E+01
 0.64224951107E+01 0.59086185143E+01 0.54002356886E+01 0.49787508892E+01 0.46626295480E+01
 0.44487028521E+01 0.43305996078E+01 0.42939899420E+01 0.43154559539E+01 0.43720157265E+01
 0.44573690951E+01 0.45885067845E+01 0.47946716325E+01 0.50973017137E+01 0.54936202332E+01
 0.55225635748E+01 0.57990461973E+01 0.60065142124E+01 0.60858897942E+01 0.59972930202E+01
 0.57452245666E+01 0.53888817341E+01 0.50133589459E+01 0.46884244588E+01 0.44487028521E+01
 0.42971687058E+01 0.42221848950E+01 0.42094176061E+01 0.42446587403E+01 0.43155361169E+01
 0.44165175941E+01 0.45519554975E+01 0.47313679860E+01 0.49597587888E+01 0.52304652480E+01
 0.53988711544E+01 0.55309172106E+01 0.55973861174E+01 0.55802881614E+01 0.54679779602E+01
 0.52668831591E+01 0.50079649116E+01 0.47387572096E+01 0.45042708859E+01 0.43305996078E+01
 0.42221848950E+01 0.41711202472E+01 0.41684051179E+01 0.42095545477E+01 0.42942292683E+01
 0.44229511827E+01 0.45929720737E+01 0.47946716325E+01 0.50107021404E+01 0.52192215661E+01
 0.55798291115E+01 0.55978753258E+01 0.55322045222E+01 0.54003471767E+01 0.52202523496E+01
 0.50110442818E+01 0.47945096127E+01 0.45926312511E+01 0.44226333425E+01 0.42939899420E+01
 0.42094176061E+01 0.41684051179E+01 0.41712429526E+01 0.42223357366E+01 0.43306574842E+01
 0.45041372624E+01 0.47383383065E+01 0.50071797241E+01 0.52657946113E+01 0.54669340812E+01
 0.60872008682E+01 0.60082180672E+01 0.58004459302E+01 0.55230524607E+01 0.52300021621E+01
 0.49588641827E+01 0.47306344327E+01 0.45515946149E+01 0.44163788670E+01 0.43154559539E+01
 0.42446587403E+01 0.42095545477E+01 0.42223357366E+01 0.42970799144E+01 0.44482409178E+01
 0.46877036446E+01 0.50126263755E+01 0.53883689751E+01 0.57451478610E+01 0.59978764263E+01
 0.69285372754E+01 0.67677842548E+01 0.64010528961E+01 0.59465670165E+01 0.54921493776E+01
 0.50964020072E+01 0.47945967271E+01 0.45888327762E+01 0.44575680541E+01 0.43720157265E+01
 0.43155361169E+01 0.42942292683E+01 0.43306574842E+01 0.44482409178E+01 0.46618271661E+01
 0.49782473536E+01 0.54005678710E+01 0.59098150594E+01 0.64241998881E+01 0.68049350562E+01
 0.80147307836E+01 0.78256357316E+01 0.73061522474E+01 0.66395968302E+01 0.59889871763E+01
 0.54381276673E+01 0.50081238021E+01 0.47161674820E+01 0.45462290337E+01 0.44573690951E+01
 0.44165175941E+01 0.44229511827E+01 0.45041372624E+01 0.46877036446E+01 0.49782473536E+01
 0.53737186701E+01 0.58905839749E+01 0.65318765067E+01 0.72239287048E+01 0.77858756867E+01
 0.90024659125E+01 0.88174138394E+01 0.82224236910E+01 0.74343938938E+01 0.66417573614E+01
 0.59459959672E+01 0.53893634956E+01 0.49755274422E+01 0.47155142695E+01 0.45885067845E+01
 0.45519554975E+01 0.45929720737E+01 0.47383383065E+01 0.50126263755E+01 0.54005678710E+01
 0.58905839749E+01 0.64856388016E+01 0.72052305653E+01 0.80028640684E+01 0.86873745799E+01
 0.96658479980E+01 0.93963734456E+01 0.87285760930E+01 0.79410207936E+01 0.72052305653E+01
 0.65318765067E+01 0.59098150594E+01 0.53883689751E+01 0.50071797241E+01 0.47946716325E+01
 0.47313679860E+01 0.47946716325E+01 0.50071797241E+01 0.53883689751E+01 0.59098150594E+01
 0.65318765067E+01 0.72052305653E+01 0.79410207936E+01 0.87285760930E+01 0.93963734456E+01
 0.10151026461E+02 0.96921109008E+01 0.88431511955E+01 0.80287358518E+01 0.74708624375E+01
 0.70409188809E+01 0.65309836417E+01 0.59447555203E+01 0.54378055614E+01 0.50973017137E+01
 0.49597587888E+01 0.50107021404E+01 0.52657946113E+01 0.57451478610E+01 0.64241998881E+01
 0.72239287048E+01 0.80028640684E+01 0.87285760930E+01 0.94364243898E+01 0.10008955679E+02
 0.10664493406E+02 0.10128377548E+02 0.90863681475E+01 0.81147265372E+01 0.76260093848E+01
 0.74706551818E+01 0.72044174037E+01 0.66413014756E+01 0.59898215334E+01 0.54936202332E+01
 0.52304652480E+01 0.52192215661E+01 0.54669340812E+01 0.59978764263E+01 0.68049350562E+01
 0.77858756867E+01 0.86873745799E+01 0.93963734456E+01 0.10008955679E+02 0.10528385544E+02
 0.10902475189E+02 0.10521321221E+02 0.94371294427E+01 0.81156155236E+01 0.71740645995E+01
 0.68214412277E+01 0.67318810975E+01 0.64862375893E+01 0.60132739485E+01 0.55289658389E+01
 0.51909939642E+01 0.50640931886E+01 0.51522969592E+01 0.54812318144E+01 0.60757369175E+01
 0.69374491638E+01 0.79780295877E+01 0.90024659125E+01 0.98969088434E+01 0.10597468420E+02
 0.10521321221E+02 0.10658396192E+02 0.10126319531E+02 0.90883242802E+01 0.81183647568E+01
 0.76293938201E+01 0.74734242380E+01 0.72066252438E+01 0.66423282951E+01 0.59891675530E+01