   1   1   0   0
  0.1562794E+02  0.2727980E-09  0.2727980E-09  0.2727980E-09  0.5000000E-15
  1.000000000000000E-004
  CAR 
 BCC W                                   
     29.92422883     -3.40912335  301      7.83505894      1.00000000
     -3.409  0.0000E+00  0.0000E+00
     -3.298  0.0000E+00  0.0000E+00
     -3.187  0.0000E+00  0.0000E+00
     -3.076 -0.1759E-30 -0.1955E-31
     -2.965 -0.1266E-26 -0.1407E-27
     -2.854 -0.4891E-23 -0.5436E-24
     -2.742 -0.1013E-19 -0.1126E-20
     -2.631 -0.1123E-16 -0.1249E-17
     -2.520 -0.6447E-14 -0.7176E-15
     -2.409 -0.2026E-11 -0.2258E-12
     -2.298 -0.3376E-09 -0.3773E-10
     -2.187 -0.2964E-07 -0.3331E-08
     -2.076 -0.1357E-05 -0.1541E-06
     -1.965 -0.3171E-04 -0.3677E-05
     -1.854 -0.3617E-03 -0.4387E-04
     -1.742 -0.1768E-02 -0.2403E-03
     -1.631 -0.1419E-02 -0.3979E-03
     -1.520  0.1445E-01  0.1208E-02
     -1.409  0.4273E-01  0.5955E-02
     -1.298  0.4105E-01  0.1052E-01
     -1.187  0.1186E-01  0.1184E-01
     -1.076  0.1348E-01  0.1333E-01
     -0.965  0.5061E-01  0.1896E-01
     -0.854  0.5378E-01  0.2493E-01
     -0.742  0.1683E-01  0.2680E-01
     -0.631  0.4890E-01  0.3223E-01
     -0.520  0.1627E+00  0.5032E-01
     -0.409  0.1780E+00  0.7009E-01
     -0.298  0.6639E-01  0.7747E-01
     -0.187 -0.5124E-02  0.7690E-01
     -0.076 -0.1477E-01  0.7526E-01
      0.035 -0.1088E-01  0.7405E-01
      0.146  0.5037E-01  0.7964E-01
      0.258  0.1842E+00  0.1001E+00
      0.369  0.2149E+00  0.1240E+00
      0.480  0.1097E+00  0.1362E+00
      0.591  0.1037E+00  0.1477E+00
      0.702  0.1990E+00  0.1698E+00
      0.813  0.2414E+00  0.1966E+00
      0.924  0.2138E+00  0.2204E+00
      1.035  0.1078E+00  0.2324E+00
      1.146  0.6505E-02  0.2331E+00
      1.258 -0.2998E-01  0.2298E+00
      1.369 -0.2542E-01  0.2269E+00
      1.480  0.1232E+00  0.2406E+00
      1.591  0.4815E+00  0.2941E+00
      1.702  0.7736E+00  0.3801E+00
      1.813  0.8319E+00  0.4725E+00
      1.924  0.8025E+00  0.5617E+00
      2.035  0.5639E+00  0.6243E+00
      2.146  0.2883E+00  0.6564E+00
      2.258  0.4109E+00  0.7020E+00
      2.369  0.6265E+00  0.7716E+00
      2.480  0.7765E+00  0.8579E+00
      2.591  0.1120E+01  0.9824E+00
      2.702  0.1241E+01  0.1120E+01
      2.813  0.8831E+00  0.1218E+01
      2.924  0.5633E+00  0.1281E+01
      3.035  0.6262E+00  0.1351E+01
      3.146  0.1078E+01  0.1470E+01
      3.258  0.1443E+01  0.1631E+01
      3.369  0.1356E+01  0.1781E+01
      3.480  0.1097E+01  0.1903E+01
      3.591  0.8234E+00  0.1995E+01
      3.702  0.5077E+00  0.2051E+01
      3.813  0.2050E+00  0.2074E+01
      3.924  0.9222E-01  0.2084E+01
      4.035  0.4005E+00  0.2129E+01
      4.146  0.8291E+00  0.2221E+01
      4.258  0.8385E+00  0.2314E+01
      4.369  0.8109E+00  0.2404E+01
      4.480  0.1052E+01  0.2521E+01
      4.591  0.1383E+01  0.2675E+01
      4.702  0.1896E+01  0.2885E+01
      4.813  0.2166E+01  0.3126E+01
      4.924  0.1779E+01  0.3323E+01
      5.035  0.1111E+01  0.3447E+01
      5.146  0.8601E+00  0.3542E+01
      5.258  0.9186E+00  0.3645E+01
      5.369  0.9269E+00  0.3748E+01
      5.480  0.1175E+01  0.3878E+01
      5.591  0.1429E+01  0.4037E+01
      5.702  0.1403E+01  0.4193E+01
      5.813  0.1594E+01  0.4370E+01
      5.924  0.2043E+01  0.4597E+01
      6.035  0.1928E+01  0.4811E+01
      6.146  0.1290E+01  0.4954E+01
      6.258  0.8425E+00  0.5048E+01
      6.369  0.7857E+00  0.5135E+01
      6.480  0.9818E+00  0.5244E+01
      6.591  0.9905E+00  0.5354E+01
      6.702  0.6210E+00  0.5423E+01
      6.813  0.2767E+00  0.5454E+01
      6.924  0.3118E+00  0.5489E+01
      7.035  0.5308E+00  0.5548E+01
      7.146  0.6224E+00  0.5617E+01
      7.258  0.6199E+00  0.5686E+01
      7.369  0.6116E+00  0.5754E+01
      7.480  0.6134E+00  0.5822E+01
      7.591  0.5941E+00  0.5888E+01
      7.702  0.5453E+00  0.5949E+01
      7.813  0.4013E+00  0.5993E+01
      7.924  0.3161E+00  0.6028E+01
      8.035  0.4188E+00  0.6075E+01
      8.146  0.4880E+00  0.6129E+01
      8.258  0.3913E+00  0.6172E+01
      8.369  0.2229E+00  0.6197E+01
      8.480  0.2910E+00  0.6230E+01
      8.591  0.6137E+00  0.6298E+01
      8.702  0.9142E+00  0.6399E+01
      8.813  0.9834E+00  0.6509E+01
      8.924  0.8227E+00  0.6600E+01
      9.035  0.7597E+00  0.6684E+01
      9.146  0.8646E+00  0.6780E+01
      9.258  0.7722E+00  0.6866E+01
      9.369  0.6848E+00  0.6942E+01
      9.480  0.9322E+00  0.7046E+01
      9.591  0.1138E+01  0.7172E+01
      9.702  0.1225E+01  0.7308E+01
      9.813  0.1299E+01  0.7453E+01
      9.924  0.1261E+01  0.7593E+01
     10.035  0.1173E+01  0.7723E+01
     10.146  0.1139E+01  0.7850E+01
     10.258  0.1160E+01  0.7979E+01
     10.369  0.9546E+00  0.8085E+01
     10.480  0.8059E+00  0.8174E+01
     10.591  0.1074E+01  0.8294E+01
     10.702  0.1156E+01  0.8422E+01
     10.813  0.1082E+01  0.8542E+01
     10.924  0.1532E+01  0.8713E+01
     11.035  0.2135E+01  0.8950E+01
     11.146  0.2271E+01  0.9202E+01
     11.258  0.2085E+01  0.9434E+01
     11.369  0.2031E+01  0.9660E+01
     11.480  0.1954E+01  0.9877E+01
     11.591  0.1397E+01  0.1003E+02
     11.702  0.8988E+00  0.1013E+02
     11.813  0.7508E+00  0.1022E+02
     11.924  0.5326E+00  0.1027E+02
     12.035  0.3683E+00  0.1032E+02
     12.146  0.3684E+00  0.1036E+02
     12.258  0.3022E+00  0.1039E+02
     12.369  0.2079E+00  0.1041E+02
     12.480  0.2020E+00  0.1044E+02
     12.591  0.3006E+00  0.1047E+02
     12.702  0.3293E+00  0.1051E+02
     12.813  0.2196E+00  0.1053E+02
     12.924  0.1772E+00  0.1055E+02
     13.035  0.2098E+00  0.1057E+02
     13.146  0.1934E+00  0.1059E+02
     13.258  0.2767E+00  0.1062E+02
     13.369  0.3311E+00  0.1066E+02
     13.480  0.2860E+00  0.1069E+02
     13.591  0.5944E+00  0.1076E+02
     13.702  0.1074E+01  0.1088E+02
     13.813  0.1075E+01  0.1100E+02
     13.924  0.6867E+00  0.1107E+02
     14.035  0.4273E+00  0.1112E+02
     14.146  0.3723E+00  0.1116E+02
     14.258  0.2837E+00  0.1119E+02
     14.369  0.2292E+00  0.1122E+02
     14.480  0.2393E+00  0.1125E+02
     14.591  0.2103E+00  0.1127E+02
     14.702  0.1351E+00  0.1129E+02
     14.813  0.1169E+00  0.1130E+02
     14.924  0.2347E+00  0.1132E+02
     15.035  0.3849E+00  0.1137E+02
     15.146  0.2931E+00  0.1140E+02
     15.258  0.6778E-01  0.1141E+02
     15.369 -0.2757E-01  0.1140E+02
     15.480 -0.3791E-01  0.1140E+02
     15.591  0.2997E-01  0.1140E+02
     15.702  0.3125E+00  0.1144E+02
     15.813  0.5858E+00  0.1150E+02
     15.924  0.4576E+00  0.1155E+02
     16.035  0.2055E+00  0.1158E+02
     16.146  0.1357E+00  0.1159E+02
     16.258  0.2677E+00  0.1162E+02
     16.369  0.6983E+00  0.1170E+02
     16.480  0.9434E+00  0.1180E+02
     16.591  0.5938E+00  0.1187E+02
     16.702  0.1565E+00  0.1189E+02
     16.813  0.2490E-02  0.1189E+02
     16.924  0.4361E-01  0.1189E+02
     17.035  0.1968E+00  0.1191E+02
     17.146  0.3076E+00  0.1195E+02
     17.258  0.2390E+00  0.1198E+02
     17.369  0.7567E-01  0.1198E+02
     17.480  0.2717E-01  0.1199E+02
     17.591  0.1589E+00  0.1200E+02
     17.702  0.3325E+00  0.1204E+02
     17.813  0.4149E+00  0.1209E+02
     17.924  0.5345E+00  0.1215E+02
     18.035  0.8943E+00  0.1225E+02
     18.146  0.1212E+01  0.1238E+02
     18.258  0.1026E+01  0.1249E+02
     18.369  0.4895E+00  0.1255E+02
     18.480  0.1470E+00  0.1257E+02
     18.591  0.2135E+00  0.1259E+02
     18.702  0.3804E+00  0.1263E+02
     18.813  0.3043E+00  0.1267E+02
     18.924  0.1174E+00  0.1268E+02
     19.035  0.6345E-01  0.1269E+02
     19.146  0.1372E+00  0.1270E+02
     19.258  0.1817E+00  0.1272E+02
     19.369  0.2949E+00  0.1275E+02
     19.480  0.5319E+00  0.1281E+02
     19.591  0.5461E+00  0.1287E+02
     19.702  0.2593E+00  0.1290E+02
     19.813  0.1794E-01  0.1290E+02
     19.924  0.6247E-01  0.1291E+02
     20.035  0.2767E+00  0.1294E+02
     20.146  0.4713E+00  0.1299E+02
     20.258  0.8300E+00  0.1309E+02
     20.369  0.1065E+01  0.1320E+02
     20.480  0.7671E+00  0.1329E+02
     20.591  0.5210E+00  0.1335E+02
     20.702  0.5465E+00  0.1341E+02
     20.813  0.6946E+00  0.1349E+02
     20.924  0.8085E+00  0.1358E+02
     21.035  0.5497E+00  0.1364E+02
     21.146  0.1880E+00  0.1366E+02
     21.258  0.3484E+00  0.1370E+02
     21.369  0.8138E+00  0.1379E+02
     21.480  0.8123E+00  0.1388E+02
     21.591  0.4513E+00  0.1393E+02
     21.702  0.2230E+00  0.1395E+02
     21.813  0.6728E-01  0.1396E+02
     21.924  0.1400E+00  0.1397E+02
     22.035  0.7852E+00  0.1406E+02
     22.146  0.1323E+01  0.1421E+02
     22.258  0.8650E+00  0.1431E+02
     22.369  0.3122E+00  0.1434E+02
     22.480  0.6304E+00  0.1441E+02
     22.591  0.1143E+01  0.1454E+02
     22.702  0.1104E+01  0.1466E+02
     22.813  0.8227E+00  0.1475E+02
     22.924  0.5556E+00  0.1481E+02
     23.035  0.2907E+00  0.1485E+02
     23.146  0.2045E+00  0.1487E+02
     23.258  0.2747E+00  0.1490E+02
     23.369  0.4117E+00  0.1494E+02
     23.480  0.4942E+00  0.1500E+02
     23.591  0.3987E+00  0.1504E+02
     23.702  0.3308E+00  0.1508E+02
     23.813  0.2933E+00  0.1511E+02
     23.924  0.2132E+00  0.1514E+02
     24.035  0.3924E+00  0.1518E+02
     24.146  0.6562E+00  0.1525E+02
     24.258  0.6312E+00  0.1532E+02
     24.369  0.4264E+00  0.1537E+02
     24.480  0.2481E+00  0.1540E+02
     24.591  0.1458E+00  0.1541E+02
     24.702  0.2278E+00  0.1544E+02
     24.813  0.6033E+00  0.1551E+02
     24.924  0.7383E+00  0.1559E+02
     25.035  0.3767E+00  0.1563E+02
     25.146  0.2357E+00  0.1566E+02
     25.258  0.5163E+00  0.1571E+02
     25.369  0.6237E+00  0.1578E+02
     25.480  0.3187E+00  0.1582E+02
     25.591  0.8206E-01  0.1583E+02
     25.702  0.1610E+00  0.1585E+02
     25.813  0.2212E+00  0.1587E+02
     25.924  0.1156E+00  0.1588E+02
     26.035  0.4292E-01  0.1589E+02
     26.146  0.2368E-01  0.1589E+02
     26.258  0.2845E-02  0.1589E+02
     26.369  0.4909E-01  0.1590E+02
     26.480  0.1652E+00  0.1591E+02
     26.591  0.2294E+00  0.1594E+02
     26.702  0.2297E+00  0.1597E+02
     26.813  0.1670E+00  0.1598E+02
     26.924  0.5130E-01  0.1599E+02
     27.035 -0.7025E-02  0.1599E+02
     27.146 -0.7226E-02  0.1599E+02
     27.258 -0.1466E-02  0.1599E+02
     27.369 -0.1601E-03  0.1599E+02
     27.480 -0.3672E-03  0.1599E+02
     27.591 -0.1768E-02  0.1599E+02
     27.702 -0.1418E-02  0.1599E+02
     27.813  0.1448E-01  0.1599E+02
     27.924  0.4310E-01  0.1599E+02
     28.035  0.4310E-01  0.1600E+02
     28.146  0.1448E-01  0.1600E+02
     28.258 -0.1418E-02  0.1600E+02
     28.369 -0.1768E-02  0.1600E+02
     28.480 -0.3617E-03  0.1600E+02
     28.591 -0.3171E-04  0.1600E+02
     28.702 -0.1357E-05  0.1600E+02
     28.813 -0.2964E-07  0.1600E+02
     28.924 -0.3376E-09  0.1600E+02
     29.035 -0.2026E-11  0.1600E+02
     29.146 -0.6451E-14  0.1600E+02
     29.258  0.0000E+00  0.1600E+02
     29.369  0.0000E+00  0.1600E+02
     29.480  0.0000E+00  0.1600E+02
     29.591  0.0000E+00  0.1600E+02
     29.702  0.0000E+00  0.1600E+02
     29.813  0.0000E+00  0.1600E+02
     29.924  0.0000E+00  0.1600E+02
