    1    1    1    1
  0.1562794E+02  0.2727980E-09  0.2727980E-09  0.2727980E-09  0.5000000E-15
  1.000000000000000E-004
  CAR 
 BCC W                                   
      6     44      8
 
  0.5000000E-01  0.5000000E-01  0.5000000E-01  0.8000000E-02
    1       -0.950772   1.000000
    2        6.338856   1.000000
    3        6.338856   1.000000
    4        7.537600   1.028214
    5        9.945802  -0.000000
    6        9.945802  -0.000000
    7       23.738435   0.000000
    8       24.668919   0.000000
 
  0.1500000E+00  0.5000000E-01  0.5000000E-01  0.2400000E-01
    1        0.265273   1.000000
    2        5.640194   1.000000
    3        5.914548   1.000000
    4        9.045460  -0.000000
    5        9.602588  -0.000000
    6       10.221538  -0.000000
    7       24.253702   0.000000
    8       25.725235   0.000000
 
  0.2500000E+00  0.5000000E-01  0.5000000E-01  0.2400000E-01
    1        1.553796   1.000000
    2        4.950339   1.000000
    3        5.880283   1.000000
    4        9.823791  -0.000000
    5       10.562031  -0.000000
    6       11.240818  -0.000000
    7       22.740408   0.000000
    8       23.469418   0.000000
 
  0.3500000E+00  0.5000000E-01  0.5000000E-01  0.2400000E-01
    1        1.923845   1.000000
    2        4.473804   1.000000
    3        7.229607   1.000080
    4       10.197560  -0.000000
    5       10.913259  -0.000000
    6       13.566025   0.000000
    7       20.307280   0.000000
    8       20.973873   0.000000
 
  0.4500000E+00  0.5000000E-01  0.5000000E-01  0.1200000E-01
    1        1.883289   1.000000
    2        4.307021   1.000000
    3        8.422720  -0.000131
    4       10.186194  -0.000000
    5       11.084526  -0.000000
    6       14.760118   0.000000
    7       18.822106   0.000000
    8       20.268709   0.000000
 
 -0.5000000E-01  0.5000000E-01  0.5000000E-01  0.6000000E-02
    1       -1.409123   1.000000
    2        6.659923   1.000000
    3        6.660105   1.000000
    4        6.796504   1.000000
    5        9.805500  -0.000000
    6       10.307057  -0.000000
    7       23.705630   0.000000
    8       23.705652   0.000000
 
  0.1500000E+00  0.1500000E+00  0.5000000E-01  0.2400000E-01
    1        1.605624   1.000000
    2        5.166192   1.000000
    3        5.213839   1.000000
    4        9.675894  -0.000000
    5       10.592494  -0.000000
    6       11.200687  -0.000000
    7       23.739086   0.000000
    8       24.821160   0.000000
 
  0.2500000E+00  0.1500000E+00  0.5000000E-01  0.4800000E-01
    1        2.611838   1.000000
    2        4.654682   1.000000
    3        5.595618   1.000000
    4        9.994725  -0.000000
    5       10.947149  -0.000000
    6       13.725904   0.000000
    7       20.860107   0.000000
    8       22.851163   0.000000
 
  0.3500000E+00  0.1500000E+00  0.5000000E-01  0.4800000E-01
    1        2.664103   1.000000
    2        4.414704   1.000000
    3        6.963075   1.000000
    4       10.289730  -0.000000
    5       11.173386  -0.000000
    6       15.803264   0.000000
    7       18.139174   0.000000
    8       21.375768   0.000000
 
 -0.1500000E+00  0.1500000E+00  0.5000000E-01  0.2400000E-01
    1       -0.511565   1.000000
    2        6.193760   1.000000
    3        6.491077   1.000000
    4        7.705046   0.941217
    5        9.105578  -0.000000
    6       10.505823  -0.000000
    7       24.264948   0.000000
    8       25.282113   0.000000
 
  0.2500000E+00  0.2500000E+00  0.5000000E-01  0.2400000E-01
    1        3.341337   1.000000
    2        4.717928   1.000000
    3        5.708068   1.000000
    4       10.327585  -0.000000
    5       11.079260  -0.000000
    6       16.358989   0.000000
    7       17.991456   0.000000
    8       22.120645   0.000000
 
  0.3500000E+00  0.2500000E+00  0.5000000E-01  0.2400000E-01
    1        3.429118   1.000000
    2        4.830905   1.000000
    3        6.028623   1.000000
    4       10.595840  -0.000000
    5       11.126044  -0.000000
    6       16.403363   0.000000
    7       18.112572   0.000000
    8       20.771694   0.000000
 
 -0.2500000E+00  0.2500000E+00  0.5000000E-01  0.2400000E-01
    1        0.868810   1.000000
    2        5.473838   1.000000
    3        6.078094   1.000000
    4        9.121945  -0.000000
    5        9.477716  -0.000000
    6       10.711664  -0.000000
    7       23.421346   0.000000
    8       25.161753   0.000000
 
 -0.1500000E+00  0.2500000E+00  0.5000000E-01  0.2400000E-01
    1        0.654464   1.000000
    2        5.951358   1.000000
    3        5.978079   1.000000
    4        8.516275  -0.000008
    5        8.960387  -0.000000
    6       10.919568  -0.000000
    7       24.477191   0.000000
    8       25.344149   0.000000
 
 -0.3500000E+00  0.3500000E+00  0.5000000E-01  0.2400000E-01
    1        1.716155   1.000000
    2        4.845387   1.000000
    3        6.572178   1.000000
    4        9.736505  -0.000000
    5       10.964947  -0.000000
    6       11.796614  -0.000000
    7       21.312583   0.000000
    8       22.570823   0.000000
 
 -0.2500000E+00  0.3500000E+00  0.5000000E-01  0.4800000E-01
    1        1.925431   1.000000
    2        5.228663   1.000000
    3        5.796180   1.000000
    4        8.850427  -0.000000
    5       10.914198  -0.000000
    6       11.363228  -0.000000
    7       22.133479   0.000000
    8       24.854506   0.000000
 
 -0.4500000E+00  0.4500000E+00  0.5000000E-01  0.2400000E-01
    1        1.760157   1.000000
    2        4.493196   1.000000
    3        7.957343   0.074927
    4        9.918081  -0.000000
    5       11.495987  -0.000000
    6       13.835954   0.000000
    7       19.555403   0.000000
    8       20.653278   0.000000
 
 -0.3500000E+00  0.4500000E+00  0.5000000E-01  0.4800000E-01
    1        2.316844   1.000000
    2        4.852938   1.000000
    3        6.437125   1.000000
    4        9.471606  -0.000000
    5       11.408778  -0.000000
    6       13.660523   0.000000
    7       20.038640   0.000000
    8       22.537880   0.000000
 
 -0.2500000E+00  0.4500000E+00  0.5000000E-01  0.2400000E-01
    1        2.935038   1.000000
    2        4.684640   1.000000
    3        5.891246   1.000000
    4        9.175927  -0.000000
    5       11.050117  -0.000000
    6       13.851849   0.000000
    7       20.305891   0.000000
    8       24.106608   0.000000
 
 -0.4500000E+00 -0.4500000E+00  0.5000000E-01  0.2400000E-01
    1        2.267125   1.000000
    2        4.726404   1.000000
    3        7.076935   1.000001
    4        9.417618  -0.000000
    5       12.093668  -0.000000
    6       15.022343   0.000000
    7       18.617215   0.000000
    8       21.663059   0.000000
 
 -0.3500000E+00 -0.4500000E+00  0.5000000E-01  0.4800000E-01
    1        3.207968   1.000000
    2        4.747225   1.000000
    3        5.905787   1.000000
    4        9.709678  -0.000000
    5       11.368720  -0.000000
    6       16.477118   0.000000
    7       18.003411   0.000000
    8       22.078592   0.000000
 
 -0.3500000E+00 -0.3500000E+00  0.5000000E-01  0.8000000E-02
    1        3.785069   1.000000
    2        5.024025   1.000000
    3        5.024078   1.000000
    4       10.745559  -0.000000
    5       10.745693  -0.000000
    6       16.678075   0.000000
    7       19.570144   0.000000
    8       19.570395   0.000000
 
  0.1500000E+00  0.1500000E+00  0.1500000E+00  0.8000000E-02
    1        3.077543   1.000000
    2        4.667941   1.000000
    3        4.667941   1.000000
    4       10.542589  -0.000000
    5       10.542589  -0.000000
    6       13.857544   0.000000
    7       21.955612   0.000000
    8       23.495286   0.000000
 
  0.2500000E+00  0.1500000E+00  0.1500000E+00  0.2400000E-01
    1        3.687094   1.000000
    2        4.420351   1.000000
    3        5.494719   1.000000
    4       10.719459  -0.000000
    5       11.030656  -0.000000
    6       16.345319   0.000000
    7       18.172095   0.000000
    8       22.097201   0.000000
 
  0.3500000E+00  0.1500000E+00  0.1500000E+00  0.1200000E-01
    1        3.580782   1.000000
    2        4.349121   1.000000
    3        6.504736   1.000000
    4       10.803751  -0.000000
    5       11.178710  -0.000000
    6       16.408178   0.000000
    7       17.572058   0.000000
    8       21.559893   0.000000
 
 -0.1500000E+00  0.1500000E+00  0.1500000E+00  0.6000000E-02
    1        0.342506   1.000000
    2        6.696279   1.000000
    3        6.696441   1.000000
    4        7.606246   1.034341
    5        7.690795   0.967096
    6       11.123580  -0.000000
    7       25.719037   0.000000
    8       26.027283   0.000000
 
  0.2500000E+00  0.2500000E+00  0.1500000E+00  0.2400000E-01
    1        4.116885   1.000000
    2        4.893074   1.000000
    3        5.535638   1.000000
    4       11.034386  -0.000000
    5       11.168442  -0.000000
    6       15.731892   0.000000
    7       18.675383   0.000000
    8       20.923720   0.000000
 
 -0.2500000E+00  0.2500000E+00  0.1500000E+00  0.2400000E-01
    1        1.664897   1.000000
    2        5.899008   1.000000
    3        6.321542   1.000000
    4        7.685186   0.975935
    5        9.204485  -0.000000
    6       11.390266  -0.000000
    7       23.120049   0.000000
    8       26.702452   0.000000
 
 -0.3500000E+00  0.3500000E+00  0.1500000E+00  0.2400000E-01
    1        2.523236   1.000000
    2        5.434205   1.000000
    3        5.779568   1.000000
    4        8.620126  -0.000000
    5       11.522915  -0.000000
    6       11.723077  -0.000000
    7       21.418280   0.000000
    8       24.848034   0.000000
 
 -0.2500000E+00  0.3500000E+00  0.1500000E+00  0.2400000E-01
    1        2.802586   1.000000
    2        4.886001   1.000000
    3        6.568955   1.000000
    4        8.000079   0.003806
    5       10.582773  -0.000000
    6       11.798432  -0.000000
    7       22.070558   0.000000
    8       26.479533   0.000000
 
 -0.4500000E+00  0.4500000E+00  0.1500000E+00  0.2400000E-01
    1        2.506287   1.000000
    2        5.461570   1.000000
    3        5.997356   1.000000
    4        8.590270  -0.000001
    5       13.295145   0.000000
    6       13.623148   0.000000
    7       19.426661   0.000000
    8       23.290995   0.000000
 
 -0.3500000E+00  0.4500000E+00  0.1500000E+00  0.4800000E-01
    1        3.244624   1.000000
    2        4.619171   1.000000
    3        6.166671   1.000000
    4        8.726365  -0.000000
    5       11.573375  -0.000000
    6       14.082331   0.000000
    7       20.305797   0.000000
    8       24.059162   0.000000
 
 -0.4500000E+00 -0.4500000E+00  0.1500000E+00  0.2400000E-01
    1        3.114826   1.000000
    2        5.132319   1.000000
    3        5.646786   1.000000
    4        8.753453  -0.000000
    5       12.698337  -0.000000
    6       16.078881   0.000000
    7       18.212248   0.000000
    8       22.510815   0.000000
 
 -0.3500000E+00 -0.4500000E+00  0.1500000E+00  0.2400000E-01
    1        4.052222   1.000000
    2        4.109017   1.000000
    3        5.386734   1.000000
    4       10.099789  -0.000000
    5       11.423064  -0.000000
    6       17.032298   0.000000
    7       18.323863   0.000000
    8       21.297212   0.000000
 
  0.2500000E+00  0.2500000E+00  0.2500000E+00  0.2000000E-02
    1        4.990920   1.000000
    2        4.990920   1.000000
    3        4.991078   1.000000
    4       11.231194  -0.000000
    5       11.231194  -0.000000
    6       14.827579   0.000000
    7       20.543645   0.000000
    8       20.543888   0.000000
 
 -0.2500000E+00  0.2500000E+00  0.2500000E+00  0.6000000E-02
    1        2.771213   1.000000
    2        5.080097   1.000000
    3        7.436300   1.008156
    4        7.436456   1.008177
    5        9.345567  -0.000000
    6       11.486035  -0.000000
    7       22.935315   0.000000
    8       27.924229   0.000000
 
 -0.3500000E+00  0.3500000E+00  0.2500000E+00  0.2400000E-01
    1        3.398529   1.000000
    2        4.139658   1.000000
    3        7.496951   1.018962
    4        8.193691  -0.014696
    5       11.181066  -0.000000
    6       12.027627  -0.000000
    7       22.582395   0.000000
    8       25.295957   0.000000
 
 -0.4500000E+00  0.4500000E+00  0.2500000E+00  0.2400000E-01
    1        3.118132   1.000000
    2        4.186722   1.000000
    3        7.303685   1.000558
    4        8.165581  -0.020655
    5       13.291396  -0.000000
    6       14.520852   0.000000
    7       19.426280   0.000000
    8       22.668683   0.000000
 
 -0.3500000E+00  0.4500000E+00  0.2500000E+00  0.2400000E-01
    1        3.390132   1.000000
    2        3.544763   1.000000
    3        7.418672   1.006081
    4        9.540026  -0.000000
    5       11.755427  -0.000000
    6       14.325334   0.000000
    7       20.591382   0.000000
    8       22.428853   0.000000
 
 -0.4500000E+00 -0.4500000E+00  0.2500000E+00  0.2400000E-01
    1        3.138572   1.000000
    2        3.532290   1.000000
    3        7.165962   1.000012
    4       10.131142  -0.000000
    5       12.564786  -0.000000
    6       17.180713   0.000000
    7       17.810740   0.000000
    8       20.504579   0.000000
 
 -0.3500000E+00  0.3500000E+00  0.3500000E+00  0.6000000E-02
    1        3.158037   1.000000
    2        3.299239   1.000000
    3        9.324194  -0.000000
    4        9.324368  -0.000000
    5       11.377048  -0.000000
    6       12.525121  -0.000000
    7       22.749442   0.000000
    8       22.749602   0.000000
 
 -0.4500000E+00  0.4500000E+00  0.3500000E+00  0.2400000E-01
    1        2.661728   1.000000
    2        2.902625   1.000000
    3        9.798606  -0.000000
    4        9.955526  -0.000000
    5       12.988370  -0.000000
    6       14.997308   0.000000
    7       19.149220   0.000000
    8       20.287480   0.000000
 
 -0.4500000E+00 -0.4500000E+00  0.3500000E+00  0.8000000E-02
    1        2.502544   1.000000
    2        2.502545   1.000000
    3        9.827065  -0.000000
    4       12.328800  -0.000000
    5       12.329133  -0.000000
    6       17.653675   0.000000
    7       17.679823   0.000000
    8       17.679936   0.000000
 
 -0.4500000E+00  0.4500000E+00  0.4500000E+00  0.6000000E-02
    1        2.148562   1.000000
    2        2.218008   1.000000
    3       12.229457  -0.000000
    4       12.229713  -0.000000
    5       12.955501  -0.000000
    6       15.733630   0.000000
    7       17.786854   0.000000
    8       17.786929   0.000000
