 running on    4 total cores
 distrk:  each k-point on    4 cores,    1 groups
 distr:  one band on    1 cores,    4 groups
 using from now: INCAR     
 vasp.5.4.4.18Apr17-6-g9f103f2a35 (build Jul 01 2019 03:25:34) complex          
  
 POSCAR found type information on POSCAR  W 
 POSCAR found :  1 types and       1 ions
 scaLAPACK will be used
 LDA part: xc-table for Ceperly-Alder, standard interpolation
 POSCAR, INCAR and KPOINTS ok, starting setup
 FFT: planning ...
 WAVECAR not read
 entering main loop
       N       E                     dE             d eps       ncg     rms          rms(c)
DAV:   1    -0.115400639568E+02   -0.11540E+02   -0.17652E+03   976   0.280E+02
DAV:   2    -0.149054550220E+02   -0.33654E+01   -0.31815E+01   792   0.456E+01
DAV:   3    -0.149172963007E+02   -0.11841E-01   -0.11823E-01   992   0.263E+00
DAV:   4    -0.149173015910E+02   -0.52903E-05   -0.52893E-05   816   0.331E-02
DAV:   5    -0.149173015954E+02   -0.43530E-08   -0.47549E-08   720   0.873E-04    0.415E+00
DAV:   6    -0.143928932358E+02    0.52441E+00   -0.44126E-01   752   0.406E+00    0.212E+00
DAV:   7    -0.142062197962E+02    0.18667E+00   -0.46674E-01   800   0.411E+00    0.264E-01
DAV:   8    -0.142047256578E+02    0.14941E-02   -0.11644E-02   816   0.722E-01    0.152E-01
DAV:   9    -0.142037325780E+02    0.99308E-03   -0.31239E-03   768   0.349E-01    0.692E-03
DAV:  10    -0.142037355084E+02   -0.29304E-05   -0.14909E-05   376   0.339E-02
   1 F= -.14203736E+02 E0= -.14204267E+02  d E =0.159592E-02
 writing wavefunctions
