 vasp.5.4.4.18Apr17-6-g9f103f2a35 (build Jul 01 2019 03:25:34) complex          
  
 executed on             LinuxIFC date 2020.07.08  19:51:30
 running on    4 total cores
 distrk:  each k-point on    4 cores,    1 groups
 distr:  one band on NCORES_PER_BAND=   1 cores,    4 groups


--------------------------------------------------------------------------------------------------------


 INCAR:
 POTCAR:   PAW W 19Jan2001                        
 POTCAR:   PAW W 19Jan2001                        
   VRHFIN =W: 5p6s5d                                                            
   LEXCH  = CA                                                                  
   EATOM  =   206.5370 eV,   15.1800 Ry                                         
                                                                                
   TITEL  = PAW W 19Jan2001                                                     
   LULTRA =        F    use ultrasoft PP ?                                      
   IUNSCR =        1    unscreen: 0-lin 1-nonlin 2-no                           
   RPACOR =    2.330    partial core radius                                     
   POMASS =  183.850; ZVAL   =    6.000    mass and valenz                      
   RCORE  =    2.750    outmost cutoff radius                                   
   RWIGS  =    2.750; RWIGS  =    1.455    wigner-seitz radius (au A)           
   ENMAX  =  223.126; ENMIN  =  167.344 eV                                      
   RCLOC  =    2.147    cutoff for local pot                                    
   LCOR   =        T    correct aug charges                                     
   LPAW   =        T    paw PP                                                  
   EAUG   =  373.438                                                            
   DEXC   =    -.048                                                            
   RMAX   =    3.087    core radius for proj-oper                               
   RAUG   =    1.300    factor for augmentation sphere                          
   RDEP   =    2.886    radius for radial grids                                 
   QCUT   =   -4.050; QGAM   =    8.099    optimization parameters              
                                                                                
   Description                                                                  
     l     E      TYP  RCUT    TYP  RCUT                                        
     2   .000     23  2.500                                                     
     2   .000     23  2.500                                                     
     0   .000     23  2.500                                                     
     0   .000     23  2.500                                                     
     1   .200     23  2.750                                                     
     1  2.000     23  2.750                                                     
     3   .000      7   .000                                                     
  local pseudopotential read in
  partial core-charges read in
  atomic valenz-charges read in
  non local Contribution for L=           2  read in
    real space projection operators read in
  non local Contribution for L=           2  read in
    real space projection operators read in
  non local Contribution for L=           0  read in
    real space projection operators read in
  non local Contribution for L=           0  read in
    real space projection operators read in
  non local Contribution for L=           1  read in
    real space projection operators read in
  non local Contribution for L=           1  read in
    real space projection operators read in
    PAW grid and wavefunctions read in
 
   number of l-projection  operators is LMAX  =           6
   number of lm-projection operators is LMMAX =          18
 
 PAW W 19Jan2001                        :
 energy of atom  1       EATOM= -206.5370
 kinetic energy error for atom=    0.0291 (will be added to EATOM!!)
 
 
 POSCAR: BCC W Bulk                              
  positions in direct lattice
  No initial velocities read in
 exchange correlation table for  LEXCH =        2
   RHO(1)=    0.500       N(1)  =     2000
   RHO(2)=  100.500       N(2)  =     4000
 


--------------------------------------------------------------------------------------------------------


 ion  position               nearest neighbor table
   1  0.000  0.000  0.000-
 
  LATTYP: Found a body centered cubic cell.
 ALAT       =     3.1500000000
  
  Lattice vectors:
  
 A1 = (  -1.5750000000,   1.5750000000,   1.5750000000)
 A2 = (   1.5750000000,  -1.5750000000,   1.5750000000)
 A3 = (   1.5750000000,   1.5750000000,  -1.5750000000)


Analysis of symmetry for initial positions (statically):
=====================================================================
 Subroutine PRICEL returns:
 Original cell was already a primitive cell.
 

 Routine SETGRP: Setting up the symmetry group for a 
 body centered cubic supercell.


 Subroutine GETGRP returns: Found 48 space group operations
 (whereof 48 operations were pure point group operations)
 out of a pool of 48 trial point group operations.


The static configuration has the point symmetry O_h .


Analysis of symmetry for dynamics (positions and initial velocities):
=====================================================================
 Subroutine PRICEL returns:
 Original cell was already a primitive cell.
 

 Routine SETGRP: Setting up the symmetry group for a 
 body centered cubic supercell.


 Subroutine GETGRP returns: Found 48 space group operations
 (whereof 48 operations were pure point group operations)
 out of a pool of 48 trial point group operations.


The dynamic configuration has the point symmetry O_h .


 Subroutine INISYM returns: Found 48 space group operations
 (whereof 48 operations are pure point group operations),
 and found     1 'primitive' translations

 
 
 KPOINTS: 10x10x10                                

Automatic generation of k-mesh.
Space group operators:
 irot       det(A)        alpha          n_x          n_y          n_z        tau_x        tau_y        tau_z
    1     1.000000     0.000000     1.000000     0.000000     0.000000     0.000000     0.000000     0.000000
    2    -1.000000     0.000000     1.000000     0.000000     0.000000     0.000000     0.000000     0.000000
    3     1.000000   120.000000    -0.577350    -0.577350    -0.577350     0.000000     0.000000     0.000000
    4    -1.000000   120.000000    -0.577350    -0.577350    -0.577350     0.000000     0.000000     0.000000
    5     1.000000   120.000000     0.577350     0.577350     0.577350     0.000000     0.000000     0.000000
    6    -1.000000   120.000000     0.577350     0.577350     0.577350     0.000000     0.000000     0.000000
    7     1.000000    90.000000     0.000000     0.000000    -1.000000     0.000000     0.000000     0.000000
    8    -1.000000    90.000000     0.000000     0.000000    -1.000000     0.000000     0.000000     0.000000
    9     1.000000   180.000000     0.000000     0.707107     0.707107     0.000000     0.000000     0.000000
   10    -1.000000   180.000000     0.000000     0.707107     0.707107     0.000000     0.000000     0.000000
   11     1.000000    90.000000     0.000000     1.000000     0.000000     0.000000     0.000000     0.000000
   12    -1.000000    90.000000     0.000000     1.000000     0.000000     0.000000     0.000000     0.000000
   13     1.000000   180.000000     0.000000     0.000000     1.000000     0.000000     0.000000     0.000000
   14    -1.000000   180.000000     0.000000     0.000000     1.000000     0.000000     0.000000     0.000000
   15     1.000000   120.000000    -0.577350     0.577350     0.577350     0.000000     0.000000     0.000000
   16    -1.000000   120.000000    -0.577350     0.577350     0.577350     0.000000     0.000000     0.000000
   17     1.000000   120.000000    -0.577350     0.577350    -0.577350     0.000000     0.000000     0.000000
   18    -1.000000   120.000000    -0.577350     0.577350    -0.577350     0.000000     0.000000     0.000000
   19     1.000000    90.000000     0.000000     0.000000     1.000000     0.000000     0.000000     0.000000
   20    -1.000000    90.000000     0.000000     0.000000     1.000000     0.000000     0.000000     0.000000
   21     1.000000    90.000000    -1.000000     0.000000     0.000000     0.000000     0.000000     0.000000
   22    -1.000000    90.000000    -1.000000     0.000000     0.000000     0.000000     0.000000     0.000000
   23     1.000000   180.000000     0.707107     0.000000     0.707107     0.000000     0.000000     0.000000
   24    -1.000000   180.000000     0.707107     0.000000     0.707107     0.000000     0.000000     0.000000
   25     1.000000   120.000000     0.577350    -0.577350     0.577350     0.000000     0.000000     0.000000
   26    -1.000000   120.000000     0.577350    -0.577350     0.577350     0.000000     0.000000     0.000000
   27     1.000000   120.000000    -0.577350    -0.577350     0.577350     0.000000     0.000000     0.000000
   28    -1.000000   120.000000    -0.577350    -0.577350     0.577350     0.000000     0.000000     0.000000
   29     1.000000   180.000000     1.000000     0.000000     0.000000     0.000000     0.000000     0.000000
   30    -1.000000   180.000000     1.000000     0.000000     0.000000     0.000000     0.000000     0.000000
   31     1.000000    90.000000     0.000000    -1.000000     0.000000     0.000000     0.000000     0.000000
   32    -1.000000    90.000000     0.000000    -1.000000     0.000000     0.000000     0.000000     0.000000
   33     1.000000   180.000000     0.707107     0.707107     0.000000     0.000000     0.000000     0.000000
   34    -1.000000   180.000000     0.707107     0.707107     0.000000     0.000000     0.000000     0.000000
   35     1.000000    90.000000     1.000000     0.000000     0.000000     0.000000     0.000000     0.000000
   36    -1.000000    90.000000     1.000000     0.000000     0.000000     0.000000     0.000000     0.000000
   37     1.000000   120.000000     0.577350    -0.577350    -0.577350     0.000000     0.000000     0.000000
   38    -1.000000   120.000000     0.577350    -0.577350    -0.577350     0.000000     0.000000     0.000000
   39     1.000000   180.000000     0.000000     1.000000     0.000000     0.000000     0.000000     0.000000
   40    -1.000000   180.000000     0.000000     1.000000     0.000000     0.000000     0.000000     0.000000
   41     1.000000   120.000000     0.577350     0.577350    -0.577350     0.000000     0.000000     0.000000
   42    -1.000000   120.000000     0.577350     0.577350    -0.577350     0.000000     0.000000     0.000000
   43     1.000000   180.000000     0.000000    -0.707107     0.707107     0.000000     0.000000     0.000000
   44    -1.000000   180.000000     0.000000    -0.707107     0.707107     0.000000     0.000000     0.000000
   45     1.000000   180.000000     0.707107    -0.707107     0.000000     0.000000     0.000000     0.000000
   46    -1.000000   180.000000     0.707107    -0.707107     0.000000     0.000000     0.000000     0.000000
   47     1.000000   180.000000     0.707107     0.000000    -0.707107     0.000000     0.000000     0.000000
   48    -1.000000   180.000000     0.707107     0.000000    -0.707107     0.000000     0.000000     0.000000
 
 Subroutine IBZKPT returns following result:
 ===========================================
 
 Found     44 irreducible k-points:
 
 Following reciprocal coordinates:
            Coordinates               Weight
  0.050000  0.050000  0.050000      8.000000
  0.150000  0.050000  0.050000     24.000000
  0.250000  0.050000  0.050000     24.000000
  0.350000  0.050000  0.050000     24.000000
  0.450000  0.050000  0.050000     12.000000
 -0.050000  0.050000  0.050000      6.000000
  0.150000  0.150000  0.050000     24.000000
  0.250000  0.150000  0.050000     48.000000
  0.350000  0.150000  0.050000     48.000000
 -0.150000  0.150000  0.050000     24.000000
  0.250000  0.250000  0.050000     24.000000
  0.350000  0.250000  0.050000     24.000000
 -0.250000  0.250000  0.050000     24.000000
 -0.150000  0.250000  0.050000     24.000000
 -0.350000  0.350000  0.050000     24.000000
 -0.250000  0.350000  0.050000     48.000000
 -0.450000  0.450000  0.050000     24.000000
 -0.350000  0.450000  0.050000     48.000000
 -0.250000  0.450000  0.050000     24.000000
 -0.450000 -0.450000  0.050000     24.000000
 -0.350000 -0.450000  0.050000     48.000000
 -0.350000 -0.350000  0.050000      8.000000
  0.150000  0.150000  0.150000      8.000000
  0.250000  0.150000  0.150000     24.000000
  0.350000  0.150000  0.150000     12.000000
 -0.150000  0.150000  0.150000      6.000000
  0.250000  0.250000  0.150000     24.000000
 -0.250000  0.250000  0.150000     24.000000
 -0.350000  0.350000  0.150000     24.000000
 -0.250000  0.350000  0.150000     24.000000
 -0.450000  0.450000  0.150000     24.000000
 -0.350000  0.450000  0.150000     48.000000
 -0.450000 -0.450000  0.150000     24.000000
 -0.350000 -0.450000  0.150000     24.000000
  0.250000  0.250000  0.250000      2.000000
 -0.250000  0.250000  0.250000      6.000000
 -0.350000  0.350000  0.250000     24.000000
 -0.450000  0.450000  0.250000     24.000000
 -0.350000  0.450000  0.250000     24.000000
 -0.450000 -0.450000  0.250000     24.000000
 -0.350000  0.350000  0.350000      6.000000
 -0.450000  0.450000  0.350000     24.000000
 -0.450000 -0.450000  0.350000      8.000000
 -0.450000  0.450000  0.450000      6.000000
 
 Following cartesian coordinates:
            Coordinates               Weight
  0.100000  0.100000  0.100000      8.000000
  0.100000  0.200000  0.200000     24.000000
  0.100000  0.300000  0.300000     24.000000
  0.100000  0.400000  0.400000     24.000000
  0.100000  0.500000  0.500000     12.000000
  0.100000  0.000000  0.000000      6.000000
  0.200000  0.200000  0.300000     24.000000
  0.200000  0.300000  0.400000     48.000000
  0.200000  0.400000  0.500000     48.000000
  0.200000 -0.100000  0.000000     24.000000
  0.300000  0.300000  0.500000     24.000000
  0.300000  0.400000  0.600000     24.000000
  0.300000 -0.200000  0.000000     24.000000
  0.300000 -0.100000  0.100000     24.000000
  0.400000 -0.300000  0.000000     24.000000
  0.400000 -0.200000  0.100000     48.000000
  0.500000 -0.400000  0.000000     24.000000
  0.500000 -0.300000  0.100000     48.000000
  0.500000 -0.200000  0.200000     24.000000
 -0.400000 -0.400000 -0.900000     24.000000
 -0.400000 -0.300000 -0.800000     48.000000
 -0.300000 -0.300000 -0.700000      8.000000
  0.300000  0.300000  0.300000      8.000000
  0.300000  0.400000  0.400000     24.000000
  0.300000  0.500000  0.500000     12.000000
  0.300000  0.000000  0.000000      6.000000
  0.400000  0.400000  0.500000     24.000000
  0.400000 -0.100000  0.000000     24.000000
  0.500000 -0.200000  0.000000     24.000000
  0.500000 -0.100000  0.100000     24.000000
  0.600000 -0.300000  0.000000     24.000000
  0.600000 -0.200000  0.100000     48.000000
 -0.300000 -0.300000 -0.900000     24.000000
 -0.300000 -0.200000 -0.800000     24.000000
  0.500000  0.500000  0.500000      2.000000
  0.500000  0.000000  0.000000      6.000000
  0.600000 -0.100000  0.000000     24.000000
  0.700000 -0.200000  0.000000     24.000000
  0.700000 -0.100000  0.100000     24.000000
 -0.200000 -0.200000 -0.900000     24.000000
  0.700000  0.000000  0.000000      6.000000
  0.800000 -0.100000  0.000000     24.000000
 -0.100000 -0.100000 -0.900000      8.000000
  0.900000  0.000000  0.000000      6.000000
 


--------------------------------------------------------------------------------------------------------




 Dimension of arrays:
   k-points           NKPTS =     44   k-points in BZ     NKDIM =     44   number of bands    NBANDS=      8
   number of dos      NEDOS =    301   number of ions     NIONS =      1
   non local maximal  LDIM  =      6   non local SUM 2l+1 LMDIM =     18
   total plane-waves  NPLWV =   1000
   max r-space proj   IRMAX =      1   max aug-charges    IRDMAX=   3852
   dimension x,y,z NGX =    10 NGY =   10 NGZ =   10
   dimension x,y,z NGXF=    20 NGYF=   20 NGZF=   20
   support grid    NGXF=    20 NGYF=   20 NGZF=   20
   ions per type =               1
   NGX,Y,Z   is equivalent  to a cutoff of   6.09,  6.09,  6.09 a.u.
   NGXF,Y,Z  is equivalent  to a cutoff of  12.19, 12.19, 12.19 a.u.

 SYSTEM =  BCC W                                   
 POSCAR =  BCC W Bulk                              

 Startparameter for this run:
   NWRITE =      2    write-flag & timer
   PREC   = normal    normal or accurate (medium, high low for compatibility)
   ISTART =      0    job   : 0-new  1-cont  2-samecut
   ICHARG =      2    charge: 1-file 2-atom 10-const
   ISPIN  =      1    spin polarized calculation?
   LNONCOLLINEAR =      F non collinear calculations
   LSORBIT =      F    spin-orbit coupling
   INIWAV =      1    electr: 0-lowe 1-rand  2-diag
   LASPH  =      F    aspherical Exc in radial PAW
   METAGGA=      F    non-selfconsistent MetaGGA calc.

 Electronic Relaxation 1
   ENCUT  =  224.0 eV  16.46 Ry    4.06 a.u.   3.33  3.33  3.33*2*pi/ulx,y,z
   ENINI  =  224.0     initial cutoff
   ENAUG  =  373.4 eV  augmentation charge cutoff
   NELM   =     60;   NELMIN=  2; NELMDL= -5     # of ELM steps 
   EDIFF  = 0.1E-03   stopping-criterion for ELM
   LREAL  =      F    real-space projection
   NLSPLINE    = F    spline interpolate recip. space projectors
   LCOMPAT=      F    compatible to vasp.4.4
   GGA_COMPAT  = T    GGA compatible to vasp.4.4-vasp.4.6
   LMAXPAW     = -100 max onsite density
   LMAXMIX     =    2 max onsite mixed and CHGCAR
   VOSKOWN=      0    Vosko Wilk Nusair interpolation
   ROPT   =    0.00000
 Ionic relaxation
   EDIFFG = 0.1E-02   stopping-criterion for IOM
   NSW    =      0    number of steps for IOM
   NBLOCK =      1;   KBLOCK =      1    inner block; outer block 
   IBRION =     -1    ionic relax: 0-MD 1-quasi-New 2-CG
   NFREE  =      0    steps in history (QN), initial steepest desc. (CG)
   ISIF   =      2    stress and relaxation
   IWAVPR =     10    prediction:  0-non 1-charg 2-wave 3-comb
   ISYM   =      2    0-nonsym 1-usesym 2-fastsym
   LCORR  =      T    Harris-Foulkes like correction to forces

   POTIM  = 0.5000    time-step for ionic-motion
   TEIN   =    0.0    initial temperature
   TEBEG  =    0.0;   TEEND  =   0.0 temperature during run
   SMASS  =  -3.00    Nose mass-parameter (am)
   estimated Nose-frequenzy (Omega)   =  0.10E-29 period in steps =****** mass=  -0.170E-27a.u.
   SCALEE = 1.0000    scale energy and forces
   NPACO  =    256;   APACO  = 16.0  distance and # of slots for P.C.
   PSTRESS=    0.0 pullay stress

  Mass of Ions in am
   POMASS = 183.85
  Ionic Valenz
   ZVAL   =   6.00
  Atomic Wigner-Seitz radii
   RWIGS  =  -1.00
  virtual crystal weights 
   VCA    =   1.00
   NELECT =       6.0000    total number of electrons
   NUPDOWN=      -1.0000    fix difference up-down

 DOS related values:
   EMIN   =  10.00;   EMAX   =-10.00  energy-range for DOS
   EFERMI =   0.00
   ISMEAR =     1;   SIGMA  =   0.20  broadening in eV -4-tet -1-fermi 0-gaus

 Electronic relaxation 2 (details)
   IALGO  =     38    algorithm
   LDIAG  =      T    sub-space diagonalisation (order eigenvalues)
   LSUBROT=      F    optimize rotation matrix (better conditioning)
   TURBO    =      0    0=normal 1=particle mesh
   IRESTART =      0    0=no restart 2=restart with 2 vectors
   NREBOOT  =      0    no. of reboots
   NMIN     =      0    reboot dimension
   EREF     =   0.00    reference energy to select bands
   IMIX   =      4    mixing-type and parameters
     AMIX     =   0.40;   BMIX     =  1.00
     AMIX_MAG =   1.60;   BMIX_MAG =  1.00
     AMIN     =   0.10
     WC   =   100.;   INIMIX=   1;  MIXPRE=   1;  MAXMIX= -45

 Intra band minimization:
   WEIMIN = 0.0000     energy-eigenvalue tresh-hold
   EBREAK =  0.31E-05  absolut break condition
   DEPER  =   0.30     relativ break condition  

   TIME   =   0.40     timestep for ELM

  volume/ion in A,a.u.               =      15.63       105.46
  Fermi-wavevector in a.u.,A,eV,Ry     =   1.189848  2.248486 19.262277  1.415737
  Thomas-Fermi vector in A             =   2.325946
 
 Write flags
   LWAVE        =      T    write WAVECAR
   LDOWNSAMPLE  =      F    k-point downsampling of WAVECAR
   LCHARG       =      T    write CHGCAR
   LVTOT        =      F    write LOCPOT, total local potential
   LVHAR        =      F    write LOCPOT, Hartree potential only
   LELF         =      F    write electronic localiz. function (ELF)
   LORBIT       =      0    0 simple, 1 ext, 2 COOP (PROOUT), +10 PAW based schemes


 Dipole corrections
   LMONO  =      F    monopole corrections only (constant potential shift)
   LDIPOL =      F    correct potential (dipole corrections)
   IDIPOL =      0    1-x, 2-y, 3-z, 4-all directions 
   EPSILON=  1.0000000 bulk dielectric constant

 Exchange correlation treatment:
   GGA     =    --    GGA type
   LEXCH   =     2    internal setting for exchange type
   VOSKOWN=      0    Vosko Wilk Nusair interpolation
   LHFCALC =     F    Hartree Fock is set to
   LHFONE  =     F    Hartree Fock one center treatment
   AEXX    =    0.0000 exact exchange contribution

 Linear response parameters
   LEPSILON=     F    determine dielectric tensor
   LRPA    =     F    only Hartree local field effects (RPA)
   LNABLA  =     F    use nabla operator in PAW spheres
   LVEL    =     F    velocity operator in full k-point grid
   LINTERFAST=   F  fast interpolation
   KINTER  =     0    interpolate to denser k-point grid
   CSHIFT  =0.1000    complex shift for real part using Kramers Kronig
   OMEGAMAX=  -1.0    maximum frequency
   DEG_THRESHOLD= 0.2000000E-02 threshold for treating states as degnerate
   RTIME   =   -0.100 relaxation time in fs
  (WPLASMAI=    0.000 imaginary part of plasma frequency in eV, 0.658/RTIME)
   DFIELD  = 0.0000000 0.0000000 0.0000000 field for delta impulse in time
 
 Orbital magnetization related:
   ORBITALMAG=     F  switch on orbital magnetization
   LCHIMAG   =     F  perturbation theory with respect to B field
   DQ        =  0.001000  dq finite difference perturbation B field
   LLRAUG    =     F  two centre corrections for induced B field



--------------------------------------------------------------------------------------------------------


 Static calculation
 charge density and potential will be updated during run
 non-spin polarized calculation
 Variant of blocked Davidson
 Davidson routine will perform the subspace rotation
 perform sub-space diagonalisation
    after iterative eigenvector-optimisation
 modified Broyden-mixing scheme, WC =      100.0
 initial mixing is a Kerker type mixing with AMIX =  0.4000 and BMIX =      1.0000
 Hartree-type preconditioning will be used
 using additional bands            5
 reciprocal scheme for non local part
 use partial core corrections
 calculate Harris-corrections to forces 
   (improved forces if not selfconsistent)
 use of overlap-Matrix (Vanderbilt PP)
 Methfessel and Paxton  Order N= 1 SIGMA  =   0.20


--------------------------------------------------------------------------------------------------------


  energy-cutoff  :      224.00
  volume of cell :       15.63
      direct lattice vectors                 reciprocal lattice vectors
    -1.575000000  1.575000000  1.575000000     0.000000000  0.317460317  0.317460317
     1.575000000 -1.575000000  1.575000000     0.317460317  0.000000000  0.317460317
     1.575000000  1.575000000 -1.575000000     0.317460317  0.317460317  0.000000000

  length of vectors
     2.727980022  2.727980022  2.727980022     0.448956686  0.448956686  0.448956686


 
 k-points in units of 2pi/SCALE and weight: 10x10x10                                
   0.10000000  0.10000000  0.10000000       0.008
   0.10000000  0.20000000  0.20000000       0.024
   0.10000000  0.30000000  0.30000000       0.024
   0.10000000  0.40000000  0.40000000       0.024
   0.10000000  0.50000000  0.50000000       0.012
   0.10000000  0.00000000  0.00000000       0.006
   0.20000000  0.20000000  0.30000000       0.024
   0.20000000  0.30000000  0.40000000       0.048
   0.20000000  0.40000000  0.50000000       0.048
   0.20000000 -0.10000000  0.00000000       0.024
   0.30000000  0.30000000  0.50000000       0.024
   0.30000000  0.40000000  0.60000000       0.024
   0.30000000 -0.20000000  0.00000000       0.024
   0.30000000 -0.10000000  0.10000000       0.024
   0.40000000 -0.30000000  0.00000000       0.024
   0.40000000 -0.20000000  0.10000000       0.048
   0.50000000 -0.40000000  0.00000000       0.024
   0.50000000 -0.30000000  0.10000000       0.048
   0.50000000 -0.20000000  0.20000000       0.024
  -0.40000000 -0.40000000 -0.90000000       0.024
  -0.40000000 -0.30000000 -0.80000000       0.048
  -0.30000000 -0.30000000 -0.70000000       0.008
   0.30000000  0.30000000  0.30000000       0.008
   0.30000000  0.40000000  0.40000000       0.024
   0.30000000  0.50000000  0.50000000       0.012
   0.30000000  0.00000000  0.00000000       0.006
   0.40000000  0.40000000  0.50000000       0.024
   0.40000000 -0.10000000  0.00000000       0.024
   0.50000000 -0.20000000  0.00000000       0.024
   0.50000000 -0.10000000  0.10000000       0.024
   0.60000000 -0.30000000  0.00000000       0.024
   0.60000000 -0.20000000  0.10000000       0.048
  -0.30000000 -0.30000000 -0.90000000       0.024
  -0.30000000 -0.20000000 -0.80000000       0.024
   0.50000000  0.50000000  0.50000000       0.002
   0.50000000  0.00000000  0.00000000       0.006
   0.60000000 -0.10000000  0.00000000       0.024
   0.70000000 -0.20000000  0.00000000       0.024
   0.70000000 -0.10000000  0.10000000       0.024
  -0.20000000 -0.20000000 -0.90000000       0.024
   0.70000000  0.00000000  0.00000000       0.006
   0.80000000 -0.10000000  0.00000000       0.024
  -0.10000000 -0.10000000 -0.90000000       0.008
   0.90000000  0.00000000  0.00000000       0.006
 
 k-points in reciprocal lattice and weights: 10x10x10                                
   0.05000000  0.05000000  0.05000000       0.008
   0.15000000  0.05000000  0.05000000       0.024
   0.25000000  0.05000000  0.05000000       0.024
   0.35000000  0.05000000  0.05000000       0.024
   0.45000000  0.05000000  0.05000000       0.012
  -0.05000000  0.05000000  0.05000000       0.006
   0.15000000  0.15000000  0.05000000       0.024
   0.25000000  0.15000000  0.05000000       0.048
   0.35000000  0.15000000  0.05000000       0.048
  -0.15000000  0.15000000  0.05000000       0.024
   0.25000000  0.25000000  0.05000000       0.024
   0.35000000  0.25000000  0.05000000       0.024
  -0.25000000  0.25000000  0.05000000       0.024
  -0.15000000  0.25000000  0.05000000       0.024
  -0.35000000  0.35000000  0.05000000       0.024
  -0.25000000  0.35000000  0.05000000       0.048
  -0.45000000  0.45000000  0.05000000       0.024
  -0.35000000  0.45000000  0.05000000       0.048
  -0.25000000  0.45000000  0.05000000       0.024
  -0.45000000 -0.45000000  0.05000000       0.024
  -0.35000000 -0.45000000  0.05000000       0.048
  -0.35000000 -0.35000000  0.05000000       0.008
   0.15000000  0.15000000  0.15000000       0.008
   0.25000000  0.15000000  0.15000000       0.024
   0.35000000  0.15000000  0.15000000       0.012
  -0.15000000  0.15000000  0.15000000       0.006
   0.25000000  0.25000000  0.15000000       0.024
  -0.25000000  0.25000000  0.15000000       0.024
  -0.35000000  0.35000000  0.15000000       0.024
  -0.25000000  0.35000000  0.15000000       0.024
  -0.45000000  0.45000000  0.15000000       0.024
  -0.35000000  0.45000000  0.15000000       0.048
  -0.45000000 -0.45000000  0.15000000       0.024
  -0.35000000 -0.45000000  0.15000000       0.024
   0.25000000  0.25000000  0.25000000       0.002
  -0.25000000  0.25000000  0.25000000       0.006
  -0.35000000  0.35000000  0.25000000       0.024
  -0.45000000  0.45000000  0.25000000       0.024
  -0.35000000  0.45000000  0.25000000       0.024
  -0.45000000 -0.45000000  0.25000000       0.024
  -0.35000000  0.35000000  0.35000000       0.006
  -0.45000000  0.45000000  0.35000000       0.024
  -0.45000000 -0.45000000  0.35000000       0.008
  -0.45000000  0.45000000  0.45000000       0.006
 
 position of ions in fractional coordinates (direct lattice) 
   0.00000000  0.00000000  0.00000000
 
 position of ions in cartesian coordinates  (Angst):
   0.00000000  0.00000000  0.00000000
 


--------------------------------------------------------------------------------------------------------


 k-point  1 :   0.0500 0.0500 0.0500  plane waves:     123
 k-point  2 :   0.1500 0.0500 0.0500  plane waves:     123
 k-point  3 :   0.2500 0.0500 0.0500  plane waves:     117
 k-point  4 :   0.3500 0.0500 0.0500  plane waves:     118
 k-point  5 :   0.4500 0.0500 0.0500  plane waves:     118
 k-point  6 :  -0.0500 0.0500 0.0500  plane waves:     135
 k-point  7 :   0.1500 0.1500 0.0500  plane waves:     121
 k-point  8 :   0.2500 0.1500 0.0500  plane waves:     120
 k-point  9 :   0.3500 0.1500 0.0500  plane waves:     119
 k-point 10 :  -0.1500 0.1500 0.0500  plane waves:     120
 k-point 11 :   0.2500 0.2500 0.0500  plane waves:     120
 k-point 12 :   0.3500 0.2500 0.0500  plane waves:     121
 k-point 13 :  -0.2500 0.2500 0.0500  plane waves:     119
 k-point 14 :  -0.1500 0.2500 0.0500  plane waves:     118
 k-point 15 :  -0.3500 0.3500 0.0500  plane waves:     118
 k-point 16 :  -0.2500 0.3500 0.0500  plane waves:     116
 k-point 17 :  -0.4500 0.4500 0.0500  plane waves:     116
 k-point 18 :  -0.3500 0.4500 0.0500  plane waves:     121
 k-point 19 :  -0.2500 0.4500 0.0500  plane waves:     120
 k-point 20 :  -0.4500-0.4500 0.0500  plane waves:     122
 k-point 21 :  -0.3500-0.4500 0.0500  plane waves:     121
 k-point 22 :  -0.3500-0.3500 0.0500  plane waves:     119
 k-point 23 :   0.1500 0.1500 0.1500  plane waves:     125
 k-point 24 :   0.2500 0.1500 0.1500  plane waves:     121
 k-point 25 :   0.3500 0.1500 0.1500  plane waves:     122
 k-point 26 :  -0.1500 0.1500 0.1500  plane waves:     120
 k-point 27 :   0.2500 0.2500 0.1500  plane waves:     123
 k-point 28 :  -0.2500 0.2500 0.1500  plane waves:     118
 k-point 29 :  -0.3500 0.3500 0.1500  plane waves:     120
 k-point 30 :  -0.2500 0.3500 0.1500  plane waves:     119
 k-point 31 :  -0.4500 0.4500 0.1500  plane waves:     119
 k-point 32 :  -0.3500 0.4500 0.1500  plane waves:     117
 k-point 33 :  -0.4500-0.4500 0.1500  plane waves:     119
 k-point 34 :  -0.3500-0.4500 0.1500  plane waves:     115
 k-point 35 :   0.2500 0.2500 0.2500  plane waves:     140
 k-point 36 :  -0.2500 0.2500 0.2500  plane waves:     116
 k-point 37 :  -0.3500 0.3500 0.2500  plane waves:     117
 k-point 38 :  -0.4500 0.4500 0.2500  plane waves:     119
 k-point 39 :  -0.3500 0.4500 0.2500  plane waves:     115
 k-point 40 :  -0.4500-0.4500 0.2500  plane waves:     116
 k-point 41 :  -0.3500 0.3500 0.3500  plane waves:     116
 k-point 42 :  -0.4500 0.4500 0.3500  plane waves:     116
 k-point 43 :  -0.4500-0.4500 0.3500  plane waves:     116
 k-point 44 :  -0.4500 0.4500 0.4500  plane waves:     116

 maximum and minimum number of plane-waves per node :       140      115

 maximum number of plane-waves:       140
 maximum index in each direction: 
   IXMAX=    3   IYMAX=    3   IZMAX=    3
   IXMIN=   -3   IYMIN=   -3   IZMIN=   -3


 serial   3D FFT for wavefunctions
 parallel 3D FFT for charge:
    minimum data exchange during FFTs selected (reduces bandwidth)


 total amount of memory used by VASP MPI-rank0    31463. kBytes
=======================================================================

   base      :      30000. kBytes
   nonl-proj :        889. kBytes
   fftplans  :        142. kBytes
   grid      :        192. kBytes
   one-center:         15. kBytes
   wavefun   :        225. kBytes
 
     INWAV:  cpu time    0.0000: real time    0.0002
 Broyden mixing: mesh for mixing (old mesh)
   NGX =  7   NGY =  7   NGZ =  7
  (NGX  = 20   NGY  = 20   NGZ  = 20)
  gives a total of    343 points

 initial charge density was supplied:
 charge density of overlapping atoms calculated
 number of electron       6.0000000 magnetization 
 keeping initial charge density in first step


--------------------------------------------------------------------------------------------------------


 Maximum index for augmentation-charges          889 (set IRDMAX)


--------------------------------------------------------------------------------------------------------


 First call to EWALD:  gamma=   0.709
 Maximum number of real-space cells 3x 3x 3
 Maximum number of reciprocal cells 3x 3x 3

    FEWALD:  cpu time    0.0010: real time    0.0010


--------------------------------------- Iteration      1(   1)  ---------------------------------------


    POTLOK:  cpu time    0.0011: real time    0.0020
    SETDIJ:  cpu time    0.0012: real time    0.0013
     EDDAV:  cpu time    0.0367: real time    0.0368
       DOS:  cpu time    0.0004: real time    0.0004
    --------------------------------------------
      LOOP:  cpu time    0.0394: real time    0.0404

 eigenvalue-minimisations  :   976
 total energy-change (2. order) :-0.1154006E+02  (-0.1765208E+03)
 number of electron       6.0000000 magnetization 
 augmentation part        6.0000000 magnetization 

 Free energy of the ion-electron system (eV)
  ---------------------------------------------------
  alpha Z        PSCENC =        44.66561374
  Ewald energy   TEWEN  =      -299.45249781
  -Hartree energ DENC   =        -5.69942808
  -exchange      EXHF   =         0.00000000
  -V(xc)+E(xc)   XCENC  =       -47.30884213
  PAW double counting   =       183.53490256     -125.80866524
  entropy T*S    EENTRO =        -0.00213721
  eigenvalues    EBANDS =        32.02313186
  atomic energy  EATOM  =       206.50785835
  Solvation  Ediel_sol  =         0.00000000
  ---------------------------------------------------
  free energy    TOTEN  =       -11.54006396 eV

  energy without entropy =      -11.53792675  energy(sigma->0) =      -11.53935155


--------------------------------------------------------------------------------------------------------




--------------------------------------- Iteration      1(   2)  ---------------------------------------


     EDDAV:  cpu time    0.0293: real time    0.0295
       DOS:  cpu time    0.0005: real time    0.0004
    --------------------------------------------
      LOOP:  cpu time    0.0299: real time    0.0298

 eigenvalue-minimisations  :   792
 total energy-change (2. order) :-0.3365391E+01  (-0.3181496E+01)
 number of electron       6.0000000 magnetization 
 augmentation part        6.0000000 magnetization 

 Free energy of the ion-electron system (eV)
  ---------------------------------------------------
  alpha Z        PSCENC =        44.66561374
  Ewald energy   TEWEN  =      -299.45249781
  -Hartree energ DENC   =        -5.69942808
  -exchange      EXHF   =         0.00000000
  -V(xc)+E(xc)   XCENC  =       -47.30884213
  PAW double counting   =       183.53490256     -125.80866524
  entropy T*S    EENTRO =        -0.00009816
  eigenvalues    EBANDS =        28.65570174
  atomic energy  EATOM  =       206.50785835
  Solvation  Ediel_sol  =         0.00000000
  ---------------------------------------------------
  free energy    TOTEN  =       -14.90545502 eV

  energy without entropy =      -14.90535687  energy(sigma->0) =      -14.90542230


--------------------------------------------------------------------------------------------------------




--------------------------------------- Iteration      1(   3)  ---------------------------------------


     EDDAV:  cpu time    0.0366: real time    0.0370
       DOS:  cpu time    0.0004: real time    0.0004
    --------------------------------------------
      LOOP:  cpu time    0.0370: real time    0.0373

 eigenvalue-minimisations  :   992
 total energy-change (2. order) :-0.1184128E-01  (-0.1182272E-01)
 number of electron       6.0000000 magnetization 
 augmentation part        6.0000000 magnetization 

 Free energy of the ion-electron system (eV)
  ---------------------------------------------------
  alpha Z        PSCENC =        44.66561374
  Ewald energy   TEWEN  =      -299.45249781
  -Hartree energ DENC   =        -5.69942808
  -exchange      EXHF   =         0.00000000
  -V(xc)+E(xc)   XCENC  =       -47.30884213
  PAW double counting   =       183.53490256     -125.80866524
  entropy T*S    EENTRO =        -0.00005964
  eigenvalues    EBANDS =        28.64382194
  atomic energy  EATOM  =       206.50785835
  Solvation  Ediel_sol  =         0.00000000
  ---------------------------------------------------
  free energy    TOTEN  =       -14.91729630 eV

  energy without entropy =      -14.91723666  energy(sigma->0) =      -14.91727642


--------------------------------------------------------------------------------------------------------




--------------------------------------- Iteration      1(   4)  ---------------------------------------


     EDDAV:  cpu time    0.0315: real time    0.0316
       DOS:  cpu time    0.0004: real time    0.0004
    --------------------------------------------
      LOOP:  cpu time    0.0319: real time    0.0321

 eigenvalue-minimisations  :   816
 total energy-change (2. order) :-0.5290304E-05  (-0.5289290E-05)
 number of electron       6.0000000 magnetization 
 augmentation part        6.0000000 magnetization 

 Free energy of the ion-electron system (eV)
  ---------------------------------------------------
  alpha Z        PSCENC =        44.66561374
  Ewald energy   TEWEN  =      -299.45249781
  -Hartree energ DENC   =        -5.69942808
  -exchange      EXHF   =         0.00000000
  -V(xc)+E(xc)   XCENC  =       -47.30884213
  PAW double counting   =       183.53490256     -125.80866524
  entropy T*S    EENTRO =        -0.00005947
  eigenvalues    EBANDS =        28.64381649
  atomic energy  EATOM  =       206.50785835
  Solvation  Ediel_sol  =         0.00000000
  ---------------------------------------------------
  free energy    TOTEN  =       -14.91730159 eV

  energy without entropy =      -14.91724212  energy(sigma->0) =      -14.91728177


--------------------------------------------------------------------------------------------------------




--------------------------------------- Iteration      1(   5)  ---------------------------------------


     EDDAV:  cpu time    0.0304: real time    0.0305
       DOS:  cpu time    0.0005: real time    0.0005
    CHARGE:  cpu time    0.0015: real time    0.0014
    MIXING:  cpu time    0.0002: real time    0.0002
    --------------------------------------------
      LOOP:  cpu time    0.0325: real time    0.0326

 eigenvalue-minimisations  :   720
 total energy-change (2. order) :-0.4352955E-08  (-0.4754916E-08)
 number of electron       5.9999985 magnetization 
 augmentation part        0.6052982 magnetization 

 Broyden mixing:
  rms(total) = 0.41495E+00    rms(broyden)= 0.41481E+00
  rms(prec ) = 0.17594E+01
  weight for this iteration     100.00

 Free energy of the ion-electron system (eV)
  ---------------------------------------------------
  alpha Z        PSCENC =        44.66561374
  Ewald energy   TEWEN  =      -299.45249781
  -Hartree energ DENC   =        -5.69942808
  -exchange      EXHF   =         0.00000000
  -V(xc)+E(xc)   XCENC  =       -47.30884213
  PAW double counting   =       183.53490256     -125.80866524
  entropy T*S    EENTRO =        -0.00005947
  eigenvalues    EBANDS =        28.64381648
  atomic energy  EATOM  =       206.50785835
  Solvation  Ediel_sol  =         0.00000000
  ---------------------------------------------------
  free energy    TOTEN  =       -14.91730160 eV

  energy without entropy =      -14.91724213  energy(sigma->0) =      -14.91728177


--------------------------------------------------------------------------------------------------------




--------------------------------------- Iteration      1(   6)  ---------------------------------------


    POTLOK:  cpu time    0.0011: real time    0.0011
    SETDIJ:  cpu time    0.0010: real time    0.0011
     EDDAV:  cpu time    0.0286: real time    0.0286
       DOS:  cpu time    0.0003: real time    0.0004
    CHARGE:  cpu time    0.0011: real time    0.0012
    MIXING:  cpu time    0.0002: real time    0.0003
    --------------------------------------------
      LOOP:  cpu time    0.0324: real time    0.0326

 eigenvalue-minimisations  :   752
 total energy-change (2. order) : 0.5244084E+00  (-0.4412588E-01)
 number of electron       5.9999984 magnetization 
 augmentation part        0.6416267 magnetization 

 Broyden mixing:
  rms(total) = 0.21227E+00    rms(broyden)= 0.21224E+00
  rms(prec ) = 0.88294E+00
  weight for this iteration     100.00

 eigenvalues of (default mixing * dielectric matrix)
  average eigenvalue GAMMA=   2.0300
  2.0300

 Free energy of the ion-electron system (eV)
  ---------------------------------------------------
  alpha Z        PSCENC =        44.66561374
  Ewald energy   TEWEN  =      -299.45249781
  -Hartree energ DENC   =        -3.70981374
  -exchange      EXHF   =         0.00000000
  -V(xc)+E(xc)   XCENC  =       -47.11852627
  PAW double counting   =       202.30817448     -145.34215057
  entropy T*S    EENTRO =        -0.00023767
  eigenvalues    EBANDS =        27.74868626
  atomic energy  EATOM  =       206.50785835
  Solvation  Ediel_sol  =         0.00000000
  ---------------------------------------------------
  free energy    TOTEN  =       -14.39289324 eV

  energy without entropy =      -14.39265557  energy(sigma->0) =      -14.39281401


--------------------------------------------------------------------------------------------------------




--------------------------------------- Iteration      1(   7)  ---------------------------------------


    POTLOK:  cpu time    0.0011: real time    0.0012
    SETDIJ:  cpu time    0.0010: real time    0.0010
     EDDAV:  cpu time    0.0299: real time    0.0299
       DOS:  cpu time    0.0009: real time    0.0004
    CHARGE:  cpu time    0.0009: real time    0.0014
    MIXING:  cpu time    0.0001: real time    0.0001
    --------------------------------------------
      LOOP:  cpu time    0.0340: real time    0.0341

 eigenvalue-minimisations  :   800
 total energy-change (2. order) : 0.1866734E+00  (-0.4667406E-01)
 number of electron       5.9999983 magnetization 
 augmentation part        0.6826974 magnetization 

 Broyden mixing:
  rms(total) = 0.26360E-01    rms(broyden)= 0.26183E-01
  rms(prec ) = 0.73034E-01
  weight for this iteration     100.00

 eigenvalues of (default mixing * dielectric matrix)
  average eigenvalue GAMMA=   2.8515
  2.1406  3.5624

 Free energy of the ion-electron system (eV)
  ---------------------------------------------------
  alpha Z        PSCENC =        44.66561374
  Ewald energy   TEWEN  =      -299.45249781
  -Hartree energ DENC   =        -2.18465542
  -exchange      EXHF   =         0.00000000
  -V(xc)+E(xc)   XCENC  =       -46.86076037
  PAW double counting   =       230.98330761     -174.75590118
  entropy T*S    EENTRO =         0.00163466
  eigenvalues    EBANDS =        26.88918061
  atomic energy  EATOM  =       206.50785835
  Solvation  Ediel_sol  =         0.00000000
  ---------------------------------------------------
  free energy    TOTEN  =       -14.20621980 eV

  energy without entropy =      -14.20785446  energy(sigma->0) =      -14.20676468


--------------------------------------------------------------------------------------------------------




--------------------------------------- Iteration      1(   8)  ---------------------------------------


    POTLOK:  cpu time    0.0011: real time    0.0011
    SETDIJ:  cpu time    0.0010: real time    0.0010
     EDDAV:  cpu time    0.0294: real time    0.0294
       DOS:  cpu time    0.0004: real time    0.0004
    CHARGE:  cpu time    0.0010: real time    0.0010
    MIXING:  cpu time    0.0003: real time    0.0002
    --------------------------------------------
      LOOP:  cpu time    0.0331: real time    0.0332

 eigenvalue-minimisations  :   816
 total energy-change (2. order) : 0.1494138E-02  (-0.1164397E-02)
 number of electron       5.9999983 magnetization 
 augmentation part        0.6793201 magnetization 

 Broyden mixing:
  rms(total) = 0.15243E-01    rms(broyden)= 0.15241E-01
  rms(prec ) = 0.65554E-01
  weight for this iteration     100.00

 eigenvalues of (default mixing * dielectric matrix)
  average eigenvalue GAMMA=   1.7889
  1.2088  2.4005  1.7573

 Free energy of the ion-electron system (eV)
  ---------------------------------------------------
  alpha Z        PSCENC =        44.66561374
  Ewald energy   TEWEN  =      -299.45249781
  -Hartree energ DENC   =        -2.35769226
  -exchange      EXHF   =         0.00000000
  -V(xc)+E(xc)   XCENC  =       -46.87530904
  PAW double counting   =       245.36446484     -189.23306385
  entropy T*S    EENTRO =         0.00124688
  eigenvalues    EBANDS =        27.17465348
  atomic energy  EATOM  =       206.50785835
  Solvation  Ediel_sol  =         0.00000000
  ---------------------------------------------------
  free energy    TOTEN  =       -14.20472566 eV

  energy without entropy =      -14.20597254  energy(sigma->0) =      -14.20514129


--------------------------------------------------------------------------------------------------------




--------------------------------------- Iteration      1(   9)  ---------------------------------------


    POTLOK:  cpu time    0.0011: real time    0.0011
    SETDIJ:  cpu time    0.0010: real time    0.0010
     EDDAV:  cpu time    0.0300: real time    0.0301
       DOS:  cpu time    0.0004: real time    0.0004
    CHARGE:  cpu time    0.0011: real time    0.0011
    MIXING:  cpu time    0.0002: real time    0.0002
    --------------------------------------------
      LOOP:  cpu time    0.0345: real time    0.0339

 eigenvalue-minimisations  :   768
 total energy-change (2. order) : 0.9930798E-03  (-0.3123907E-03)
 number of electron       5.9999983 magnetization 
 augmentation part        0.6820287 magnetization 

 Broyden mixing:
  rms(total) = 0.69239E-03    rms(broyden)= 0.64701E-03
  rms(prec ) = 0.20955E-02
  weight for this iteration     100.00

 eigenvalues of (default mixing * dielectric matrix)
  average eigenvalue GAMMA=   1.9462
  0.9980  2.4161  2.4161  1.9546

 Free energy of the ion-electron system (eV)
  ---------------------------------------------------
  alpha Z        PSCENC =        44.66561374
  Ewald energy   TEWEN  =      -299.45249781
  -Hartree energ DENC   =        -2.25203072
  -exchange      EXHF   =         0.00000000
  -V(xc)+E(xc)   XCENC  =       -46.85820835
  PAW double counting   =       243.35829419     -187.23166841
  entropy T*S    EENTRO =         0.00159598
  eigenvalues    EBANDS =        27.05731044
  atomic energy  EATOM  =       206.50785835
  Solvation  Ediel_sol  =         0.00000000
  ---------------------------------------------------
  free energy    TOTEN  =       -14.20373258 eV

  energy without entropy =      -14.20532856  energy(sigma->0) =      -14.20426457


--------------------------------------------------------------------------------------------------------




--------------------------------------- Iteration      1(  10)  ---------------------------------------


    POTLOK:  cpu time    0.0011: real time    0.0012
    SETDIJ:  cpu time    0.0010: real time    0.0010
     EDDAV:  cpu time    0.0155: real time    0.0155
       DOS:  cpu time    0.0005: real time    0.0004
    --------------------------------------------
      LOOP:  cpu time    0.0172: real time    0.0180

 eigenvalue-minimisations  :   376
 total energy-change (2. order) :-0.2930412E-05  (-0.1490870E-05)
 number of electron       5.9999983 magnetization 
 augmentation part        0.6820287 magnetization 

 Free energy of the ion-electron system (eV)
  ---------------------------------------------------
  alpha Z        PSCENC =        44.66561374
  Ewald energy   TEWEN  =      -299.45249781
  -Hartree energ DENC   =        -2.25402943
  -exchange      EXHF   =         0.00000000
  -V(xc)+E(xc)   XCENC  =       -46.85852168
  PAW double counting   =       243.55153611     -187.42115195
  entropy T*S    EENTRO =         0.00159592
  eigenvalues    EBANDS =        27.05586124
  atomic energy  EATOM  =       206.50785835
  Solvation  Ediel_sol  =         0.00000000
  ---------------------------------------------------
  free energy    TOTEN  =       -14.20373551 eV

  energy without entropy =      -14.20533143  energy(sigma->0) =      -14.20426748


--------------------------------------------------------------------------------------------------------




 average (electrostatic) potential at core
  the test charge radii are     1.1823
  (the norm of the test charge is              1.0000)
       1 -38.0044
 
 
 
 E-fermi :   7.8351     XC(G=0): -13.3150     alpha+bet :-14.9269


 k-point     1 :       0.0500    0.0500    0.0500
  band No.  band energies     occupation 
      1      -0.9508      2.00000
      2       6.3389      2.00000
      3       6.3389      2.00000
      4       7.5376      2.05643
      5       9.9458     -0.00000
      6       9.9458     -0.00000
      7      23.7384      0.00000
      8      24.6689      0.00000

 k-point     2 :       0.1500    0.0500    0.0500
  band No.  band energies     occupation 
      1       0.2653      2.00000
      2       5.6402      2.00000
      3       5.9145      2.00000
      4       9.0455     -0.00000
      5       9.6026     -0.00000
      6      10.2215     -0.00000
      7      24.2537      0.00000
      8      25.7252      0.00000

 k-point     3 :       0.2500    0.0500    0.0500
  band No.  band energies     occupation 
      1       1.5538      2.00000
      2       4.9503      2.00000
      3       5.8803      2.00000
      4       9.8238     -0.00000
      5      10.5620     -0.00000
      6      11.2408     -0.00000
      7      22.7404      0.00000
      8      23.4694      0.00000

 k-point     4 :       0.3500    0.0500    0.0500
  band No.  band energies     occupation 
      1       1.9238      2.00000
      2       4.4738      2.00000
      3       7.2296      2.00016
      4      10.1976     -0.00000
      5      10.9133     -0.00000
      6      13.5660      0.00000
      7      20.3073      0.00000
      8      20.9739      0.00000

 k-point     5 :       0.4500    0.0500    0.0500
  band No.  band energies     occupation 
      1       1.8833      2.00000
      2       4.3070      2.00000
      3       8.4227     -0.00026
      4      10.1862     -0.00000
      5      11.0845     -0.00000
      6      14.7601      0.00000
      7      18.8221      0.00000
      8      20.2687      0.00000

 k-point     6 :      -0.0500    0.0500    0.0500
  band No.  band energies     occupation 
      1      -1.4091      2.00000
      2       6.6599      2.00000
      3       6.6601      2.00000
      4       6.7965      2.00000
      5       9.8055     -0.00000
      6      10.3071     -0.00000
      7      23.7056      0.00000
      8      23.7057      0.00000

 k-point     7 :       0.1500    0.1500    0.0500
  band No.  band energies     occupation 
      1       1.6056      2.00000
      2       5.1662      2.00000
      3       5.2138      2.00000
      4       9.6759     -0.00000
      5      10.5925     -0.00000
      6      11.2007     -0.00000
      7      23.7391      0.00000
      8      24.8212      0.00000

 k-point     8 :       0.2500    0.1500    0.0500
  band No.  band energies     occupation 
      1       2.6118      2.00000
      2       4.6547      2.00000
      3       5.5956      2.00000
      4       9.9947     -0.00000
      5      10.9471     -0.00000
      6      13.7259      0.00000
      7      20.8601      0.00000
      8      22.8512      0.00000

 k-point     9 :       0.3500    0.1500    0.0500
  band No.  band energies     occupation 
      1       2.6641      2.00000
      2       4.4147      2.00000
      3       6.9631      2.00000
      4      10.2897     -0.00000
      5      11.1734     -0.00000
      6      15.8033      0.00000
      7      18.1392      0.00000
      8      21.3758      0.00000

 k-point    10 :      -0.1500    0.1500    0.0500
  band No.  band energies     occupation 
      1      -0.5116      2.00000
      2       6.1938      2.00000
      3       6.4911      2.00000
      4       7.7050      1.88243
      5       9.1056     -0.00000
      6      10.5058     -0.00000
      7      24.2649      0.00000
      8      25.2821      0.00000

 k-point    11 :       0.2500    0.2500    0.0500
  band No.  band energies     occupation 
      1       3.3413      2.00000
      2       4.7179      2.00000
      3       5.7081      2.00000
      4      10.3276     -0.00000
      5      11.0793     -0.00000
      6      16.3590      0.00000
      7      17.9915      0.00000
      8      22.1206      0.00000

 k-point    12 :       0.3500    0.2500    0.0500
  band No.  band energies     occupation 
      1       3.4291      2.00000
      2       4.8309      2.00000
      3       6.0286      2.00000
      4      10.5958     -0.00000
      5      11.1260     -0.00000
      6      16.4034      0.00000
      7      18.1126      0.00000
      8      20.7717      0.00000

 k-point    13 :      -0.2500    0.2500    0.0500
  band No.  band energies     occupation 
      1       0.8688      2.00000
      2       5.4738      2.00000
      3       6.0781      2.00000
      4       9.1219     -0.00000
      5       9.4777     -0.00000
      6      10.7117     -0.00000
      7      23.4213      0.00000
      8      25.1618      0.00000

 k-point    14 :      -0.1500    0.2500    0.0500
  band No.  band energies     occupation 
      1       0.6545      2.00000
      2       5.9514      2.00000
      3       5.9781      2.00000
      4       8.5163     -0.00002
      5       8.9604     -0.00000
      6      10.9196     -0.00000
      7      24.4772      0.00000
      8      25.3441      0.00000

 k-point    15 :      -0.3500    0.3500    0.0500
  band No.  band energies     occupation 
      1       1.7162      2.00000
      2       4.8454      2.00000
      3       6.5722      2.00000
      4       9.7365     -0.00000
      5      10.9649     -0.00000
      6      11.7966     -0.00000
      7      21.3126      0.00000
      8      22.5708      0.00000

 k-point    16 :      -0.2500    0.3500    0.0500
  band No.  band energies     occupation 
      1       1.9254      2.00000
      2       5.2287      2.00000
      3       5.7962      2.00000
      4       8.8504     -0.00000
      5      10.9142     -0.00000
      6      11.3632     -0.00000
      7      22.1335      0.00000
      8      24.8545      0.00000

 k-point    17 :      -0.4500    0.4500    0.0500
  band No.  band energies     occupation 
      1       1.7602      2.00000
      2       4.4932      2.00000
      3       7.9573      0.14985
      4       9.9181     -0.00000
      5      11.4960     -0.00000
      6      13.8360      0.00000
      7      19.5554      0.00000
      8      20.6533      0.00000

 k-point    18 :      -0.3500    0.4500    0.0500
  band No.  band energies     occupation 
      1       2.3168      2.00000
      2       4.8529      2.00000
      3       6.4371      2.00000
      4       9.4716     -0.00000
      5      11.4088     -0.00000
      6      13.6605      0.00000
      7      20.0386      0.00000
      8      22.5379      0.00000

 k-point    19 :      -0.2500    0.4500    0.0500
  band No.  band energies     occupation 
      1       2.9350      2.00000
      2       4.6846      2.00000
      3       5.8912      2.00000
      4       9.1759     -0.00000
      5      11.0501     -0.00000
      6      13.8518      0.00000
      7      20.3059      0.00000
      8      24.1066      0.00000

 k-point    20 :      -0.4500   -0.4500    0.0500
  band No.  band energies     occupation 
      1       2.2671      2.00000
      2       4.7264      2.00000
      3       7.0769      2.00000
      4       9.4176     -0.00000
      5      12.0937     -0.00000
      6      15.0223      0.00000
      7      18.6172      0.00000
      8      21.6631      0.00000

 k-point    21 :      -0.3500   -0.4500    0.0500
  band No.  band energies     occupation 
      1       3.2080      2.00000
      2       4.7472      2.00000
      3       5.9058      2.00000
      4       9.7097     -0.00000
      5      11.3687     -0.00000
      6      16.4771      0.00000
      7      18.0034      0.00000
      8      22.0786      0.00000

 k-point    22 :      -0.3500   -0.3500    0.0500
  band No.  band energies     occupation 
      1       3.7851      2.00000
      2       5.0240      2.00000
      3       5.0241      2.00000
      4      10.7456     -0.00000
      5      10.7457     -0.00000
      6      16.6781      0.00000
      7      19.5701      0.00000
      8      19.5704      0.00000

 k-point    23 :       0.1500    0.1500    0.1500
  band No.  band energies     occupation 
      1       3.0775      2.00000
      2       4.6679      2.00000
      3       4.6679      2.00000
      4      10.5426     -0.00000
      5      10.5426     -0.00000
      6      13.8575      0.00000
      7      21.9556      0.00000
      8      23.4953      0.00000

 k-point    24 :       0.2500    0.1500    0.1500
  band No.  band energies     occupation 
      1       3.6871      2.00000
      2       4.4204      2.00000
      3       5.4947      2.00000
      4      10.7195     -0.00000
      5      11.0307     -0.00000
      6      16.3453      0.00000
      7      18.1721      0.00000
      8      22.0972      0.00000

 k-point    25 :       0.3500    0.1500    0.1500
  band No.  band energies     occupation 
      1       3.5808      2.00000
      2       4.3491      2.00000
      3       6.5047      2.00000
      4      10.8038     -0.00000
      5      11.1787     -0.00000
      6      16.4082      0.00000
      7      17.5721      0.00000
      8      21.5599      0.00000

 k-point    26 :      -0.1500    0.1500    0.1500
  band No.  band energies     occupation 
      1       0.3425      2.00000
      2       6.6963      2.00000
      3       6.6964      2.00000
      4       7.6062      2.06868
      5       7.6908      1.93419
      6      11.1236     -0.00000
      7      25.7190      0.00000
      8      26.0273      0.00000

 k-point    27 :       0.2500    0.2500    0.1500
  band No.  band energies     occupation 
      1       4.1169      2.00000
      2       4.8931      2.00000
      3       5.5356      2.00000
      4      11.0344     -0.00000
      5      11.1684     -0.00000
      6      15.7319      0.00000
      7      18.6754      0.00000
      8      20.9237      0.00000

 k-point    28 :      -0.2500    0.2500    0.1500
  band No.  band energies     occupation 
      1       1.6649      2.00000
      2       5.8990      2.00000
      3       6.3215      2.00000
      4       7.6852      1.95187
      5       9.2045     -0.00000
      6      11.3903     -0.00000
      7      23.1200      0.00000
      8      26.7025      0.00000

 k-point    29 :      -0.3500    0.3500    0.1500
  band No.  band energies     occupation 
      1       2.5232      2.00000
      2       5.4342      2.00000
      3       5.7796      2.00000
      4       8.6201     -0.00000
      5      11.5229     -0.00000
      6      11.7231     -0.00000
      7      21.4183      0.00000
      8      24.8480      0.00000

 k-point    30 :      -0.2500    0.3500    0.1500
  band No.  band energies     occupation 
      1       2.8026      2.00000
      2       4.8860      2.00000
      3       6.5690      2.00000
      4       8.0001      0.00761
      5      10.5828     -0.00000
      6      11.7984     -0.00000
      7      22.0706      0.00000
      8      26.4795      0.00000

 k-point    31 :      -0.4500    0.4500    0.1500
  band No.  band energies     occupation 
      1       2.5063      2.00000
      2       5.4616      2.00000
      3       5.9974      2.00000
      4       8.5903     -0.00000
      5      13.2951      0.00000
      6      13.6231      0.00000
      7      19.4267      0.00000
      8      23.2910      0.00000

 k-point    32 :      -0.3500    0.4500    0.1500
  band No.  band energies     occupation 
      1       3.2446      2.00000
      2       4.6192      2.00000
      3       6.1667      2.00000
      4       8.7264     -0.00000
      5      11.5734     -0.00000
      6      14.0823      0.00000
      7      20.3058      0.00000
      8      24.0592      0.00000

 k-point    33 :      -0.4500   -0.4500    0.1500
  band No.  band energies     occupation 
      1       3.1148      2.00000
      2       5.1323      2.00000
      3       5.6468      2.00000
      4       8.7535     -0.00000
      5      12.6983     -0.00000
      6      16.0789      0.00000
      7      18.2122      0.00000
      8      22.5108      0.00000

 k-point    34 :      -0.3500   -0.4500    0.1500
  band No.  band energies     occupation 
      1       4.0522      2.00000
      2       4.1090      2.00000
      3       5.3867      2.00000
      4      10.0998     -0.00000
      5      11.4231     -0.00000
      6      17.0323      0.00000
      7      18.3239      0.00000
      8      21.2972      0.00000

 k-point    35 :       0.2500    0.2500    0.2500
  band No.  band energies     occupation 
      1       4.9909      2.00000
      2       4.9909      2.00000
      3       4.9911      2.00000
      4      11.2312     -0.00000
      5      11.2312     -0.00000
      6      14.8276      0.00000
      7      20.5436      0.00000
      8      20.5439      0.00000

 k-point    36 :      -0.2500    0.2500    0.2500
  band No.  band energies     occupation 
      1       2.7712      2.00000
      2       5.0801      2.00000
      3       7.4363      2.01631
      4       7.4365      2.01635
      5       9.3456     -0.00000
      6      11.4860     -0.00000
      7      22.9353      0.00000
      8      27.9242      0.00000

 k-point    37 :      -0.3500    0.3500    0.2500
  band No.  band energies     occupation 
      1       3.3985      2.00000
      2       4.1397      2.00000
      3       7.4970      2.03792
      4       8.1937     -0.02939
      5      11.1811     -0.00000
      6      12.0276     -0.00000
      7      22.5824      0.00000
      8      25.2960      0.00000

 k-point    38 :      -0.4500    0.4500    0.2500
  band No.  band energies     occupation 
      1       3.1181      2.00000
      2       4.1867      2.00000
      3       7.3037      2.00112
      4       8.1656     -0.04131
      5      13.2914     -0.00000
      6      14.5209      0.00000
      7      19.4263      0.00000
      8      22.6687      0.00000

 k-point    39 :      -0.3500    0.4500    0.2500
  band No.  band energies     occupation 
      1       3.3901      2.00000
      2       3.5448      2.00000
      3       7.4187      2.01216
      4       9.5400     -0.00000
      5      11.7554     -0.00000
      6      14.3253      0.00000
      7      20.5914      0.00000
      8      22.4289      0.00000

 k-point    40 :      -0.4500   -0.4500    0.2500
  band No.  band energies     occupation 
      1       3.1386      2.00000
      2       3.5323      2.00000
      3       7.1660      2.00002
      4      10.1311     -0.00000
      5      12.5648     -0.00000
      6      17.1807      0.00000
      7      17.8107      0.00000
      8      20.5046      0.00000

 k-point    41 :      -0.3500    0.3500    0.3500
  band No.  band energies     occupation 
      1       3.1580      2.00000
      2       3.2992      2.00000
      3       9.3242     -0.00000
      4       9.3244     -0.00000
      5      11.3770     -0.00000
      6      12.5251     -0.00000
      7      22.7494      0.00000
      8      22.7496      0.00000

 k-point    42 :      -0.4500    0.4500    0.3500
  band No.  band energies     occupation 
      1       2.6617      2.00000
      2       2.9026      2.00000
      3       9.7986     -0.00000
      4       9.9555     -0.00000
      5      12.9884     -0.00000
      6      14.9973      0.00000
      7      19.1492      0.00000
      8      20.2875      0.00000

 k-point    43 :      -0.4500   -0.4500    0.3500
  band No.  band energies     occupation 
      1       2.5025      2.00000
      2       2.5025      2.00000
      3       9.8271     -0.00000
      4      12.3288     -0.00000
      5      12.3291     -0.00000
      6      17.6537      0.00000
      7      17.6798      0.00000
      8      17.6799      0.00000

 k-point    44 :      -0.4500    0.4500    0.4500
  band No.  band energies     occupation 
      1       2.1486      2.00000
      2       2.2180      2.00000
      3      12.2295     -0.00000
      4      12.2297     -0.00000
      5      12.9555     -0.00000
      6      15.7336      0.00000
      7      17.7869      0.00000
      8      17.7869      0.00000


--------------------------------------------------------------------------------------------------------


 soft charge-density along one line, spin component           1
         0         1         2         3         4         5         6         7         8         9
 total charge-density along one line
 
 pseudopotential strength for first ion, spin component:           1
 -6.800   0.000   0.000   0.000   0.000   0.000   0.000   0.000   0.000   0.000   0.127   0.000   0.000   0.000   0.000   0.000
  0.000   0.000  -6.800   0.000  -0.000   0.000   0.000   0.000   0.000   0.000   0.000   0.000   0.127   0.000  -0.000   0.000
  0.000   0.000  -0.000   0.000  -6.827   0.000  -0.000   0.000   0.000   0.000   0.000   0.000  -0.000   0.000   0.126   0.000
  0.000   0.000   0.000   0.000  -0.000   0.000  -6.800   0.000  -0.000   0.000   0.000   0.000   0.000   0.000  -0.000   0.000
  0.000   0.000   0.000   0.000   0.000   0.000  -0.000   0.000  -6.827   0.000   0.000   0.000   0.000   0.000   0.000   0.000
  0.127   0.000   0.000   0.000   0.000   0.000   0.000   0.000   0.000   0.000   0.084   0.000  -0.000   0.000  -0.000   0.000
  0.000   0.000   0.127   0.000  -0.000   0.000   0.000   0.000   0.000   0.000  -0.000   0.000   0.084   0.000   0.000   0.000
  0.000   0.000  -0.000   0.000   0.126   0.000  -0.000   0.000   0.000   0.000  -0.000   0.000   0.000   0.000   0.084   0.000
  0.000   0.000   0.000   0.000  -0.000   0.000   0.127   0.000  -0.000   0.000  -0.000   0.000  -0.000   0.000   0.000   0.000
  0.000   0.000   0.000   0.000   0.000   0.000  -0.000   0.000   0.126   0.000  -0.000   0.000  -0.000   0.000   0.000   0.000
 -0.000   0.000  -0.000   0.000   0.000   0.000  -0.000   0.000   0.000   0.000  -0.000   0.000  -0.000   0.000   0.000   0.000
  0.000   0.000   0.000   0.000  -0.000   0.000   0.000   0.000  -0.000   0.000   0.000   0.000   0.000   0.000  -0.000   0.000
 -0.000   0.000  -0.000   0.000   0.000   0.000   0.000   0.000   0.000   0.000   0.000   0.000  -0.000   0.000   0.000   0.000
  0.000   0.000  -0.000   0.000   0.000   0.000  -0.000   0.000  -0.000   0.000  -0.000   0.000  -0.000   0.000  -0.000   0.000
 -0.000   0.000   0.000   0.000  -0.000   0.000  -0.000   0.000   0.000   0.000  -0.000   0.000  -0.000   0.000   0.000   0.000
  0.000   0.000   0.000   0.000  -0.000   0.000  -0.000   0.000  -0.000   0.000  -0.000   0.000   0.000   0.000  -0.000   0.000
 -0.000   0.000   0.000   0.000  -0.000   0.000   0.000   0.000   0.000   0.000   0.000   0.000   0.000   0.000   0.000   0.000
  0.000   0.000  -0.000   0.000   0.000   0.000   0.000   0.000  -0.000   0.000   0.000   0.000   0.000   0.000  -0.000   0.000
 total augmentation occupancy for first ion, spin component:           1
  1.072   0.000  -0.000  -0.000   0.000  -0.764  -0.000  -0.000  -0.000   0.000  -0.000   0.000   0.000   0.000   0.000   0.000
  0.000   1.072  -0.000   0.000   0.000   0.000  -0.764   0.000   0.000   0.000  -0.000   0.000   0.000   0.000   0.000   0.000
 -0.000   0.000   0.683  -0.000   0.000   0.000   0.000  -0.649  -0.000   0.000  -0.000  -0.000   0.000   0.000   0.000   0.000
 -0.000   0.000  -0.000   1.072  -0.000   0.000  -0.000   0.000  -0.764  -0.000   0.000  -0.000   0.000   0.000   0.000   0.000
 -0.000  -0.000   0.000  -0.000   0.683   0.000   0.000   0.000   0.000  -0.649   0.000   0.000   0.000   0.000   0.000   0.000
 -0.764   0.000   0.000   0.000   0.000   0.678   0.000   0.000   0.000   0.000  -0.000   0.000   0.000   0.000   0.000   0.000
 -0.000  -0.764   0.000   0.000   0.000   0.000   0.678   0.000   0.000   0.000   0.000  -0.000   0.000   0.000   0.000   0.000
  0.000   0.000  -0.649   0.000   0.000  -0.000   0.000   0.707   0.000   0.000  -0.000   0.000   0.000   0.000   0.000   0.000
 -0.000  -0.000  -0.000  -0.764  -0.000   0.000   0.000  -0.000   0.678  -0.000  -0.000  -0.000   0.000   0.000   0.000   0.000
 -0.000   0.000   0.000   0.000  -0.649   0.000   0.000   0.000   0.000   0.707   0.000   0.000   0.000   0.000   0.000   0.000
 -0.000  -0.000  -0.000   0.000   0.000  -0.000   0.000  -0.000   0.000   0.000   1.449  -0.275   0.000   0.000   0.000   0.000
  0.000  -0.000  -0.000  -0.000   0.000  -0.000  -0.000   0.000  -0.000  -0.000  -0.275   0.069   0.000   0.000   0.000   0.000
  0.000   0.000   0.000   0.000   0.000   0.000   0.000   0.000   0.000   0.000   0.000   0.000   0.281   0.000  -0.000  -0.019
  0.000   0.000   0.000   0.000   0.000   0.000   0.000   0.000   0.000   0.000   0.000   0.000  -0.000   0.281  -0.000   0.000
  0.000   0.000   0.000   0.000   0.000   0.000   0.000   0.000   0.000   0.000   0.000   0.000   0.000  -0.000   0.281   0.000
  0.000   0.000   0.000   0.000   0.000   0.000   0.000   0.000   0.000   0.000   0.000   0.000  -0.019  -0.000  -0.000   0.001
  0.000   0.000   0.000   0.000   0.000   0.000   0.000   0.000   0.000   0.000   0.000   0.000  -0.000  -0.019   0.000  -0.000
  0.000   0.000   0.000   0.000   0.000   0.000   0.000   0.000   0.000   0.000   0.000   0.000  -0.000   0.000  -0.019   0.000


------------------------ aborting loop because EDIFF is reached ----------------------------------------


    CHARGE:  cpu time    0.0012: real time    0.0012
    FORLOC:  cpu time    0.0001: real time    0.0001
    FORNL :  cpu time    0.0021: real time    0.0022
    STRESS:  cpu time    0.0154: real time    0.0154
    FORCOR:  cpu time    0.0009: real time    0.0005
    FORHAR:  cpu time    0.0000: real time    0.0004
    MIXING:  cpu time    0.0002: real time    0.0002
    OFIELD:  cpu time    0.0000: real time    0.0000

  FORCE on cell =-STRESS in cart. coord.  units (eV):
  Direction    XX          YY          ZZ          XY          YZ          ZX
  --------------------------------------------------------------------------------------
  Alpha Z    44.66561    44.66561    44.66561
  Ewald     -99.81750   -99.81750   -99.81750    -0.00000    -0.00000    -0.00000
  Hartree     0.75211     0.75211     0.75211    -0.00000    -0.00000    -0.00000
  E(xc)     -27.44578   -27.44578   -27.44578    -0.00000    -0.00000    -0.00000
  Local       9.05700     9.05700     9.05700    -0.00017    -0.00017    -0.00017
  n-local   -13.00631   -11.21300   -10.76239     1.58402    -1.90269    -3.37323
  augment     5.14989     5.14989     5.14989     0.00001     0.00001     0.00001
  Kinetic    76.53725    77.59044    81.22641    -1.17629     3.31357     1.96833
  Fock        0.00000     0.00000     0.00000     0.00000     0.00000     0.00000
  -------------------------------------------------------------------------------------
  Total      -0.84785    -0.84785    -0.84785    -0.00000     0.00000    -0.00000
  in kB     -86.92171   -86.92171   -86.92171    -0.00000     0.00000    -0.00000
  external pressure =      -86.92 kB  Pullay stress =        0.00 kB


 VOLUME and BASIS-vectors are now :
 -----------------------------------------------------------------------------
  energy-cutoff  :      224.00
  volume of cell :       15.63
      direct lattice vectors                 reciprocal lattice vectors
    -1.575000000  1.575000000  1.575000000     0.000000000  0.317460317  0.317460317
     1.575000000 -1.575000000  1.575000000     0.317460317  0.000000000  0.317460317
     1.575000000  1.575000000 -1.575000000     0.317460317  0.317460317  0.000000000

  length of vectors
     2.727980022  2.727980022  2.727980022     0.448956686  0.448956686  0.448956686


 FORCES acting on ions
    electron-ion (+dipol)            ewald-force                    non-local-force                 convergence-correction
 -----------------------------------------------------------------------------------------------
   0.589E-14 0.395E-14 0.501E-14   0.582E-15 -.137E-14 0.164E-16   0.207E-23 0.000E+00 0.000E+00   0.131E-14 0.177E-14 0.164E-14
 -----------------------------------------------------------------------------------------------
   0.589E-14 0.395E-14 0.501E-14   0.582E-15 -.137E-14 0.164E-16   0.207E-23 0.000E+00 0.000E+00   0.131E-14 0.177E-14 0.164E-14
 
 
 POSITION                                       TOTAL-FORCE (eV/Angst)
 -----------------------------------------------------------------------------------
      0.00000      0.00000      0.00000         0.000000     -0.000000      0.000000
 -----------------------------------------------------------------------------------
    total drift:                                0.000000      0.000000      0.000000


--------------------------------------------------------------------------------------------------------



  FREE ENERGIE OF THE ION-ELECTRON SYSTEM (eV)
  ---------------------------------------------------
  free  energy   TOTEN  =       -14.20373551 eV

  energy  without entropy=      -14.20533143  energy(sigma->0) =      -14.20426748
 


--------------------------------------------------------------------------------------------------------


    POTLOK:  cpu time    0.0021: real time    0.0021


--------------------------------------------------------------------------------------------------------


 writing wavefunctions
     LOOP+:  cpu time    0.3703: real time    0.3759
    4ORBIT:  cpu time    0.0000: real time    0.0000

 total amount of memory used by VASP MPI-rank0    31463. kBytes
=======================================================================

   base      :      30000. kBytes
   nonl-proj :        889. kBytes
   fftplans  :        142. kBytes
   grid      :        192. kBytes
   one-center:         15. kBytes
   wavefun   :        225. kBytes
 
  
  
 General timing and accounting informations for this job:
 ========================================================
  
                  Total CPU time used (sec):        0.549
                            User time (sec):        0.449
                          System time (sec):        0.100
                         Elapsed time (sec):        0.629
  
                   Maximum memory used (kb):       56412.
                   Average memory used (kb):           0.
  
                          Minor page faults:         7302
                          Major page faults:            0
                 Voluntary context switches:          630
