<?xml version="1.0" encoding="ISO-8859-1"?>
<modeling>
 <generator>
  <i name="program" type="string">vasp </i>
  <i name="version" type="string">5.4.4.18Apr17-6-g9f103f2a35  </i>
  <i name="subversion" type="string">(build Jul 01 2019 03:25:34) complex            parallel </i>
  <i name="platform" type="string">LinuxIFC </i>
  <i name="date" type="string">2020 07 08 </i>
  <i name="time" type="string">19:51:30 </i>
 </generator>
 <incar>
  <i type="string" name="SYSTEM"> BCC W</i>
  <i type="string" name="PREC">normal</i>
  <i name="EDIFF">      0.00010000</i>
  <i name="ENCUT">    224.00000000</i>
  <v type="int" name="KPOINT_BSE">    -1     0     0     0</v>
 </incar>
 <structure name="primitive_cell" >
  <crystal>
   <varray name="basis" >
    <v>      -1.57500000       1.57500000       1.57500000 </v>
    <v>       1.57500000      -1.57500000       1.57500000 </v>
    <v>       1.57500000       1.57500000      -1.57500000 </v>
   </varray>
   <i name="volume">     15.62793750 </i>
   <varray name="rec_basis" >
    <v>       0.00000000       0.31746032       0.31746032 </v>
    <v>       0.31746032       0.00000000       0.31746032 </v>
    <v>       0.31746032       0.31746032       0.00000000 </v>
   </varray>
  </crystal>
  <varray name="positions" >
   <v>       0.00000000       0.00000000       0.00000000 </v>
  </varray>
 </structure>
 <varray name="primitive_index" >
  <v type="int" >        1 </v>
 </varray>
 <kpoints>
  <generation param="Monkhorst-Pack">
   <v type="int" name="divisions">      10       10       10 </v>
   <v name="usershift">      0.00000000       0.00000000       0.00000000 </v>
   <v name="genvec1">      0.10000000       0.00000000       0.00000000 </v>
   <v name="genvec2">      0.00000000       0.10000000       0.00000000 </v>
   <v name="genvec3">      0.00000000       0.00000000       0.10000000 </v>
   <v name="shift">      0.50000000       0.50000000       0.50000000 </v>
  </generation>
  <varray name="kpointlist" >
   <v>       0.05000000       0.05000000       0.05000000 </v>
   <v>       0.15000000       0.05000000       0.05000000 </v>
   <v>       0.25000000       0.05000000       0.05000000 </v>
   <v>       0.35000000       0.05000000       0.05000000 </v>
   <v>       0.45000000       0.05000000       0.05000000 </v>
   <v>      -0.05000000       0.05000000       0.05000000 </v>
   <v>       0.15000000       0.15000000       0.05000000 </v>
   <v>       0.25000000       0.15000000       0.05000000 </v>
   <v>       0.35000000       0.15000000       0.05000000 </v>
   <v>      -0.15000000       0.15000000       0.05000000 </v>
   <v>       0.25000000       0.25000000       0.05000000 </v>
   <v>       0.35000000       0.25000000       0.05000000 </v>
   <v>      -0.25000000       0.25000000       0.05000000 </v>
   <v>      -0.15000000       0.25000000       0.05000000 </v>
   <v>      -0.35000000       0.35000000       0.05000000 </v>
   <v>      -0.25000000       0.35000000       0.05000000 </v>
   <v>      -0.45000000       0.45000000       0.05000000 </v>
   <v>      -0.35000000       0.45000000       0.05000000 </v>
   <v>      -0.25000000       0.45000000       0.05000000 </v>
   <v>      -0.45000000      -0.45000000       0.05000000 </v>
   <v>      -0.35000000      -0.45000000       0.05000000 </v>
   <v>      -0.35000000      -0.35000000       0.05000000 </v>
   <v>       0.15000000       0.15000000       0.15000000 </v>
   <v>       0.25000000       0.15000000       0.15000000 </v>
   <v>       0.35000000       0.15000000       0.15000000 </v>
   <v>      -0.15000000       0.15000000       0.15000000 </v>
   <v>       0.25000000       0.25000000       0.15000000 </v>
   <v>      -0.25000000       0.25000000       0.15000000 </v>
   <v>      -0.35000000       0.35000000       0.15000000 </v>
   <v>      -0.25000000       0.35000000       0.15000000 </v>
   <v>      -0.45000000       0.45000000       0.15000000 </v>
   <v>      -0.35000000       0.45000000       0.15000000 </v>
   <v>      -0.45000000      -0.45000000       0.15000000 </v>
   <v>      -0.35000000      -0.45000000       0.15000000 </v>
   <v>       0.25000000       0.25000000       0.25000000 </v>
   <v>      -0.25000000       0.25000000       0.25000000 </v>
   <v>      -0.35000000       0.35000000       0.25000000 </v>
   <v>      -0.45000000       0.45000000       0.25000000 </v>
   <v>      -0.35000000       0.45000000       0.25000000 </v>
   <v>      -0.45000000      -0.45000000       0.25000000 </v>
   <v>      -0.35000000       0.35000000       0.35000000 </v>
   <v>      -0.45000000       0.45000000       0.35000000 </v>
   <v>      -0.45000000      -0.45000000       0.35000000 </v>
   <v>      -0.45000000       0.45000000       0.45000000 </v>
  </varray>
  <varray name="weights" >
   <v>       0.00800000 </v>
   <v>       0.02400000 </v>
   <v>       0.02400000 </v>
   <v>       0.02400000 </v>
   <v>       0.01200000 </v>
   <v>       0.00600000 </v>
   <v>       0.02400000 </v>
   <v>       0.04800000 </v>
   <v>       0.04800000 </v>
   <v>       0.02400000 </v>
   <v>       0.02400000 </v>
   <v>       0.02400000 </v>
   <v>       0.02400000 </v>
   <v>       0.02400000 </v>
   <v>       0.02400000 </v>
   <v>       0.04800000 </v>
   <v>       0.02400000 </v>
   <v>       0.04800000 </v>
   <v>       0.02400000 </v>
   <v>       0.02400000 </v>
   <v>       0.04800000 </v>
   <v>       0.00800000 </v>
   <v>       0.00800000 </v>
   <v>       0.02400000 </v>
   <v>       0.01200000 </v>
   <v>       0.00600000 </v>
   <v>       0.02400000 </v>
   <v>       0.02400000 </v>
   <v>       0.02400000 </v>
   <v>       0.02400000 </v>
   <v>       0.02400000 </v>
   <v>       0.04800000 </v>
   <v>       0.02400000 </v>
   <v>       0.02400000 </v>
   <v>       0.00200000 </v>
   <v>       0.00600000 </v>
   <v>       0.02400000 </v>
   <v>       0.02400000 </v>
   <v>       0.02400000 </v>
   <v>       0.02400000 </v>
   <v>       0.00600000 </v>
   <v>       0.02400000 </v>
   <v>       0.00800000 </v>
   <v>       0.00600000 </v>
  </varray>
 </kpoints>
 <parameters>
  <separator name="general" >
   <i type="string" name="SYSTEM">BCC W</i>
   <i type="logical" name="LCOMPAT"> F  </i>
  </separator>
  <separator name="electronic" >
   <i type="string" name="PREC">normal</i>
   <i name="ENMAX">    224.00000000</i>
   <i name="ENAUG">    373.43800000</i>
   <i name="EDIFF">      0.00010000</i>
   <i type="int" name="IALGO">    38</i>
   <i type="int" name="IWAVPR">    10</i>
   <i type="int" name="NBANDS">     8</i>
   <i name="NELECT">      6.00000000</i>
   <i type="int" name="TURBO">     0</i>
   <i type="int" name="IRESTART">     0</i>
   <i type="int" name="NREBOOT">     0</i>
   <i type="int" name="NMIN">     0</i>
   <i name="EREF">      0.00000000</i>
   <separator name="electronic smearing" >
    <i type="int" name="ISMEAR">     1</i>
    <i name="SIGMA">      0.20000000</i>
    <i name="KSPACING">      0.50000000</i>
    <i type="logical" name="KGAMMA"> T  </i>
   </separator>
   <separator name="electronic projectors" >
    <i type="logical" name="LREAL"> F  </i>
    <v name="ROPT">      0.00000000</v>
    <i type="int" name="LMAXPAW">  -100</i>
    <i type="int" name="LMAXMIX">     2</i>
    <i type="logical" name="NLSPLINE"> F  </i>
   </separator>
   <separator name="electronic startup" >
    <i type="int" name="ISTART">     0</i>
    <i type="int" name="ICHARG">     2</i>
    <i type="int" name="INIWAV">     1</i>
   </separator>
   <separator name="electronic spin" >
    <i type="int" name="ISPIN">     1</i>
    <i type="logical" name="LNONCOLLINEAR"> F  </i>
    <v name="MAGMOM">      1.00000000</v>
    <i name="NUPDOWN">     -1.00000000</i>
    <i type="logical" name="LSORBIT"> F  </i>
    <v name="SAXIS">      0.00000000      0.00000000      1.00000000</v>
    <i type="logical" name="LSPIRAL"> F  </i>
    <v name="QSPIRAL">      0.00000000      0.00000000      0.00000000</v>
    <i type="logical" name="LZEROZ"> F  </i>
   </separator>
   <separator name="electronic exchange-correlation" >
    <i type="logical" name="LASPH"> F  </i>
    <i type="logical" name="LMETAGGA"> F  </i>
   </separator>
   <separator name="electronic convergence" >
    <i type="int" name="NELM">    60</i>
    <i type="int" name="NELMDL">    -5</i>
    <i type="int" name="NELMIN">     2</i>
    <i name="ENINI">    224.00000000</i>
    <separator name="electronic convergence detail" >
     <i type="logical" name="LDIAG"> T  </i>
     <i type="logical" name="LSUBROT"> F  </i>
     <i name="WEIMIN">      0.00000000</i>
     <i name="EBREAK">      0.00000313</i>
     <i name="DEPER">      0.30000000</i>
     <i type="int" name="NRMM">     4</i>
     <i name="TIME">      0.40000000</i>
    </separator>
   </separator>
   <separator name="electronic mixer" >
    <i name="AMIX">      0.40000000</i>
    <i name="BMIX">      1.00000000</i>
    <i name="AMIN">      0.10000000</i>
    <i name="AMIX_MAG">      1.60000000</i>
    <i name="BMIX_MAG">      1.00000000</i>
    <separator name="electronic mixer details" >
     <i type="int" name="IMIX">     4</i>
     <i type="logical" name="MIXFIRST"> F  </i>
     <i type="int" name="MAXMIX">   -45</i>
     <i name="WC">    100.00000000</i>
     <i type="int" name="INIMIX">     1</i>
     <i type="int" name="MIXPRE">     1</i>
     <i type="int" name="MREMOVE">     5</i>
    </separator>
   </separator>
   <separator name="electronic dipolcorrection" >
    <i type="logical" name="LDIPOL"> F  </i>
    <i type="logical" name="LMONO"> F  </i>
    <i type="int" name="IDIPOL">     0</i>
    <i name="EPSILON">      1.00000000</i>
    <v name="DIPOL">   -100.00000000   -100.00000000   -100.00000000</v>
    <i name="EFIELD">      0.00000000</i>
   </separator>
  </separator>
  <separator name="grids" >
   <i type="int" name="NGX">    10</i>
   <i type="int" name="NGY">    10</i>
   <i type="int" name="NGZ">    10</i>
   <i type="int" name="NGXF">    20</i>
   <i type="int" name="NGYF">    20</i>
   <i type="int" name="NGZF">    20</i>
   <i type="logical" name="ADDGRID"> F  </i>
  </separator>
  <separator name="ionic" >
   <i type="int" name="NSW">     0</i>
   <i type="int" name="IBRION">    -1</i>
   <i type="int" name="MDALGO">     0</i>
   <i type="int" name="ISIF">     2</i>
   <i name="PSTRESS">      0.00000000</i>
   <i name="EDIFFG">      0.00100000</i>
   <i type="int" name="NFREE">     0</i>
   <i name="POTIM">      0.50000000</i>
   <i name="SMASS">     -3.00000000</i>
   <i name="SCALEE">      1.00000000</i>
  </separator>
  <separator name="ionic md" >
   <i name="TEBEG">      0.00010000</i>
   <i name="TEEND">      0.00010000</i>
   <i type="int" name="NBLOCK">     1</i>
   <i type="int" name="KBLOCK">     1</i>
   <i type="int" name="NPACO">   256</i>
   <i name="APACO">     16.00000000</i>
  </separator>
  <separator name="symmetry" >
   <i type="int" name="ISYM">     2</i>
   <i name="SYMPREC">      0.00001000</i>
  </separator>
  <separator name="dos" >
   <i type="int" name="LORBIT">     0</i>
   <v name="RWIGS">     -1.00000000</v>
   <i type="int" name="NEDOS">   301</i>
   <i name="EMIN">     10.00000000</i>
   <i name="EMAX">    -10.00000000</i>
   <i name="EFERMI">      0.00000000</i>
  </separator>
  <separator name="writing" >
   <i type="int" name="NWRITE">     2</i>
   <i type="logical" name="LWAVE"> T  </i>
   <i type="logical" name="LDOWNSAMPLE"> F  </i>
   <i type="logical" name="LCHARG"> T  </i>
   <i type="logical" name="LPARD"> F  </i>
   <i type="logical" name="LVTOT"> F  </i>
   <i type="logical" name="LVHAR"> F  </i>
   <i type="logical" name="LELF"> F  </i>
   <i type="logical" name="LOPTICS"> F  </i>
   <v name="STM">      0.00000000      0.00000000      0.00000000      0.00000000      0.00000000      0.00000000      0.00000000</v>
  </separator>
  <separator name="performance" >
   <i type="int" name="NPAR">     4</i>
   <i type="int" name="NSIM">     4</i>
   <i type="int" name="NBLK">    -1</i>
   <i type="logical" name="LPLANE"> T  </i>
   <i type="logical" name="LSCALAPACK"> T  </i>
   <i type="logical" name="LSCAAWARE"> F  </i>
   <i type="logical" name="LSCALU"> F  </i>
   <i type="logical" name="LASYNC"> F  </i>
   <i type="logical" name="LORBITALREAL"> F  </i>
  </separator>
  <separator name="miscellaneous" >
   <i type="int" name="IDIOT">     3</i>
   <i type="int" name="ISPECIAL">     0</i>
   <i type="logical" name="LMUSIC"> F  </i>
   <v name="POMASS">    183.85000000</v>
   <v name="DARWINR">      0.00000000</v>
   <v name="DARWINV">      1.00000000</v>
   <i type="logical" name="LCORR"> T  </i>
  </separator>
  <i type="logical" name="GGA_COMPAT"> T  </i>
  <i type="logical" name="LBERRY"> F  </i>
  <i type="int" name="ICORELEVEL">     0</i>
  <i type="logical" name="LDAU"> F  </i>
  <i type="int" name="I_CONSTRAINED_M">     0</i>
  <separator name="electronic exchange-correlation" >
   <i type="string" name="GGA">--</i>
   <i type="int" name="VOSKOWN">     0</i>
   <i type="logical" name="LHFCALC"> F  </i>
   <i type="string" name="PRECFOCK"></i>
   <i type="logical" name="LSYMGRAD"> F  </i>
   <i type="logical" name="LHFONE"> F  </i>
   <i type="logical" name="LRHFCALC"> F  </i>
   <i type="logical" name="LTHOMAS"> F  </i>
   <i type="logical" name="LMODELHF"> F  </i>
   <i name="ENCUT4O">     -1.00000000</i>
   <i type="int" name="EXXOEP">     0</i>
   <i type="int" name="FOURORBIT">     0</i>
   <i name="AEXX">      0.00000000</i>
   <i name="HFALPHA">      0.00000000</i>
   <i name="MCALPHA">      0.00000000</i>
   <i name="ALDAX">      1.00000000</i>
   <i name="AGGAX">      1.00000000</i>
   <i name="ALDAC">      1.00000000</i>
   <i name="AGGAC">      1.00000000</i>
   <i type="int" name="NKREDX">     1</i>
   <i type="int" name="NKREDY">     1</i>
   <i type="int" name="NKREDZ">     1</i>
   <i type="logical" name="SHIFTRED"> F  </i>
   <i type="logical" name="ODDONLY"> F  </i>
   <i type="logical" name="EVENONLY"> F  </i>
   <i type="int" name="LMAXFOCK">     0</i>
   <i type="int" name="NMAXFOCKAE">     0</i>
   <i type="logical" name="LFOCKAEDFT"> F  </i>
   <i name="HFSCREEN">      0.00000000</i>
   <i name="HFSCREENC">      0.00000000</i>
   <i type="int" name="NBANDSGWLOW">     0</i>
  </separator>
  <separator name="vdW DFT" >
   <i type="logical" name="LUSE_VDW"> F  </i>
   <i name="Zab_VDW">     -0.84910000</i>
   <i name="PARAM1">      0.12340000</i>
   <i name="PARAM2">      1.00000000</i>
   <i name="PARAM3">      0.00000000</i>
  </separator>
  <separator name="model GW" >
   <i type="int" name="MODEL_GW">     0</i>
   <i name="MODEL_EPS0">      9.37676250</i>
   <i name="MODEL_ALPHA">      1.00000000</i>
  </separator>
  <separator name="linear response parameters" >
   <i type="logical" name="LEPSILON"> F  </i>
   <i type="logical" name="LRPA"> F  </i>
   <i type="logical" name="LNABLA"> F  </i>
   <i type="logical" name="LVEL"> F  </i>
   <i type="int" name="KINTER">     0</i>
   <i name="CSHIFT">      0.10000000</i>
   <i name="OMEGAMAX">     -1.00000000</i>
   <i name="DEG_THRESHOLD">      0.00200000</i>
   <i name="RTIME">     -0.10000000</i>
   <i name="WPLASMAI">      0.00000000</i>
   <v name="DFIELD">      0.00000000      0.00000000      0.00000000</v>
   <v name="WPLASMA">      0.00000000      0.00000000      0.00000000      0.00000000      0.00000000      0.00000000      0.00000000      0.00000000      0.00000000</v>
  </separator>
  <separator name="orbital magnetization" >
   <i type="logical" name="NUCIND"> F  </i>
   <v name="MAGPOS">      0.00000000      0.00000000      0.00000000</v>
   <i type="logical" name="LNICSALL"> T  </i>
   <i type="logical" name="ORBITALMAG"> F  </i>
   <i type="logical" name="LMAGBLOCH"> F  </i>
   <i type="logical" name="LCHIMAG"> F  </i>
   <i type="logical" name="LGAUGE"> T  </i>
   <i type="int" name="MAGATOM">     0</i>
   <v name="MAGDIPOL">      0.00000000      0.00000000      0.00000000</v>
   <v name="AVECCONST">      0.00000000      0.00000000      0.00000000</v>
  </separator>
  <separator name="response functions" >
   <i type="logical" name="LADDER"> F  </i>
   <i type="logical" name="LRPAFORCE"> F  </i>
   <i type="logical" name="LFXC"> F  </i>
   <i type="logical" name="LHARTREE"> T  </i>
   <i type="int" name="IBSE">     0</i>
   <v type="int" name="KPOINT">    -1     0     0     0</v>
   <i type="logical" name="LTCTE"> F  </i>
   <i type="logical" name="LTETE"> F  </i>
   <i type="logical" name="LTRIPLET"> F  </i>
   <i type="logical" name="LFXCEPS"> F  </i>
   <i type="logical" name="LFXHEG"> F  </i>
   <i type="int" name="NATURALO">     2</i>
   <i type="logical" name="L2ORDER"> F  </i>
   <i type="logical" name="LMP2LT"> F  </i>
   <i type="logical" name="LUSEW"> F  </i>
   <i name="ENCUTGW">     -2.00000000</i>
   <i name="ENCUTGWSOFT">     -2.00000000</i>
   <i name="ENCUTLF">     -1.00000000</i>
   <i type="int" name="LMAXMP2">    -1</i>
   <i name="SCISSOR">      0.00000000</i>
   <i type="int" name="NOMEGA">     0</i>
   <i type="int" name="NOMEGAR">     0</i>
   <i type="int" name="NBANDSGW">    -1</i>
   <i type="int" name="NBANDSO">    -1</i>
   <i type="int" name="NBANDSV">    -1</i>
   <i type="int" name="NELM">     1</i>
   <i type="int" name="NELMHF">     1</i>
   <i type="int" name="DIM">     3</i>
   <i type="int" name="ANTIRES">     0</i>
   <i name="OMEGAMAX">    -30.00000000</i>
   <i name="OMEGAMIN">    -30.00000000</i>
   <i name="OMEGATL">   -200.00000000</i>
   <i type="int" name="OMEGAGRID">   140</i>
   <i name="CSHIFT">     -0.10000000</i>
   <i type="logical" name="SELFENERGY"> F  </i>
   <i type="logical" name="LSPECTRAL"> F  </i>
   <i type="logical" name="LSPECTRALGW"> F  </i>
   <i type="logical" name="LSINGLES"> F  </i>
   <i type="logical" name="LFERMIGW"> F  </i>
   <i type="logical" name="ODDONLYGW"> F  </i>
   <i type="logical" name="EVENONLYGW"> F  </i>
   <i type="int" name="NKREDLFX">     1</i>
   <i type="int" name="NKREDLFY">     1</i>
   <i type="int" name="NKREDLFZ">     1</i>
   <i type="int" name="MAXMEM">  2800</i>
   <i type="int" name="TELESCOPE">     0</i>
   <i type="int" name="TAUPAR">     1</i>
   <i type="int" name="OMEGAPAR">    -1</i>
   <i name="LAMBDA">      1.00000000</i>
  </separator>
  <separator name="External order field" >
   <i name="OFIELD_KAPPA">      0.00000000</i>
   <v name="OFIELD_K">      0.00000000      0.00000000      0.00000000</v>
   <i name="OFIELD_Q6_NEAR">      0.00000000</i>
   <i name="OFIELD_Q6_FAR">      0.00000000</i>
   <i name="OFIELD_A">      0.00000000</i>
  </separator>
 </parameters>
 <atominfo>
  <atoms>       1 </atoms>
  <types>       1 </types>
  <array name="atoms" >
   <dimension dim="1">ion</dimension>
   <field type="string">element</field>
   <field type="int">atomtype</field>
   <set>
    <rc><c>W </c><c>   1</c></rc>
   </set>
  </array>
  <array name="atomtypes" >
   <dimension dim="1">type</dimension>
   <field type="int">atomspertype</field>
   <field type="string">element</field>
   <field>mass</field>
   <field>valence</field>
   <field type="string">pseudopotential</field>
   <set>
    <rc><c>   1</c><c>W </c><c>    183.85000000</c><c>      6.00000000</c><c> PAW W 19Jan2001                        </c></rc>
   </set>
  </array>
 </atominfo>
 <structure name="initialpos" >
  <crystal>
   <varray name="basis" >
    <v>      -1.57500000       1.57500000       1.57500000 </v>
    <v>       1.57500000      -1.57500000       1.57500000 </v>
    <v>       1.57500000       1.57500000      -1.57500000 </v>
   </varray>
   <i name="volume">     15.62793750 </i>
   <varray name="rec_basis" >
    <v>       0.00000000       0.31746032       0.31746032 </v>
    <v>       0.31746032       0.00000000       0.31746032 </v>
    <v>       0.31746032       0.31746032       0.00000000 </v>
   </varray>
  </crystal>
  <varray name="positions" >
   <v>       0.00000000       0.00000000       0.00000000 </v>
  </varray>
 </structure>
 <calculation>
  <scstep>
   <time name="dav">    0.04    0.04</time>
   <time name="total">    0.04    0.04</time>
   <energy>
    <i name="alphaZ">     44.66561374 </i>
    <i name="ewald">   -299.45249781 </i>
    <i name="hartreedc">     -5.69942808 </i>
    <i name="XCdc">    -47.30884213 </i>
    <i name="pawpsdc">    183.53490256 </i>
    <i name="pawaedc">   -125.80866524 </i>
    <i name="eentropy">     -0.00213721 </i>
    <i name="bandstr">     32.02313186 </i>
    <i name="atom">    206.50785835 </i>
    <i name="e_fr_energy">    -11.54006396 </i>
    <i name="e_wo_entrp">    -11.53792675 </i>
    <i name="e_0_energy">    -11.53935155 </i>
   </energy>
  </scstep>
  <scstep>
   <time name="dav">    0.03    0.03</time>
   <time name="total">    0.03    0.03</time>
   <energy>
    <i name="e_fr_energy">    -14.90545502 </i>
    <i name="e_wo_entrp">    -14.90535687 </i>
    <i name="e_0_energy">    -14.90542230 </i>
   </energy>
  </scstep>
  <scstep>
   <time name="dav">    0.04    0.04</time>
   <time name="total">    0.04    0.04</time>
   <energy>
    <i name="e_fr_energy">    -14.91729630 </i>
    <i name="e_wo_entrp">    -14.91723666 </i>
    <i name="e_0_energy">    -14.91727642 </i>
   </energy>
  </scstep>
  <scstep>
   <time name="dav">    0.03    0.03</time>
   <time name="total">    0.03    0.03</time>
   <energy>
    <i name="e_fr_energy">    -14.91730159 </i>
    <i name="e_wo_entrp">    -14.91724212 </i>
    <i name="e_0_energy">    -14.91728177 </i>
   </energy>
  </scstep>
  <scstep>
   <time name="dav">    0.03    0.03</time>
   <time name="total">    0.03    0.03</time>
   <energy>
    <i name="e_fr_energy">    -14.91730160 </i>
    <i name="e_wo_entrp">    -14.91724213 </i>
    <i name="e_0_energy">    -14.91728177 </i>
   </energy>
  </scstep>
  <scstep>
   <time name="dav">    0.03    0.03</time>
   <time name="total">    0.03    0.03</time>
   <energy>
    <i name="e_fr_energy">    -14.39289324 </i>
    <i name="e_wo_entrp">    -14.39265557 </i>
    <i name="e_0_energy">    -14.39281401 </i>
   </energy>
  </scstep>
  <scstep>
   <time name="dav">    0.03    0.03</time>
   <time name="total">    0.03    0.03</time>
   <energy>
    <i name="e_fr_energy">    -14.20621980 </i>
    <i name="e_wo_entrp">    -14.20785446 </i>
    <i name="e_0_energy">    -14.20676468 </i>
   </energy>
  </scstep>
  <scstep>
   <time name="dav">    0.03    0.03</time>
   <time name="total">    0.03    0.03</time>
   <energy>
    <i name="e_fr_energy">    -14.20472566 </i>
    <i name="e_wo_entrp">    -14.20597254 </i>
    <i name="e_0_energy">    -14.20514129 </i>
   </energy>
  </scstep>
  <scstep>
   <time name="dav">    0.03    0.03</time>
   <time name="total">    0.03    0.03</time>
   <energy>
    <i name="e_fr_energy">    -14.20373258 </i>
    <i name="e_wo_entrp">    -14.20532856 </i>
    <i name="e_0_energy">    -14.20426457 </i>
   </energy>
  </scstep>
  <scstep>
   <time name="dav">    0.02    0.02</time>
   <time name="total">    0.02    0.02</time>
   <energy>
    <i name="alphaZ">     44.66561374 </i>
    <i name="ewald">   -299.45249781 </i>
    <i name="hartreedc">     -2.25402943 </i>
    <i name="XCdc">    -46.85852168 </i>
    <i name="pawpsdc">    243.55153611 </i>
    <i name="pawaedc">   -187.42115195 </i>
    <i name="eentropy">      0.00159592 </i>
    <i name="bandstr">     27.05586124 </i>
    <i name="atom">    206.50785835 </i>
    <i name="e_fr_energy">    -14.20373551 </i>
    <i name="e_wo_entrp">    -14.20533143 </i>
    <i name="e_0_energy">    -14.20426748 </i>
   </energy>
  </scstep>
  <structure>
   <crystal>
    <varray name="basis" >
     <v>      -1.57500000       1.57500000       1.57500000 </v>
     <v>       1.57500000      -1.57500000       1.57500000 </v>
     <v>       1.57500000       1.57500000      -1.57500000 </v>
    </varray>
    <i name="volume">     15.62793750 </i>
    <varray name="rec_basis" >
     <v>       0.00000000       0.31746032       0.31746032 </v>
     <v>       0.31746032       0.00000000       0.31746032 </v>
     <v>       0.31746032       0.31746032       0.00000000 </v>
    </varray>
   </crystal>
   <varray name="positions" >
    <v>       0.00000000       0.00000000       0.00000000 </v>
   </varray>
  </structure>
  <varray name="forces" >
   <v>       0.00000000      -0.00000000       0.00000000 </v>
  </varray>
  <varray name="stress" >
   <v>     -86.92171076      -0.00000000      -0.00000000 </v>
   <v>      -0.00000000     -86.92171076       0.00000000 </v>
   <v>       0.00000000       0.00000000     -86.92171076 </v>
  </varray>
  <energy>
   <i name="e_fr_energy">    -14.20373551 </i>
   <i name="e_wo_entrp">    -14.20426748 </i>
   <i name="e_0_energy">      0.00159592 </i>
  </energy>
  <time name="totalsc">    0.37    0.38</time>
  <eigenvalues>
   <array>
    <dimension dim="1">band</dimension>
    <dimension dim="2">kpoint</dimension>
    <dimension dim="3">spin</dimension>
    <field>eigene</field>
    <field>occ</field>
    <set>
     <set comment="spin 1">
      <set comment="kpoint 1">
       <r>   -0.9508    1.0000 </r>
       <r>    6.3389    1.0000 </r>
       <r>    6.3389    1.0000 </r>
       <r>    7.5376    1.0282 </r>
       <r>    9.9458   -0.0000 </r>
       <r>    9.9458   -0.0000 </r>
       <r>   23.7384    0.0000 </r>
       <r>   24.6689    0.0000 </r>
      </set>
      <set comment="kpoint 2">
       <r>    0.2653    1.0000 </r>
       <r>    5.6402    1.0000 </r>
       <r>    5.9145    1.0000 </r>
       <r>    9.0455   -0.0000 </r>
       <r>    9.6026   -0.0000 </r>
       <r>   10.2215   -0.0000 </r>
       <r>   24.2537    0.0000 </r>
       <r>   25.7252    0.0000 </r>
      </set>
      <set comment="kpoint 3">
       <r>    1.5538    1.0000 </r>
       <r>    4.9503    1.0000 </r>
       <r>    5.8803    1.0000 </r>
       <r>    9.8238   -0.0000 </r>
       <r>   10.5620   -0.0000 </r>
       <r>   11.2408   -0.0000 </r>
       <r>   22.7404    0.0000 </r>
       <r>   23.4694    0.0000 </r>
      </set>
      <set comment="kpoint 4">
       <r>    1.9238    1.0000 </r>
       <r>    4.4738    1.0000 </r>
       <r>    7.2296    1.0001 </r>
       <r>   10.1976   -0.0000 </r>
       <r>   10.9133   -0.0000 </r>
       <r>   13.5660    0.0000 </r>
       <r>   20.3073    0.0000 </r>
       <r>   20.9739    0.0000 </r>
      </set>
      <set comment="kpoint 5">
       <r>    1.8833    1.0000 </r>
       <r>    4.3070    1.0000 </r>
       <r>    8.4227   -0.0001 </r>
       <r>   10.1862   -0.0000 </r>
       <r>   11.0845   -0.0000 </r>
       <r>   14.7601    0.0000 </r>
       <r>   18.8221    0.0000 </r>
       <r>   20.2687    0.0000 </r>
      </set>
      <set comment="kpoint 6">
       <r>   -1.4091    1.0000 </r>
       <r>    6.6599    1.0000 </r>
       <r>    6.6601    1.0000 </r>
       <r>    6.7965    1.0000 </r>
       <r>    9.8055   -0.0000 </r>
       <r>   10.3071   -0.0000 </r>
       <r>   23.7056    0.0000 </r>
       <r>   23.7057    0.0000 </r>
      </set>
      <set comment="kpoint 7">
       <r>    1.6056    1.0000 </r>
       <r>    5.1662    1.0000 </r>
       <r>    5.2138    1.0000 </r>
       <r>    9.6759   -0.0000 </r>
       <r>   10.5925   -0.0000 </r>
       <r>   11.2007   -0.0000 </r>
       <r>   23.7391    0.0000 </r>
       <r>   24.8212    0.0000 </r>
      </set>
      <set comment="kpoint 8">
       <r>    2.6118    1.0000 </r>
       <r>    4.6547    1.0000 </r>
       <r>    5.5956    1.0000 </r>
       <r>    9.9947   -0.0000 </r>
       <r>   10.9471   -0.0000 </r>
       <r>   13.7259    0.0000 </r>
       <r>   20.8601    0.0000 </r>
       <r>   22.8512    0.0000 </r>
      </set>
      <set comment="kpoint 9">
       <r>    2.6641    1.0000 </r>
       <r>    4.4147    1.0000 </r>
       <r>    6.9631    1.0000 </r>
       <r>   10.2897   -0.0000 </r>
       <r>   11.1734   -0.0000 </r>
       <r>   15.8033    0.0000 </r>
       <r>   18.1392    0.0000 </r>
       <r>   21.3758    0.0000 </r>
      </set>
      <set comment="kpoint 10">
       <r>   -0.5116    1.0000 </r>
       <r>    6.1938    1.0000 </r>
       <r>    6.4911    1.0000 </r>
       <r>    7.7050    0.9412 </r>
       <r>    9.1056   -0.0000 </r>
       <r>   10.5058   -0.0000 </r>
       <r>   24.2649    0.0000 </r>
       <r>   25.2821    0.0000 </r>
      </set>
      <set comment="kpoint 11">
       <r>    3.3413    1.0000 </r>
       <r>    4.7179    1.0000 </r>
       <r>    5.7081    1.0000 </r>
       <r>   10.3276   -0.0000 </r>
       <r>   11.0793   -0.0000 </r>
       <r>   16.3590    0.0000 </r>
       <r>   17.9915    0.0000 </r>
       <r>   22.1206    0.0000 </r>
      </set>
      <set comment="kpoint 12">
       <r>    3.4291    1.0000 </r>
       <r>    4.8309    1.0000 </r>
       <r>    6.0286    1.0000 </r>
       <r>   10.5958   -0.0000 </r>
       <r>   11.1260   -0.0000 </r>
       <r>   16.4034    0.0000 </r>
       <r>   18.1126    0.0000 </r>
       <r>   20.7717    0.0000 </r>
      </set>
      <set comment="kpoint 13">
       <r>    0.8688    1.0000 </r>
       <r>    5.4738    1.0000 </r>
       <r>    6.0781    1.0000 </r>
       <r>    9.1219   -0.0000 </r>
       <r>    9.4777   -0.0000 </r>
       <r>   10.7117   -0.0000 </r>
       <r>   23.4213    0.0000 </r>
       <r>   25.1618    0.0000 </r>
      </set>
      <set comment="kpoint 14">
       <r>    0.6545    1.0000 </r>
       <r>    5.9514    1.0000 </r>
       <r>    5.9781    1.0000 </r>
       <r>    8.5163   -0.0000 </r>
       <r>    8.9604   -0.0000 </r>
       <r>   10.9196   -0.0000 </r>
       <r>   24.4772    0.0000 </r>
       <r>   25.3441    0.0000 </r>
      </set>
      <set comment="kpoint 15">
       <r>    1.7162    1.0000 </r>
       <r>    4.8454    1.0000 </r>
       <r>    6.5722    1.0000 </r>
       <r>    9.7365   -0.0000 </r>
       <r>   10.9649   -0.0000 </r>
       <r>   11.7966   -0.0000 </r>
       <r>   21.3126    0.0000 </r>
       <r>   22.5708    0.0000 </r>
      </set>
      <set comment="kpoint 16">
       <r>    1.9254    1.0000 </r>
       <r>    5.2287    1.0000 </r>
       <r>    5.7962    1.0000 </r>
       <r>    8.8504   -0.0000 </r>
       <r>   10.9142   -0.0000 </r>
       <r>   11.3632   -0.0000 </r>
       <r>   22.1335    0.0000 </r>
       <r>   24.8545    0.0000 </r>
      </set>
      <set comment="kpoint 17">
       <r>    1.7602    1.0000 </r>
       <r>    4.4932    1.0000 </r>
       <r>    7.9573    0.0749 </r>
       <r>    9.9181   -0.0000 </r>
       <r>   11.4960   -0.0000 </r>
       <r>   13.8360    0.0000 </r>
       <r>   19.5554    0.0000 </r>
       <r>   20.6533    0.0000 </r>
      </set>
      <set comment="kpoint 18">
       <r>    2.3168    1.0000 </r>
       <r>    4.8529    1.0000 </r>
       <r>    6.4371    1.0000 </r>
       <r>    9.4716   -0.0000 </r>
       <r>   11.4088   -0.0000 </r>
       <r>   13.6605    0.0000 </r>
       <r>   20.0386    0.0000 </r>
       <r>   22.5379    0.0000 </r>
      </set>
      <set comment="kpoint 19">
       <r>    2.9350    1.0000 </r>
       <r>    4.6846    1.0000 </r>
       <r>    5.8912    1.0000 </r>
       <r>    9.1759   -0.0000 </r>
       <r>   11.0501   -0.0000 </r>
       <r>   13.8518    0.0000 </r>
       <r>   20.3059    0.0000 </r>
       <r>   24.1066    0.0000 </r>
      </set>
      <set comment="kpoint 20">
       <r>    2.2671    1.0000 </r>
       <r>    4.7264    1.0000 </r>
       <r>    7.0769    1.0000 </r>
       <r>    9.4176   -0.0000 </r>
       <r>   12.0937   -0.0000 </r>
       <r>   15.0223    0.0000 </r>
       <r>   18.6172    0.0000 </r>
       <r>   21.6631    0.0000 </r>
      </set>
      <set comment="kpoint 21">
       <r>    3.2080    1.0000 </r>
       <r>    4.7472    1.0000 </r>
       <r>    5.9058    1.0000 </r>
       <r>    9.7097   -0.0000 </r>
       <r>   11.3687   -0.0000 </r>
       <r>   16.4771    0.0000 </r>
       <r>   18.0034    0.0000 </r>
       <r>   22.0786    0.0000 </r>
      </set>
      <set comment="kpoint 22">
       <r>    3.7851    1.0000 </r>
       <r>    5.0240    1.0000 </r>
       <r>    5.0241    1.0000 </r>
       <r>   10.7456   -0.0000 </r>
       <r>   10.7457   -0.0000 </r>
       <r>   16.6781    0.0000 </r>
       <r>   19.5701    0.0000 </r>
       <r>   19.5704    0.0000 </r>
      </set>
      <set comment="kpoint 23">
       <r>    3.0775    1.0000 </r>
       <r>    4.6679    1.0000 </r>
       <r>    4.6679    1.0000 </r>
       <r>   10.5426   -0.0000 </r>
       <r>   10.5426   -0.0000 </r>
       <r>   13.8575    0.0000 </r>
       <r>   21.9556    0.0000 </r>
       <r>   23.4953    0.0000 </r>
      </set>
      <set comment="kpoint 24">
       <r>    3.6871    1.0000 </r>
       <r>    4.4204    1.0000 </r>
       <r>    5.4947    1.0000 </r>
       <r>   10.7195   -0.0000 </r>
       <r>   11.0307   -0.0000 </r>
       <r>   16.3453    0.0000 </r>
       <r>   18.1721    0.0000 </r>
       <r>   22.0972    0.0000 </r>
      </set>
      <set comment="kpoint 25">
       <r>    3.5808    1.0000 </r>
       <r>    4.3491    1.0000 </r>
       <r>    6.5047    1.0000 </r>
       <r>   10.8038   -0.0000 </r>
       <r>   11.1787   -0.0000 </r>
       <r>   16.4082    0.0000 </r>
       <r>   17.5721    0.0000 </r>
       <r>   21.5599    0.0000 </r>
      </set>
      <set comment="kpoint 26">
       <r>    0.3425    1.0000 </r>
       <r>    6.6963    1.0000 </r>
       <r>    6.6964    1.0000 </r>
       <r>    7.6062    1.0343 </r>
       <r>    7.6908    0.9671 </r>
       <r>   11.1236   -0.0000 </r>
       <r>   25.7190    0.0000 </r>
       <r>   26.0273    0.0000 </r>
      </set>
      <set comment="kpoint 27">
       <r>    4.1169    1.0000 </r>
       <r>    4.8931    1.0000 </r>
       <r>    5.5356    1.0000 </r>
       <r>   11.0344   -0.0000 </r>
       <r>   11.1684   -0.0000 </r>
       <r>   15.7319    0.0000 </r>
       <r>   18.6754    0.0000 </r>
       <r>   20.9237    0.0000 </r>
      </set>
      <set comment="kpoint 28">
       <r>    1.6649    1.0000 </r>
       <r>    5.8990    1.0000 </r>
       <r>    6.3215    1.0000 </r>
       <r>    7.6852    0.9759 </r>
       <r>    9.2045   -0.0000 </r>
       <r>   11.3903   -0.0000 </r>
       <r>   23.1200    0.0000 </r>
       <r>   26.7025    0.0000 </r>
      </set>
      <set comment="kpoint 29">
       <r>    2.5232    1.0000 </r>
       <r>    5.4342    1.0000 </r>
       <r>    5.7796    1.0000 </r>
       <r>    8.6201   -0.0000 </r>
       <r>   11.5229   -0.0000 </r>
       <r>   11.7231   -0.0000 </r>
       <r>   21.4183    0.0000 </r>
       <r>   24.8480    0.0000 </r>
      </set>
      <set comment="kpoint 30">
       <r>    2.8026    1.0000 </r>
       <r>    4.8860    1.0000 </r>
       <r>    6.5690    1.0000 </r>
       <r>    8.0001    0.0038 </r>
       <r>   10.5828   -0.0000 </r>
       <r>   11.7984   -0.0000 </r>
       <r>   22.0706    0.0000 </r>
       <r>   26.4795    0.0000 </r>
      </set>
      <set comment="kpoint 31">
       <r>    2.5063    1.0000 </r>
       <r>    5.4616    1.0000 </r>
       <r>    5.9974    1.0000 </r>
       <r>    8.5903   -0.0000 </r>
       <r>   13.2951    0.0000 </r>
       <r>   13.6231    0.0000 </r>
       <r>   19.4267    0.0000 </r>
       <r>   23.2910    0.0000 </r>
      </set>
      <set comment="kpoint 32">
       <r>    3.2446    1.0000 </r>
       <r>    4.6192    1.0000 </r>
       <r>    6.1667    1.0000 </r>
       <r>    8.7264   -0.0000 </r>
       <r>   11.5734   -0.0000 </r>
       <r>   14.0823    0.0000 </r>
       <r>   20.3058    0.0000 </r>
       <r>   24.0592    0.0000 </r>
      </set>
      <set comment="kpoint 33">
       <r>    3.1148    1.0000 </r>
       <r>    5.1323    1.0000 </r>
       <r>    5.6468    1.0000 </r>
       <r>    8.7535   -0.0000 </r>
       <r>   12.6983   -0.0000 </r>
       <r>   16.0789    0.0000 </r>
       <r>   18.2122    0.0000 </r>
       <r>   22.5108    0.0000 </r>
      </set>
      <set comment="kpoint 34">
       <r>    4.0522    1.0000 </r>
       <r>    4.1090    1.0000 </r>
       <r>    5.3867    1.0000 </r>
       <r>   10.0998   -0.0000 </r>
       <r>   11.4231   -0.0000 </r>
       <r>   17.0323    0.0000 </r>
       <r>   18.3239    0.0000 </r>
       <r>   21.2972    0.0000 </r>
      </set>
      <set comment="kpoint 35">
       <r>    4.9909    1.0000 </r>
       <r>    4.9909    1.0000 </r>
       <r>    4.9911    1.0000 </r>
       <r>   11.2312   -0.0000 </r>
       <r>   11.2312   -0.0000 </r>
       <r>   14.8276    0.0000 </r>
       <r>   20.5436    0.0000 </r>
       <r>   20.5439    0.0000 </r>
      </set>
      <set comment="kpoint 36">
       <r>    2.7712    1.0000 </r>
       <r>    5.0801    1.0000 </r>
       <r>    7.4363    1.0082 </r>
       <r>    7.4365    1.0082 </r>
       <r>    9.3456   -0.0000 </r>
       <r>   11.4860   -0.0000 </r>
       <r>   22.9353    0.0000 </r>
       <r>   27.9242    0.0000 </r>
      </set>
      <set comment="kpoint 37">
       <r>    3.3985    1.0000 </r>
       <r>    4.1397    1.0000 </r>
       <r>    7.4970    1.0190 </r>
       <r>    8.1937   -0.0147 </r>
       <r>   11.1811   -0.0000 </r>
       <r>   12.0276   -0.0000 </r>
       <r>   22.5824    0.0000 </r>
       <r>   25.2960    0.0000 </r>
      </set>
      <set comment="kpoint 38">
       <r>    3.1181    1.0000 </r>
       <r>    4.1867    1.0000 </r>
       <r>    7.3037    1.0006 </r>
       <r>    8.1656   -0.0207 </r>
       <r>   13.2914   -0.0000 </r>
       <r>   14.5209    0.0000 </r>
       <r>   19.4263    0.0000 </r>
       <r>   22.6687    0.0000 </r>
      </set>
      <set comment="kpoint 39">
       <r>    3.3901    1.0000 </r>
       <r>    3.5448    1.0000 </r>
       <r>    7.4187    1.0061 </r>
       <r>    9.5400   -0.0000 </r>
       <r>   11.7554   -0.0000 </r>
       <r>   14.3253    0.0000 </r>
       <r>   20.5914    0.0000 </r>
       <r>   22.4289    0.0000 </r>
      </set>
      <set comment="kpoint 40">
       <r>    3.1386    1.0000 </r>
       <r>    3.5323    1.0000 </r>
       <r>    7.1660    1.0000 </r>
       <r>   10.1311   -0.0000 </r>
       <r>   12.5648   -0.0000 </r>
       <r>   17.1807    0.0000 </r>
       <r>   17.8107    0.0000 </r>
       <r>   20.5046    0.0000 </r>
      </set>
      <set comment="kpoint 41">
       <r>    3.1580    1.0000 </r>
       <r>    3.2992    1.0000 </r>
       <r>    9.3242   -0.0000 </r>
       <r>    9.3244   -0.0000 </r>
       <r>   11.3770   -0.0000 </r>
       <r>   12.5251   -0.0000 </r>
       <r>   22.7494    0.0000 </r>
       <r>   22.7496    0.0000 </r>
      </set>
      <set comment="kpoint 42">
       <r>    2.6617    1.0000 </r>
       <r>    2.9026    1.0000 </r>
       <r>    9.7986   -0.0000 </r>
       <r>    9.9555   -0.0000 </r>
       <r>   12.9884   -0.0000 </r>
       <r>   14.9973    0.0000 </r>
       <r>   19.1492    0.0000 </r>
       <r>   20.2875    0.0000 </r>
      </set>
      <set comment="kpoint 43">
       <r>    2.5025    1.0000 </r>
       <r>    2.5025    1.0000 </r>
       <r>    9.8271   -0.0000 </r>
       <r>   12.3288   -0.0000 </r>
       <r>   12.3291   -0.0000 </r>
       <r>   17.6537    0.0000 </r>
       <r>   17.6798    0.0000 </r>
       <r>   17.6799    0.0000 </r>
      </set>
      <set comment="kpoint 44">
       <r>    2.1486    1.0000 </r>
       <r>    2.2180    1.0000 </r>
       <r>   12.2295   -0.0000 </r>
       <r>   12.2297   -0.0000 </r>
       <r>   12.9555   -0.0000 </r>
       <r>   15.7336    0.0000 </r>
       <r>   17.7869    0.0000 </r>
       <r>   17.7869    0.0000 </r>
      </set>
     </set>
    </set>
   </array>
  </eigenvalues>
  <separator name="orbital magnetization" >
   <v name="MAGDIPOLOUT">      0.00000000      0.00000000      0.00000000</v>
  </separator>
  <dos>
   <i name="efermi">      7.83505894 </i>
   <total>
    <array>
     <dimension dim="1">gridpoints</dimension>
     <dimension dim="2">spin</dimension>
     <field>energy</field>
     <field>total</field>
     <field>integrated</field>
     <set>
      <set comment="spin 1">
       <r>    -3.4091     0.0000     0.0000 </r>
       <r>    -3.2980     0.0000     0.0000 </r>
       <r>    -3.1869     0.0000     0.0000 </r>
       <r>    -3.0758    -0.0000    -0.0000 </r>
       <r>    -2.9647    -0.0000    -0.0000 </r>
       <r>    -2.8536    -0.0000    -0.0000 </r>
       <r>    -2.7425    -0.0000    -0.0000 </r>
       <r>    -2.6313    -0.0000    -0.0000 </r>
       <r>    -2.5202    -0.0000    -0.0000 </r>
       <r>    -2.4091    -0.0000    -0.0000 </r>
       <r>    -2.2980    -0.0000    -0.0000 </r>
       <r>    -2.1869    -0.0000    -0.0000 </r>
       <r>    -2.0758    -0.0000    -0.0000 </r>
       <r>    -1.9647    -0.0000    -0.0000 </r>
       <r>    -1.8536    -0.0004    -0.0000 </r>
       <r>    -1.7425    -0.0018    -0.0002 </r>
       <r>    -1.6313    -0.0014    -0.0004 </r>
       <r>    -1.5202     0.0145     0.0012 </r>
       <r>    -1.4091     0.0427     0.0060 </r>
       <r>    -1.2980     0.0411     0.0105 </r>
       <r>    -1.1869     0.0119     0.0118 </r>
       <r>    -1.0758     0.0135     0.0133 </r>
       <r>    -0.9647     0.0506     0.0190 </r>
       <r>    -0.8536     0.0538     0.0249 </r>
       <r>    -0.7425     0.0168     0.0268 </r>
       <r>    -0.6313     0.0489     0.0322 </r>
       <r>    -0.5202     0.1627     0.0503 </r>
       <r>    -0.4091     0.1780     0.0701 </r>
       <r>    -0.2980     0.0664     0.0775 </r>
       <r>    -0.1869    -0.0051     0.0769 </r>
       <r>    -0.0758    -0.0148     0.0753 </r>
       <r>     0.0353    -0.0109     0.0740 </r>
       <r>     0.1464     0.0504     0.0796 </r>
       <r>     0.2575     0.1842     0.1001 </r>
       <r>     0.3687     0.2149     0.1240 </r>
       <r>     0.4798     0.1097     0.1362 </r>
       <r>     0.5909     0.1037     0.1477 </r>
       <r>     0.7020     0.1990     0.1698 </r>
       <r>     0.8131     0.2414     0.1966 </r>
       <r>     0.9242     0.2138     0.2204 </r>
       <r>     1.0353     0.1078     0.2324 </r>
       <r>     1.1464     0.0065     0.2331 </r>
       <r>     1.2575    -0.0300     0.2298 </r>
       <r>     1.3687    -0.0254     0.2269 </r>
       <r>     1.4798     0.1232     0.2406 </r>
       <r>     1.5909     0.4815     0.2941 </r>
       <r>     1.7020     0.7736     0.3801 </r>
       <r>     1.8131     0.8319     0.4725 </r>
       <r>     1.9242     0.8025     0.5617 </r>
       <r>     2.0353     0.5639     0.6243 </r>
       <r>     2.1464     0.2883     0.6564 </r>
       <r>     2.2575     0.4109     0.7020 </r>
       <r>     2.3687     0.6265     0.7716 </r>
       <r>     2.4798     0.7765     0.8579 </r>
       <r>     2.5909     1.1201     0.9824 </r>
       <r>     2.7020     1.2412     1.1203 </r>
       <r>     2.8131     0.8831     1.2184 </r>
       <r>     2.9242     0.5633     1.2810 </r>
       <r>     3.0353     0.6262     1.3506 </r>
       <r>     3.1464     1.0776     1.4703 </r>
       <r>     3.2575     1.4425     1.6306 </r>
       <r>     3.3687     1.3557     1.7812 </r>
       <r>     3.4798     1.0971     1.9031 </r>
       <r>     3.5909     0.8234     1.9946 </r>
       <r>     3.7020     0.5077     2.0510 </r>
       <r>     3.8131     0.2050     2.0738 </r>
       <r>     3.9242     0.0922     2.0841 </r>
       <r>     4.0353     0.4005     2.1286 </r>
       <r>     4.1464     0.8291     2.2207 </r>
       <r>     4.2575     0.8385     2.3138 </r>
       <r>     4.3687     0.8109     2.4039 </r>
       <r>     4.4798     1.0523     2.5209 </r>
       <r>     4.5909     1.3830     2.6745 </r>
       <r>     4.7020     1.8956     2.8852 </r>
       <r>     4.8131     2.1655     3.1258 </r>
       <r>     4.9242     1.7794     3.3235 </r>
       <r>     5.0353     1.1106     3.4469 </r>
       <r>     5.1464     0.8601     3.5424 </r>
       <r>     5.2575     0.9186     3.6445 </r>
       <r>     5.3687     0.9269     3.7475 </r>
       <r>     5.4798     1.1746     3.8780 </r>
       <r>     5.5909     1.4291     4.0368 </r>
       <r>     5.7020     1.4032     4.1927 </r>
       <r>     5.8131     1.5944     4.3699 </r>
       <r>     5.9242     2.0431     4.5969 </r>
       <r>     6.0353     1.9276     4.8111 </r>
       <r>     6.1464     1.2897     4.9544 </r>
       <r>     6.2575     0.8425     5.0480 </r>
       <r>     6.3687     0.7857     5.1353 </r>
       <r>     6.4798     0.9818     5.2444 </r>
       <r>     6.5909     0.9905     5.3544 </r>
       <r>     6.7020     0.6210     5.4234 </r>
       <r>     6.8131     0.2767     5.4542 </r>
       <r>     6.9242     0.3118     5.4888 </r>
       <r>     7.0353     0.5308     5.5478 </r>
       <r>     7.1464     0.6224     5.6169 </r>
       <r>     7.2575     0.6199     5.6858 </r>
       <r>     7.3687     0.6116     5.7538 </r>
       <r>     7.4798     0.6134     5.8219 </r>
       <r>     7.5909     0.5941     5.8879 </r>
       <r>     7.7020     0.5453     5.9485 </r>
       <r>     7.8131     0.4013     5.9931 </r>
       <r>     7.9242     0.3161     6.0282 </r>
       <r>     8.0353     0.4188     6.0748 </r>
       <r>     8.1464     0.4880     6.1290 </r>
       <r>     8.2575     0.3913     6.1725 </r>
       <r>     8.3687     0.2229     6.1972 </r>
       <r>     8.4798     0.2910     6.2296 </r>
       <r>     8.5909     0.6137     6.2978 </r>
       <r>     8.7020     0.9142     6.3993 </r>
       <r>     8.8131     0.9834     6.5086 </r>
       <r>     8.9242     0.8227     6.6000 </r>
       <r>     9.0353     0.7597     6.6844 </r>
       <r>     9.1464     0.8646     6.7805 </r>
       <r>     9.2576     0.7722     6.8663 </r>
       <r>     9.3687     0.6848     6.9424 </r>
       <r>     9.4798     0.9322     7.0460 </r>
       <r>     9.5909     1.1383     7.1724 </r>
       <r>     9.7020     1.2246     7.3085 </r>
       <r>     9.8131     1.2995     7.4529 </r>
       <r>     9.9242     1.2615     7.5930 </r>
       <r>    10.0353     1.1726     7.7233 </r>
       <r>    10.1464     1.1392     7.8499 </r>
       <r>    10.2576     1.1598     7.9788 </r>
       <r>    10.3687     0.9546     8.0848 </r>
       <r>    10.4798     0.8059     8.1744 </r>
       <r>    10.5909     1.0745     8.2938 </r>
       <r>    10.7020     1.1563     8.4223 </r>
       <r>    10.8131     1.0815     8.5424 </r>
       <r>    10.9242     1.5325     8.7127 </r>
       <r>    11.0353     2.1347     8.9499 </r>
       <r>    11.1464     2.2712     9.2022 </r>
       <r>    11.2576     2.0853     9.4339 </r>
       <r>    11.3687     2.0305     9.6595 </r>
       <r>    11.4798     1.9537     9.8766 </r>
       <r>    11.5909     1.3966    10.0318 </r>
       <r>    11.7020     0.8988    10.1317 </r>
       <r>    11.8131     0.7508    10.2151 </r>
       <r>    11.9242     0.5326    10.2743 </r>
       <r>    12.0353     0.3683    10.3152 </r>
       <r>    12.1464     0.3684    10.3561 </r>
       <r>    12.2576     0.3022    10.3897 </r>
       <r>    12.3687     0.2079    10.4128 </r>
       <r>    12.4798     0.2020    10.4352 </r>
       <r>    12.5909     0.3006    10.4686 </r>
       <r>    12.7020     0.3293    10.5052 </r>
       <r>    12.8131     0.2196    10.5296 </r>
       <r>    12.9242     0.1772    10.5493 </r>
       <r>    13.0353     0.2098    10.5726 </r>
       <r>    13.1464     0.1934    10.5941 </r>
       <r>    13.2576     0.2767    10.6249 </r>
       <r>    13.3687     0.3311    10.6616 </r>
       <r>    13.4798     0.2860    10.6934 </r>
       <r>    13.5909     0.5944    10.7595 </r>
       <r>    13.7020     1.0736    10.8787 </r>
       <r>    13.8131     1.0753    10.9982 </r>
       <r>    13.9242     0.6867    11.0745 </r>
       <r>    14.0353     0.4273    11.1220 </r>
       <r>    14.1464     0.3723    11.1634 </r>
       <r>    14.2576     0.2837    11.1949 </r>
       <r>    14.3687     0.2292    11.2203 </r>
       <r>    14.4798     0.2393    11.2469 </r>
       <r>    14.5909     0.2103    11.2703 </r>
       <r>    14.7020     0.1351    11.2853 </r>
       <r>    14.8131     0.1169    11.2983 </r>
       <r>    14.9242     0.2347    11.3244 </r>
       <r>    15.0353     0.3849    11.3671 </r>
       <r>    15.1464     0.2931    11.3997 </r>
       <r>    15.2576     0.0678    11.4072 </r>
       <r>    15.3687    -0.0276    11.4042 </r>
       <r>    15.4798    -0.0379    11.4000 </r>
       <r>    15.5909     0.0300    11.4033 </r>
       <r>    15.7020     0.3125    11.4380 </r>
       <r>    15.8131     0.5858    11.5031 </r>
       <r>    15.9242     0.4576    11.5539 </r>
       <r>    16.0353     0.2055    11.5768 </r>
       <r>    16.1464     0.1357    11.5919 </r>
       <r>    16.2576     0.2677    11.6216 </r>
       <r>    16.3687     0.6983    11.6992 </r>
       <r>    16.4798     0.9434    11.8040 </r>
       <r>    16.5909     0.5938    11.8700 </r>
       <r>    16.7020     0.1565    11.8874 </r>
       <r>    16.8131     0.0025    11.8877 </r>
       <r>    16.9242     0.0436    11.8925 </r>
       <r>    17.0353     0.1968    11.9144 </r>
       <r>    17.1464     0.3076    11.9485 </r>
       <r>    17.2576     0.2390    11.9751 </r>
       <r>    17.3687     0.0757    11.9835 </r>
       <r>    17.4798     0.0272    11.9865 </r>
       <r>    17.5909     0.1589    12.0042 </r>
       <r>    17.7020     0.3325    12.0411 </r>
       <r>    17.8131     0.4149    12.0872 </r>
       <r>    17.9242     0.5345    12.1466 </r>
       <r>    18.0353     0.8943    12.2460 </r>
       <r>    18.1464     1.2117    12.3806 </r>
       <r>    18.2576     1.0265    12.4947 </r>
       <r>    18.3687     0.4895    12.5491 </r>
       <r>    18.4798     0.1470    12.5654 </r>
       <r>    18.5909     0.2135    12.5891 </r>
       <r>    18.7020     0.3804    12.6314 </r>
       <r>    18.8131     0.3043    12.6652 </r>
       <r>    18.9242     0.1174    12.6782 </r>
       <r>    19.0353     0.0634    12.6853 </r>
       <r>    19.1464     0.1372    12.7005 </r>
       <r>    19.2576     0.1817    12.7207 </r>
       <r>    19.3687     0.2949    12.7535 </r>
       <r>    19.4798     0.5319    12.8126 </r>
       <r>    19.5909     0.5461    12.8733 </r>
       <r>    19.7020     0.2593    12.9021 </r>
       <r>    19.8131     0.0179    12.9041 </r>
       <r>    19.9242     0.0625    12.9110 </r>
       <r>    20.0353     0.2767    12.9418 </r>
       <r>    20.1464     0.4713    12.9941 </r>
       <r>    20.2576     0.8300    13.0864 </r>
       <r>    20.3687     1.0649    13.2047 </r>
       <r>    20.4798     0.7671    13.2899 </r>
       <r>    20.5909     0.5210    13.3478 </r>
       <r>    20.7020     0.5465    13.4085 </r>
       <r>    20.8131     0.6946    13.4857 </r>
       <r>    20.9242     0.8085    13.5755 </r>
       <r>    21.0353     0.5497    13.6366 </r>
       <r>    21.1464     0.1880    13.6575 </r>
       <r>    21.2576     0.3484    13.6962 </r>
       <r>    21.3687     0.8138    13.7866 </r>
       <r>    21.4798     0.8123    13.8769 </r>
       <r>    21.5909     0.4513    13.9270 </r>
       <r>    21.7020     0.2230    13.9518 </r>
       <r>    21.8131     0.0673    13.9593 </r>
       <r>    21.9242     0.1400    13.9749 </r>
       <r>    22.0353     0.7852    14.0621 </r>
       <r>    22.1464     1.3232    14.2091 </r>
       <r>    22.2576     0.8650    14.3052 </r>
       <r>    22.3687     0.3122    14.3399 </r>
       <r>    22.4798     0.6304    14.4100 </r>
       <r>    22.5909     1.1429    14.5370 </r>
       <r>    22.7020     1.1035    14.6596 </r>
       <r>    22.8131     0.8227    14.7510 </r>
       <r>    22.9242     0.5556    14.8127 </r>
       <r>    23.0353     0.2907    14.8450 </r>
       <r>    23.1464     0.2045    14.8677 </r>
       <r>    23.2576     0.2747    14.8982 </r>
       <r>    23.3687     0.4117    14.9440 </r>
       <r>    23.4798     0.4942    14.9989 </r>
       <r>    23.5909     0.3987    15.0432 </r>
       <r>    23.7020     0.3308    15.0800 </r>
       <r>    23.8131     0.2933    15.1126 </r>
       <r>    23.9242     0.2132    15.1362 </r>
       <r>    24.0353     0.3924    15.1798 </r>
       <r>    24.1464     0.6562    15.2528 </r>
       <r>    24.2576     0.6312    15.3229 </r>
       <r>    24.3687     0.4264    15.3703 </r>
       <r>    24.4798     0.2481    15.3978 </r>
       <r>    24.5909     0.1458    15.4141 </r>
       <r>    24.7020     0.2278    15.4394 </r>
       <r>    24.8131     0.6033    15.5064 </r>
       <r>    24.9242     0.7383    15.5884 </r>
       <r>    25.0353     0.3767    15.6303 </r>
       <r>    25.1464     0.2357    15.6565 </r>
       <r>    25.2576     0.5163    15.7138 </r>
       <r>    25.3687     0.6237    15.7831 </r>
       <r>    25.4798     0.3187    15.8185 </r>
       <r>    25.5909     0.0821    15.8277 </r>
       <r>    25.7020     0.1610    15.8455 </r>
       <r>    25.8131     0.2212    15.8701 </r>
       <r>    25.9242     0.1156    15.8830 </r>
       <r>    26.0353     0.0429    15.8877 </r>
       <r>    26.1464     0.0237    15.8904 </r>
       <r>    26.2576     0.0028    15.8907 </r>
       <r>    26.3687     0.0491    15.8961 </r>
       <r>    26.4798     0.1652    15.9145 </r>
       <r>    26.5909     0.2294    15.9400 </r>
       <r>    26.7020     0.2297    15.9655 </r>
       <r>    26.8131     0.1670    15.9841 </r>
       <r>    26.9242     0.0513    15.9898 </r>
       <r>    27.0353    -0.0070    15.9890 </r>
       <r>    27.1464    -0.0072    15.9882 </r>
       <r>    27.2576    -0.0015    15.9880 </r>
       <r>    27.3687    -0.0002    15.9880 </r>
       <r>    27.4798    -0.0004    15.9880 </r>
       <r>    27.5909    -0.0018    15.9878 </r>
       <r>    27.7020    -0.0014    15.9876 </r>
       <r>    27.8131     0.0145    15.9892 </r>
       <r>    27.9242     0.0431    15.9940 </r>
       <r>    28.0353     0.0431    15.9988 </r>
       <r>    28.1465     0.0145    16.0004 </r>
       <r>    28.2576    -0.0014    16.0002 </r>
       <r>    28.3687    -0.0018    16.0000 </r>
       <r>    28.4798    -0.0004    16.0000 </r>
       <r>    28.5909    -0.0000    16.0000 </r>
       <r>    28.7020    -0.0000    16.0000 </r>
       <r>    28.8131    -0.0000    16.0000 </r>
       <r>    28.9242    -0.0000    16.0000 </r>
       <r>    29.0353    -0.0000    16.0000 </r>
       <r>    29.1465    -0.0000    16.0000 </r>
       <r>    29.2576     0.0000    16.0000 </r>
       <r>    29.3687     0.0000    16.0000 </r>
       <r>    29.4798     0.0000    16.0000 </r>
       <r>    29.5909     0.0000    16.0000 </r>
       <r>    29.7020     0.0000    16.0000 </r>
       <r>    29.8131     0.0000    16.0000 </r>
       <r>    29.9242     0.0000    16.0000 </r>
      </set>
     </set>
    </array>
   </total>
  </dos>
 </calculation>
 <structure name="finalpos" >
  <crystal>
   <varray name="basis" >
    <v>      -1.57500000       1.57500000       1.57500000 </v>
    <v>       1.57500000      -1.57500000       1.57500000 </v>
    <v>       1.57500000       1.57500000      -1.57500000 </v>
   </varray>
   <i name="volume">     15.62793750 </i>
   <varray name="rec_basis" >
    <v>       0.00000000       0.31746032       0.31746032 </v>
    <v>       0.31746032       0.00000000       0.31746032 </v>
    <v>       0.31746032       0.31746032       0.00000000 </v>
   </varray>
  </crystal>
  <varray name="positions" >
   <v>       0.00000000       0.00000000       0.00000000 </v>
  </varray>
 </structure>
</modeling>
