fcc Ni                                  
   3.65000000000000     
     0.000000    0.500000    0.500000
     0.500000    0.000000    0.500000
     0.500000    0.500000    0.000000
   Ni
     1
Direct
  0.000000  0.000000  0.000000
 
   20   20   20
  168.65      157.16      126.83      87.828      51.363      25.001      10.681      5.4821      4.0884      3.4124    
  3.2251      3.4124      4.0884      5.4821      10.681      25.001      51.363      87.828      126.83      157.16    
  157.16      136.32      101.92      64.837      34.496      15.469      6.9704      4.5702      3.6285      3.2286    
  3.2329      3.6344      4.5690      6.9672      15.475      34.507      64.826      101.87      136.26      157.14    
  126.83      101.92      70.004      40.462      19.565      8.7018      5.0265      3.8708      3.2592      3.0899    
  3.2614      3.8708      5.0248      8.7061      19.577      40.466      69.981      101.87      126.79      136.26    
  87.828      64.837      40.462      21.184      9.8880      5.4291      4.0784      3.3161      2.9983      2.9974    
  3.3137      4.0760      5.4285      9.8905      21.189      40.467      64.840      87.829      101.87      101.87    
  51.363      34.496      19.565      9.8880      5.6011      4.2011      3.3721      2.9477      2.8308      2.9482    
  3.3718      4.1979      5.5945      9.8814      19.565      34.507      51.381      64.840      69.981      64.826    
  25.001      15.469      8.7018      5.4291      4.2011      3.3981      2.9297      2.7374      2.7376      2.9314    
  3.4014      4.2020      5.4221      8.6871      15.454      24.994      34.507      40.467      40.466      34.507    
  10.681      6.9704      5.0265      4.0784      3.3721      2.9297      2.7089      2.6431      2.7074      2.9324    
  3.3812      4.0872      5.0249      6.9548      10.658      15.454      19.565      21.189      19.577      15.475    
  5.4821      4.5702      3.8708      3.3161      2.9477      2.7374      2.6431      2.6419      2.7350      2.9476    
  3.3228      3.8850      4.5846      5.4855      6.9548      8.6871      9.8814      9.8905      8.7061      6.9672    
  4.0884      3.6285      3.2592      2.9983      2.8308      2.7376      2.7074      2.7350      2.8233      2.9894    
  3.2592      3.6442      4.1120      4.5846      5.0249      5.4221      5.5945      5.4285      5.0248      4.5690    
  3.4124      3.2286      3.0899      2.9974      2.9482      2.9314      2.9324      2.9476      2.9894      3.0755    
  3.2166      3.4111      3.6442      3.8850      4.0872      4.2020      4.1979      4.0760      3.8708      3.6344    
  3.2251      3.2329      3.2614      3.3137      3.3718      3.4014      3.3812      3.3228      3.2592      3.2166    
  3.2026      3.2166      3.2592      3.3228      3.3812      3.4014      3.3718      3.3137      3.2614      3.2329    
  3.4124      3.6344      3.8708      4.0760      4.1979      4.2020      4.0872      3.8850      3.6442      3.4111    
  3.2166      3.0755      2.9894      2.9476      2.9324      2.9314      2.9482      2.9974      3.0899      3.2286    
  4.0884      4.5690      5.0248      5.4285      5.5945      5.4221      5.0249      4.5846      4.1120      3.6442    
  3.2592      2.9894      2.8233      2.7350      2.7074      2.7376      2.8308      2.9983      3.2592      3.6285    
  5.4821      6.9672      8.7061      9.8905      9.8814      8.6871      6.9548      5.4855      4.5846      3.8850    
  3.3228      2.9476      2.7350      2.6419      2.6431      2.7374      2.9477      3.3161      3.8708      4.5702    
  10.681      15.475      19.577      21.189      19.565      15.454      10.658      6.9548      5.0249      4.0872    
  3.3812      2.9324      2.7074      2.6431      2.7089      2.9297      3.3721      4.0784      5.0265      6.9704    
  25.001      34.507      40.466      40.467      34.507      24.994      15.454      8.6871      5.4221      4.2020    
  3.4014      2.9314      2.7376      2.7374      2.9297      3.3981      4.2011      5.4291      8.7018      15.469    
  51.363      64.826      69.981      64.840      51.381      34.507      19.565      9.8814      5.5945      4.1979    
  3.3718      2.9482      2.8308      2.9477      3.3721      4.2011      5.6011      9.8880      19.565      34.496    
  87.828      101.87      101.87      87.829      64.840      40.467      21.189      9.8905      5.4285      4.0760    
  3.3137      2.9974      2.9983      3.3161      4.0784      5.4291      9.8880      21.184      40.462      64.837    
  126.83      136.26      126.79      101.87      69.981      40.466      19.577      8.7061      5.0248      3.8708    
  3.2614      3.0899      3.2592      3.8708      5.0265      8.7018      19.565      40.462      70.004      101.92    
  157.16      157.14      136.26      101.87      64.826      34.507      15.475      6.9672      4.5690      3.6344    
  3.2329      3.2286      3.6285      4.5702      6.9704      15.469      34.496      64.837      101.92      136.32    
  157.16      136.32      101.92      64.837      34.496      15.469      6.9704      4.5702      3.6285      3.2286    
  3.2329      3.6344      4.5690      6.9672      15.475      34.507      64.826      101.87      136.26      157.14    
  136.32      109.50      75.222      43.538      21.066      9.2469      5.1589      3.9453      3.3127      3.1385    
  3.3163      3.9448      5.1559      9.2553      21.088      43.544      75.178      109.41      136.25      146.48    
  101.92      75.222      47.001      24.617      11.276      5.8008      4.2333      3.4212      3.0802      3.0801    
  3.4191      4.2296      5.8031      11.291      24.635      47.000      75.189      101.87      118.24      118.27    
  64.837      43.538      24.617      12.094      6.2598      4.4360      3.5257      3.0514      2.9230      3.0537    
  3.5251      4.4302      6.2547      12.098      24.631      43.555      64.850      81.892      88.429      81.886    
  34.496      21.066      11.276      6.2598      4.5132      3.5995      3.0475      2.8244      2.8268      3.0513    
  3.5982      4.5042      6.2482      11.272      21.075      34.515      47.820      56.156      56.148      47.800    
  15.469      9.2469      5.8008      4.4360      3.5995      3.0536      2.7826      2.7049      2.7817      3.0554    
  3.6043      4.4373      5.7924      9.2314      15.456      23.205      29.740      32.301      29.739      23.210    
  6.9704      5.1589      4.2333      3.5257      3.0475      2.7826      2.6693      2.6673      2.7809      3.0535    
  3.5388      4.2437      5.1566      6.9552      9.9789      13.373      15.640      15.646      13.388      9.9986    
  4.5702      3.9453      3.4212      3.0514      2.8244      2.7049      2.6673      2.7032      2.8218      3.0517    
  3.4295      3.9615      4.5855      5.3173      6.3358      7.3291      7.7519      7.3392      6.3443      5.3133    
  3.6285      3.3127      3.0802      2.9230      2.8268      2.7817      2.7809      2.8218      2.9116      3.0694    
  3.3141      3.6452      4.0277      4.3976      4.6916      4.8741      4.8757      4.6907      4.3854      4.0065    
  3.2286      3.1385      3.0801      3.0537      3.0513      3.0554      3.0535      3.0517      3.0694      3.1229    
  3.2172      3.3493      3.5088      3.6709      3.7950      3.8398      3.7886      3.6611      3.5015      3.3506    
  3.2329      3.3163      3.4191      3.5251      3.5982      3.6043      3.5388      3.4295      3.3141      3.2172    
  3.1481      3.1113      3.1089      3.1298      3.1485      3.1447      3.1235      3.1102      3.1250      3.1686    
  3.6344      3.9448      4.2296      4.4302      4.5042      4.4373      4.2437      3.9615      3.6452      3.3493    
  3.1113      2.9452      2.8452      2.7950      2.7794      2.7944      2.8491      2.9555      3.1218      3.3506    
  4.5690      5.1559      5.8031      6.2547      6.2482      5.7924      5.1566      4.5855      4.0277      3.5088    
  3.1089      2.8452      2.6929      2.6238      2.6250      2.6970      2.8506      3.1088      3.4966      4.0065    
  6.9672      9.2553      11.291      12.098      11.272      9.2314      6.9552      5.3173      4.3976      3.6709    
  3.1298      2.7950      2.6238      2.5726      2.6252      2.7957      3.1263      3.6613      4.3858      5.3133    
  15.475      21.088      24.635      24.631      21.075      15.456      9.9789      6.3358      4.6916      3.7950    
  3.1485      2.7794      2.6250      2.6252      2.7780      3.1438      3.7899      4.6933      6.3482      9.9986    
  34.507      43.544      47.000      43.555      34.515      23.205      13.373      7.3291      4.8741      3.8398    
  3.1447      2.7944      2.6970      2.7957      3.1438      3.8371      4.8764      7.3406      13.387      23.210    
  64.826      75.178      75.189      64.850      47.820      29.740      15.640      7.7519      4.8757      3.7886    
  3.1235      2.8491      2.8506      3.1263      3.7899      4.8764      7.7541      15.641      29.732      47.800    
  101.87      109.41      101.87      81.892      56.156      32.301      15.646      7.3392      4.6907      3.6611    
  3.1102      2.9555      3.1088      3.6613      4.6933      7.3406      15.641      32.292      56.147      81.886    
  136.26      136.25      118.24      88.429      56.148      29.739      13.388      6.3443      4.3854      3.5015    
  3.1250      3.1218      3.4966      4.3858      6.3482      13.387      29.732      56.147      88.442      118.27    
  157.14      146.48      118.27      81.886      47.800      23.210      9.9986      5.3133      4.0065      3.3506    
  3.1686      3.3506      4.0065      5.3133      9.9986      23.210      47.800      81.886      118.27      146.48    
  126.83      101.92      70.004      40.462      19.565      8.7018      5.0265      3.8708      3.2592      3.0899    
  3.2614      3.8708      5.0248      8.7061      19.577      40.466      69.981      101.87      126.79      136.26    
  101.92      75.222      47.001      24.617      11.276      5.8008      4.2333      3.4212      3.0802      3.0801    
  3.4191      4.2296      5.8031      11.291      24.635      47.000      75.189      101.87      118.24      118.27    
  70.004      47.001      26.560      12.959      6.5261      4.5151      3.5807      3.0888      2.9555      3.0911    
  3.5796      4.5098      6.5260      12.972      26.582      47.015      70.004      88.435      95.520      88.442    
  40.462      24.617      12.959      6.8278      4.6752      3.7075      3.1129      2.8729      2.8758      3.1173    
  3.7056      4.6656      6.8189      12.963      24.640      40.497      56.179      66.020      66.007      56.147    
  19.565      11.276      6.5261      4.6752      3.7582      3.1397      2.8328      2.7478      2.8338      3.1412    
  3.7569      4.6672      6.5131      11.270      19.576      29.758      38.306      41.647      38.283      29.732    
  8.7018      5.8008      4.5151      3.7075      3.1397      2.8237      2.6926      2.6907      2.8218      3.1435    
  3.7148      4.5166      5.7910      8.6865      13.376      18.504      21.889      21.889      18.507      13.387    
  5.0265      4.2333      3.5807      3.1129      2.8328      2.6926      2.6494      2.6901      2.8331      3.1206    
  3.5936      4.2434      5.0261      6.3364      8.2679      10.097      10.859      10.109      8.2844      6.3482    
  3.8708      3.4212      3.0888      2.8729      2.7478      2.6907      2.6901      2.7454      2.8690      3.0884    
  3.4298      3.8869      4.3996      4.9016      5.4318      5.8186      5.8222      5.4369      4.8983      4.3858    
  3.2592      3.0802      2.9555      2.8758      2.8338      2.8218      2.8331      2.8690      2.9420      3.0691    
  3.2610      3.5110      3.7899      4.0497      4.2360      4.3044      4.2346      4.0413      3.7739      3.4966    
  3.0899      3.0801      3.0911      3.1173      3.1412      3.1435      3.1206      3.0884      3.0691      3.0760    
  3.1125      3.1784      3.2670      3.3571      3.4144      3.4122      3.3516      3.2624      3.1795      3.1218    
  3.2614      3.4191      3.5796      3.7056      3.7569      3.7148      3.5936      3.4298      3.2610      3.1125    
  2.9984      2.9259      2.8933      2.8854      2.8832      2.8812      2.8929      2.9357      3.0149      3.1250    
  3.8708      4.2296      4.5098      4.6656      4.6672      4.5166      4.2434      3.8869      3.5110      3.1784    
  2.9259      2.7591      2.6629      2.6191      2.6185      2.6634      2.7642      2.9331      3.1795      3.5015    
  5.0248      5.8031      6.5260      6.8189      6.5131      5.7910      5.0261      4.3996      3.7899      3.2670    
  2.8933      2.6629      2.5416      2.5044      2.5437      2.6657      2.8929      3.2584      3.7739      4.3854    
  8.7061      11.291      12.972      12.963      11.270      8.6865      6.3364      4.9016      4.0497      3.3571    
  2.8854      2.6191      2.5044      2.5049      2.6199      2.8840      3.3519      4.0423      4.8983      6.3443    
  19.577      24.635      26.582      24.640      19.576      13.376      8.2679      5.4318      4.2360      3.4144    
  2.8832      2.6185      2.5437      2.6199      2.8819      3.4103      4.2360      5.4420      8.2844      13.388    
  40.466      47.000      47.015      40.497      29.758      18.504      10.097      5.8186      4.3044      3.4122    
  2.8812      2.6634      2.6657      2.8840      3.4103      4.3021      5.8248      10.110      18.507      29.739    
  69.981      75.189      70.004      56.179      38.306      21.889      10.859      5.8222      4.2346      3.3516    
  2.8929      2.7642      2.8929      3.3519      4.2360      5.8248      10.859      21.881      38.283      56.148    
  101.87      101.87      88.435      66.020      41.647      21.889      10.109      5.4369      4.0413      3.2624    
  2.9357      2.9331      3.2584      4.0423      5.4420      10.110      21.881      41.633      66.007      88.429    
  126.79      118.24      95.520      66.007      38.283      18.507      8.2844      4.8983      3.7739      3.1795    
  3.0149      3.1795      3.7739      4.8983      8.2844      18.507      38.283      66.007      95.520      118.24    
  136.26      118.27      88.442      56.147      29.732      13.387      6.3482      4.3858      3.4966      3.1218    
  3.1250      3.5015      4.3854      6.3443      13.388      29.739      56.148      88.429      118.24      136.25    
  87.828      64.837      40.462      21.184      9.8880      5.4291      4.0784      3.3161      2.9983      2.9974    
  3.3137      4.0760      5.4285      9.8905      21.189      40.467      64.840      87.829      101.87      101.87    
  64.837      43.538      24.617      12.094      6.2598      4.4360      3.5257      3.0514      2.9230      3.0537    
  3.5251      4.4302      6.2547      12.098      24.631      43.555      64.850      81.892      88.429      81.886    
  40.462      24.617      12.959      6.8278      4.6752      3.7075      3.1129      2.8729      2.8758      3.1173    
  3.7056      4.6656      6.8189      12.963      24.640      40.497      56.179      66.020      66.007      56.147    
  21.184      12.094      6.8278      4.7609      3.8117      3.1697      2.8515      2.7638      2.8523      3.1718    
  3.8113      4.7516      6.8116      12.088      21.205      32.336      41.670      45.315      41.633      32.292    
  9.8880      6.2598      4.6752      3.8117      3.1916      2.8466      2.7072      2.7056      2.8459      3.1955    
  3.8139      4.6653      6.2394      9.8754      15.651      21.905      26.013      26.000      21.881      15.641    
  5.4291      4.4360      3.7075      3.1697      2.8466      2.6895      2.6428      2.6873      2.8474      3.1758    
  3.7138      4.4344      5.4181      7.3262      10.100      12.679      13.739      12.684      10.110      7.3406    
  4.0784      3.5257      3.1129      2.8515      2.7072      2.6428      2.6411      2.7043      2.8524      3.1204    
  3.5372      4.0869      4.6923      5.4313      6.3334      6.9953      7.0012      6.3466      5.4420      4.6933    
  3.3161      3.0514      2.8729      2.7638      2.7056      2.6873      2.7043      2.7600      2.8682      3.0510    
  3.3236      3.6735      4.0514      4.3868      4.6208      4.7120      4.6229      4.3851      4.0423      3.6613    
  2.9983      2.9230      2.8758      2.8523      2.8459      2.8474      2.8524      2.8682      2.9093      2.9886    
  3.1106      3.2688      3.4423      3.5957      3.6873      3.6865      3.5911      3.4323      3.2584      3.1088    
  2.9974      3.0537      3.1173      3.1718      3.1955      3.1758      3.1204      3.0510      2.9886      2.9451    
  2.9264      2.9350      2.9654      2.9991      3.0128      2.9965      2.9628      2.9361      2.9331      2.9555    
  3.3137      3.5251      3.7056      3.8113      3.8139      3.7138      3.5372      3.3236      3.1106      2.9264    
  2.7873      2.6977      2.6501      2.6299      2.6280      2.6482      2.7025      2.7985      2.9357      3.1102    
  4.0760      4.4302      4.6656      4.7516      4.6653      4.4344      4.0869      3.6735      3.2688      2.9350    
  2.6977      2.5495      2.4699      2.4441      2.4690      2.5506      2.7013      2.9361      3.2624      3.6611    
  5.4285      6.2547      6.8189      6.8116      6.2394      5.4181      4.6923      4.0514      3.4423      2.9654    
  2.6501      2.4699      2.3893      2.3899      2.4710      2.6498      2.9605      3.4323      4.0413      4.6907    
  9.8905      12.098      12.963      12.088      9.8754      7.3262      5.4313      4.3868      3.5957      2.9991    
  2.6299      2.4441      2.3899      2.4458      2.6304      2.9961      3.5909      4.3851      5.4369      7.3392    
  21.189      24.631      24.640      21.205      15.651      10.100      6.3334      4.6208      3.6873      3.0128    
  2.6280      2.4690      2.4710      2.6304      3.0110      3.6848      4.6259      6.3466      10.109      15.646    
  40.467      43.555      40.497      32.336      21.905      12.679      6.9953      4.7120      3.6865      2.9965    
  2.6482      2.5506      2.6498      2.9961      3.6848      4.7150      7.0048      12.684      21.889      32.301    
  64.840      64.850      56.179      41.670      26.013      13.739      7.0012      4.6229      3.5911      2.9628    
  2.7025      2.7013      2.9605      3.5909      4.6259      7.0048      13.737      26.000      41.647      56.156    
  87.829      81.892      66.020      45.315      26.000      12.684      6.3466      4.3851      3.4323      2.9361    
  2.7985      2.9361      3.4323      4.3851      6.3466      12.684      26.000      45.315      66.020      81.892    
  101.87      88.429      66.007      41.633      21.881      10.110      5.4420      4.0423      3.2584      2.9331    
  2.9357      3.2624      4.0413      5.4369      10.109      21.889      41.647      66.020      88.435      101.87    
  101.87      81.886      56.147      32.292      15.641      7.3406      4.6933      3.6613      3.1088      2.9555    
  3.1102      3.6611      4.6907      7.3392      15.646      32.301      56.156      81.892      101.87      109.41    
  51.363      34.496      19.565      9.8880      5.6011      4.2011      3.3721      2.9477      2.8308      2.9482    
  3.3718      4.1979      5.5945      9.8814      19.565      34.507      51.381      64.840      69.981      64.826    
  34.496      21.066      11.276      6.2598      4.5132      3.5995      3.0475      2.8244      2.8268      3.0513    
  3.5982      4.5042      6.2482      11.272      21.075      34.515      47.820      56.156      56.148      47.800    
  19.565      11.276      6.5261      4.6752      3.7582      3.1397      2.8328      2.7478      2.8338      3.1412    
  3.7569      4.6672      6.5131      11.270      19.576      29.758      38.306      41.647      38.283      29.732    
  9.8880      6.2598      4.6752      3.8117      3.1916      2.8466      2.7072      2.7056      2.8459      3.1955    
  3.8139      4.6653      6.2394      9.8754      15.651      21.905      26.013      26.000      21.881      15.641    
  5.6011      4.5132      3.7582      3.1916      2.8509      2.6886      2.6421      2.6878      2.8534      3.1970    
  3.7583      4.5015      5.5829      7.7426      10.860      13.744      14.921      13.737      10.859      7.7541    
  4.2011      3.5995      3.1397      2.8466      2.6886      2.6216      2.6208      2.6879      2.8487      3.1444    
  3.6032      4.1997      4.8686      5.8134      6.9948      7.8551      7.8590      7.0048      5.8248      4.8764    
  3.3721      3.0475      2.8328      2.7072      2.6421      2.6208      2.6396      2.7048      2.8339      3.0533    
  3.3803      3.7955      4.2347      4.6190      4.9218      5.0503      4.9283      4.6259      4.2360      3.7899    
  2.9477      2.8244      2.7478      2.7056      2.6878      2.6879      2.7048      2.7445      2.8202      2.9466    
  3.1305      3.3588      3.5960      3.7934      3.9058      3.9057      3.7917      3.5909      3.3519      3.1263    
  2.8308      2.8268      2.8338      2.8459      2.8534      2.8487      2.8339      2.8202      2.8206      2.8438    
  2.8933      2.9657      3.0475      3.1141      3.1394      3.1116      3.0424      2.9605      2.8929      2.8506    
  2.9482      3.0513      3.1412      3.1955      3.1970      3.1444      3.0533      2.9466      2.8438      2.7578    
  2.6969      2.6644      2.6546      2.6546      2.6537      2.6532      2.6652      2.7013      2.7642      2.8491    
  3.3718      3.5982      3.7569      3.8139      3.7583      3.6032      3.3803      3.1305      2.8933      2.6969    
  2.5540      2.4627      2.4134      2.3970      2.4120      2.4640      2.5596      2.7025      2.8929      3.1235    
  4.1979      4.5042      4.6672      4.6653      4.5015      4.1997      3.7955      3.3588      2.9657      2.6644    
  2.4627      2.3437      2.2882      2.2875      2.3430      2.4636      2.6652      2.9628      3.3516      3.7886    
  5.5945      6.2482      6.5131      6.2394      5.5829      4.8686      4.2347      3.5960      3.0475      2.6546    
  2.4134      2.2882      2.2501      2.2889      2.4132      2.6521      3.0424      3.5911      4.2346      4.8757    
  9.8814      11.272      11.270      9.8754      7.7426      5.8134      4.6190      3.7934      3.1141      2.6546    
  2.3970      2.2875      2.2889      2.3989      2.6539      3.1108      3.7917      4.6229      5.8222      7.7519    
  19.565      21.075      19.576      15.651      10.860      6.9948      4.9218      3.9058      3.1394      2.6537    
  2.4120      2.3430      2.4132      2.6539      3.1385      3.9075      4.9283      7.0012      10.859      15.640    
  34.507      34.515      29.758      21.905      13.744      7.8551      5.0503      3.9057      3.1116      2.6532    
  2.4640      2.4636      2.6521      3.1108      3.9075      5.0553      7.8590      13.739      21.889      29.740    
  51.381      47.820      38.306      26.013      14.921      7.8590      4.9283      3.7917      3.0424      2.6652    
  2.5596      2.6652      3.0424      3.7917      4.9283      7.8590      14.921      26.013      38.306      47.820    
  64.840      56.156      41.647      26.000      13.737      7.0048      4.6259      3.5909      2.9605      2.7013    
  2.7025      2.9628      3.5911      4.6229      7.0012      13.739      26.013      41.670      56.179      64.850    
  69.981      56.148      38.283      21.881      10.859      5.8248      4.2360      3.3519      2.8929      2.7642    
  2.8929      3.3516      4.2346      5.8222      10.859      21.889      38.306      56.179      70.004      75.189    
  64.826      47.800      29.732      15.641      7.7541      4.8764      3.7899      3.1263      2.8506      2.8491    
  3.1235      3.7886      4.8757      7.7519      15.640      29.740      47.820      64.850      75.189      75.178    
  25.001      15.469      8.7018      5.4291      4.2011      3.3981      2.9297      2.7374      2.7376      2.9314    
  3.4014      4.2020      5.4221      8.6871      15.454      24.994      34.507      40.467      40.466      34.507    
  15.469      9.2469      5.8008      4.4360      3.5995      3.0536      2.7826      2.7049      2.7817      3.0554    
  3.6043      4.4373      5.7924      9.2314      15.456      23.205      29.740      32.301      29.739      23.210    
  8.7018      5.8008      4.5151      3.7075      3.1397      2.8237      2.6926      2.6907      2.8218      3.1435    
  3.7148      4.5166      5.7910      8.6865      13.376      18.504      21.889      21.889      18.507      13.387    
  5.4291      4.4360      3.7075      3.1697      2.8466      2.6895      2.6428      2.6873      2.8474      3.1758    
  3.7138      4.4344      5.4181      7.3262      10.100      12.679      13.739      12.684      10.110      7.3406    
  4.2011      3.5995      3.1397      2.8466      2.6886      2.6216      2.6208      2.6879      2.8487      3.1444    
  3.6032      4.1997      4.8686      5.8134      6.9948      7.8551      7.8590      7.0048      5.8248      4.8764    
  3.3981      3.0536      2.8237      2.6895      2.6216      2.6007      2.6209      2.6886      2.8242      3.0569    
  3.4036      3.8409      4.2997      4.7070      5.0479      5.1953      5.0553      4.7150      4.3021      3.8371    
  2.9297      2.7826      2.6926      2.6428      2.6208      2.6209      2.6423      2.6911      2.7820      2.9327    
  3.1501      3.4157      3.6850      3.9038      4.0272      4.0294      3.9075      3.6848      3.4103      3.1438    
  2.7374      2.7049      2.6907      2.6873      2.6879      2.6886      2.6911      2.7029      2.7343      2.7944    
  2.8857      2.9993      3.1134      3.1987      3.2302      3.1976      3.1108      2.9961      2.8840      2.7957    
  2.7376      2.7817      2.8218      2.8474      2.8487      2.8242      2.7820      2.7343      2.6916      2.6614    
  2.6486      2.6538      2.6696      2.6821      2.6809      2.6669      2.6521      2.6498      2.6657      2.6970    
  2.9314      3.0554      3.1435      3.1758      3.1444      3.0569      2.9327      2.7944      2.6614      2.5476    
  2.4614      2.4051      2.3750      2.3655      2.3745      2.4055      2.4636      2.5506      2.6634      2.7944    
  3.4014      3.6043      3.7148      3.7138      3.6032      3.4036      3.1501      2.8857      2.6486      2.4614    
  2.3292      2.2465      2.2063      2.2059      2.2465      2.3313      2.4640      2.6482      2.8812      3.1447    
  4.2020      4.4373      4.5166      4.4344      4.1997      3.8409      3.4157      2.9993      2.6538      2.4051    
  2.2465      2.1596      2.1316      2.1589      2.2462      2.4055      2.6532      2.9965      3.4122      3.8398    
  5.4221      5.7924      5.7910      5.4181      4.8686      4.2997      3.6850      3.1134      2.6696      2.3750    
  2.2063      2.1316      2.1322      2.2071      2.3740      2.6669      3.1116      3.6865      4.3044      4.8741    
  8.6871      9.2314      8.6865      7.3262      5.8134      4.7070      3.9038      3.1987      2.6821      2.3655    
  2.2059      2.1589      2.2071      2.3660      2.6808      3.1976      3.9057      4.7120      5.8186      7.3291    
  15.454      15.456      13.376      10.100      6.9948      5.0479      4.0272      3.2302      2.6809      2.3745    
  2.2465      2.2462      2.3740      2.6808      3.2312      4.0294      5.0503      6.9953      10.097      13.373    
  24.994      23.205      18.504      12.679      7.8551      5.1953      4.0294      3.1976      2.6669      2.4055    
  2.3313      2.4055      2.6669      3.1976      4.0294      5.1953      7.8551      12.679      18.504      23.205    
  34.507      29.740      21.889      13.739      7.8590      5.0553      3.9075      3.1108      2.6521      2.4636    
  2.4640      2.6532      3.1116      3.9057      5.0503      7.8551      13.744      21.905      29.758      34.515    
  40.467      32.301      21.889      12.684      7.0048      4.7150      3.6848      2.9961      2.6498      2.5506    
  2.6482      2.9965      3.6865      4.7120      6.9953      12.679      21.905      32.336      40.497      43.555    
  40.466      29.739      18.507      10.110      5.8248      4.3021      3.4103      2.8840      2.6657      2.6634    
  2.8812      3.4122      4.3044      5.8186      10.097      18.504      29.758      40.497      47.015      47.000    
  34.507      23.210      13.387      7.3406      4.8764      3.8371      3.1438      2.7957      2.6970      2.7944    
  3.1447      3.8398      4.8741      7.3291      13.373      23.205      34.515      43.555      47.000      43.544    
  10.681      6.9704      5.0265      4.0784      3.3721      2.9297      2.7089      2.6431      2.7074      2.9324    
  3.3812      4.0872      5.0249      6.9548      10.658      15.454      19.565      21.189      19.577      15.475    
  6.9704      5.1589      4.2333      3.5257      3.0475      2.7826      2.6693      2.6673      2.7809      3.0535    
  3.5388      4.2437      5.1566      6.9552      9.9789      13.373      15.640      15.646      13.388      9.9986    
  5.0265      4.2333      3.5807      3.1129      2.8328      2.6926      2.6494      2.6901      2.8331      3.1206    