fcc Ni                                  
   3.65000000000000     
     0.000000    0.500000    0.500000
     0.500000    0.000000    0.500000
     0.500000    0.500000    0.000000
   Ni
     1
Direct
  0.000000  0.000000  0.000000
 
   20   20   20
 0.16865232346E+03 0.15716450619E+03 0.12682848425E+03 0.87828101638E+02 0.51362925391E+02
 0.25001123281E+02 0.10681416544E+02 0.54821473076E+01 0.40883522655E+01 0.34124234817E+01
 0.32250544162E+01 0.34124234817E+01 0.40883522655E+01 0.54821473076E+01 0.10681416544E+02
 0.25001123281E+02 0.51362925391E+02 0.87828101638E+02 0.12682848425E+03 0.15716450619E+03
 0.15716450619E+03 0.13631893292E+03 0.10191602427E+03 0.64836709641E+02 0.34495807002E+02
 0.15468886933E+02 0.69703911120E+01 0.45701654312E+01 0.36285254181E+01 0.32286453077E+01
 0.32328622915E+01 0.36344485903E+01 0.45690096223E+01 0.69671637769E+01 0.15475228445E+02
 0.34506578112E+02 0.64826329858E+02 0.10186852999E+03 0.13625703137E+03 0.15713565488E+03
 0.12682848425E+03 0.10191602427E+03 0.70004322247E+02 0.40461528480E+02 0.19564794434E+02
 0.87017520280E+01 0.50265369026E+01 0.38708345324E+01 0.32591578642E+01 0.30899203534E+01
 0.32614313558E+01 0.38707697925E+01 0.50247694297E+01 0.87060830175E+01 0.19576733333E+02
 0.40465677060E+02 0.69981197474E+02 0.10186856817E+03 0.12678845133E+03 0.13625703137E+03
 0.87828101638E+02 0.64836709641E+02 0.40461528480E+02 0.21183568314E+02 0.98880044998E+01
 0.54291124014E+01 0.40783818825E+01 0.33160920017E+01 0.29983027795E+01 0.29973661922E+01
 0.33137456731E+01 0.40759705555E+01 0.54284909911E+01 0.98905053510E+01 0.21188742757E+02
 0.40467057321E+02 0.64840201357E+02 0.87829156458E+02 0.10186856817E+03 0.10186852999E+03
 0.51362925391E+02 0.34495807002E+02 0.19564794434E+02 0.98880044998E+01 0.56011486835E+01
 0.42011461462E+01 0.33720887593E+01 0.29477019011E+01 0.28308203782E+01 0.29482250146E+01
 0.33717609151E+01 0.41979094823E+01 0.55944887714E+01 0.98814338914E+01 0.19564952636E+02
 0.34506867178E+02 0.51380930534E+02 0.64840201357E+02 0.69981197474E+02 0.64826329858E+02
 0.25001123281E+02 0.15468886933E+02 0.87017520280E+01 0.54291124014E+01 0.42011461462E+01
 0.33980732092E+01 0.29297186102E+01 0.27374174697E+01 0.27376434079E+01 0.29313834816E+01
 0.34013665193E+01 0.42020060213E+01 0.54221102778E+01 0.86871086051E+01 0.15454139440E+02
 0.24993920394E+02 0.34506867178E+02 0.40467057321E+02 0.40465677060E+02 0.34506578112E+02
 0.10681416544E+02 0.69703911120E+01 0.50265369026E+01 0.40783818825E+01 0.33720887593E+01
 0.29297186102E+01 0.27088563266E+01 0.26431042741E+01 0.27074118573E+01 0.29324094442E+01
 0.33811858970E+01 0.40872067147E+01 0.50249190841E+01 0.69547688421E+01 0.10658013220E+02
 0.15454139440E+02 0.19564952636E+02 0.21188742757E+02 0.19576733333E+02 0.15475228445E+02
 0.54821473076E+01 0.45701654312E+01 0.38708345324E+01 0.33160920017E+01 0.29477019011E+01
 0.27374174697E+01 0.26431042741E+01 0.26419061777E+01 0.27349871204E+01 0.29476200314E+01
 0.33228271730E+01 0.38850070173E+01 0.45846017668E+01 0.54855039644E+01 0.69547688421E+01
 0.86871086051E+01 0.98814338914E+01 0.98905053510E+01 0.87060830175E+01 0.69671637769E+01
 0.40883522655E+01 0.36285254181E+01 0.32591578642E+01 0.29983027795E+01 0.28308203782E+01
 0.27376434079E+01 0.27074118573E+01 0.27349871204E+01 0.28233298313E+01 0.29893622198E+01
 0.32592316945E+01 0.36442144552E+01 0.41120339147E+01 0.45846017668E+01 0.50249190841E+01
 0.54221102778E+01 0.55944887714E+01 0.54284909911E+01 0.50247694297E+01 0.45690096223E+01
 0.34124234817E+01 0.32286453077E+01 0.30899203534E+01 0.29973661922E+01 0.29482250146E+01
 0.29313834816E+01 0.29324094442E+01 0.29476200314E+01 0.29893622198E+01 0.30755400274E+01
 0.32166290539E+01 0.34110827875E+01 0.36442144552E+01 0.38850070173E+01 0.40872067147E+01
 0.42020060213E+01 0.41979094823E+01 0.40759705555E+01 0.38707697925E+01 0.36344485903E+01
 0.32250544162E+01 0.32328622915E+01 0.32614313558E+01 0.33137456731E+01 0.33717609151E+01
 0.34013665193E+01 0.33811858970E+01 0.33228271730E+01 0.32592316945E+01 0.32166290539E+01
 0.32025872808E+01 0.32166290539E+01 0.32592316945E+01 0.33228271730E+01 0.33811858970E+01
 0.34013665193E+01 0.33717609151E+01 0.33137456731E+01 0.32614313558E+01 0.32328622915E+01
 0.34124234817E+01 0.36344485903E+01 0.38707697925E+01 0.40759705555E+01 0.41979094823E+01
 0.42020060213E+01 0.40872067147E+01 0.38850070173E+01 0.36442144552E+01 0.34110827875E+01
 0.32166290539E+01 0.30755400274E+01 0.29893622198E+01 0.29476200314E+01 0.29324094442E+01
 0.29313834816E+01 0.29482250146E+01 0.29973661922E+01 0.30899203534E+01 0.32286453077E+01
 0.40883522655E+01 0.45690096223E+01 0.50247694297E+01 0.54284909911E+01 0.55944887714E+01
 0.54221102778E+01 0.50249190841E+01 0.45846017668E+01 0.41120339147E+01 0.36442144552E+01
 0.32592316945E+01 0.29893622198E+01 0.28233298313E+01 0.27349871204E+01 0.27074118573E+01
 0.27376434079E+01 0.28308203782E+01 0.29983027795E+01 0.32591578642E+01 0.36285254181E+01
 0.54821473076E+01 0.69671637769E+01 0.87060830175E+01 0.98905053510E+01 0.98814338914E+01
 0.86871086051E+01 0.69547688421E+01 0.54855039644E+01 0.45846017668E+01 0.38850070173E+01
 0.33228271730E+01 0.29476200314E+01 0.27349871204E+01 0.26419061777E+01 0.26431042741E+01
 0.27374174697E+01 0.29477019011E+01 0.33160920017E+01 0.38708345324E+01 0.45701654312E+01
 0.10681416544E+02 0.15475228445E+02 0.19576733333E+02 0.21188742757E+02 0.19564952636E+02
 0.15454139440E+02 0.10658013220E+02 0.69547688421E+01 0.50249190841E+01 0.40872067147E+01
 0.33811858970E+01 0.29324094442E+01 0.27074118573E+01 0.26431042741E+01 0.27088563266E+01
 0.29297186102E+01 0.33720887593E+01 0.40783818825E+01 0.50265369026E+01 0.69703911120E+01
 0.25001123281E+02 0.34506578112E+02 0.40465677060E+02 0.40467057321E+02 0.34506867178E+02
 0.24993920394E+02 0.15454139440E+02 0.86871086051E+01 0.54221102778E+01 0.42020060213E+01
 0.34013665193E+01 0.29313834816E+01 0.27376434079E+01 0.27374174697E+01 0.29297186102E+01
 0.33980732092E+01 0.42011461462E+01 0.54291124014E+01 0.87017520280E+01 0.15468886933E+02
 0.51362925391E+02 0.64826329858E+02 0.69981197474E+02 0.64840201357E+02 0.51380930534E+02
 0.34506867178E+02 0.19564952636E+02 0.98814338914E+01 0.55944887714E+01 0.41979094823E+01
 0.33717609151E+01 0.29482250146E+01 0.28308203782E+01 0.29477019011E+01 0.33720887593E+01
 0.42011461462E+01 0.56011486835E+01 0.98880044998E+01 0.19564794434E+02 0.34495807002E+02
 0.87828101638E+02 0.10186852999E+03 0.10186856817E+03 0.87829156458E+02 0.64840201357E+02
 0.40467057321E+02 0.21188742757E+02 0.98905053510E+01 0.54284909911E+01 0.40759705555E+01
 0.33137456731E+01 0.29973661922E+01 0.29983027795E+01 0.33160920017E+01 0.40783818825E+01
 0.54291124014E+01 0.98880044998E+01 0.21183568314E+02 0.40461528480E+02 0.64836709641E+02
 0.12682848425E+03 0.13625703137E+03 0.12678845133E+03 0.10186856817E+03 0.69981197474E+02
 0.40465677060E+02 0.19576733333E+02 0.87060830175E+01 0.50247694297E+01 0.38707697925E+01
 0.32614313558E+01 0.30899203534E+01 0.32591578642E+01 0.38708345324E+01 0.50265369026E+01
 0.87017520280E+01 0.19564794434E+02 0.40461528480E+02 0.70004322247E+02 0.10191602427E+03
 0.15716450619E+03 0.15713565488E+03 0.13625703137E+03 0.10186852999E+03 0.64826329858E+02
 0.34506578112E+02 0.15475228445E+02 0.69671637769E+01 0.45690096223E+01 0.36344485903E+01
 0.32328622915E+01 0.32286453077E+01 0.36285254181E+01 0.45701654312E+01 0.69703911120E+01
 0.15468886933E+02 0.34495807002E+02 0.64836709641E+02 0.10191602427E+03 0.13631893292E+03
 0.15716450619E+03 0.13631893292E+03 0.10191602427E+03 0.64836709641E+02 0.34495807002E+02
 0.15468886933E+02 0.69703911120E+01 0.45701654312E+01 0.36285254181E+01 0.32286453077E+01
 0.32328622915E+01 0.36344485903E+01 0.45690096223E+01 0.69671637769E+01 0.15475228445E+02
 0.34506578112E+02 0.64826329858E+02 0.10186852999E+03 0.13625703137E+03 0.15713565488E+03
 0.13631893292E+03 0.10949742868E+03 0.75221691767E+02 0.43537843559E+02 0.21066309312E+02
 0.92468764417E+01 0.51588538538E+01 0.39453086325E+01 0.33127309427E+01 0.31384537117E+01
 0.33162743244E+01 0.39447653506E+01 0.51559381979E+01 0.92553376929E+01 0.21087902664E+02
 0.43544303539E+02 0.75178467555E+02 0.10941075573E+03 0.13624633452E+03 0.14647534872E+03
 0.10191602427E+03 0.75221691767E+02 0.47000998444E+02 0.24616830109E+02 0.11276246313E+02
 0.58007543446E+01 0.42333165250E+01 0.34212022138E+01 0.30802349702E+01 0.30800625151E+01
 0.34190981600E+01 0.42296367388E+01 0.58031241289E+01 0.11291258540E+02 0.24635327785E+02
 0.47000012399E+02 0.75188901554E+02 0.10187017430E+03 0.11824448691E+03 0.11826613614E+03
 0.64836709641E+02 0.43537843559E+02 0.24616830109E+02 0.12094286049E+02 0.62598098670E+01
 0.44359728644E+01 0.35257201175E+01 0.30513857054E+01 0.29229739593E+01 0.30536839265E+01
 0.35251227075E+01 0.44302403775E+01 0.62546724469E+01 0.12098022864E+02 0.24630927578E+02
 0.43555323628E+02 0.64849547109E+02 0.81892093512E+02 0.88428644225E+02 0.81886381009E+02
 0.34495807002E+02 0.21066309312E+02 0.11276246313E+02 0.62598098670E+01 0.45132412104E+01
 0.35995297824E+01 0.30475385544E+01 0.28243817442E+01 0.28267574803E+01 0.30513019851E+01
 0.35981709788E+01 0.45042268837E+01 0.62482316825E+01 0.11271555179E+02 0.21074894971E+02
 0.34515342878E+02 0.47819653614E+02 0.56156491503E+02 0.56148089205E+02 0.47799681877E+02
 0.15468886933E+02 0.92468764417E+01 0.58007543446E+01 0.44359728644E+01 0.35995297824E+01
 0.30535825005E+01 0.27826099158E+01 0.27049251817E+01 0.27817010758E+01 0.30554151049E+01
 0.36043268882E+01 0.44373333236E+01 0.57924376929E+01 0.92313575703E+01 0.15455803753E+02
 0.23205323834E+02 0.29739643541E+02 0.32301272423E+02 0.29738570061E+02 0.23209714566E+02
 0.69703911120E+01 0.51588538538E+01 0.42333165250E+01 0.35257201175E+01 0.30475385544E+01
 0.27826099158E+01 0.26693265056E+01 0.26672750300E+01 0.27809364576E+01 0.30535257122E+01
 0.35388424106E+01 0.42436623324E+01 0.51566200712E+01 0.69552155056E+01 0.99788533212E+01
 0.13372670216E+02 0.15640248649E+02 0.15645607822E+02 0.13387639392E+02 0.99985724927E+01
 0.45701654312E+01 0.39453086325E+01 0.34212022138E+01 0.30513857054E+01 0.28243817442E+01
 0.27049251817E+01 0.26672750300E+01 0.27031736910E+01 0.28217528257E+01 0.30516810083E+01
 0.34294943158E+01 0.39614655543E+01 0.45855022326E+01 0.53173337056E+01 0.63358294278E+01
 0.73290824733E+01 0.77518935916E+01 0.73392085058E+01 0.63442990649E+01 0.53133496791E+01
 0.36285254181E+01 0.33127309427E+01 0.30802349702E+01 0.29229739593E+01 0.28267574803E+01
 0.27817010758E+01 0.27809364576E+01 0.28217528257E+01 0.29116189237E+01 0.30693570224E+01
 0.33140799442E+01 0.36452202782E+01 0.40276997051E+01 0.43975807126E+01 0.46916280888E+01
 0.48741286890E+01 0.48756963066E+01 0.46906604208E+01 0.43854043181E+01 0.40064756861E+01
 0.32286453077E+01 0.31384537117E+01 0.30800625151E+01 0.30536839265E+01 0.30513019851E+01
 0.30554151049E+01 0.30535257122E+01 0.30516810083E+01 0.30693570224E+01 0.31228869307E+01
 0.32172497509E+01 0.33493464873E+01 0.35087969024E+01 0.36709156352E+01 0.37949826938E+01
 0.38398156715E+01 0.37885618761E+01 0.36610921298E+01 0.35014514209E+01 0.33506445807E+01
 0.32328622915E+01 0.33162743244E+01 0.34190981600E+01 0.35251227075E+01 0.35981709788E+01
 0.36043268882E+01 0.35388424106E+01 0.34294943158E+01 0.33140799442E+01 0.32172497509E+01
 0.31481319214E+01 0.31113415943E+01 0.31088955014E+01 0.31297926223E+01 0.31485447017E+01
 0.31447252204E+01 0.31234604606E+01 0.31101725385E+01 0.31250363723E+01 0.31686227800E+01
 0.36344485903E+01 0.39447653506E+01 0.42296367388E+01 0.44302403775E+01 0.45042268837E+01
 0.44373333236E+01 0.42436623324E+01 0.39614655543E+01 0.36452202782E+01 0.33493464873E+01
 0.31113415943E+01 0.29451705537E+01 0.28451881654E+01 0.27950369647E+01 0.27793710168E+01
 0.27944469649E+01 0.28490611526E+01 0.29554868904E+01 0.31218260043E+01 0.33506445807E+01
 0.45690096223E+01 0.51559381979E+01 0.58031241289E+01 0.62546724469E+01 0.62482316825E+01
 0.57924376929E+01 0.51566200712E+01 0.45855022326E+01 0.40276997051E+01 0.35087969024E+01
 0.31088955014E+01 0.28451881654E+01 0.26928910857E+01 0.26237770276E+01 0.26250117463E+01
 0.26970474776E+01 0.28506338781E+01 0.31088473234E+01 0.34965657313E+01 0.40064756861E+01
 0.69671637769E+01 0.92553376929E+01 0.11291258540E+02 0.12098022864E+02 0.11271555179E+02
 0.92313575703E+01 0.69552155056E+01 0.53173337056E+01 0.43975807126E+01 0.36709156352E+01
 0.31297926223E+01 0.27950369647E+01 0.26237770276E+01 0.25725503810E+01 0.26251538533E+01
 0.27957045340E+01 0.31262654116E+01 0.36612862656E+01 0.43857939216E+01 0.53133496791E+01
 0.15475228445E+02 0.21087902664E+02 0.24635327785E+02 0.24630927578E+02 0.21074894971E+02
 0.15455803753E+02 0.99788533212E+01 0.63358294278E+01 0.46916280888E+01 0.37949826938E+01
 0.31485447017E+01 0.27793710168E+01 0.26250117463E+01 0.26251538533E+01 0.27780149114E+01
 0.31437834802E+01 0.37899317142E+01 0.46932693748E+01 0.63481606491E+01 0.99985724927E+01
 0.34506578112E+02 0.43544303539E+02 0.47000012399E+02 0.43555323628E+02 0.34515342878E+02
 0.23205323834E+02 0.13372670216E+02 0.73290824733E+01 0.48741286890E+01 0.38398156715E+01
 0.31447252204E+01 0.27944469649E+01 0.26970474776E+01 0.27957045340E+01 0.31437834802E+01
 0.38371437115E+01 0.48764053020E+01 0.73405638535E+01 0.13386754564E+02 0.23209714566E+02
 0.64826329858E+02 0.75178467555E+02 0.75188901554E+02 0.64849547109E+02 0.47819653614E+02
 0.29739643541E+02 0.15640248649E+02 0.77518935916E+01 0.48756963066E+01 0.37885618761E+01
 0.31234604606E+01 0.28490611526E+01 0.28506338781E+01 0.31262654116E+01 0.37899317142E+01
 0.48764053020E+01 0.77540790668E+01 0.15641250887E+02 0.29731843202E+02 0.47799681877E+02
 0.10186852999E+03 0.10941075573E+03 0.10187017430E+03 0.81892093512E+02 0.56156491503E+02
 0.32301272423E+02 0.15645607822E+02 0.73392085058E+01 0.46906604208E+01 0.36610921298E+01
 0.31101725385E+01 0.29554868904E+01 0.31088473234E+01 0.36612862656E+01 0.46932693748E+01
 0.73405638535E+01 0.15641250887E+02 0.32291527900E+02 0.56146530667E+02 0.81886381009E+02
 0.13625703137E+03 0.13624633452E+03 0.11824448691E+03 0.88428644225E+02 0.56148089205E+02
 0.29738570061E+02 0.13387639392E+02 0.63442990649E+01 0.43854043181E+01 0.35014514209E+01
 0.31250363723E+01 0.31218260043E+01 0.34965657313E+01 0.43857939216E+01 0.63481606491E+01
 0.13386754564E+02 0.29731843202E+02 0.56146530667E+02 0.88442083435E+02 0.11826613614E+03
 0.15713565488E+03 0.14647534872E+03 0.11826613614E+03 0.81886381009E+02 0.47799681877E+02
 0.23209714566E+02 0.99985724927E+01 0.53133496791E+01 0.40064756861E+01 0.33506445807E+01
 0.31686227800E+01 0.33506445807E+01 0.40064756861E+01 0.53133496791E+01 0.99985724927E+01
 0.23209714566E+02 0.47799681877E+02 0.81886381009E+02 0.11826613614E+03 0.14647534872E+03
 0.12682848425E+03 0.10191602427E+03 0.70004322247E+02 0.40461528480E+02 0.19564794434E+02
 0.87017520280E+01 0.50265369026E+01 0.38708345324E+01 0.32591578642E+01 0.30899203534E+01
 0.32614313558E+01 0.38707697925E+01 0.50247694297E+01 0.87060830175E+01 0.19576733333E+02
 0.40465677060E+02 0.69981197474E+02 0.10186856817E+03 0.12678845133E+03 0.13625703137E+03
 0.10191602427E+03 0.75221691767E+02 0.47000998444E+02 0.24616830109E+02 0.11276246313E+02
 0.58007543446E+01 0.42333165250E+01 0.34212022138E+01 0.30802349702E+01 0.30800625151E+01
 0.34190981600E+01 0.42296367388E+01 0.58031241289E+01 0.11291258540E+02 0.24635327785E+02
 0.47000012399E+02 0.75188901554E+02 0.10187017430E+03 0.11824448691E+03 0.11826613614E+03
 0.70004322247E+02 0.47000998444E+02 0.26560177195E+02 0.12959047383E+02 0.65260850984E+01
 0.45151038603E+01 0.35806939508E+01 0.30887615322E+01 0.29555490072E+01 0.30911402567E+01
 0.35795678177E+01 0.45098405396E+01 0.65260113570E+01 0.12972490613E+02 0.26581664358E+02
 0.47015219963E+02 0.70003642942E+02 0.88435219371E+02 0.95519546615E+02 0.88442083435E+02
 0.40461528480E+02 0.24616830109E+02 0.12959047383E+02 0.68278041544E+01 0.46752446262E+01
 0.37075058276E+01 0.31128676096E+01 0.28728841097E+01 0.28758018518E+01 0.31172760914E+01
 0.37056119902E+01 0.46655900768E+01 0.68188611671E+01 0.12963010109E+02 0.24639537959E+02
 0.40496787108E+02 0.56178690899E+02 0.66019715207E+02 0.66006741494E+02 0.56146530667E+02
 0.19564794434E+02 0.11276246313E+02 0.65260850984E+01 0.46752446262E+01 0.37581836611E+01
 0.31397146522E+01 0.28328010649E+01 0.27478334853E+01 0.28337748330E+01 0.31411639250E+01
 0.37569307565E+01 0.46671743135E+01 0.65131206676E+01 0.11269601103E+02 0.19576027322E+02
 0.29758361565E+02 0.38305540708E+02 0.41647437858E+02 0.38282781770E+02 0.29731843202E+02
 0.87017520280E+01 0.58007543446E+01 0.45151038603E+01 0.37075058276E+01 0.31397146522E+01
 0.28237235432E+01 0.26926335780E+01 0.26906923534E+01 0.28218100253E+01 0.31435111313E+01
 0.37148300384E+01 0.45166021311E+01 0.57910216573E+01 0.86864506388E+01 0.13376138062E+02
 0.18504178684E+02 0.21889481691E+02 0.21889099976E+02 0.18506787603E+02 0.13386754564E+02
 0.50265369026E+01 0.42333165250E+01 0.35806939508E+01 0.31128676096E+01 0.28328010649E+01
 0.26926335780E+01 0.26493587153E+01 0.26901122980E+01 0.28331244891E+01 0.31205532823E+01
 0.35936068789E+01 0.42433549491E+01 0.50261244741E+01 0.63364244501E+01 0.82679058363E+01
 0.10097400555E+02 0.10858616196E+02 0.10108968084E+02 0.82843592799E+01 0.63481606491E+01
 0.38708345324E+01 0.34212022138E+01 0.30887615322E+01 0.28728841097E+01 0.27478334853E+01
 0.26906923534E+01 0.26901122980E+01 0.27453553290E+01 0.28690250470E+01 0.30883960942E+01
 0.34298213879E+01 0.38868578235E+01 0.43996127736E+01 0.49015834247E+01 0.54318074882E+01
 0.58186203757E+01 0.58221972085E+01 0.54369307716E+01 0.48983106641E+01 0.43857939216E+01
 0.32591578642E+01 0.30802349702E+01 0.29555490072E+01 0.28758018518E+01 0.28337748330E+01
 0.28218100253E+01 0.28331244891E+01 0.28690250470E+01 0.29419573075E+01 0.30691166169E+01
 0.32610292672E+01 0.35110297009E+01 0.37899182310E+01 0.40496581317E+01 0.42359825497E+01
 0.43043576808E+01 0.42345619179E+01 0.40413284154E+01 0.37738727045E+01 0.34965657313E+01
 0.30899203534E+01 0.30800625151E+01 0.30911402567E+01 0.31172760914E+01 0.31411639250E+01
 0.31435111313E+01 0.31205532823E+01 0.30883960942E+01 0.30691166169E+01 0.30759853384E+01
 0.31125204562E+01 0.31783588445E+01 0.32669873363E+01 0.33570562929E+01 0.34144387232E+01
 0.34121724255E+01 0.33516358746E+01 0.32623721051E+01 0.31795400183E+01 0.31218260043E+01
 0.32614313558E+01 0.34190981600E+01 0.35795678177E+01 0.37056119902E+01 0.37569307565E+01
 0.37148300384E+01 0.35936068789E+01 0.34298213879E+01 0.32610292672E+01 0.31125204562E+01
 0.29983557593E+01 0.29259413816E+01 0.28933044600E+01 0.28854086745E+01 0.28831792052E+01
 0.28811919407E+01 0.28929185999E+01 0.29357452579E+01 0.30148815592E+01 0.31250363723E+01
 0.38707697925E+01 0.42296367388E+01 0.45098405396E+01 0.46655900768E+01 0.46671743135E+01
 0.45166021311E+01 0.42433549491E+01 0.38868578235E+01 0.35110297009E+01 0.31783588445E+01
 0.29259413816E+01 0.27590804966E+01 0.26628788514E+01 0.26191420800E+01 0.26184549196E+01
 0.26633971719E+01 0.27642234006E+01 0.29330910830E+01 0.31795400183E+01 0.35014514209E+01
 0.50247694297E+01 0.58031241289E+01 0.65260113570E+01 0.68188611671E+01 0.65131206676E+01
 0.57910216573E+01 0.50261244741E+01 0.43996127736E+01 0.37899182310E+01 0.32669873363E+01
 0.28933044600E+01 0.26628788514E+01 0.25415784148E+01 0.25043763950E+01 0.25436843023E+01
 0.26657427297E+01 0.28928609713E+01 0.32584173065E+01 0.37738727045E+01 0.43854043181E+01
 0.87060830175E+01 0.11291258540E+02 0.12972490613E+02 0.12963010109E+02 0.11269601103E+02
 0.86864506388E+01 0.63364244501E+01 0.49015834247E+01 0.40496581317E+01 0.33570562929E+01
 0.28854086745E+01 0.26191420800E+01 0.25043763950E+01 0.25049371595E+01 0.26198754902E+01
 0.28840335478E+01 0.33518643038E+01 0.40423219850E+01 0.48983106641E+01 0.63442990649E+01
 0.19576733333E+02 0.24635327785E+02 0.26581664358E+02 0.24639537959E+02 0.19576027322E+02
 0.13376138062E+02 0.82679058363E+01 0.54318074882E+01 0.42359825497E+01 0.34144387232E+01
 0.28831792052E+01 0.26184549196E+01 0.25436843023E+01 0.26198754902E+01 0.28819452902E+01
 0.34103409497E+01 0.42359652620E+01 0.54420014856E+01 0.82843592799E+01 0.13387639392E+02
 0.40465677060E+02 0.47000012399E+02 0.47015219963E+02 0.40496787108E+02 0.29758361565E+02
 0.18504178684E+02 0.10097400555E+02 0.58186203757E+01 0.43043576808E+01 0.34121724255E+01
 0.28811919407E+01 0.26633971719E+01 0.26657427297E+01 0.28840335478E+01 0.34103409497E+01
 0.43020749961E+01 0.58248368780E+01 0.10110070156E+02 0.18506787603E+02 0.29738570061E+02
 0.69981197474E+02 0.75188901554E+02 0.70003642942E+02 0.56178690899E+02 0.38305540708E+02
 0.21889481691E+02 0.10858616196E+02 0.58221972085E+01 0.42345619179E+01 0.33516358746E+01
 0.28929185999E+01 0.27642234006E+01 0.28928609713E+01 0.33518643038E+01 0.42359652620E+01
 0.58248368780E+01 0.10858983251E+02 0.21880522058E+02 0.38282781770E+02 0.56148089205E+02
 0.10186856817E+03 0.10187017430E+03 0.88435219371E+02 0.66019715207E+02 0.41647437858E+02
 0.21889099976E+02 0.10108968084E+02 0.54369307716E+01 0.40413284154E+01 0.32623721051E+01
 0.29357452579E+01 0.29330910830E+01 0.32584173065E+01 0.40423219850E+01 0.54420014856E+01
 0.10110070156E+02 0.21880522058E+02 0.41632529693E+02 0.66006741494E+02 0.88428644225E+02
 0.12678845133E+03 0.11824448691E+03 0.95519546615E+02 0.66006741494E+02 0.38282781770E+02
 0.18506787603E+02 0.82843592799E+01 0.48983106641E+01 0.37738727045E+01 0.31795400183E+01
 0.30148815592E+01 0.31795400183E+01 0.37738727045E+01 0.48983106641E+01 0.82843592799E+01
 0.18506787603E+02 0.38282781770E+02 0.66006741494E+02 0.95519546615E+02 0.11824448691E+03
 0.13625703137E+03 0.11826613614E+03 0.88442083435E+02 0.56146530667E+02 0.29731843202E+02
 0.13386754564E+02 0.63481606491E+01 0.43857939216E+01 0.34965657313E+01 0.31218260043E+01
 0.31250363723E+01 0.35014514209E+01 0.43854043181E+01 0.63442990649E+01 0.13387639392E+02
 0.29738570061E+02 0.56148089205E+02 0.88428644225E+02 0.11824448691E+03 0.13624633452E+03
 0.87828101638E+02 0.64836709641E+02 0.40461528480E+02 0.21183568314E+02 0.98880044998E+01
 0.54291124014E+01 0.40783818825E+01 0.33160920017E+01 0.29983027795E+01 0.29973661922E+01
 0.33137456731E+01 0.40759705555E+01 0.54284909911E+01 0.98905053510E+01 0.21188742757E+02
 0.40467057321E+02 0.64840201357E+02 0.87829156458E+02 0.10186856817E+03 0.10186852999E+03
 0.64836709641E+02 0.43537843559E+02 0.24616830109E+02 0.12094286049E+02 0.62598098670E+01
 0.44359728644E+01 0.35257201175E+01 0.30513857054E+01 0.29229739593E+01 0.30536839265E+01
 0.35251227075E+01 0.44302403775E+01 0.62546724469E+01 0.12098022864E+02 0.24630927578E+02
 0.43555323628E+02 0.64849547109E+02 0.81892093512E+02 0.88428644225E+02 0.81886381009E+02
 0.40461528480E+02 0.24616830109E+02 0.12959047383E+02 0.68278041544E+01 0.46752446262E+01
 0.37075058276E+01 0.31128676096E+01 0.28728841097E+01 0.28758018518E+01 0.31172760914E+01
 0.37056119902E+01 0.46655900768E+01 0.68188611671E+01 0.12963010109E+02 0.24639537959E+02
 0.40496787108E+02 0.56178690899E+02 0.66019715207E+02 0.66006741494E+02 0.56146530667E+02
 0.21183568314E+02 0.12094286049E+02 0.68278041544E+01 0.47609095210E+01 0.38116694613E+01
 0.31697147268E+01 0.28514795229E+01 0.27637763034E+01 0.28522680049E+01 0.31718250112E+01
 0.38113159148E+01 0.47516014089E+01 0.68116092553E+01 0.12087925979E+02 0.21204774903E+02
 0.32335952485E+02 0.41669847158E+02 0.45314575754E+02 0.41632529693E+02 0.32291527900E+02
 0.98880044998E+01 0.62598098670E+01 0.46752446262E+01 0.38116694613E+01 0.31916289440E+01
 0.28466476407E+01 0.27071541886E+01 0.27056422109E+01 0.28458911516E+01 0.31954900402E+01
 0.38139376093E+01 0.46652504218E+01 0.62393856374E+01 0.98753669496E+01 0.15651487258E+02
 0.21904986426E+02 0.26012575337E+02 0.25999717405E+02 0.21880522058E+02 0.15641250887E+02
 0.54291124014E+01 0.44359728644E+01 0.37075058276E+01 0.31697147268E+01 0.28466476407E+01
 0.26895032302E+01 0.26428100982E+01 0.26872595112E+01 0.28473561841E+01 0.31758369788E+01
 0.37137771290E+01 0.44344468427E+01 0.54180769347E+01 0.73262446890E+01 0.10099684305E+02
 0.12679141683E+02 0.13739170475E+02 0.12683568714E+02 0.10110070156E+02 0.73405638535E+01
 0.40783818825E+01 0.35257201175E+01 0.31128676096E+01 0.28514795229E+01 0.27071541886E+01
 0.26428100982E+01 0.26410717308E+01 0.27042991980E+01 0.28524224134E+01 0.31204030700E+01
 0.35372378565E+01 0.40868516093E+01 0.46922647546E+01 0.54312677574E+01 0.63334089841E+01
 0.69952946388E+01 0.70012013123E+01 0.63466168311E+01 0.54420014856E+01 0.46932693748E+01
 0.33160920017E+01 0.30513857054E+01 0.28728841097E+01 0.27637763034E+01 0.27056422109E+01
 0.26872595112E+01 0.27042991980E+01 0.27599896597E+01 0.28682085718E+01 0.30509776078E+01
 0.33235845202E+01 0.36734673116E+01 0.40513735889E+01 0.43867912465E+01 0.46208349533E+01
 0.47119530487E+01 0.46228746572E+01 0.43850619548E+01 0.40423219850E+01 0.36612862656E+01
 0.29983027795E+01 0.29229739593E+01 0.28758018518E+01 0.28522680049E+01 0.28458911516E+01
 0.28473561841E+01 0.28524224134E+01 0.28682085718E+01 0.29093124666E+01 0.29885623342E+01
 0.31106144866E+01 0.32688053700E+01 0.34422675782E+01 0.35956601469E+01 0.36873169805E+01
 0.36864991977E+01 0.35911229019E+01 0.34322888243E+01 0.32584173065E+01 0.31088473234E+01
 0.29973661922E+01 0.30536839265E+01 0.31172760914E+01 0.31718250112E+01 0.31954900402E+01
 0.31758369788E+01 0.31204030700E+01 0.30509776078E+01 0.29885623342E+01 0.29451098117E+01
 0.29263790088E+01 0.29349656777E+01 0.29653534916E+01 0.29990554775E+01 0.30127679326E+01
 0.29964877800E+01 0.29627953845E+01 0.29360554671E+01 0.29330910830E+01 0.29554868904E+01
 0.33137456731E+01 0.35251227075E+01 0.37056119902E+01 0.38113159148E+01 0.38139376093E+01
 0.37137771290E+01 0.35372378565E+01 0.33235845202E+01 0.31106144866E+01 0.29263790088E+01
 0.27872779658E+01 0.26977429764E+01 0.26501136321E+01 0.26299395207E+01 0.26279632314E+01
 0.26482195021E+01 0.27025416757E+01 0.27985355603E+01 0.29357452579E+01 0.31101725385E+01
 0.40759705555E+01 0.44302403775E+01 0.46655900768E+01 0.47516014089E+01 0.46652504218E+01
 0.44344468427E+01 0.40868516093E+01 0.36734673116E+01 0.32688053700E+01 0.29349656777E+01
 0.26977429764E+01 0.25495142143E+01 0.24699204454E+01 0.24441422417E+01 0.24690014232E+01
 0.25506332328E+01 0.27012872512E+01 0.29360554671E+01 0.32623721051E+01 0.36610921298E+01
 0.54284909911E+01 0.62546724469E+01 0.68188611671E+01 0.68116092553E+01 0.62393856374E+01
 0.54180769347E+01 0.46922647546E+01 0.40513735889E+01 0.34422675782E+01 0.29653534916E+01
 0.26501136321E+01 0.24699204454E+01 0.23893167425E+01 0.23898630963E+01 0.24710376618E+01
 0.26497850849E+01 0.29605370089E+01 0.34322888243E+01 0.40413284154E+01 0.46906604208E+01
 0.98905053510E+01 0.12098022864E+02 0.12963010109E+02 0.12087925979E+02 0.98753669496E+01
 0.73262446890E+01 0.54312677574E+01 0.43867912465E+01 0.35956601469E+01 0.29990554775E+01
 0.26299395207E+01 0.24441422417E+01 0.23898630963E+01 0.24458074315E+01 0.26304280122E+01
 0.29961241205E+01 0.35908770399E+01 0.43850619548E+01 0.54369307716E+01 0.73392085058E+01
 0.21188742757E+02 0.24630927578E+02 0.24639537959E+02 0.21204774903E+02 0.15651487258E+02
 0.10099684305E+02 0.63334089841E+01 0.46208349533E+01 0.36873169805E+01 0.30127679326E+01
 0.26279632314E+01 0.24690014232E+01 0.24710376618E+01 0.26304280122E+01 0.30109999261E+01
 0.36847560435E+01 0.46259369622E+01 0.63466168311E+01 0.10108968084E+02 0.15645607822E+02
 0.40467057321E+02 0.43555323628E+02 0.40496787108E+02 0.32335952485E+02 0.21904986426E+02
 0.12679141683E+02 0.69952946388E+01 0.47119530487E+01 0.36864991977E+01 0.29964877800E+01
 0.26482195021E+01 0.25506332328E+01 0.26497850849E+01 0.29961241205E+01 0.36847560435E+01
 0.47150347625E+01 0.70048037973E+01 0.12683568714E+02 0.21889099976E+02 0.32301272423E+02
 0.64840201357E+02 0.64849547109E+02 0.56178690899E+02 0.41669847158E+02 0.26012575337E+02
 0.13739170475E+02 0.70012013123E+01 0.46228746572E+01 0.35911229019E+01 0.29627953845E+01
 0.27025416757E+01 0.27012872512E+01 0.29605370089E+01 0.35908770399E+01 0.46259369622E+01
 0.70048037973E+01 0.13737166469E+02 0.25999717405E+02 0.41647437858E+02 0.56156491503E+02
 0.87829156458E+02 0.81892093512E+02 0.66019715207E+02 0.45314575754E+02 0.25999717405E+02
 0.12683568714E+02 0.63466168311E+01 0.43850619548E+01 0.34322888243E+01 0.29360554671E+01
 0.27985355603E+01 0.29360554671E+01 0.34322888243E+01 0.43850619548E+01 0.63466168311E+01
 0.12683568714E+02 0.25999717405E+02 0.45314575754E+02 0.66019715207E+02 0.81892093512E+02
 0.10186856817E+03 0.88428644225E+02 0.66006741494E+02 0.41632529693E+02 0.21880522058E+02
 0.10110070156E+02 0.54420014856E+01 0.40423219850E+01 0.32584173065E+01 0.29330910830E+01
 0.29357452579E+01 0.32623721051E+01 0.40413284154E+01 0.54369307716E+01 0.10108968084E+02
 0.21889099976E+02 0.41647437858E+02 0.66019715207E+02 0.88435219371E+02 0.10187017430E+03
 0.10186852999E+03 0.81886381009E+02 0.56146530667E+02 0.32291527900E+02 0.15641250887E+02
 0.73405638535E+01 0.46932693748E+01 0.36612862656E+01 0.31088473234E+01 0.29554868904E+01
 0.31101725385E+01 0.36610921298E+01 0.46906604208E+01 0.73392085058E+01 0.15645607822E+02
 0.32301272423E+02 0.56156491503E+02 0.81892093512E+02 0.10187017430E+03 0.10941075573E+03
 0.51362925391E+02 0.34495807002E+02 0.19564794434E+02 0.98880044998E+01 0.56011486835E+01
 0.42011461462E+01 0.33720887593E+01 0.29477019011E+01 0.28308203782E+01 0.29482250146E+01
 0.33717609151E+01 0.41979094823E+01 0.55944887714E+01 0.98814338914E+01 0.19564952636E+02
 0.34506867178E+02 0.51380930534E+02 0.64840201357E+02 0.69981197474E+02 0.64826329858E+02
 0.34495807002E+02 0.21066309312E+02 0.11276246313E+02 0.62598098670E+01 0.45132412104E+01
 0.35995297824E+01 0.30475385544E+01 0.28243817442E+01 0.28267574803E+01 0.30513019851E+01