   1   1   0   0
  0.1215678E+02  0.2580940E-09  0.2580940E-09  0.2580940E-09  0.5000000E-15
  1.000000000000000E-004
  CAR 
 fcc Ni                                  
     52.02506856     -2.81569122  301      7.89628476      1.00000000
     -2.816  0.0000E+00  0.0000E+00  0.0000E+00  0.0000E+00
     -2.633  0.0000E+00  0.0000E+00  0.0000E+00  0.0000E+00
     -2.450  0.0000E+00  0.0000E+00  0.0000E+00  0.0000E+00
     -2.267  0.0000E+00  0.0000E+00  0.0000E+00  0.0000E+00
     -2.084  0.0000E+00 -0.5536E-35  0.0000E+00 -0.1012E-35
     -1.902 -0.4827E-30 -0.2115E-28 -0.8823E-31 -0.3866E-29
     -1.719 -0.5304E-24 -0.1499E-22 -0.9696E-25 -0.2741E-23
     -1.536 -0.1079E-18 -0.1965E-17 -0.1972E-19 -0.3592E-18
     -1.353 -0.3904E-14 -0.4558E-13 -0.7136E-15 -0.8333E-14
     -1.170 -0.2629E-10 -0.1964E-09 -0.4807E-11 -0.3591E-10
     -0.988 -0.3148E-07 -0.1491E-06 -0.5759E-08 -0.2730E-07
     -0.805 -0.6377E-05 -0.1871E-04 -0.1171E-05 -0.3447E-05
     -0.622 -0.1854E-03 -0.3013E-03 -0.3507E-04 -0.5853E-04
     -0.439 -0.4114E-05  0.7801E-03 -0.3582E-04  0.8408E-04
     -0.256  0.5370E-02  0.7532E-02  0.9459E-03  0.1461E-02
     -0.074  0.1628E-01  0.1993E-01  0.3922E-02  0.5104E-02
      0.109  0.2567E-01  0.2570E-01  0.8615E-02  0.9803E-02
      0.292  0.2624E-01  0.2704E-01  0.1341E-01  0.1475E-01
      0.475  0.3282E-01  0.3555E-01  0.1941E-01  0.2125E-01
      0.658  0.4672E-01  0.4906E-01  0.2795E-01  0.3021E-01
      0.840  0.4270E-01  0.3706E-01  0.3576E-01  0.3699E-01
      1.023  0.3202E-01  0.3546E-01  0.4161E-01  0.4347E-01
      1.206  0.5788E-01  0.6357E-01  0.5219E-01  0.5509E-01
      1.389  0.7754E-01  0.7390E-01  0.6637E-01  0.6860E-01
      1.572  0.4480E-01  0.3863E-01  0.7456E-01  0.7566E-01
      1.754  0.5248E-01  0.5727E-01  0.8415E-01  0.8613E-01
      1.937  0.8406E-01  0.8353E-01  0.9952E-01  0.1014E+00
      2.120  0.7534E-01  0.7166E-01  0.1133E+00  0.1145E+00
      2.303  0.8314E-01  0.7935E-01  0.1285E+00  0.1290E+00
      2.486  0.9535E-01  0.9235E-01  0.1459E+00  0.1459E+00
      2.668  0.9793E-01  0.8838E-01  0.1638E+00  0.1620E+00
      2.851  0.8424E-01  0.7681E-01  0.1792E+00  0.1761E+00
      3.034  0.1362E+00  0.1145E+00  0.2041E+00  0.1970E+00
      3.217  0.1669E+00  0.1464E+00  0.2346E+00  0.2238E+00
      3.400  0.1452E+00  0.1255E+00  0.2612E+00  0.2467E+00
      3.582  0.2149E+00  0.1174E+00  0.3004E+00  0.2682E+00
      3.765  0.3817E+00  0.1773E+00  0.3702E+00  0.3006E+00
      3.948  0.4681E+00  0.2551E+00  0.4558E+00  0.3472E+00
      4.131  0.6124E+00  0.2703E+00  0.5677E+00  0.3966E+00
      4.314  0.7426E+00  0.4349E+00  0.7035E+00  0.4761E+00
      4.496  0.9755E+00  0.5491E+00  0.8818E+00  0.5765E+00
      4.679  0.1137E+01  0.5141E+00  0.1090E+01  0.6705E+00
      4.862  0.1051E+01  0.5829E+00  0.1282E+01  0.7770E+00
      5.045  0.9733E+00  0.7972E+00  0.1460E+01  0.9228E+00
      5.228  0.1055E+01  0.9873E+00  0.1653E+01  0.1103E+01
      5.410  0.1315E+01  0.9742E+00  0.1893E+01  0.1281E+01
      5.593  0.1459E+01  0.9324E+00  0.2160E+01  0.1452E+01
      5.776  0.1737E+01  0.9282E+00  0.2477E+01  0.1621E+01
      5.959  0.2014E+01  0.1134E+01  0.2845E+01  0.1829E+01
      6.142  0.1561E+01  0.1369E+01  0.3131E+01  0.2079E+01
      6.324  0.1141E+01  0.1494E+01  0.3339E+01  0.2352E+01
      6.507  0.1352E+01  0.1675E+01  0.3587E+01  0.2659E+01
      6.690  0.1649E+01  0.1696E+01  0.3888E+01  0.2969E+01
      6.873  0.1631E+01  0.1419E+01  0.4186E+01  0.3228E+01
      7.056  0.1666E+01  0.1222E+01  0.4491E+01  0.3451E+01
      7.238  0.2370E+01  0.1412E+01  0.4924E+01  0.3710E+01
      7.421  0.1628E+01  0.1545E+01  0.5221E+01  0.3992E+01
      7.604  0.3264E+00  0.1360E+01  0.5281E+01  0.4241E+01
      7.787  0.1447E+00  0.1350E+01  0.5308E+01  0.4487E+01
      7.970  0.1328E+00  0.1897E+01  0.5332E+01  0.4834E+01
      8.152  0.2369E+00  0.1838E+01  0.5375E+01  0.5170E+01
      8.335  0.1536E+00  0.7384E+00  0.5403E+01  0.5305E+01
      8.518  0.1484E+00  0.1476E+00  0.5430E+01  0.5332E+01
      8.701  0.1803E+00  0.2161E+00  0.5463E+01  0.5372E+01
      8.884  0.1467E+00  0.2392E+00  0.5490E+01  0.5415E+01
      9.066  0.1352E+00  0.1393E+00  0.5515E+01  0.5441E+01
      9.249  0.1169E+00  0.1737E+00  0.5536E+01  0.5473E+01
      9.432  0.1530E+00  0.2041E+00  0.5564E+01  0.5510E+01
      9.615  0.2063E+00  0.1522E+00  0.5602E+01  0.5538E+01
      9.798  0.1634E+00  0.1453E+00  0.5632E+01  0.5564E+01
      9.980  0.6702E-01  0.1994E+00  0.5644E+01  0.5601E+01
     10.163  0.9935E-01  0.1768E+00  0.5662E+01  0.5633E+01
     10.346  0.1304E+00  0.9294E-01  0.5686E+01  0.5650E+01
     10.529  0.1625E+00  0.1375E+00  0.5716E+01  0.5675E+01
     10.712  0.1418E+00  0.1127E+00  0.5742E+01  0.5696E+01
     10.894  0.1551E+00  0.1859E+00  0.5770E+01  0.5730E+01
     11.077  0.1659E+00  0.1643E+00  0.5800E+01  0.5760E+01
     11.260  0.1732E-01  0.1573E+00  0.5803E+01  0.5788E+01
     11.443  0.6768E-01  0.8472E-01  0.5816E+01  0.5804E+01
     11.626  0.1014E+00  0.4028E-01  0.5834E+01  0.5811E+01
     11.809  0.1506E+00  0.9725E-01  0.5862E+01  0.5829E+01
     11.991  0.1511E+00  0.1441E+00  0.5889E+01  0.5855E+01
     12.174  0.8225E-01  0.1508E+00  0.5905E+01  0.5883E+01
     12.357  0.3654E-01  0.1175E+00  0.5911E+01  0.5905E+01
     12.540  0.7243E-01  0.3224E-01  0.5924E+01  0.5910E+01
     12.723  0.5559E-01  0.5637E-01  0.5935E+01  0.5921E+01
     12.905  0.8209E-01  0.7781E-01  0.5950E+01  0.5935E+01
     13.088  0.1592E+00  0.6018E-01  0.5979E+01  0.5946E+01
     13.271  0.1656E+00  0.8898E-01  0.6009E+01  0.5962E+01
     13.454  0.1200E+00  0.1725E+00  0.6031E+01  0.5994E+01
     13.637  0.1498E+00  0.1307E+00  0.6058E+01  0.6018E+01
     13.819  0.1630E+00  0.1450E+00  0.6088E+01  0.6044E+01
     14.002  0.1712E+00  0.1591E+00  0.6119E+01  0.6073E+01
     14.185  0.1346E+00  0.2158E+00  0.6144E+01  0.6113E+01
     14.368  0.1338E+00  0.1527E+00  0.6168E+01  0.6141E+01
     14.551  0.1332E+00  0.1162E+00  0.6193E+01  0.6162E+01
     14.733  0.1345E+00  0.1396E+00  0.6217E+01  0.6187E+01
     14.916  0.1232E+00  0.1400E+00  0.6240E+01  0.6213E+01
     15.099  0.1488E+00  0.1436E+00  0.6267E+01  0.6239E+01
     15.282  0.1297E+00  0.1464E+00  0.6291E+01  0.6266E+01
     15.465  0.1182E+00  0.1386E+00  0.6312E+01  0.6291E+01
     15.647  0.8583E-01  0.1161E+00  0.6328E+01  0.6313E+01
     15.830  0.1659E+00  0.8544E-01  0.6358E+01  0.6328E+01
     16.013  0.1097E+00  0.1608E+00  0.6378E+01  0.6358E+01
     16.196  0.6231E-01  0.1118E+00  0.6390E+01  0.6378E+01
     16.379  0.1496E+00  0.8264E-01  0.6417E+01  0.6393E+01
     16.561  0.1577E+00  0.1330E+00  0.6446E+01  0.6417E+01
     16.744  0.2097E+00  0.1628E+00  0.6484E+01  0.6447E+01
     16.927  0.1421E+00  0.2138E+00  0.6510E+01  0.6486E+01
     17.110  0.2208E+00  0.1453E+00  0.6551E+01  0.6513E+01
     17.293  0.1997E+00  0.2326E+00  0.6587E+01  0.6555E+01
     17.475  0.1478E+00  0.1908E+00  0.6614E+01  0.6590E+01
     17.658  0.1751E+00  0.1605E+00  0.6646E+01  0.6620E+01
     17.841  0.7712E-01  0.1682E+00  0.6660E+01  0.6650E+01
     18.024  0.1524E+00  0.7653E-01  0.6688E+01  0.6664E+01
     18.207  0.2584E+00  0.1946E+00  0.6735E+01  0.6700E+01
     18.389  0.2272E+00  0.2620E+00  0.6777E+01  0.6748E+01
     18.572  0.2324E+00  0.2252E+00  0.6819E+01  0.6789E+01
     18.755  0.2065E+00  0.2314E+00  0.6857E+01  0.6831E+01
     18.938  0.1717E+00  0.1910E+00  0.6889E+01  0.6866E+01
     19.121  0.2105E+00  0.2004E+00  0.6927E+01  0.6903E+01
     19.303  0.1240E+00  0.1811E+00  0.6950E+01  0.6936E+01
     19.486  0.1392E+00  0.1222E+00  0.6975E+01  0.6958E+01
     19.669  0.2362E+00  0.1858E+00  0.7018E+01  0.6992E+01
     19.852  0.2299E+00  0.2576E+00  0.7060E+01  0.7039E+01
     20.035  0.1774E+00  0.1986E+00  0.7093E+01  0.7076E+01
     20.217  0.1473E+00  0.1655E+00  0.7120E+01  0.7106E+01
     20.400  0.1731E+00  0.1445E+00  0.7151E+01  0.7132E+01
     20.583  0.2423E+00  0.2206E+00  0.7196E+01  0.7173E+01
     20.766  0.3172E+00  0.2712E+00  0.7254E+01  0.7222E+01
     20.949  0.2114E+00  0.3046E+00  0.7292E+01  0.7278E+01
     21.131  0.9262E-01  0.1346E+00  0.7309E+01  0.7302E+01
     21.314  0.1351E+00  0.9474E-01  0.7334E+01  0.7320E+01
     21.497  0.3481E+00  0.2653E+00  0.7398E+01  0.7368E+01
     21.680  0.2708E+00  0.3347E+00  0.7447E+01  0.7429E+01
     21.863  0.2488E+00  0.2484E+00  0.7493E+01  0.7475E+01
     22.045  0.2101E+00  0.2333E+00  0.7531E+01  0.7517E+01
     22.228  0.1376E+00  0.1586E+00  0.7556E+01  0.7546E+01
     22.411  0.2174E+00  0.1854E+00  0.7596E+01  0.7580E+01
     22.594  0.2229E+00  0.2363E+00  0.7637E+01  0.7624E+01
     22.777  0.2157E+00  0.2164E+00  0.7676E+01  0.7663E+01
     22.959  0.2406E+00  0.2283E+00  0.7720E+01  0.7705E+01
     23.142  0.2270E+00  0.2290E+00  0.7761E+01  0.7747E+01
     23.325  0.2147E+00  0.2167E+00  0.7801E+01  0.7786E+01
     23.508  0.1683E+00  0.1806E+00  0.7831E+01  0.7819E+01
     23.691  0.2360E+00  0.2119E+00  0.7875E+01  0.7858E+01
     23.873  0.1874E+00  0.2254E+00  0.7909E+01  0.7899E+01
     24.056  0.2337E+00  0.1960E+00  0.7952E+01  0.7935E+01
     24.239  0.3019E+00  0.3037E+00  0.8007E+01  0.7991E+01
     24.422  0.1647E+00  0.2106E+00  0.8037E+01  0.8029E+01
     24.605  0.1357E+00  0.1414E+00  0.8062E+01  0.8055E+01
     24.787  0.1247E+00  0.1149E+00  0.8085E+01  0.8076E+01
     24.970  0.2200E+00  0.1895E+00  0.8125E+01  0.8111E+01
     25.153  0.1928E+00  0.2341E+00  0.8160E+01  0.8153E+01
     25.336  0.9479E-01  0.9398E-01  0.8177E+01  0.8171E+01
     25.519  0.1649E+00  0.1385E+00  0.8207E+01  0.8196E+01
     25.702  0.2100E+00  0.2160E+00  0.8246E+01  0.8235E+01
     25.884  0.1746E+00  0.1998E+00  0.8278E+01  0.8272E+01
     26.067  0.1598E+00  0.1526E+00  0.8307E+01  0.8300E+01
     26.250  0.2042E+00  0.1972E+00  0.8344E+01  0.8336E+01
     26.433  0.1595E+00  0.1678E+00  0.8373E+01  0.8367E+01
     26.616  0.1629E+00  0.1639E+00  0.8403E+01  0.8396E+01
     26.798  0.1534E+00  0.1437E+00  0.8431E+01  0.8423E+01
     26.981  0.1821E+00  0.1607E+00  0.8465E+01  0.8452E+01
     27.164  0.1977E+00  0.2187E+00  0.8501E+01  0.8492E+01
     27.347  0.1440E+00  0.1738E+00  0.8527E+01  0.8524E+01
     27.530  0.1663E+00  0.1534E+00  0.8557E+01  0.8552E+01
     27.712  0.1645E+00  0.1590E+00  0.8587E+01  0.8581E+01
     27.895  0.1904E+00  0.1647E+00  0.8622E+01  0.8611E+01
     28.078  0.2687E+00  0.2621E+00  0.8671E+01  0.8659E+01
     28.261  0.2716E+00  0.2846E+00  0.8721E+01  0.8711E+01
     28.444  0.1943E+00  0.2340E+00  0.8757E+01  0.8754E+01
     28.626  0.2457E+00  0.2260E+00  0.8802E+01  0.8795E+01
     28.809  0.3619E+00  0.3486E+00  0.8868E+01  0.8859E+01
     28.992  0.1807E+00  0.2279E+00  0.8901E+01  0.8900E+01
     29.175  0.1439E+00  0.1523E+00  0.8927E+01  0.8928E+01
     29.358  0.3089E+00  0.2860E+00  0.8983E+01  0.8981E+01
     29.540  0.3466E+00  0.3411E+00  0.9047E+01  0.9043E+01
     29.723  0.2042E+00  0.2081E+00  0.9084E+01  0.9081E+01
     29.906  0.2439E+00  0.2247E+00  0.9129E+01  0.9122E+01
     30.089  0.3827E+00  0.3780E+00  0.9199E+01  0.9191E+01
     30.272  0.3342E+00  0.3638E+00  0.9260E+01  0.9258E+01
     30.454  0.3304E+00  0.3398E+00  0.9320E+01  0.9320E+01
     30.637  0.2334E+00  0.2276E+00  0.9363E+01  0.9361E+01
     30.820  0.2853E+00  0.2667E+00  0.9415E+01  0.9410E+01
     31.003  0.3167E+00  0.2714E+00  0.9473E+01  0.9460E+01
     31.186  0.3308E+00  0.3435E+00  0.9533E+01  0.9523E+01
     31.368  0.2071E+00  0.2413E+00  0.9571E+01  0.9567E+01
     31.551  0.3466E+00  0.3376E+00  0.9635E+01  0.9628E+01
     31.734  0.2430E+00  0.2674E+00  0.9679E+01  0.9677E+01
     31.917  0.1684E+00  0.1789E+00  0.9710E+01  0.9710E+01
     32.100  0.1760E+00  0.1910E+00  0.9742E+01  0.9745E+01
     32.282  0.2126E+00  0.1935E+00  0.9781E+01  0.9780E+01
     32.465  0.2737E+00  0.2492E+00  0.9831E+01  0.9826E+01
     32.648  0.1994E+00  0.2042E+00  0.9867E+01  0.9863E+01
     32.831  0.1902E+00  0.1876E+00  0.9902E+01  0.9897E+01
     33.014  0.1195E+00  0.1345E+00  0.9924E+01  0.9922E+01
     33.196  0.1853E+00  0.1569E+00  0.9958E+01  0.9951E+01
     33.379  0.3506E+00  0.3121E+00  0.1002E+02  0.1001E+02
     33.562  0.3485E+00  0.3516E+00  0.1009E+02  0.1007E+02
     33.745  0.9235E-01  0.1513E+00  0.1010E+02  0.1010E+02
     33.928  0.1134E+00  0.1226E+00  0.1012E+02  0.1012E+02
     34.110  0.1758E+00  0.1574E+00  0.1016E+02  0.1015E+02
     34.293  0.6872E-01  0.6567E-01  0.1017E+02  0.1016E+02
     34.476  0.7070E-01  0.6967E-01  0.1018E+02  0.1018E+02
     34.659  0.1038E+00  0.1272E+00  0.1020E+02  0.1020E+02
     34.842  0.1619E+00  0.1428E+00  0.1023E+02  0.1023E+02
     35.024  0.2589E+00  0.2407E+00  0.1028E+02  0.1027E+02
     35.207  0.3603E+00  0.3664E+00  0.1034E+02  0.1034E+02
     35.390  0.3175E+00  0.3318E+00  0.1040E+02  0.1040E+02
     35.573  0.3088E+00  0.2840E+00  0.1046E+02  0.1045E+02
     35.756  0.2978E+00  0.3040E+00  0.1051E+02  0.1050E+02
     35.938  0.2968E+00  0.3013E+00  0.1057E+02  0.1056E+02
     36.121  0.2616E+00  0.2853E+00  0.1061E+02  0.1061E+02
     36.304  0.2190E+00  0.2444E+00  0.1065E+02  0.1066E+02
     36.487  0.2773E+00  0.2621E+00  0.1070E+02  0.1070E+02
     36.670  0.2735E+00  0.2783E+00  0.1075E+02  0.1075E+02
     36.852  0.3482E+00  0.3395E+00  0.1082E+02  0.1082E+02
     37.035  0.3594E+00  0.3634E+00  0.1088E+02  0.1088E+02
     37.218  0.1536E+00  0.1591E+00  0.1091E+02  0.1091E+02
     37.401  0.1375E+00  0.1346E+00  0.1094E+02  0.1094E+02
     37.584  0.2457E+00  0.2299E+00  0.1098E+02  0.1098E+02
     37.766  0.2360E+00  0.2475E+00  0.1102E+02  0.1102E+02
     37.949  0.9614E-01  0.1094E+00  0.1104E+02  0.1104E+02
     38.132  0.2278E+00  0.2228E+00  0.1108E+02  0.1108E+02
     38.315  0.2514E+00  0.2416E+00  0.1113E+02  0.1113E+02
     38.498  0.1807E+00  0.2004E+00  0.1116E+02  0.1117E+02
     38.680  0.2309E+00  0.2114E+00  0.1121E+02  0.1120E+02
     38.863  0.2468E+00  0.2518E+00  0.1125E+02  0.1125E+02
     39.046  0.1656E+00  0.1823E+00  0.1128E+02  0.1128E+02
     39.229  0.1206E+00  0.1189E+00  0.1130E+02  0.1131E+02
     39.412  0.2132E+00  0.2231E+00  0.1134E+02  0.1135E+02
     39.594  0.2240E+00  0.1898E+00  0.1138E+02  0.1138E+02
     39.777  0.1788E+00  0.1845E+00  0.1142E+02  0.1141E+02
     39.960  0.8251E-01  0.8077E-01  0.1143E+02  0.1143E+02
     40.143  0.1414E+00  0.1261E+00  0.1146E+02  0.1145E+02
     40.326  0.1963E+00  0.2036E+00  0.1149E+02  0.1149E+02
     40.509  0.1194E+00  0.1513E+00  0.1151E+02  0.1152E+02
     40.691  0.2468E+00  0.2613E+00  0.1156E+02  0.1157E+02
     40.874  0.2486E+00  0.2285E+00  0.1160E+02  0.1161E+02
     41.057  0.1939E+00  0.1825E+00  0.1164E+02  0.1164E+02
     41.240  0.1589E+00  0.1700E+00  0.1167E+02  0.1167E+02
     41.423  0.3473E-01  0.2527E-01  0.1168E+02  0.1168E+02
     41.605  0.6903E-01  0.7800E-01  0.1169E+02  0.1169E+02
     41.788  0.1635E+00  0.1667E+00  0.1172E+02  0.1172E+02
     41.971  0.1419E+00  0.1496E+00  0.1174E+02  0.1175E+02
     42.154  0.1550E+00  0.1465E+00  0.1177E+02  0.1177E+02
     42.337  0.1134E+00  0.1010E+00  0.1179E+02  0.1179E+02
     42.519  0.1856E-01  0.1459E-01  0.1180E+02  0.1180E+02
     42.702 -0.4531E-03  0.1821E-01  0.1180E+02  0.1180E+02
     42.885  0.7848E-01  0.9811E-01  0.1181E+02  0.1182E+02
     43.068  0.9997E-01  0.6492E-01  0.1183E+02  0.1183E+02
     43.251  0.9832E-01  0.1081E+00  0.1185E+02  0.1185E+02
     43.433  0.9363E-01  0.9310E-01  0.1186E+02  0.1187E+02
     43.616  0.3781E-01  0.3830E-01  0.1187E+02  0.1187E+02
     43.799  0.6194E-01  0.6159E-01  0.1188E+02  0.1188E+02
     43.982  0.2101E-01  0.9706E-02  0.1189E+02  0.1189E+02
     44.165  0.1026E-01  0.2918E-01  0.1189E+02  0.1189E+02
     44.347  0.7850E-01  0.8966E-01  0.1190E+02  0.1191E+02
     44.530  0.7207E-01  0.4788E-01  0.1192E+02  0.1192E+02
     44.713  0.3186E-02 -0.3380E-02  0.1192E+02  0.1192E+02
     44.896  0.1071E-01  0.2543E-01  0.1192E+02  0.1192E+02
     45.079  0.5542E-01  0.5971E-01  0.1193E+02  0.1193E+02
     45.261  0.5679E-01  0.4467E-01  0.1194E+02  0.1194E+02
     45.444  0.1050E-01  0.4130E-02  0.1194E+02  0.1194E+02
     45.627 -0.2171E-02 -0.1600E-02  0.1194E+02  0.1194E+02
     45.810 -0.7103E-03 -0.8373E-03  0.1194E+02  0.1194E+02
     45.993  0.5025E-03  0.2355E-02  0.1194E+02  0.1194E+02
     46.175  0.1699E-01  0.1939E-01  0.1194E+02  0.1194E+02
     46.358  0.2054E-01  0.2461E-01  0.1195E+02  0.1195E+02
     46.541  0.4171E-01  0.4315E-01  0.1195E+02  0.1196E+02
     46.724  0.2468E-01  0.1908E-01  0.1196E+02  0.1196E+02
     46.907  0.2507E-01  0.2972E-01  0.1196E+02  0.1197E+02
     47.089  0.2796E-01  0.2295E-01  0.1197E+02  0.1197E+02
     47.272  0.1095E-01  0.1694E-01  0.1197E+02  0.1197E+02
     47.455  0.4049E-01  0.4432E-01  0.1198E+02  0.1198E+02
     47.638  0.2356E-01  0.9980E-02  0.1198E+02  0.1198E+02
     47.821 -0.2422E-02 -0.2781E-02  0.1198E+02  0.1198E+02
     48.003  0.1387E-02  0.4496E-02  0.1198E+02  0.1198E+02
     48.186  0.2064E-01  0.2250E-01  0.1199E+02  0.1199E+02
     48.369  0.1213E-01  0.7801E-02  0.1199E+02  0.1199E+02
     48.552 -0.8728E-03 -0.1075E-02  0.1199E+02  0.1199E+02
     48.735 -0.8596E-03 -0.1001E-02  0.1199E+02  0.1199E+02
     48.917  0.1339E-02  0.4067E-02  0.1199E+02  0.1199E+02
     49.100  0.1982E-01  0.2199E-01  0.1199E+02  0.1199E+02
     49.283  0.1216E-01  0.7996E-02  0.1199E+02  0.1199E+02
     49.466  0.8144E-02  0.1356E-01  0.1200E+02  0.1200E+02
     49.649  0.2193E-01  0.1877E-01  0.1200E+02  0.1200E+02
     49.831  0.3810E-02  0.7570E-03  0.1200E+02  0.1200E+02
     50.014 -0.8576E-03 -0.5465E-03  0.1200E+02  0.1200E+02
     50.197 -0.5591E-04 -0.1937E-04  0.1200E+02  0.1200E+02
     50.380 -0.4472E-06 -0.9634E-07  0.1200E+02  0.1200E+02
     50.563 -0.5892E-09 -0.8095E-10  0.1200E+02  0.1200E+02
     50.745 -0.1367E-12 -0.1209E-13  0.1200E+02  0.1200E+02
     50.928 -0.7288E-17  0.0000E+00  0.1200E+02  0.1200E+02
     51.111  0.0000E+00  0.0000E+00  0.1200E+02  0.1200E+02
     51.294  0.0000E+00  0.0000E+00  0.1200E+02  0.1200E+02
     51.477  0.0000E+00  0.0000E+00  0.1200E+02  0.1200E+02
     51.659  0.0000E+00  0.0000E+00  0.1200E+02  0.1200E+02
     51.842  0.0000E+00  0.0000E+00  0.1200E+02  0.1200E+02
     52.025  0.0000E+00  0.0000E+00  0.1200E+02  0.1200E+02
