    1    1    1    2
  0.1215678E+02  0.2580940E-09  0.2580940E-09  0.2580940E-09  0.5000000E-15
  1.000000000000000E-004
  CAR 
 fcc Ni                                  
     10    110     12
 
  0.5000000E-01  0.5000000E-01  0.5000000E-01  0.2000000E-02
    1       -0.275382     -0.322929   1.000000   1.000000
    2        5.701870      6.445728   1.000000   1.000000
    3        5.741971      6.489827   1.000000   1.000000
    4        5.741971      6.489827   1.000000   1.000000
    5        6.708534      7.342151   1.000000   1.000318
    6        6.708534      7.342151   1.000000   1.000318
    7       30.341279     30.197271   0.000000   0.000000
    8       32.454150     32.436287   0.000000   0.000000
    9       33.442185     33.446061   0.000000   0.000000
   10       33.442185     33.446061   0.000000   0.000000
   11       36.850253     36.893006   0.000000   0.000000
   12       36.850255     36.893013   0.000000   0.000000
 
  0.1500000E+00  0.5000000E-01  0.5000000E-01  0.6000000E-02
    1        0.198562      0.152027   1.000000   1.000000
    2        5.590518      6.319373   1.000000   1.000000
    3        5.825693      6.578042   1.000000   1.000000
    4        5.838751      6.584894   1.000000   1.000000
    5        6.626750      7.254980   1.000000   1.000028
    6        6.732137      7.370649   1.000000   1.000641
    7       27.855866     27.864610   0.000000   0.000000
    8       30.016737     30.007939   0.000000   0.000000
    9       32.598430     32.535545   0.000000   0.000000
   10       34.081306     34.092007   0.000000   0.000000
   11       36.811874     36.749756   0.000000   0.000000
   12       37.068322     37.097549   0.000000   0.000000
 
  0.2500000E+00  0.5000000E-01  0.5000000E-01  0.6000000E-02
    1        1.311313      1.276904   1.000000   1.000000
    2        5.437452      6.121369   1.000000   1.000000
    3        5.921807      6.636344   1.000000   1.000000
    4        5.943949      6.672171   1.000000   1.000000
    5        6.613107      7.269023   1.000000   1.000043
    6        6.827740      7.500709   1.000000   1.008581
    7       22.905643     22.995562   0.000000   0.000000
    8       28.992929     28.998422   0.000000   0.000000
    9       32.096485     32.024139   0.000000   0.000000
   10       33.393933     33.459738   0.000000   0.000000
   11       36.422624     36.369589   0.000000   0.000000
   12       36.584879     36.596176   0.000000   0.000000
 
  0.3500000E+00  0.5000000E-01  0.5000000E-01  0.6000000E-02
    1        2.727832      2.788055   1.000000   1.000000
    2        5.581777      6.123673   1.000000   1.000000
    3        5.862092      6.529304   1.000000   1.000000
    4        5.899243      6.571625   1.000000   1.000000
    5        6.843495      7.564082   1.000000   1.020276
    6        7.105014      7.819945   1.000000   0.798412
    7       18.277323     18.438473   0.000000   0.000000
    8       28.442588     28.441772   0.000000   0.000000
    9       31.015825     30.950473   0.000000   0.000000
   10       32.490770     32.594069   0.000000   0.000000
   11       34.524610     34.528691   0.000000   0.000000
   12       36.144364     36.140336   0.000000   0.000000
 
  0.4500000E+00  0.5000000E-01  0.5000000E-01  0.6000000E-02
    1        3.550535      3.888831   1.000000   1.000000
    2        5.753573      6.391687   1.000000   1.000000
    3        5.803973      6.451630   1.000000   1.000000
    4        6.537806      6.833293   1.000000   1.000000
    5        7.131178      7.887883   1.000000   0.535515
    6        7.614632      8.217820   1.031466  -0.022711
    7       14.421513     14.701134   0.000000   0.000000
    8       28.356303     28.313985   0.000000   0.000000
    9       30.165801     30.137757   0.000000   0.000000
   10       31.083979     31.168932   0.000000   0.000000
   11       34.036928     34.057872   0.000000   0.000000
   12       35.346126     35.353266   0.000000   0.000000
 
 -0.4500000E+00  0.5000000E-01  0.5000000E-01  0.6000000E-02
    1        3.673998      4.104068   1.000000   1.000000
    2        5.713563      6.343429   1.000000   1.000000
    3        5.778138      6.422616   1.000000   1.000000
    4        6.876094      7.289693   1.000000   1.000078
    5        7.268265      8.034556   1.000042   0.043180
    6        8.217745      8.510597  -0.022729  -0.000062
    7       12.919658     13.308316  -0.000000  -0.000000
    8       28.665667     28.551927   0.000000   0.000000
    9       29.958672     30.031626   0.000000   0.000000
   10       30.085209     30.135850   0.000000   0.000000
   11       34.567997     34.595571   0.000000   0.000000
   12       34.718104     34.720908   0.000000   0.000000
 
 -0.3500000E+00  0.5000000E-01  0.5000000E-01  0.6000000E-02
    1        3.384449      3.630135   1.000000   1.000000
    2        5.775028      6.394948   1.000000   1.000000
    3        5.842283      6.500732   1.000000   1.000000
    4        6.145298      6.520665   1.000000   1.000000
    5        7.177079      7.926716   1.000002   0.372875
    6        7.277330      7.950979   1.000054   0.277885
    7       15.580209     15.810664   0.000000   0.000000
    8       29.155726     29.022843   0.000000   0.000000
    9       29.518666     29.592452   0.000000   0.000000
   10       31.057440     31.150169   0.000000   0.000000
   11       34.628362     34.616726   0.000000   0.000000
   12       35.817171     35.836818   0.000000   0.000000
 
 -0.2500000E+00  0.5000000E-01  0.5000000E-01  0.6000000E-02
    1        2.267304      2.275604   1.000000   1.000000
    2        5.453336      6.063955   1.000000   1.000000
    3        5.893047      6.569976   1.000000   1.000000
    4        5.930744      6.623477   1.000000   1.000000
    5        6.803523      7.503346   1.000000   1.008946
    6        6.944437      7.651536   1.000000   1.035458
    7       19.753974     19.888714   0.000000   0.000000
    8       29.730378     29.687963   0.000000   0.000000
    9       29.794752     29.804970   0.000000   0.000000
   10       32.779348     32.862656   0.000000   0.000000
   11       35.006458     34.975044   0.000000   0.000000
   12       37.639627     37.643442   0.000000   0.000000
 
 -0.1500000E+00  0.5000000E-01  0.5000000E-01  0.6000000E-02
    1        0.880670      0.839092   1.000000   1.000000
    2        5.471917      6.175921   1.000000   1.000000
    3        5.914372      6.649653   1.000000   1.000000
    4        5.920823      6.658797   1.000000   1.000000
    5        6.598655      7.241018   1.000000   1.000018
    6        6.772074      7.425247   1.000000   1.002158
    7       24.552441     24.620219   0.000000   0.000000
    8       30.488383     30.394644   0.000000   0.000000
    9       30.519147     30.583507   0.000000   0.000000
   10       34.167049     34.169553   0.000000   0.000000
   11       35.620824     35.600078   0.000000   0.000000
   12       38.979560     39.038985   0.000000   0.000000
 
 -0.5000000E-01  0.5000000E-01  0.5000000E-01  0.6000000E-02
    1       -0.036618     -0.083861   1.000000   1.000000
    2        5.630390      6.367166   1.000000   1.000000
    3        5.797604      6.547215   1.000000   1.000000
    4        5.798378      6.547961   1.000000   1.000000
    5        6.640476      7.269355   1.000000   1.000043
    6        6.738709      7.374333   1.000000   1.000699
    7       29.351629     29.296032   0.000000   0.000000
    8       31.341969     31.290256   0.000000   0.000000
    9       31.815103     31.856171   0.000000   0.000000
   10       33.469784     33.444299   0.000000   0.000000
   11       36.981112     37.000955   0.000000   0.000000
   12       38.477491     38.462071   0.000000   0.000000
 
  0.1500000E+00  0.1500000E+00  0.5000000E-01  0.6000000E-02
    1        0.431777      0.385771   1.000000   1.000000
    2        5.489294      6.212912   1.000000   1.000000
    3        5.910609      6.662594   1.000000   1.000000
    4        5.912546      6.665521   1.000000   1.000000
    5        6.520635      7.140747   1.000000   1.000001
    6        6.795689      7.435283   1.000000   1.002646
    7       28.034611     28.045284   0.000000   0.000000
    8       29.990489     30.049064   0.000000   0.000000
    9       30.192878     30.139306   0.000000   0.000000
   10       32.330642     32.282428   0.000000   0.000000
   11       36.756475     36.907684   0.000000   0.000000
   12       38.747802     38.749498   0.000000   0.000000
 
  0.2500000E+00  0.1500000E+00  0.5000000E-01  0.1200000E-01
    1        1.322473      1.284184   1.000000   1.000000
    2        5.303745      6.003201   1.000000   1.000000
    3        5.986908      6.688111   1.000000   1.000000
    4        6.078863      6.833733   1.000000   1.000000
    5        6.468636      7.111875   1.000000   1.000000
    6        6.901353      7.564341   1.000000   1.020334
    7       24.892896     24.959516   0.000000   0.000000
    8       26.978480     27.019635   0.000000   0.000000
    9       30.743258     30.704307   0.000000   0.000000
   10       32.048395     32.017081   0.000000   0.000000
   11       34.854193     35.026165   0.000000   0.000000
   12       39.051915     38.997913   0.000000   0.000000
 
  0.3500000E+00  0.1500000E+00  0.5000000E-01  0.1200000E-01
    1        2.656272      2.672589   1.000000   1.000000
    2        5.220243      5.857363   1.000000   1.000000
    3        5.824720      6.468239   1.000000   1.000000
    4        6.112314      6.811556   1.000000   1.000000
    5        6.801896      7.495814   1.000000   1.007934
    6        7.195413      7.897869   1.000004   0.493296
    7       20.111705     20.236401   0.000000   0.000000
    8       26.227694     26.272700   0.000000   0.000000
    9       29.264045     29.243407   0.000000   0.000000
   10       31.115217     31.180099   0.000000   0.000000
   11       36.900034     36.940567   0.000000   0.000000
   12       37.678130     37.631873   0.000000   0.000000
 
  0.4500000E+00  0.1500000E+00  0.5000000E-01  0.1200000E-01
    1        3.700261      3.964133   1.000000   1.000000
    2        5.542958      6.002137   1.000000   1.000000
    3        5.701443      6.336028   1.000000   1.000000
    4        6.029070      6.690170   1.000000   1.000000
    5        7.166224      7.909898   1.000002   0.442546
    6        8.014207      8.582393   0.084702  -0.000007
    7       15.894833     16.103007   0.000000   0.000000
    8       26.081779     26.108280   0.000000   0.000000
    9       27.469117     27.509875   0.000000   0.000000
   10       30.439168     30.460425   0.000000   0.000000
   11       36.506215     36.500738   0.000000   0.000000
   12       38.749717     38.721590   0.000000   0.000000
 
 -0.4500000E+00  0.1500000E+00  0.5000000E-01  0.1200000E-01
    1        3.951837      4.405695   1.000000   1.000000
    2        5.523040      6.062163   1.000000   1.000000
    3        5.957339      6.603153   1.000000   1.000000
    4        6.145741      6.654493   1.000000   1.000000
    5        7.243681      8.013550   1.000020   0.086217
    6        9.434084      9.706982  -0.000000  -0.000000
    7       13.055692     13.415108  -0.000000   0.000000
    8       25.763557     25.777098   0.000000   0.000000
    9       26.942689     27.011055   0.000000   0.000000
   10       30.398639     30.387273   0.000000   0.000000
   11       35.780868     35.798440   0.000000   0.000000
   12       38.419479     38.390936   0.000000   0.000000
 
 -0.3500000E+00  0.1500000E+00  0.5000000E-01  0.1200000E-01
    1        3.854508      4.213746   1.000000   1.000000
    2        5.584380      6.119041   1.000000   1.000000
    3        5.892091      6.411329   1.000000   1.000000
    4        5.996511      6.633389   1.000000   1.000000
    5        7.084715      7.841970   1.000000   0.720697
    6        8.561870      9.045617  -0.000013  -0.000000
    7       14.706403     14.959293   0.000000   0.000000
    8       25.016848     25.059995   0.000000   0.000000
    9       28.159872     28.194009   0.000000   0.000000
   10       31.077530     31.068829   0.000000   0.000000
   11       35.428188     35.448582   0.000000   0.000000
   12       38.116106     38.089573   0.000000   0.000000
 
 -0.2500000E+00  0.1500000E+00  0.5000000E-01  0.1200000E-01
    1        3.102662      3.171884   1.000000   1.000000
    2        5.330601      5.924033   1.000000   1.000000
    3        5.754229      6.389786   1.000000   1.000000
    4        6.078133      6.748460   1.000000   1.000000
    5        6.740575      7.460889   1.000000   1.004331
    6        7.525684      8.212636   1.012479  -0.023910
    7       18.637106     18.786516   0.000000   0.000000
    8       24.886143     24.941207   0.000000   0.000000
    9       30.002847     29.999797   0.000000   0.000000
   10       32.432424     32.460454   0.000000   0.000000
   11       35.488316     35.482831   0.000000   0.000000
   12       37.393334     37.371695   0.000000   0.000000
 
 -0.1500000E+00  0.1500000E+00  0.5000000E-01  0.1200000E-01
    1        1.739867      1.710247   1.000000   1.000000
    2        5.298266      5.985128   1.000000   1.000000
    3        5.918387      6.598266   1.000000   1.000000
    4        6.104694      6.853687   1.000000   1.000000
    5        6.469597      7.107691   1.000000   1.000000
    6        7.031824      7.721083   1.000000   1.007020
    7       23.257505     23.345067   0.000000   0.000000
    8       25.407968     25.461034   0.000000   0.000000
    9       32.185583     32.138934   0.000000   0.000000
   10       33.469555     33.446998   0.000000   0.000000
   11       35.854685     35.962300   0.000000   0.000000
   12       36.719050     36.680042   0.000000   0.000000
 
 -0.5000000E-01  0.1500000E+00  0.5000000E-01  0.1200000E-01
    1        0.659425      0.615062   1.000000   1.000000
    2        5.476559      6.192463   1.000000   1.000000
    3        5.914866      6.651413   1.000000   1.000000
    4        5.925767      6.680273   1.000000   1.000000
    5        6.540812      7.165980   1.000000   1.000002
    6        6.796670      7.445133   1.000000   1.003214
    7       26.330041     26.373580   0.000000   0.000000
    8       28.464841     28.484698   0.000000   0.000000
    9       31.968779     31.920391   0.000000   0.000000
   10       33.941217     33.882888   0.000000   0.000000
   11       36.108956     36.177834   0.000000   0.000000
   12       38.155438     38.217305   0.000000   0.000000
 
  0.2500000E+00  0.2500000E+00  0.5000000E-01  0.6000000E-02
    1        1.939667      1.912297   1.000000   1.000000
    2        5.076190      5.762789   1.000000   1.000000
    3        6.121155      6.738281   1.000000   1.000000
    4        6.289284      7.054254   1.000000   1.000000
    5        6.432841      7.153498   1.000000   1.000001
    6        6.970248      7.623464   1.000000   1.033000
    7       25.300865     25.362249   0.000000   0.000000
    8       26.598143     26.659995   0.000000   0.000000
    9       28.047035     28.011844   0.000000   0.000000
   10       28.865959     28.877971   0.000000   0.000000
   11       32.097220     32.269379   0.000000   0.000000
   12       42.879304     42.789728   0.000000   0.000000
 
  0.3500000E+00  0.2500000E+00  0.5000000E-01  0.1200000E-01
    1        2.987564      3.015897   1.000000   1.000000
    2        4.887283      5.549483   1.000000   1.000000
    3        5.934325      6.526652   1.000000   1.000000
    4        6.498958      7.243438   1.000000   1.000020
    5        6.833740      7.510012   1.000000   1.009916
    6        7.210768      7.905430   1.000007   0.461346
    7       22.400553     22.485090   0.000000   0.000000
    8       24.318502     24.371943   0.000000   0.000000
    9       26.034627     26.079618   0.000000   0.000000
   10       29.356536     29.385193   0.000000   0.000000
   11       32.498275     32.601459   0.000000   0.000000
   12       42.281383     42.224774   0.000000   0.000000
 
  0.4500000E+00  0.2500000E+00  0.5000000E-01  0.1200000E-01
    1        3.970408      4.186020   1.000000   1.000000
    2        4.891108      5.478956   1.000000   1.000000
    3        5.711011      6.305107   1.000000   1.000000
    4        6.455439      7.142837   1.000000   1.000001
    5        7.215384      7.957992   1.000008   0.252163
    6        8.314858      8.851928  -0.005855  -0.000000
    7       18.002760     18.139555   0.000000   0.000000
    8       23.581415     23.633274   0.000000   0.000000
    9       24.178752     24.253211   0.000000   0.000000
   10       29.379189     29.414387   0.000000   0.000000
   11       35.913321     35.966519   0.000000   0.000000
   12       40.721278     40.696617   0.000000   0.000000
 
 -0.4500000E+00  0.2500000E+00  0.5000000E-01  0.1200000E-01
    1        4.361670      4.836179   1.000000   1.000000
    2        5.073110      5.520580   1.000000   1.000000
    3        5.675313      6.289206   1.000000   1.000000
    4        6.353777      7.011142   1.000000   1.000000
    5        7.256259      8.035551   1.000029   0.041414
    6       10.433644     10.740255  -0.000000  -0.000000
    7       14.289476     14.522809   0.000000   0.000000
    8       21.922248     22.004852   0.000000   0.000000
    9       24.576822     24.636553   0.000000   0.000000
   10       29.544432     29.561640   0.000000   0.000000
   11       38.741382     38.731372   0.000000   0.000000
   12       41.012823     41.052224   0.000000   0.000000
 
 -0.3500000E+00  0.2500000E+00  0.5000000E-01  0.1200000E-01
    1        4.448752      4.922420   1.000000   1.000000
    2        5.201588      5.653565   1.000000   1.000000
    3        5.579213      6.180309   1.000000   1.000000
    4        6.307458      6.945898   1.000000   1.000000
    5        7.050285      7.835044   1.000000   0.746154
    6       10.540222     10.858696  -0.000000  -0.000000
    7       14.301222     14.545213   0.000000   0.000000
    8       20.803763     20.898335   0.000000   0.000000
    9       25.825682     25.883746   0.000000   0.000000
   10       30.248317     30.249840   0.000000   0.000000
   11       38.023385     38.005075   0.000000   0.000000
   12       41.667758     41.620723   0.000000   0.000000
 
 -0.2500000E+00  0.2500000E+00  0.5000000E-01  0.1200000E-01
    1        4.128953      4.324778   1.000000   1.000000
    2        5.194912      5.807607   1.000000   1.000000
    3        5.452912      6.028918   1.000000   1.000000
    4        6.362384      6.980087   1.000000   1.000000
    5        6.686276      7.469438   1.000000   1.005060
    6        8.674640      9.238377  -0.000000  -0.000000
    7       18.006652     18.161353   0.000000   0.000000
    8       20.425261     20.523956   0.000000   0.000000
    9       27.696125     27.743087   0.000000   0.000000
   10       31.651879     31.652523   0.000000   0.000000
   11       36.907715     36.857615   0.000000   0.000000
   12       40.425234     40.427967   0.000000   0.000000
 
 -0.1500000E+00  0.2500000E+00  0.5000000E-01  0.1200000E-01
    1        3.025479      3.054174   1.000000   1.000000
    2        5.179999      5.833465   1.000000   1.000000
    3        5.738159      6.363069   1.000000   1.000000
    4        6.271926      6.938742   1.000000   1.000000
    5        6.500854      7.223662   1.000000   1.000011
    6        7.592525      8.280902   1.026806  -0.010168
    7       20.469987     20.592408   0.000000   0.000000
    8       22.692425     22.770276   0.000000   0.000000
    9       29.983920     29.999951   0.000000   0.000000
   10       33.412378     33.426889   0.000000   0.000000
   11       35.205789     35.156697   0.000000   0.000000
   12       38.213022     38.245385   0.000000   0.000000
 
 -0.5000000E-01  0.2500000E+00  0.5000000E-01  0.1200000E-01
    1        1.922665      1.904153   1.000000   1.000000
    2        5.350869      6.012469   1.000000   1.000000
    3        5.911562      6.592103   1.000000   1.000000
    4        6.007484      6.718066   1.000000   1.000000
    5        6.629194      7.308866   1.000000   1.000132
    6        6.985119      7.678696   1.000000   1.032011
    7       21.426236     21.535408   0.000000   0.000000
    8       27.557747     27.588021   0.000000   0.000000
    9       31.116178     31.061462   0.000000   0.000000
   10       33.286242     33.366257   0.000000   0.000000
   11       35.515183     35.477005   0.000000   0.000000
   12       37.088582     37.089314   0.000000   0.000000
 
  0.3500000E+00  0.3500000E+00  0.5000000E-01  0.6000000E-02
    1        3.497622      3.628918   1.000000   1.000000
    2        4.635238      5.284942   1.000000   1.000000
    3        6.439132      6.927039   1.000000   1.000000
    4        6.776844      7.551044   1.000000   1.017420
    5        7.108136      7.777442   1.000000   0.917401
    6        7.166272      7.848865   1.000002   0.694532
    7       22.785866     22.840377   0.000000   0.000000
    8       23.116793     23.193186   0.000000   0.000000
    9       23.897657     23.936470   0.000000   0.000000
   10       27.397589     27.463625   0.000000   0.000000
   11       30.258111     30.370840   0.000000   0.000000
   12       46.825882     46.784270   0.000000   0.000000
 
  0.4500000E+00  0.3500000E+00  0.5000000E-01  0.1200000E-01
    1        3.949024      4.229353   1.000000   1.000000
    2        4.520551      5.152460   1.000000   1.000000
    3        6.396446      6.978495   1.000000   1.000000
    4        6.968022      7.684515   1.000000   1.030206
    5        7.229176      7.970346   1.000013   0.209171
    6        8.492800      8.916358  -0.000103  -0.000000
    7       20.385330     20.475639   0.000000   0.000000
    8       20.685273     20.782728   0.000000   0.000000
    9       22.405939     22.449803   0.000000   0.000000
   10       28.300469     28.356716   0.000000   0.000000
   11       31.378644     31.469883   0.000000   0.000000
   12       45.169652     45.129814   0.000000   0.000000
 
 -0.4500000E+00  0.3500000E+00  0.5000000E-01  0.1200000E-01
    1        4.299295      4.703242   1.000000   1.000000
    2        4.603336      5.188819   1.000000   1.000000
    3        6.091048      6.700611   1.000000   1.000000
    4        6.837623      7.502483   1.000000   1.008825
    5        7.290932      8.093124   1.000080  -0.023409
    6       10.864479     11.126619  -0.000000  -0.000000
    7       16.664811     16.789938   0.000000   0.000000
    8       18.645137     18.788881   0.000000   0.000000
    9       22.676500     22.721126   0.000000   0.000000
   10       28.708547     28.759641   0.000000   0.000000
   11       35.229333     35.290607   0.000000   0.000000
   12       43.378524     43.339384   0.000000   0.000000
 
 -0.3500000E+00  0.3500000E+00  0.5000000E-01  0.1200000E-01
    1        4.615049      5.138216   1.000000   1.000000
    2        4.810853      5.280306   1.000000   1.000000
    3        5.694683      6.310714   1.000000   1.000000
    4        6.686318      7.310890   1.000000   1.000140
    5        7.114584      7.938086   1.000000   0.327335
    6       13.098957     13.294943  -0.000000  -0.000000
    7       13.990316     14.185660   0.000000   0.000000
    8       17.563909     17.723996   0.000000   0.000000
    9       23.816838     23.871984   0.000000   0.000000
   10       29.252560     29.282491   0.000000   0.000000
   11       40.072411     40.115029   0.000000   0.000000
   12       41.652161     41.599705   0.000000   0.000000
 
 -0.2500000E+00  0.3500000E+00  0.5000000E-01  0.1200000E-01
    1        4.657117      5.089001   1.000000   1.000000
    2        5.114597      5.591955   1.000000   1.000000
    3        5.365490      5.982730   1.000000   1.000000
    4        6.478846      7.094132   1.000000   1.000000
    5        6.911845      7.720246   1.000000   1.007816
    6       10.561347     10.915348  -0.000000  -0.000000
    7       15.836429     16.016918   0.000000   0.000000
    8       18.704743     18.829399   0.000000   0.000000
    9       25.618250     25.677775   0.000000   0.000000
   10       30.226027     30.233772   0.000000   0.000000
   11       39.075471     39.023906   0.000000   0.000000
   12       42.830867     42.777802   0.000000   0.000000
 
 -0.1500000E+00  0.3500000E+00  0.5000000E-01  0.1200000E-01
    1        4.003923      4.283019   1.000000   1.000000
    2        5.456675      5.928236   1.000000   1.000000
    3        5.513222      6.152646   1.000000   1.000000
    4        6.164534      6.808191   1.000000   1.000000
    5        6.891931      7.650194   1.000000   1.035453
    6        8.642451      9.181520  -0.000001  -0.000000
    7       16.248028     16.441294   0.000000   0.000000
    8       22.614447     22.689244   0.000000   0.000000
    9       27.850919     27.892789   0.000000   0.000000
   10       31.461576     31.454773   0.000000   0.000000
   11       36.180578     36.175186   0.000000   0.000000
   12       39.399441     39.366360   0.000000   0.000000
 
 -0.5000000E-01  0.3500000E+00  0.5000000E-01  0.1200000E-01
    1        3.231893      3.378992   1.000000   1.000000
    2        5.655825      6.133994   1.000000   1.000000
    3        5.772806      6.424494   1.000000   1.000000
    4        5.932846      6.597157   1.000000   1.000000
    5        6.980542      7.706691   1.000000   1.018851
    6        7.399925      8.087509   1.001256  -0.019954
    7       16.992262     17.178552   0.000000   0.000000
    8       27.210255     27.230583   0.000000   0.000000
    9       29.902130     29.863577   0.000000   0.000000
   10       31.441920     31.519524   0.000000   0.000000
   11       35.235559     35.227262   0.000000   0.000000
   12       36.856897     36.852028   0.000000   0.000000
 
  0.4500000E+00  0.4500000E+00  0.5000000E-01  0.6000000E-02
    1        3.887265      4.236906   1.000000   1.000000
    2        4.330117      4.955798   1.000000   1.000000
    3        7.117740      7.871888   1.000000   0.602386
    4        7.187511      7.890604   1.000003   0.524027
    5        7.317257      8.108287   1.000166  -0.030286
    6        9.180039      9.311858  -0.000000  -0.000000
    7       18.022839     18.192962   0.000000   0.000000
    8       21.423263     21.452004   0.000000   0.000000
    9       22.217568     22.226056   0.000000   0.000000
   10       26.831738     26.930576   0.000000   0.000000
   11       29.640132     29.749940   0.000000   0.000000
   12       49.069187     49.030691   0.000000   0.000000
 
 -0.4500000E+00  0.4500000E+00  0.5000000E-01  0.1200000E-01
    1        4.002171      4.388472   1.000000   1.000000
    2        4.337141      4.955346   1.000000   1.000000
    3        6.865027      7.569246   1.000000   1.021447
    4        7.196881      7.852308   1.000004   0.681188
    5        7.350363      8.192313   1.000391  -0.028527
    6       10.860152     10.957925  -0.000000  -0.000000
    7       16.532649     16.754534   0.000000   0.000000
    8       19.695013     19.751483   0.000000   0.000000
    9       21.449722     21.472768   0.000000   0.000000
   10       27.894989     27.967334   0.000000   0.000000
   11       31.004309     31.099164   0.000000   0.000000
   12       47.413320     47.352473   0.000000   0.000000
 
 -0.3500000E+00  0.4500000E+00  0.5000000E-01  0.1200000E-01
    1        4.292165      4.711750   1.000000   1.000000
    2        4.542373      5.133744   1.000000   1.000000
    3        6.231387      6.866359   1.000000   1.000000
    4        6.955752      7.596540   1.000000   1.027708
    5        7.267912      8.101422   1.000041  -0.027591
    6       12.173441     12.340719  -0.000000  -0.000000
    7       16.264124     16.393016   0.000000   0.000000
    8       16.982434     17.167831   0.000000   0.000000
    9       22.381518     22.421480   0.000000   0.000000
   10       28.596048     28.651302   0.000000   0.000000
   11       35.106655     35.169933   0.000000   0.000000
   12       44.400381     44.339542   0.000000   0.000000
 
 -0.2500000E+00  0.4500000E+00  0.5000000E-01  0.1200000E-01
    1        4.537810      5.064481   1.000000   1.000000
    2        4.898108      5.342515   1.000000   1.000000
    3        5.682050      6.296362   1.000000   1.000000
    4        6.541086      7.187514   1.000000   1.000003
    5        7.195604      7.993508   1.000004   0.137622
    6       11.986072     12.207306  -0.000000  -0.000000
    7       13.843465     14.079262   0.000000   0.000000
    8       19.489877     19.607964   0.000000   0.000000
    9       24.070802     24.127333   0.000000   0.000000
   10       29.342854     29.367946   0.000000   0.000000
   11       39.703098     39.709749   0.000000   0.000000
   12       41.119497     41.128543   0.000000   0.000000
 
 -0.1500000E+00  0.4500000E+00  0.5000000E-01  0.1200000E-01
    1        4.194658      4.671862   1.000000   1.000000
    2        5.353678      5.832309   1.000000   1.000000
    3        5.853391      6.419601   1.000000   1.000000
    4        6.118388      6.764608   1.000000   1.000000
    5        7.178208      7.953269   1.000002   0.269388
    6       10.255073     10.515010  -0.000000  -0.000000
    7       13.222734     13.553570  -0.000000   0.000000
    8       23.248205     23.311191   0.000000   0.000000
    9       26.247143     26.303746   0.000000   0.000000
   10       30.304422     30.296719   0.000000   0.000000
   11       36.840437     36.844184   0.000000   0.000000
   12       40.163561     40.125814   0.000000   0.000000
 
 -0.5000000E-01  0.4500000E+00  0.5000000E-01  0.1200000E-01
    1        3.736895      4.145194   1.000000   1.000000
    2        5.663371      6.265094   1.000000   1.000000