 running on    4 total cores
 distrk:  each k-point on    4 cores,    1 groups
 distr:  one band on    1 cores,    4 groups
 using from now: INCAR     
 vasp.5.4.4.18Apr17-6-g9f103f2a35 (build Jul 01 2019 03:25:34) complex          
  
 POSCAR found type information on POSCAR  Ni
 POSCAR found :  1 types and       1 ions
 scaLAPACK will be used
 LDA part: xc-table for Pade appr. of Perdew
 POSCAR, INCAR and KPOINTS ok, starting setup
 FFT: planning ...
 WAVECAR not read
 entering main loop
       N       E                     dE             d eps       ncg     rms          rms(c)
DAV:   1     0.191506565359E+02    0.19151E+02   -0.30137E+03  5792   0.623E+02
DAV:   2    -0.535768290437E+01   -0.24508E+02   -0.22714E+02  5672   0.118E+02
DAV:   3    -0.583821007561E+01   -0.48053E+00   -0.47915E+00  6108   0.189E+01
DAV:   4    -0.584062749486E+01   -0.24174E-02   -0.24172E-02  5960   0.121E+00
DAV:   5    -0.584066157798E+01   -0.34083E-04   -0.34083E-04  6044   0.137E-01    0.129E+01
DAV:   6    -0.597306847347E+01   -0.13241E+00   -0.16203E+01  6364   0.501E+01    0.751E+00
DAV:   7    -0.540123472692E+01    0.57183E+00   -0.41796E+00  6380   0.212E+01    0.136E+00
DAV:   8    -0.539695551440E+01    0.42792E-02   -0.13984E-02  6068   0.853E-01    0.782E-01
DAV:   9    -0.539456944502E+01    0.23861E-02   -0.11023E-03  5732   0.220E-01    0.338E-01
DAV:  10    -0.539341172743E+01    0.11577E-02   -0.21969E-03  6136   0.314E-01    0.585E-02
DAV:  11    -0.539343308830E+01   -0.21361E-04   -0.33063E-05  2940   0.451E-02
   1 F= -.53934331E+01 E0= -.53923303E+01  d E =-.330831E-02  mag=     0.6378
 writing wavefunctions
