 vasp.5.4.4.18Apr17-6-g9f103f2a35 (build Jul 01 2019 03:25:34) complex          
  
 executed on             LinuxIFC date 2020.07.09  19:35:47
 running on    4 total cores
 distrk:  each k-point on    4 cores,    1 groups
 distr:  one band on NCORES_PER_BAND=   1 cores,    4 groups


--------------------------------------------------------------------------------------------------------


 INCAR:
 POTCAR:    PAW_PBE Ni 02Aug2007                  
 POTCAR:    PAW_PBE Ni 02Aug2007                  
   VRHFIN =Ni:                                                                  
   LEXCH  = PE                                                                  
   EATOM  =  1077.6739 eV,   79.2068 Ry                                         
                                                                                
   TITEL  = PAW_PBE Ni 02Aug2007                                                
   LULTRA =        F    use ultrasoft PP ?                                      
   IUNSCR =        1    unscreen: 0-lin 1-nonlin 2-no                           
   RPACOR =    2.000    partial core radius                                     
   POMASS =   58.690; ZVAL   =   10.000    mass and valenz                      
   RCORE  =    2.300    outmost cutoff radius                                   
   RWIGS  =    2.430; RWIGS  =    1.286    wigner-seitz radius (au A)           
   ENMAX  =  269.532; ENMIN  =  202.149 eV                                      
   RCLOC  =    1.201    cutoff for local pot                                    
   LCOR   =        T    correct aug charges                                     
   LPAW   =        T    paw PP                                                  
   EAUG   =  544.565                                                            
   DEXC   =    0.000                                                            
   RMAX   =    2.357    core radius for proj-oper                               
   RAUG   =    1.300    factor for augmentation sphere                          
   RDEP   =    2.390    radius for radial grids                                 
   RDEPT  =    1.838    core radius for aug-charge                              
                                                                                
   Atomic configuration                                                         
    9 entries                                                                   
     n  l   j            E        occ.                                          
     1  0  0.50     -8206.4253   2.0000                                         
     2  0  0.50      -976.1748   2.0000                                         
     2  1  1.50      -839.0571   6.0000                                         
     3  0  0.50      -105.9991   2.0000                                         
     3  1  1.50       -66.4603   6.0000                                         
     3  2  2.50        -4.6458   9.0000                                         
     4  0  0.50        -4.4926   1.0000                                         
     4  1  1.50        -4.0817   0.0000                                         
     4  3  2.50        -1.3606   0.0000                                         
   Description                                                                  
     l       E           TYP  RCUT    TYP  RCUT                                 
     2     -4.6457903     23  2.300                                             
     2     -6.0063729     23  2.300                                             
     0     -4.4925590     23  2.300                                             
     0      5.0102601     23  2.300                                             
     1     -2.7211652     23  2.300                                             
     1     16.5183231     23  2.300                                             
  local pseudopotential read in
  partial core-charges read in
  partial kinetic energy density read in
  atomic valenz-charges read in
  non local Contribution for L=           2  read in
    real space projection operators read in
  non local Contribution for L=           2  read in
    real space projection operators read in
  non local Contribution for L=           0  read in
    real space projection operators read in
  non local Contribution for L=           0  read in
    real space projection operators read in
  non local Contribution for L=           1  read in
    real space projection operators read in
  non local Contribution for L=           1  read in
    real space projection operators read in
    PAW grid and wavefunctions read in
 
   number of l-projection  operators is LMAX  =           6
   number of lm-projection operators is LMMAX =          18
 
  PAW_PBE Ni 02Aug2007                  :
 energy of atom  1       EATOM=-1077.6739
 kinetic energy error for atom=    0.0378 (will be added to EATOM!!)
 
 
 POSCAR: FCC Ni Bulk                             
  positions in direct lattice
  No initial velocities read in
 exchange correlation table for  LEXCH =        8
   RHO(1)=    0.500       N(1)  =     2000
   RHO(2)=  100.500       N(2)  =     4000
 


--------------------------------------------------------------------------------------------------------


 ion  position               nearest neighbor table
   1  0.000  0.000  0.000-
 
  LATTYP: Found a face centered cubic cell.
 ALAT       =     3.6500000000
  
  Lattice vectors:
  
 A1 = (   0.0000000000,   1.8250000000,   1.8250000000)
 A2 = (   1.8250000000,   0.0000000000,   1.8250000000)
 A3 = (   1.8250000000,   1.8250000000,   0.0000000000)


Analysis of symmetry for initial positions (statically):
=====================================================================
 Subroutine PRICEL returns:
 Original cell was already a primitive cell.
 

 Routine SETGRP: Setting up the symmetry group for a 
 face centered cubic supercell.


 Subroutine GETGRP returns: Found 48 space group operations
 (whereof 48 operations were pure point group operations)
 out of a pool of 48 trial point group operations.


The static configuration has the point symmetry O_h .


Analysis of symmetry for dynamics (positions and initial velocities):
=====================================================================
 Subroutine PRICEL returns:
 Original cell was already a primitive cell.
 

 Routine SETGRP: Setting up the symmetry group for a 
 face centered cubic supercell.


 Subroutine GETGRP returns: Found 48 space group operations
 (whereof 48 operations were pure point group operations)
 out of a pool of 48 trial point group operations.


The dynamic configuration has the point symmetry O_h .


Analysis of structural, dynamic, and magnetic symmetry:
=====================================================================
 Subroutine PRICEL returns:
 Original cell was already a primitive cell.
 

 Routine SETGRP: Setting up the symmetry group for a 
 face centered cubic supercell.


 Subroutine GETGRP returns: Found 48 space group operations
 (whereof 48 operations were pure point group operations)
 out of a pool of 48 trial point group operations.


The magnetic configuration has the point symmetry O_h .


 Subroutine INISYM returns: Found 48 space group operations
 (whereof 48 operations are pure point group operations),
 and found     1 'primitive' translations

 
 
 KPOINTS: 10x10x10                                

Automatic generation of k-mesh.
Space group operators:
 irot       det(A)        alpha          n_x          n_y          n_z        tau_x        tau_y        tau_z
    1     1.000000     0.000000     1.000000     0.000000     0.000000     0.000000     0.000000     0.000000
    2    -1.000000     0.000000     1.000000     0.000000     0.000000     0.000000     0.000000     0.000000
    3     1.000000   120.000000    -0.577350    -0.577350    -0.577350     0.000000     0.000000     0.000000
    4    -1.000000   120.000000    -0.577350    -0.577350    -0.577350     0.000000     0.000000     0.000000
    5     1.000000   120.000000     0.577350     0.577350     0.577350     0.000000     0.000000     0.000000
    6    -1.000000   120.000000     0.577350     0.577350     0.577350     0.000000     0.000000     0.000000
    7     1.000000    90.000000     0.000000     0.000000    -1.000000     0.000000     0.000000     0.000000
    8    -1.000000    90.000000     0.000000     0.000000    -1.000000     0.000000     0.000000     0.000000
    9     1.000000   180.000000     0.000000     0.707107     0.707107     0.000000     0.000000     0.000000
   10    -1.000000   180.000000     0.000000     0.707107     0.707107     0.000000     0.000000     0.000000
   11     1.000000    90.000000     0.000000     1.000000     0.000000     0.000000     0.000000     0.000000
   12    -1.000000    90.000000     0.000000     1.000000     0.000000     0.000000     0.000000     0.000000
   13     1.000000   180.000000     0.000000     0.000000     1.000000     0.000000     0.000000     0.000000
   14    -1.000000   180.000000     0.000000     0.000000     1.000000     0.000000     0.000000     0.000000
   15     1.000000   120.000000    -0.577350     0.577350     0.577350     0.000000     0.000000     0.000000
   16    -1.000000   120.000000    -0.577350     0.577350     0.577350     0.000000     0.000000     0.000000
   17     1.000000   120.000000    -0.577350     0.577350    -0.577350     0.000000     0.000000     0.000000
   18    -1.000000   120.000000    -0.577350     0.577350    -0.577350     0.000000     0.000000     0.000000
   19     1.000000    90.000000     0.000000     0.000000     1.000000     0.000000     0.000000     0.000000
   20    -1.000000    90.000000     0.000000     0.000000     1.000000     0.000000     0.000000     0.000000
   21     1.000000    90.000000    -1.000000     0.000000     0.000000     0.000000     0.000000     0.000000
   22    -1.000000    90.000000    -1.000000     0.000000     0.000000     0.000000     0.000000     0.000000
   23     1.000000   180.000000     0.707107     0.000000     0.707107     0.000000     0.000000     0.000000
   24    -1.000000   180.000000     0.707107     0.000000     0.707107     0.000000     0.000000     0.000000
   25     1.000000   120.000000     0.577350    -0.577350     0.577350     0.000000     0.000000     0.000000
   26    -1.000000   120.000000     0.577350    -0.577350     0.577350     0.000000     0.000000     0.000000
   27     1.000000   120.000000    -0.577350    -0.577350     0.577350     0.000000     0.000000     0.000000
   28    -1.000000   120.000000    -0.577350    -0.577350     0.577350     0.000000     0.000000     0.000000
   29     1.000000   180.000000     1.000000     0.000000     0.000000     0.000000     0.000000     0.000000
   30    -1.000000   180.000000     1.000000     0.000000     0.000000     0.000000     0.000000     0.000000
   31     1.000000    90.000000     0.000000    -1.000000     0.000000     0.000000     0.000000     0.000000
   32    -1.000000    90.000000     0.000000    -1.000000     0.000000     0.000000     0.000000     0.000000
   33     1.000000   180.000000     0.707107     0.707107     0.000000     0.000000     0.000000     0.000000
   34    -1.000000   180.000000     0.707107     0.707107     0.000000     0.000000     0.000000     0.000000
   35     1.000000    90.000000     1.000000     0.000000     0.000000     0.000000     0.000000     0.000000
   36    -1.000000    90.000000     1.000000     0.000000     0.000000     0.000000     0.000000     0.000000
   37     1.000000   120.000000     0.577350    -0.577350    -0.577350     0.000000     0.000000     0.000000
   38    -1.000000   120.000000     0.577350    -0.577350    -0.577350     0.000000     0.000000     0.000000
   39     1.000000   180.000000     0.000000     1.000000     0.000000     0.000000     0.000000     0.000000
   40    -1.000000   180.000000     0.000000     1.000000     0.000000     0.000000     0.000000     0.000000
   41     1.000000   120.000000     0.577350     0.577350    -0.577350     0.000000     0.000000     0.000000
   42    -1.000000   120.000000     0.577350     0.577350    -0.577350     0.000000     0.000000     0.000000
   43     1.000000   180.000000     0.000000    -0.707107     0.707107     0.000000     0.000000     0.000000
   44    -1.000000   180.000000     0.000000    -0.707107     0.707107     0.000000     0.000000     0.000000
   45     1.000000   180.000000     0.707107    -0.707107     0.000000     0.000000     0.000000     0.000000
   46    -1.000000   180.000000     0.707107    -0.707107     0.000000     0.000000     0.000000     0.000000
   47     1.000000   180.000000     0.707107     0.000000    -0.707107     0.000000     0.000000     0.000000
   48    -1.000000   180.000000     0.707107     0.000000    -0.707107     0.000000     0.000000     0.000000
 
 Subroutine IBZKPT returns following result:
 ===========================================
 
 Found    110 irreducible k-points:
 
 Following reciprocal coordinates:
            Coordinates               Weight
  0.050000  0.050000  0.050000     96.000000
  0.150000  0.050000  0.050000    288.000000
  0.250000  0.050000  0.050000    288.000000
  0.350000  0.050000  0.050000    288.000000
  0.450000  0.050000  0.050000    288.000000
 -0.450000  0.050000  0.050000    288.000000
 -0.350000  0.050000  0.050000    288.000000
 -0.250000  0.050000  0.050000    288.000000
 -0.150000  0.050000  0.050000    288.000000
 -0.050000  0.050000  0.050000    288.000000
  0.150000  0.150000  0.050000    288.000000
  0.250000  0.150000  0.050000    576.000000
  0.350000  0.150000  0.050000    576.000000
  0.450000  0.150000  0.050000    576.000000
 -0.450000  0.150000  0.050000    576.000000
 -0.350000  0.150000  0.050000    576.000000
 -0.250000  0.150000  0.050000    576.000000
 -0.150000  0.150000  0.050000    576.000000
 -0.050000  0.150000  0.050000    576.000000
  0.250000  0.250000  0.050000    288.000000
  0.350000  0.250000  0.050000    576.000000
  0.450000  0.250000  0.050000    576.000000
 -0.450000  0.250000  0.050000    576.000000
 -0.350000  0.250000  0.050000    576.000000
 -0.250000  0.250000  0.050000    576.000000
 -0.150000  0.250000  0.050000    576.000000
 -0.050000  0.250000  0.050000    576.000000
  0.350000  0.350000  0.050000    288.000000
  0.450000  0.350000  0.050000    576.000000
 -0.450000  0.350000  0.050000    576.000000
 -0.350000  0.350000  0.050000    576.000000
 -0.250000  0.350000  0.050000    576.000000
 -0.150000  0.350000  0.050000    576.000000
 -0.050000  0.350000  0.050000    576.000000
  0.450000  0.450000  0.050000    288.000000
 -0.450000  0.450000  0.050000    576.000000
 -0.350000  0.450000  0.050000    576.000000
 -0.250000  0.450000  0.050000    576.000000
 -0.150000  0.450000  0.050000    576.000000
 -0.050000  0.450000  0.050000    576.000000
 -0.450000 -0.450000  0.050000    288.000000
 -0.350000 -0.450000  0.050000    576.000000
 -0.250000 -0.450000  0.050000    576.000000
 -0.150000 -0.450000  0.050000    576.000000
 -0.350000 -0.350000  0.050000    288.000000
 -0.250000 -0.350000  0.050000    576.000000
 -0.150000 -0.350000  0.050000    576.000000
 -0.250000 -0.250000  0.050000    288.000000
 -0.150000 -0.250000  0.050000    576.000000
 -0.150000 -0.150000  0.050000    288.000000
  0.150000  0.150000  0.150000     96.000000
  0.250000  0.150000  0.150000    288.000000
  0.350000  0.150000  0.150000    288.000000
  0.450000  0.150000  0.150000    288.000000
 -0.450000  0.150000  0.150000    288.000000
 -0.350000  0.150000  0.150000    288.000000
 -0.250000  0.150000  0.150000    288.000000
 -0.150000  0.150000  0.150000    288.000000
  0.250000  0.250000  0.150000    288.000000
  0.350000  0.250000  0.150000    576.000000
  0.450000  0.250000  0.150000    576.000000
 -0.450000  0.250000  0.150000    576.000000
 -0.350000  0.250000  0.150000    576.000000
 -0.250000  0.250000  0.150000    576.000000
 -0.150000  0.250000  0.150000    576.000000
  0.350000  0.350000  0.150000    288.000000
  0.450000  0.350000  0.150000    576.000000
 -0.450000  0.350000  0.150000    576.000000
 -0.350000  0.350000  0.150000    576.000000
 -0.250000  0.350000  0.150000    576.000000
 -0.150000  0.350000  0.150000    576.000000
  0.450000  0.450000  0.150000    288.000000
 -0.450000  0.450000  0.150000    576.000000
 -0.350000  0.450000  0.150000    576.000000
 -0.250000  0.450000  0.150000    576.000000
 -0.150000  0.450000  0.150000    576.000000
 -0.450000 -0.450000  0.150000    288.000000
 -0.350000 -0.450000  0.150000    576.000000
 -0.250000 -0.450000  0.150000    576.000000
 -0.350000 -0.350000  0.150000    288.000000
 -0.250000 -0.350000  0.150000    576.000000
 -0.250000 -0.250000  0.150000    288.000000
  0.250000  0.250000  0.250000     96.000000
  0.350000  0.250000  0.250000    288.000000
  0.450000  0.250000  0.250000    288.000000
 -0.450000  0.250000  0.250000    288.000000
 -0.350000  0.250000  0.250000    288.000000
 -0.250000  0.250000  0.250000    288.000000
  0.350000  0.350000  0.250000    288.000000
  0.450000  0.350000  0.250000    576.000000
 -0.450000  0.350000  0.250000    576.000000
 -0.350000  0.350000  0.250000    576.000000
 -0.250000  0.350000  0.250000    576.000000
  0.450000  0.450000  0.250000    288.000000
 -0.450000  0.450000  0.250000    576.000000
 -0.350000  0.450000  0.250000    576.000000
 -0.250000  0.450000  0.250000    576.000000
 -0.450000 -0.450000  0.250000    288.000000
 -0.350000 -0.450000  0.250000    576.000000
 -0.350000 -0.350000  0.250000    288.000000
  0.350000  0.350000  0.350000     96.000000
  0.450000  0.350000  0.350000    288.000000
 -0.450000  0.350000  0.350000    288.000000
 -0.350000  0.350000  0.350000    288.000000
  0.450000  0.450000  0.350000    288.000000
 -0.450000  0.450000  0.350000    576.000000
 -0.350000  0.450000  0.350000    576.000000
 -0.450000 -0.450000  0.350000    288.000000
  0.450000  0.450000  0.450000     96.000000
 -0.450000  0.450000  0.450000    288.000000
 
 Following cartesian coordinates:
            Coordinates               Weight
  0.050000  0.050000  0.050000     96.000000
 -0.050000  0.150000  0.150000    288.000000
 -0.150000  0.250000  0.250000    288.000000
 -0.250000  0.350000  0.350000    288.000000
 -0.350000  0.450000  0.450000    288.000000
  0.550000 -0.450000 -0.450000    288.000000
  0.450000 -0.350000 -0.350000    288.000000
  0.350000 -0.250000 -0.250000    288.000000
  0.250000 -0.150000 -0.150000    288.000000
  0.150000 -0.050000 -0.050000    288.000000
  0.050000  0.050000  0.250000    288.000000
 -0.050000  0.150000  0.350000    576.000000
 -0.150000  0.250000  0.450000    576.000000
 -0.250000  0.350000  0.550000    576.000000
  0.650000 -0.550000 -0.350000    576.000000
  0.550000 -0.450000 -0.250000    576.000000
  0.450000 -0.350000 -0.150000    576.000000
  0.350000 -0.250000 -0.050000    576.000000
  0.250000 -0.150000  0.050000    576.000000
  0.050000  0.050000  0.450000    288.000000
 -0.050000  0.150000  0.550000    576.000000
 -0.150000  0.250000  0.650000    576.000000
  0.750000 -0.650000 -0.250000    576.000000
  0.650000 -0.550000 -0.150000    576.000000
  0.550000 -0.450000 -0.050000    576.000000
  0.450000 -0.350000  0.050000    576.000000
  0.350000 -0.250000  0.150000    576.000000
  0.050000  0.050000  0.650000    288.000000
 -0.050000  0.150000  0.750000    576.000000
  0.850000 -0.750000 -0.150000    576.000000
  0.750000 -0.650000 -0.050000    576.000000
  0.650000 -0.550000  0.050000    576.000000
  0.550000 -0.450000  0.150000    576.000000
  0.450000 -0.350000  0.250000    576.000000
  0.050000  0.050000  0.850000    288.000000
  0.950000 -0.850000 -0.050000    576.000000
  0.850000 -0.750000  0.050000    576.000000
  0.750000 -0.650000  0.150000    576.000000
  0.650000 -0.550000  0.250000    576.000000
  0.550000 -0.450000  0.350000    576.000000
  0.050000  0.050000 -0.950000    288.000000
 -0.050000  0.150000 -0.850000    576.000000
 -0.150000  0.250000 -0.750000    576.000000
 -0.250000  0.350000 -0.650000    576.000000
  0.050000  0.050000 -0.750000    288.000000
 -0.050000  0.150000 -0.650000    576.000000
 -0.150000  0.250000 -0.550000    576.000000
  0.050000  0.050000 -0.550000    288.000000
 -0.050000  0.150000 -0.450000    576.000000
  0.050000  0.050000 -0.350000    288.000000
  0.150000  0.150000  0.150000     96.000000
  0.050000  0.250000  0.250000    288.000000
 -0.050000  0.350000  0.350000    288.000000
 -0.150000  0.450000  0.450000    288.000000
  0.750000 -0.450000 -0.450000    288.000000
  0.650000 -0.350000 -0.350000    288.000000
  0.550000 -0.250000 -0.250000    288.000000
  0.450000 -0.150000 -0.150000    288.000000
  0.150000  0.150000  0.350000    288.000000
  0.050000  0.250000  0.450000    576.000000
 -0.050000  0.350000  0.550000    576.000000
  0.850000 -0.550000 -0.350000    576.000000
  0.750000 -0.450000 -0.250000    576.000000
  0.650000 -0.350000 -0.150000    576.000000
  0.550000 -0.250000 -0.050000    576.000000
  0.150000  0.150000  0.550000    288.000000
  0.050000  0.250000  0.650000    576.000000
  0.950000 -0.650000 -0.250000    576.000000
  0.850000 -0.550000 -0.150000    576.000000
  0.750000 -0.450000 -0.050000    576.000000
  0.650000 -0.350000  0.050000    576.000000
  0.150000  0.150000  0.750000    288.000000
  1.050000 -0.750000 -0.150000    576.000000
  0.950000 -0.650000 -0.050000    576.000000
  0.850000 -0.550000  0.050000    576.000000
  0.750000 -0.450000  0.150000    576.000000
  0.150000  0.150000 -1.050000    288.000000
  0.050000  0.250000 -0.950000    576.000000
 -0.050000  0.350000 -0.850000    576.000000
  0.150000  0.150000 -0.850000    288.000000
  0.050000  0.250000 -0.750000    576.000000
  0.150000  0.150000 -0.650000    288.000000
  0.250000  0.250000  0.250000     96.000000
  0.150000  0.350000  0.350000    288.000000
  0.050000  0.450000  0.450000    288.000000
  0.950000 -0.450000 -0.450000    288.000000
  0.850000 -0.350000 -0.350000    288.000000
  0.750000 -0.250000 -0.250000    288.000000
  0.250000  0.250000  0.450000    288.000000
  0.150000  0.350000  0.550000    576.000000
  1.050000 -0.550000 -0.350000    576.000000
  0.950000 -0.450000 -0.250000    576.000000
  0.850000 -0.350000 -0.150000    576.000000
  0.250000  0.250000  0.650000    288.000000
  1.150000 -0.650000 -0.250000    576.000000
  1.050000 -0.550000 -0.150000    576.000000
  0.950000 -0.450000 -0.050000    576.000000
  0.250000  0.250000 -1.150000    288.000000
  0.150000  0.350000 -1.050000    576.000000
  0.250000  0.250000 -0.950000    288.000000
  0.350000  0.350000  0.350000     96.000000
  0.250000  0.450000  0.450000    288.000000
  1.150000 -0.450000 -0.450000    288.000000
  1.050000 -0.350000 -0.350000    288.000000
  0.350000  0.350000  0.550000    288.000000
  1.250000 -0.550000 -0.350000    576.000000
  1.150000 -0.450000 -0.250000    576.000000
  0.350000  0.350000 -1.250000    288.000000
  0.450000  0.450000  0.450000     96.000000
  1.350000 -0.450000 -0.450000    288.000000
 


--------------------------------------------------------------------------------------------------------




 Dimension of arrays:
   k-points           NKPTS =    110   k-points in BZ     NKDIM =    110   number of bands    NBANDS=     12
   number of dos      NEDOS =    301   number of ions     NIONS =      1
   non local maximal  LDIM  =      6   non local SUM 2l+1 LMDIM =     18
   total plane-waves  NPLWV =   1000
   max r-space proj   IRMAX =      1   max aug-charges    IRDMAX=   2866
   dimension x,y,z NGX =    10 NGY =   10 NGZ =   10
   dimension x,y,z NGXF=    20 NGYF=   20 NGZF=   20
   support grid    NGXF=    20 NGYF=   20 NGZF=   20
   ions per type =               1
   NGX,Y,Z   is equivalent  to a cutoff of   6.44,  6.44,  6.44 a.u.
   NGXF,Y,Z  is equivalent  to a cutoff of  12.88, 12.88, 12.88 a.u.

 SYSTEM =  fcc Ni                                  
 POSCAR =  FCC Ni Bulk                             

 Startparameter for this run:
   NWRITE =      2    write-flag & timer
   PREC   = normal    normal or accurate (medium, high low for compatibility)
   ISTART =      0    job   : 0-new  1-cont  2-samecut
   ICHARG =      2    charge: 1-file 2-atom 10-const
   ISPIN  =      2    spin polarized calculation?
   LNONCOLLINEAR =      F non collinear calculations
   LSORBIT =      F    spin-orbit coupling
   INIWAV =      1    electr: 0-lowe 1-rand  2-diag
   LASPH  =      F    aspherical Exc in radial PAW
   METAGGA=      F    non-selfconsistent MetaGGA calc.

 Electronic Relaxation 1
   ENCUT  =  270.0 eV  19.84 Ry    4.45 a.u.   3.46  3.46  3.46*2*pi/ulx,y,z
   ENINI  =  270.0     initial cutoff
   ENAUG  =  544.6 eV  augmentation charge cutoff
   NELM   =     60;   NELMIN=  2; NELMDL= -5     # of ELM steps 
   EDIFF  = 0.1E-03   stopping-criterion for ELM
   LREAL  =      F    real-space projection
   NLSPLINE    = F    spline interpolate recip. space projectors
   LCOMPAT=      F    compatible to vasp.4.4
   GGA_COMPAT  = T    GGA compatible to vasp.4.4-vasp.4.6
   LMAXPAW     = -100 max onsite density
   LMAXMIX     =    2 max onsite mixed and CHGCAR
   VOSKOWN=      0    Vosko Wilk Nusair interpolation
   ROPT   =    0.00000
 Ionic relaxation
   EDIFFG = 0.1E-02   stopping-criterion for IOM
   NSW    =      0    number of steps for IOM
   NBLOCK =      1;   KBLOCK =      1    inner block; outer block 
   IBRION =     -1    ionic relax: 0-MD 1-quasi-New 2-CG
   NFREE  =      0    steps in history (QN), initial steepest desc. (CG)
   ISIF   =      2    stress and relaxation
   IWAVPR =     10    prediction:  0-non 1-charg 2-wave 3-comb
   ISYM   =      2    0-nonsym 1-usesym 2-fastsym
   LCORR  =      T    Harris-Foulkes like correction to forces

   POTIM  = 0.5000    time-step for ionic-motion
   TEIN   =    0.0    initial temperature
   TEBEG  =    0.0;   TEEND  =   0.0 temperature during run
   SMASS  =  -3.00    Nose mass-parameter (am)
   estimated Nose-frequenzy (Omega)   =  0.10E-29 period in steps =****** mass=  -0.152E-27a.u.
   SCALEE = 1.0000    scale energy and forces
   NPACO  =    256;   APACO  = 16.0  distance and # of slots for P.C.
   PSTRESS=    0.0 pullay stress

  Mass of Ions in am
   POMASS =  58.69
  Ionic Valenz
   ZVAL   =  10.00
  Atomic Wigner-Seitz radii
   RWIGS  =  -1.00
  virtual crystal weights 
   VCA    =   1.00
   NELECT =      10.0000    total number of electrons
   NUPDOWN=      -1.0000    fix difference up-down

 DOS related values:
   EMIN   =  10.00;   EMAX   =-10.00  energy-range for DOS
   EFERMI =   0.00
   ISMEAR =     1;   SIGMA  =   0.20  broadening in eV -4-tet -1-fermi 0-gaus

 Electronic relaxation 2 (details)
   IALGO  =     38    algorithm
   LDIAG  =      T    sub-space diagonalisation (order eigenvalues)
   LSUBROT=      F    optimize rotation matrix (better conditioning)
   TURBO    =      0    0=normal 1=particle mesh
   IRESTART =      0    0=no restart 2=restart with 2 vectors
   NREBOOT  =      0    no. of reboots
   NMIN     =      0    reboot dimension
   EREF     =   0.00    reference energy to select bands
   IMIX   =      4    mixing-type and parameters
     AMIX     =   0.40;   BMIX     =  1.00
     AMIX_MAG =   1.60;   BMIX_MAG =  1.00
     AMIN     =   0.10
     WC   =   100.;   INIMIX=   1;  MIXPRE=   1;  MAXMIX= -45

 Intra band minimization:
   WEIMIN = 0.0000     energy-eigenvalue tresh-hold
   EBREAK =  0.21E-05  absolut break condition
   DEPER  =   0.30     relativ break condition  

   TIME   =   0.40     timestep for ELM

  volume/ion in A,a.u.               =      12.16        82.04
  Fermi-wavevector in a.u.,A,eV,Ry     =   1.533917  2.898684 32.013182  2.352902
  Thomas-Fermi vector in A             =   2.640918
 
 Write flags
   LWAVE        =      T    write WAVECAR
   LDOWNSAMPLE  =      F    k-point downsampling of WAVECAR
   LCHARG       =      T    write CHGCAR
   LVTOT        =      F    write LOCPOT, total local potential
   LVHAR        =      F    write LOCPOT, Hartree potential only
   LELF         =      F    write electronic localiz. function (ELF)
   LORBIT       =      0    0 simple, 1 ext, 2 COOP (PROOUT), +10 PAW based schemes


 Dipole corrections
   LMONO  =      F    monopole corrections only (constant potential shift)
   LDIPOL =      F    correct potential (dipole corrections)
   IDIPOL =      0    1-x, 2-y, 3-z, 4-all directions 
   EPSILON=  1.0000000 bulk dielectric constant

 Exchange correlation treatment:
   GGA     =    --    GGA type
   LEXCH   =     8    internal setting for exchange type
   VOSKOWN=      0    Vosko Wilk Nusair interpolation
   LHFCALC =     F    Hartree Fock is set to
   LHFONE  =     F    Hartree Fock one center treatment
   AEXX    =    0.0000 exact exchange contribution

 Linear response parameters
   LEPSILON=     F    determine dielectric tensor
   LRPA    =     F    only Hartree local field effects (RPA)
   LNABLA  =     F    use nabla operator in PAW spheres
   LVEL    =     F    velocity operator in full k-point grid
   LINTERFAST=   F  fast interpolation
   KINTER  =     0    interpolate to denser k-point grid
   CSHIFT  =0.1000    complex shift for real part using Kramers Kronig
   OMEGAMAX=  -1.0    maximum frequency
   DEG_THRESHOLD= 0.2000000E-02 threshold for treating states as degnerate
   RTIME   =   -0.100 relaxation time in fs
  (WPLASMAI=    0.000 imaginary part of plasma frequency in eV, 0.658/RTIME)
   DFIELD  = 0.0000000 0.0000000 0.0000000 field for delta impulse in time
 
 Orbital magnetization related:
   ORBITALMAG=     F  switch on orbital magnetization
   LCHIMAG   =     F  perturbation theory with respect to B field
   DQ        =  0.001000  dq finite difference perturbation B field
   LLRAUG    =     F  two centre corrections for induced B field



--------------------------------------------------------------------------------------------------------


 Static calculation
 charge density and potential will be updated during run
 spin polarized calculation
 Variant of blocked Davidson
 Davidson routine will perform the subspace rotation
 perform sub-space diagonalisation
    after iterative eigenvector-optimisation
 modified Broyden-mixing scheme, WC =      100.0
 initial mixing is a Kerker type mixing with AMIX =  0.4000 and BMIX =      1.0000
 Hartree-type preconditioning will be used
 using additional bands            7
 reciprocal scheme for non local part
 use partial core corrections
 calculate Harris-corrections to forces 
   (improved forces if not selfconsistent)
 use gradient corrections 
 use of overlap-Matrix (Vanderbilt PP)
 Methfessel and Paxton  Order N= 1 SIGMA  =   0.20


--------------------------------------------------------------------------------------------------------


  energy-cutoff  :      270.00
  volume of cell :       12.16
      direct lattice vectors                 reciprocal lattice vectors
     0.000000000  1.825000000  1.825000000    -0.273972603  0.273972603  0.273972603
     1.825000000  0.000000000  1.825000000     0.273972603 -0.273972603  0.273972603
     1.825000000  1.825000000  0.000000000     0.273972603  0.273972603 -0.273972603

  length of vectors
     2.580939751  2.580939751  2.580939751     0.474534468  0.474534468  0.474534468


 
 k-points in units of 2pi/SCALE and weight: 10x10x10                                
   0.05000000  0.05000000  0.05000000       0.002
  -0.05000000  0.15000000  0.15000000       0.006
  -0.15000000  0.25000000  0.25000000       0.006
  -0.25000000  0.35000000  0.35000000       0.006
  -0.35000000  0.45000000  0.45000000       0.006
   0.55000000 -0.45000000 -0.45000000       0.006
   0.45000000 -0.35000000 -0.35000000       0.006
   0.35000000 -0.25000000 -0.25000000       0.006
   0.25000000 -0.15000000 -0.15000000       0.006
   0.15000000 -0.05000000 -0.05000000       0.006
   0.05000000  0.05000000  0.25000000       0.006
  -0.05000000  0.15000000  0.35000000       0.012
  -0.15000000  0.25000000  0.45000000       0.012
  -0.25000000  0.35000000  0.55000000       0.012
   0.65000000 -0.55000000 -0.35000000       0.012
   0.55000000 -0.45000000 -0.25000000       0.012
   0.45000000 -0.35000000 -0.15000000       0.012
   0.35000000 -0.25000000 -0.05000000       0.012
   0.25000000 -0.15000000  0.05000000       0.012
   0.05000000  0.05000000  0.45000000       0.006
  -0.05000000  0.15000000  0.55000000       0.012
  -0.15000000  0.25000000  0.65000000       0.012
   0.75000000 -0.65000000 -0.25000000       0.012
   0.65000000 -0.55000000 -0.15000000       0.012
   0.55000000 -0.45000000 -0.05000000       0.012
   0.45000000 -0.35000000  0.05000000       0.012
   0.35000000 -0.25000000  0.15000000       0.012
   0.05000000  0.05000000  0.65000000       0.006
  -0.05000000  0.15000000  0.75000000       0.012
   0.85000000 -0.75000000 -0.15000000       0.012
   0.75000000 -0.65000000 -0.05000000       0.012
   0.65000000 -0.55000000  0.05000000       0.012
   0.55000000 -0.45000000  0.15000000       0.012
   0.45000000 -0.35000000  0.25000000       0.012
   0.05000000  0.05000000  0.85000000       0.006
   0.95000000 -0.85000000 -0.05000000       0.012
   0.85000000 -0.75000000  0.05000000       0.012
   0.75000000 -0.65000000  0.15000000       0.012
   0.65000000 -0.55000000  0.25000000       0.012
   0.55000000 -0.45000000  0.35000000       0.012
   0.05000000  0.05000000 -0.95000000       0.006
  -0.05000000  0.15000000 -0.85000000       0.012
  -0.15000000  0.25000000 -0.75000000       0.012
  -0.25000000  0.35000000 -0.65000000       0.012
   0.05000000  0.05000000 -0.75000000       0.006
  -0.05000000  0.15000000 -0.65000000       0.012
  -0.15000000  0.25000000 -0.55000000       0.012
   0.05000000  0.05000000 -0.55000000       0.006
  -0.05000000  0.15000000 -0.45000000       0.012
   0.05000000  0.05000000 -0.35000000       0.006
   0.15000000  0.15000000  0.15000000       0.002
   0.05000000  0.25000000  0.25000000       0.006
  -0.05000000  0.35000000  0.35000000       0.006
  -0.15000000  0.45000000  0.45000000       0.006
   0.75000000 -0.45000000 -0.45000000       0.006
   0.65000000 -0.35000000 -0.35000000       0.006
   0.55000000 -0.25000000 -0.25000000       0.006
   0.45000000 -0.15000000 -0.15000000       0.006
   0.15000000  0.15000000  0.35000000       0.006
   0.05000000  0.25000000  0.45000000       0.012
  -0.05000000  0.35000000  0.55000000       0.012
   0.85000000 -0.55000000 -0.35000000       0.012
   0.75000000 -0.45000000 -0.25000000       0.012
   0.65000000 -0.35000000 -0.15000000       0.012
   0.55000000 -0.25000000 -0.05000000       0.012
   0.15000000  0.15000000  0.55000000       0.006
   0.05000000  0.25000000  0.65000000       0.012
   0.95000000 -0.65000000 -0.25000000       0.012
   0.85000000 -0.55000000 -0.15000000       0.012
   0.75000000 -0.45000000 -0.05000000       0.012
   0.65000000 -0.35000000  0.05000000       0.012
   0.15000000  0.15000000  0.75000000       0.006
   1.05000000 -0.75000000 -0.15000000       0.012
   0.95000000 -0.65000000 -0.05000000       0.012
   0.85000000 -0.55000000  0.05000000       0.012
   0.75000000 -0.45000000  0.15000000       0.012
   0.15000000  0.15000000 -1.05000000       0.006
   0.05000000  0.25000000 -0.95000000       0.012
  -0.05000000  0.35000000 -0.85000000       0.012
   0.15000000  0.15000000 -0.85000000       0.006
   0.05000000  0.25000000 -0.75000000       0.012
   0.15000000  0.15000000 -0.65000000       0.006
   0.25000000  0.25000000  0.25000000       0.002
   0.15000000  0.35000000  0.35000000       0.006
   0.05000000  0.45000000  0.45000000       0.006
   0.95000000 -0.45000000 -0.45000000       0.006
   0.85000000 -0.35000000 -0.35000000       0.006
   0.75000000 -0.25000000 -0.25000000       0.006
   0.25000000  0.25000000  0.45000000       0.006
   0.15000000  0.35000000  0.55000000       0.012
   1.05000000 -0.55000000 -0.35000000       0.012
   0.95000000 -0.45000000 -0.25000000       0.012
   0.85000000 -0.35000000 -0.15000000       0.012
   0.25000000  0.25000000  0.65000000       0.006
   1.15000000 -0.65000000 -0.25000000       0.012
   1.05000000 -0.55000000 -0.15000000       0.012
   0.95000000 -0.45000000 -0.05000000       0.012
   0.25000000  0.25000000 -1.15000000       0.006
   0.15000000  0.35000000 -1.05000000       0.012
   0.25000000  0.25000000 -0.95000000       0.006
   0.35000000  0.35000000  0.35000000       0.002
   0.25000000  0.45000000  0.45000000       0.006
   1.15000000 -0.45000000 -0.45000000       0.006
   1.05000000 -0.35000000 -0.35000000       0.006
   0.35000000  0.35000000  0.55000000       0.006
   1.25000000 -0.55000000 -0.35000000       0.012
   1.15000000 -0.45000000 -0.25000000       0.012
   0.35000000  0.35000000 -1.25000000       0.006
   0.45000000  0.45000000  0.45000000       0.002
   1.35000000 -0.45000000 -0.45000000       0.006
 
 k-points in reciprocal lattice and weights: 10x10x10                                
   0.05000000  0.05000000  0.05000000       0.002
   0.15000000  0.05000000  0.05000000       0.006
   0.25000000  0.05000000  0.05000000       0.006
   0.35000000  0.05000000  0.05000000       0.006
   0.45000000  0.05000000  0.05000000       0.006
  -0.45000000  0.05000000  0.05000000       0.006
  -0.35000000  0.05000000  0.05000000       0.006
  -0.25000000  0.05000000  0.05000000       0.006
  -0.15000000  0.05000000  0.05000000       0.006
  -0.05000000  0.05000000  0.05000000       0.006
   0.15000000  0.15000000  0.05000000       0.006
   0.25000000  0.15000000  0.05000000       0.012
   0.35000000  0.15000000  0.05000000       0.012
   0.45000000  0.15000000  0.05000000       0.012
  -0.45000000  0.15000000  0.05000000       0.012
  -0.35000000  0.15000000  0.05000000       0.012
  -0.25000000  0.15000000  0.05000000       0.012
  -0.15000000  0.15000000  0.05000000       0.012
  -0.05000000  0.15000000  0.05000000       0.012
   0.25000000  0.25000000  0.05000000       0.006
   0.35000000  0.25000000  0.05000000       0.012
   0.45000000  0.25000000  0.05000000       0.012
  -0.45000000  0.25000000  0.05000000       0.012
  -0.35000000  0.25000000  0.05000000       0.012
  -0.25000000  0.25000000  0.05000000       0.012
  -0.15000000  0.25000000  0.05000000       0.012
  -0.05000000  0.25000000  0.05000000       0.012
   0.35000000  0.35000000  0.05000000       0.006
   0.45000000  0.35000000  0.05000000       0.012
  -0.45000000  0.35000000  0.05000000       0.012
  -0.35000000  0.35000000  0.05000000       0.012
  -0.25000000  0.35000000  0.05000000       0.012
  -0.15000000  0.35000000  0.05000000       0.012
  -0.05000000  0.35000000  0.05000000       0.012
   0.45000000  0.45000000  0.05000000       0.006
  -0.45000000  0.45000000  0.05000000       0.012
  -0.35000000  0.45000000  0.05000000       0.012
  -0.25000000  0.45000000  0.05000000       0.012
  -0.15000000  0.45000000  0.05000000       0.012
  -0.05000000  0.45000000  0.05000000       0.012
  -0.45000000 -0.45000000  0.05000000       0.006
  -0.35000000 -0.45000000  0.05000000       0.012
  -0.25000000 -0.45000000  0.05000000       0.012
  -0.15000000 -0.45000000  0.05000000       0.012
  -0.35000000 -0.35000000  0.05000000       0.006
  -0.25000000 -0.35000000  0.05000000       0.012
  -0.15000000 -0.35000000  0.05000000       0.012
  -0.25000000 -0.25000000  0.05000000       0.006
  -0.15000000 -0.25000000  0.05000000       0.012
  -0.15000000 -0.15000000  0.05000000       0.006
   0.15000000  0.15000000  0.15000000       0.002
   0.25000000  0.15000000  0.15000000       0.006
   0.35000000  0.15000000  0.15000000       0.006
   0.45000000  0.15000000  0.15000000       0.006
  -0.45000000  0.15000000  0.15000000       0.006
  -0.35000000  0.15000000  0.15000000       0.006
  -0.25000000  0.15000000  0.15000000       0.006
  -0.15000000  0.15000000  0.15000000       0.006
   0.25000000  0.25000000  0.15000000       0.006
   0.35000000  0.25000000  0.15000000       0.012
   0.45000000  0.25000000  0.15000000       0.012
  -0.45000000  0.25000000  0.15000000       0.012
  -0.35000000  0.25000000  0.15000000       0.012
  -0.25000000  0.25000000  0.15000000       0.012
  -0.15000000  0.25000000  0.15000000       0.012
   0.35000000  0.35000000  0.15000000       0.006
   0.45000000  0.35000000  0.15000000       0.012
  -0.45000000  0.35000000  0.15000000       0.012
  -0.35000000  0.35000000  0.15000000       0.012
  -0.25000000  0.35000000  0.15000000       0.012
  -0.15000000  0.35000000  0.15000000       0.012
   0.45000000  0.45000000  0.15000000       0.006
  -0.45000000  0.45000000  0.15000000       0.012
  -0.35000000  0.45000000  0.15000000       0.012
  -0.25000000  0.45000000  0.15000000       0.012
  -0.15000000  0.45000000  0.15000000       0.012
  -0.45000000 -0.45000000  0.15000000       0.006
  -0.35000000 -0.45000000  0.15000000       0.012
  -0.25000000 -0.45000000  0.15000000       0.012
  -0.35000000 -0.35000000  0.15000000       0.006
  -0.25000000 -0.35000000  0.15000000       0.012
  -0.25000000 -0.25000000  0.15000000       0.006
   0.25000000  0.25000000  0.25000000       0.002
   0.35000000  0.25000000  0.25000000       0.006
   0.45000000  0.25000000  0.25000000       0.006
  -0.45000000  0.25000000  0.25000000       0.006
  -0.35000000  0.25000000  0.25000000       0.006
  -0.25000000  0.25000000  0.25000000       0.006
   0.35000000  0.35000000  0.25000000       0.006
   0.45000000  0.35000000  0.25000000       0.012
  -0.45000000  0.35000000  0.25000000       0.012
  -0.35000000  0.35000000  0.25000000       0.012
  -0.25000000  0.35000000  0.25000000       0.012
   0.45000000  0.45000000  0.25000000       0.006
  -0.45000000  0.45000000  0.25000000       0.012
  -0.35000000  0.45000000  0.25000000       0.012
  -0.25000000  0.45000000  0.25000000       0.012
  -0.45000000 -0.45000000  0.25000000       0.006
  -0.35000000 -0.45000000  0.25000000       0.012
  -0.35000000 -0.35000000  0.25000000       0.006
   0.35000000  0.35000000  0.35000000       0.002
   0.45000000  0.35000000  0.35000000       0.006
  -0.45000000  0.35000000  0.35000000       0.006
  -0.35000000  0.35000000  0.35000000       0.006
   0.45000000  0.45000000  0.35000000       0.006
  -0.45000000  0.45000000  0.35000000       0.012
  -0.35000000  0.45000000  0.35000000       0.012
  -0.45000000 -0.45000000  0.35000000       0.006
   0.45000000  0.45000000  0.45000000       0.002
  -0.45000000  0.45000000  0.45000000       0.006
 
 position of ions in fractional coordinates (direct lattice) 
   0.00000000  0.00000000  0.00000000
 
 position of ions in cartesian coordinates  (Angst):
   0.00000000  0.00000000  0.00000000
 


--------------------------------------------------------------------------------------------------------


 k-point  1 :   0.0500 0.0500 0.0500  plane waves:     122
 k-point  2 :   0.1500 0.0500 0.0500  plane waves:     125
 k-point  3 :   0.2500 0.0500 0.0500  plane waves:     128
 k-point  4 :   0.3500 0.0500 0.0500  plane waves:     126
 k-point  5 :   0.4500 0.0500 0.0500  plane waves:     121
 k-point  6 :  -0.4500 0.0500 0.0500  plane waves:     121
 k-point  7 :  -0.3500 0.0500 0.0500  plane waves:     122
 k-point  8 :  -0.2500 0.0500 0.0500  plane waves:     129
 k-point  9 :  -0.1500 0.0500 0.0500  plane waves:     126
 k-point 10 :  -0.0500 0.0500 0.0500  plane waves:     123
 k-point 11 :   0.1500 0.1500 0.0500  plane waves:     125
 k-point 12 :   0.2500 0.1500 0.0500  plane waves:     128
 k-point 13 :   0.3500 0.1500 0.0500  plane waves:     128
 k-point 14 :   0.4500 0.1500 0.0500  plane waves:     124
 k-point 15 :  -0.4500 0.1500 0.0500  plane waves:     122
 k-point 16 :  -0.3500 0.1500 0.0500  plane waves:     123
 k-point 17 :  -0.2500 0.1500 0.0500  plane waves:     128
 k-point 18 :  -0.1500 0.1500 0.0500  plane waves:     128
 k-point 19 :  -0.0500 0.1500 0.0500  plane waves:     123
 k-point 20 :   0.2500 0.2500 0.0500  plane waves:     128
 k-point 21 :   0.3500 0.2500 0.0500  plane waves:     127
 k-point 22 :   0.4500 0.2500 0.0500  plane waves:     121
 k-point 23 :  -0.4500 0.2500 0.0500  plane waves:     120
 k-point 24 :  -0.3500 0.2500 0.0500  plane waves:     124
 k-point 25 :  -0.2500 0.2500 0.0500  plane waves:     124
 k-point 26 :  -0.1500 0.2500 0.0500  plane waves:     127
 k-point 27 :  -0.0500 0.2500 0.0500  plane waves:     128
 k-point 28 :   0.3500 0.3500 0.0500  plane waves:     128
 k-point 29 :   0.4500 0.3500 0.0500  plane waves:     121
 k-point 30 :  -0.4500 0.3500 0.0500  plane waves:     122
 k-point 31 :  -0.3500 0.3500 0.0500  plane waves:     119
 k-point 32 :  -0.2500 0.3500 0.0500  plane waves:     122
 k-point 33 :  -0.1500 0.3500 0.0500  plane waves:     124
 k-point 34 :  -0.0500 0.3500 0.0500  plane waves:     124
 k-point 35 :   0.4500 0.4500 0.0500  plane waves:     119
 k-point 36 :  -0.4500 0.4500 0.0500  plane waves:     117
 k-point 37 :  -0.3500 0.4500 0.0500  plane waves:     120
 k-point 38 :  -0.2500 0.4500 0.0500  plane waves:     120
 k-point 39 :  -0.1500 0.4500 0.0500  plane waves:     122
 k-point 40 :  -0.0500 0.4500 0.0500  plane waves:     123
 k-point 41 :  -0.4500-0.4500 0.0500  plane waves:     116
 k-point 42 :  -0.3500-0.4500 0.0500  plane waves:     120
 k-point 43 :  -0.2500-0.4500 0.0500  plane waves:     122
 k-point 44 :  -0.1500-0.4500 0.0500  plane waves:     121
 k-point 45 :  -0.3500-0.3500 0.0500  plane waves:     123
 k-point 46 :  -0.2500-0.3500 0.0500  plane waves:     123
 k-point 47 :  -0.1500-0.3500 0.0500  plane waves:     124
 k-point 48 :  -0.2500-0.2500 0.0500  plane waves:     126
 k-point 49 :  -0.1500-0.2500 0.0500  plane waves:     128
 k-point 50 :  -0.1500-0.1500 0.0500  plane waves:     129
 k-point 51 :   0.1500 0.1500 0.1500  plane waves:     122
 k-point 52 :   0.2500 0.1500 0.1500  plane waves:     126
 k-point 53 :   0.3500 0.1500 0.1500  plane waves:     129
 k-point 54 :   0.4500 0.1500 0.1500  plane waves:     125
 k-point 55 :  -0.4500 0.1500 0.1500  plane waves:     125
 k-point 56 :  -0.3500 0.1500 0.1500  plane waves:     123
 k-point 57 :  -0.2500 0.1500 0.1500  plane waves:     126
 k-point 58 :  -0.1500 0.1500 0.1500  plane waves:     126
 k-point 59 :   0.2500 0.2500 0.1500  plane waves:     129
 k-point 60 :   0.3500 0.2500 0.1500  plane waves:     128
 k-point 61 :   0.4500 0.2500 0.1500  plane waves:     125
 k-point 62 :  -0.4500 0.2500 0.1500  plane waves:     121
 k-point 63 :  -0.3500 0.2500 0.1500  plane waves:     120
 k-point 64 :  -0.2500 0.2500 0.1500  plane waves:     121
 k-point 65 :  -0.1500 0.2500 0.1500  plane waves:     125
 k-point 66 :   0.3500 0.3500 0.1500  plane waves:     124
 k-point 67 :   0.4500 0.3500 0.1500  plane waves:     124
 k-point 68 :  -0.4500 0.3500 0.1500  plane waves:     122
 k-point 69 :  -0.3500 0.3500 0.1500  plane waves:     117
 k-point 70 :  -0.2500 0.3500 0.1500  plane waves:     118
 k-point 71 :  -0.1500 0.3500 0.1500  plane waves:     123
 k-point 72 :   0.4500 0.4500 0.1500  plane waves:     122
 k-point 73 :  -0.4500 0.4500 0.1500  plane waves:     122
 k-point 74 :  -0.3500 0.4500 0.1500  plane waves:     117
 k-point 75 :  -0.2500 0.4500 0.1500  plane waves:     116
 k-point 76 :  -0.1500 0.4500 0.1500  plane waves:     120
 k-point 77 :  -0.4500-0.4500 0.1500  plane waves:     117
 k-point 78 :  -0.3500-0.4500 0.1500  plane waves:     119
 k-point 79 :  -0.2500-0.4500 0.1500  plane waves:     119
 k-point 80 :  -0.3500-0.3500 0.1500  plane waves:     120
 k-point 81 :  -0.2500-0.3500 0.1500  plane waves:     122
 k-point 82 :  -0.2500-0.2500 0.1500  plane waves:     122
 k-point 83 :   0.2500 0.2500 0.2500  plane waves:     126
 k-point 84 :   0.3500 0.2500 0.2500  plane waves:     128
 k-point 85 :   0.4500 0.2500 0.2500  plane waves:     127
 k-point 86 :  -0.4500 0.2500 0.2500  plane waves:     124
 k-point 87 :  -0.3500 0.2500 0.2500  plane waves:     123
 k-point 88 :  -0.2500 0.2500 0.2500  plane waves:     121
 k-point 89 :   0.3500 0.3500 0.2500  plane waves:     126
 k-point 90 :   0.4500 0.3500 0.2500  plane waves:     124
 k-point 91 :  -0.4500 0.3500 0.2500  plane waves:     121
 k-point 92 :  -0.3500 0.3500 0.2500  plane waves:     120
 k-point 93 :  -0.2500 0.3500 0.2500  plane waves:     119
 k-point 94 :   0.4500 0.4500 0.2500  plane waves:     122
 k-point 95 :  -0.4500 0.4500 0.2500  plane waves:     119
 k-point 96 :  -0.3500 0.4500 0.2500  plane waves:     116
 k-point 97 :  -0.2500 0.4500 0.2500  plane waves:     115
 k-point 98 :  -0.4500-0.4500 0.2500  plane waves:     119
 k-point 99 :  -0.3500-0.4500 0.2500  plane waves:     118
 k-point ** :  -0.3500-0.3500 0.2500  plane waves:     118
 k-point ** :   0.3500 0.3500 0.3500  plane waves:     123
 k-point ** :   0.4500 0.3500 0.3500  plane waves:     124
 k-point ** :  -0.4500 0.3500 0.3500  plane waves:     124
 k-point ** :  -0.3500 0.3500 0.3500  plane waves:     122
 k-point ** :   0.4500 0.4500 0.3500  plane waves:     123
 k-point ** :  -0.4500 0.4500 0.3500  plane waves:     121
 k-point ** :  -0.3500 0.4500 0.3500  plane waves:     119
 k-point ** :  -0.4500-0.4500 0.3500  plane waves:     123
 k-point ** :   0.4500 0.4500 0.4500  plane waves:     120
 k-point ** :  -0.4500 0.4500 0.4500  plane waves:     120

 maximum and minimum number of plane-waves per node :       129      115

 maximum number of plane-waves:       129
 maximum index in each direction: 
   IXMAX=    3   IYMAX=    3   IZMAX=    3
   IXMIN=   -3   IYMIN=   -3   IZMIN=   -3


 serial   3D FFT for wavefunctions
 parallel 3D FFT for charge:
    minimum data exchange during FFTs selected (reduces bandwidth)


 total amount of memory used by VASP MPI-rank0    34190. kBytes
=======================================================================

   base      :      30000. kBytes
   nonl-proj :       2092. kBytes
   fftplans  :        142. kBytes
   grid      :        320. kBytes
   one-center:         31. kBytes
   wavefun   :       1605. kBytes
 
     INWAV:  cpu time    0.0001: real time    0.0003
 Broyden mixing: mesh for mixing (old mesh)
   NGX =  7   NGY =  7   NGZ =  7
  (NGX  = 20   NGY  = 20   NGZ  = 20)
  gives a total of    343 points

 initial charge density was supplied:
 charge density of overlapping atoms calculated
 number of electron      10.0000000 magnetization       3.0000000
 keeping initial charge density in first step


--------------------------------------------------------------------------------------------------------


 Maximum index for augmentation-charges          667 (set IRDMAX)


--------------------------------------------------------------------------------------------------------


 First call to EWALD:  gamma=   0.771
 Maximum number of real-space cells 3x 3x 3
 Maximum number of reciprocal cells 3x 3x 3

    FEWALD:  cpu time    0.0010: real time    0.0010


--------------------------------------- Iteration      1(   1)  ---------------------------------------


    POTLOK:  cpu time    0.0038: real time    0.0068
    SETDIJ:  cpu time    0.0038: real time    0.0037
     EDDAV:  cpu time    0.3180: real time    0.3251
       DOS:  cpu time    0.0019: real time    0.0019
    --------------------------------------------
      LOOP:  cpu time    0.3276: real time    0.3375

 eigenvalue-minimisations  :  5792
 total energy-change (2. order) : 0.1915066E+02  (-0.3013736E+03)
 number of electron      10.0000000 magnetization       3.0000000
 augmentation part       10.0000000 magnetization       3.0000000

 Free energy of the ion-electron system (eV)
  ---------------------------------------------------
  alpha Z        PSCENC =        41.95140140
  Ewald energy   TEWEN  =      -904.39778147
  -Hartree energ DENC   =      -261.67462877
  -exchange      EXHF   =         0.00000000
  -V(xc)+E(xc)   XCENC  =        32.39783564
  PAW double counting   =       961.92645289    -1028.66799202
  entropy T*S    EENTRO =        -0.00005057
  eigenvalues    EBANDS =        99.97934477
  atomic energy  EATOM  =      1077.63607467
  Solvation  Ediel_sol  =         0.00000000
  ---------------------------------------------------
  free energy    TOTEN  =        19.15065654 eV

  energy without entropy =       19.15070711  energy(sigma->0) =       19.15067339


--------------------------------------------------------------------------------------------------------




--------------------------------------- Iteration      1(   2)  ---------------------------------------


     EDDAV:  cpu time    0.3045: real time    0.3114
       DOS:  cpu time    0.0019: real time    0.0019
    --------------------------------------------
      LOOP:  cpu time    0.3064: real time    0.3133

 eigenvalue-minimisations  :  5672
 total energy-change (2. order) :-0.2450834E+02  (-0.2271397E+02)
 number of electron      10.0000000 magnetization       3.0000000
 augmentation part       10.0000000 magnetization       3.0000000

 Free energy of the ion-electron system (eV)
  ---------------------------------------------------
  alpha Z        PSCENC =        41.95140140
  Ewald energy   TEWEN  =      -904.39778147
  -Hartree energ DENC   =      -261.67462877
  -exchange      EXHF   =         0.00000000
  -V(xc)+E(xc)   XCENC  =        32.39783564
  PAW double counting   =       961.92645289    -1028.66799202
  entropy T*S    EENTRO =         0.00045342
  eigenvalues    EBANDS =        75.47050133
  atomic energy  EATOM  =      1077.63607467
  Solvation  Ediel_sol  =         0.00000000
  ---------------------------------------------------
  free energy    TOTEN  =        -5.35768290 eV

  energy without entropy =       -5.35813633  energy(sigma->0) =       -5.35783405


--------------------------------------------------------------------------------------------------------




--------------------------------------- Iteration      1(   3)  ---------------------------------------


     EDDAV:  cpu time    0.3200: real time    0.3269
       DOS:  cpu time    0.0019: real time    0.0019
    --------------------------------------------
      LOOP:  cpu time    0.3219: real time    0.3288

 eigenvalue-minimisations  :  6108
 total energy-change (2. order) :-0.4805272E+00  (-0.4791522E+00)
 number of electron      10.0000000 magnetization       3.0000000
 augmentation part       10.0000000 magnetization       3.0000000

 Free energy of the ion-electron system (eV)
  ---------------------------------------------------
  alpha Z        PSCENC =        41.95140140
  Ewald energy   TEWEN  =      -904.39778147
  -Hartree energ DENC   =      -261.67462877
  -exchange      EXHF   =         0.00000000
  -V(xc)+E(xc)   XCENC  =        32.39783564
  PAW double counting   =       961.92645289    -1028.66799202
  entropy T*S    EENTRO =         0.00018204
  eigenvalues    EBANDS =        74.99024555
  atomic energy  EATOM  =      1077.63607467
  Solvation  Ediel_sol  =         0.00000000
  ---------------------------------------------------
  free energy    TOTEN  =        -5.83821008 eV

  energy without entropy =       -5.83839211  energy(sigma->0) =       -5.83827075


--------------------------------------------------------------------------------------------------------




--------------------------------------- Iteration      1(   4)  ---------------------------------------


     EDDAV:  cpu time    0.3163: real time    0.3232
       DOS:  cpu time    0.0020: real time    0.0020
    --------------------------------------------
      LOOP:  cpu time    0.3183: real time    0.3252

 eigenvalue-minimisations  :  5960
 total energy-change (2. order) :-0.2417419E-02  (-0.2417225E-02)
 number of electron      10.0000000 magnetization       3.0000000
 augmentation part       10.0000000 magnetization       3.0000000

 Free energy of the ion-electron system (eV)
  ---------------------------------------------------
  alpha Z        PSCENC =        41.95140140
  Ewald energy   TEWEN  =      -904.39778147
  -Hartree energ DENC   =      -261.67462877
  -exchange      EXHF   =         0.00000000
  -V(xc)+E(xc)   XCENC  =        32.39783564
  PAW double counting   =       961.92645289    -1028.66799202
  entropy T*S    EENTRO =         0.00018012
  eigenvalues    EBANDS =        74.98783004
  atomic energy  EATOM  =      1077.63607467
  Solvation  Ediel_sol  =         0.00000000
  ---------------------------------------------------
  free energy    TOTEN  =        -5.84062749 eV

  energy without entropy =       -5.84080762  energy(sigma->0) =       -5.84068754


--------------------------------------------------------------------------------------------------------




--------------------------------------- Iteration      1(   5)  ---------------------------------------


     EDDAV:  cpu time    0.3208: real time    0.3278
       DOS:  cpu time    0.0020: real time    0.0020
    CHARGE:  cpu time    0.0045: real time    0.0045
    MIXING:  cpu time    0.0009: real time    0.0003
    --------------------------------------------
      LOOP:  cpu time    0.3283: real time    0.3346

 eigenvalue-minimisations  :  6044
 total energy-change (2. order) :-0.3408313E-04  (-0.3408263E-04)
 number of electron      10.0000137 magnetization       0.6822008
 augmentation part        5.5456861 magnetization       0.4540059

 Broyden mixing:
  rms(total) = 0.12910E+01    rms(broyden)= 0.12908E+01
  rms(prec ) = 0.34895E+01
  weight for this iteration     100.00

 Free energy of the ion-electron system (eV)
  ---------------------------------------------------
  alpha Z        PSCENC =        41.95140140
  Ewald energy   TEWEN  =      -904.39778147
  -Hartree energ DENC   =      -261.67462877
  -exchange      EXHF   =         0.00000000
  -V(xc)+E(xc)   XCENC  =        32.39783564
  PAW double counting   =       961.92645289    -1028.66799202
  entropy T*S    EENTRO =         0.00018008
  eigenvalues    EBANDS =        74.98779600
  atomic energy  EATOM  =      1077.63607467
  Solvation  Ediel_sol  =         0.00000000
  ---------------------------------------------------
  free energy    TOTEN  =        -5.84066158 eV

  energy without entropy =       -5.84084166  energy(sigma->0) =       -5.84072160


--------------------------------------------------------------------------------------------------------




--------------------------------------- Iteration      1(   6)  ---------------------------------------


    POTLOK:  cpu time    0.0024: real time    0.0033
    SETDIJ:  cpu time    0.0034: real time    0.0034
     EDDAV:  cpu time    0.3289: real time    0.3356
       DOS:  cpu time    0.0021: real time    0.0021
    CHARGE:  cpu time    0.0038: real time    0.0038
    MIXING:  cpu time    0.0003: real time    0.0003
    --------------------------------------------
      LOOP:  cpu time    0.3409: real time    0.3486

 eigenvalue-minimisations  :  6364
 total energy-change (2. order) :-0.1324069E+00  (-0.1620343E+01)
 number of electron      10.0000173 magnetization       0.5747818
 augmentation part        6.6219876 magnetization       0.6209674

 Broyden mixing:
  rms(total) = 0.75097E+00    rms(broyden)= 0.75088E+00
  rms(prec ) = 0.20736E+01
  weight for this iteration     100.00

 eigenvalues of (default mixing * dielectric matrix)
  average eigenvalue GAMMA=   0.8795
  0.8795

 Free energy of the ion-electron system (eV)
  ---------------------------------------------------
  alpha Z        PSCENC =        41.95140140
  Ewald energy   TEWEN  =      -904.39778147
  -Hartree energ DENC   =      -234.41681381
  -exchange      EXHF   =         0.00000000
  -V(xc)+E(xc)   XCENC  =        30.11864013
  PAW double counting   =       997.94862129    -1059.82226597
  entropy T*S    EENTRO =        -0.00597818
  eigenvalues    EBANDS =        45.01503345
  atomic energy  EATOM  =      1077.63607467
  Solvation  Ediel_sol  =         0.00000000
  ---------------------------------------------------
  free energy    TOTEN  =        -5.97306847 eV

  energy without entropy =       -5.96709029  energy(sigma->0) =       -5.97107575


--------------------------------------------------------------------------------------------------------




--------------------------------------- Iteration      1(   7)  ---------------------------------------


    POTLOK:  cpu time    0.0033: real time    0.0033
    SETDIJ:  cpu time    0.0031: real time    0.0032
     EDDAV:  cpu time    0.3290: real time    0.3355
       DOS:  cpu time    0.0021: real time    0.0021
    CHARGE:  cpu time    0.0040: real time    0.0040
    MIXING:  cpu time    0.0009: real time    0.0003
    --------------------------------------------
      LOOP:  cpu time    0.3424: real time    0.3484

 eigenvalue-minimisations  :  6380
 total energy-change (2. order) : 0.5718337E+00  (-0.4179642E+00)
 number of electron      10.0000155 magnetization       0.6679799
 augmentation part        6.1575823 magnetization       0.6580407

 Broyden mixing:
  rms(total) = 0.13561E+00    rms(broyden)= 0.13553E+00
  rms(prec ) = 0.27372E+00
  weight for this iteration     100.00

 eigenvalues of (default mixing * dielectric matrix)
  average eigenvalue GAMMA=   0.7946
  0.9529  0.6364

 Free energy of the ion-electron system (eV)
  ---------------------------------------------------
  alpha Z        PSCENC =        41.95140140
  Ewald energy   TEWEN  =      -904.39778147
  -Hartree energ DENC   =      -244.54810866
  -exchange      EXHF   =         0.00000000
  -V(xc)+E(xc)   XCENC  =        30.57970359
  PAW double counting   =      1028.91662768    -1095.03645069
  entropy T*S    EENTRO =        -0.00322812
  eigenvalues    EBANDS =        59.50052687
  atomic energy  EATOM  =      1077.63607467
  Solvation  Ediel_sol  =         0.00000000
  ---------------------------------------------------
  free energy    TOTEN  =        -5.40123473 eV

  energy without entropy =       -5.39800661  energy(sigma->0) =       -5.40015869


--------------------------------------------------------------------------------------------------------




--------------------------------------- Iteration      1(   8)  ---------------------------------------


    POTLOK:  cpu time    0.0024: real time    0.0032
    SETDIJ:  cpu time    0.0031: real time    0.0031
     EDDAV:  cpu time    0.3284: real time    0.3355
       DOS:  cpu time    0.0021: real time    0.0021
    CHARGE:  cpu time    0.0043: real time    0.0043
    MIXING:  cpu time    0.0003: real time    0.0003
    --------------------------------------------
      LOOP:  cpu time    0.3407: real time    0.3486

 eigenvalue-minimisations  :  6068
 total energy-change (2. order) : 0.4279213E-02  (-0.1398397E-02)
 number of electron      10.0000156 magnetization       0.6416303
 augmentation part        6.1669792 magnetization       0.6111656

 Broyden mixing:
  rms(total) = 0.78240E-01    rms(broyden)= 0.78233E-01
  rms(prec ) = 0.16574E+00
  weight for this iteration     100.00

 eigenvalues of (default mixing * dielectric matrix)
  average eigenvalue GAMMA=   0.7991
  1.1427  0.5767  0.6778

 Free energy of the ion-electron system (eV)
  ---------------------------------------------------
  alpha Z        PSCENC =        41.95140140
  Ewald energy   TEWEN  =      -904.39778147
  -Hartree energ DENC   =      -243.31652630
  -exchange      EXHF   =         0.00000000
  -V(xc)+E(xc)   XCENC  =        30.52467362
  PAW double counting   =      1052.26686463    -1119.21514898
  entropy T*S    EENTRO =        -0.00342268
  eigenvalues    EBANDS =        59.15690959
  atomic energy  EATOM  =      1077.63607467
  Solvation  Ediel_sol  =         0.00000000
  ---------------------------------------------------
  free energy    TOTEN  =        -5.39695551 eV

  energy without entropy =       -5.39353283  energy(sigma->0) =       -5.39581462


--------------------------------------------------------------------------------------------------------




--------------------------------------- Iteration      1(   9)  ---------------------------------------


    POTLOK:  cpu time    0.0032: real time    0.0033
    SETDIJ:  cpu time    0.0032: real time    0.0032
     EDDAV:  cpu time    0.3159: real time    0.3225
       DOS:  cpu time    0.0021: real time    0.0021
    CHARGE:  cpu time    0.0044: real time    0.0043
    MIXING:  cpu time    0.0003: real time    0.0003
    --------------------------------------------
      LOOP:  cpu time    0.3290: real time    0.3357

 eigenvalue-minimisations  :  5732
 total energy-change (2. order) : 0.2386069E-02  (-0.1102275E-03)
 number of electron      10.0000156 magnetization       0.6268443
 augmentation part        6.1744990 magnetization       0.5975604

 Broyden mixing:
  rms(total) = 0.33766E-01    rms(broyden)= 0.33766E-01
  rms(prec ) = 0.91613E-01
  weight for this iteration     100.00

 eigenvalues of (default mixing * dielectric matrix)
  average eigenvalue GAMMA=   1.0681
  2.0528  0.9900  0.5880  0.6415

 Free energy of the ion-electron system (eV)
  ---------------------------------------------------
  alpha Z        PSCENC =        41.95140140
  Ewald energy   TEWEN  =      -904.39778147
  -Hartree energ DENC   =      -242.59694634
  -exchange      EXHF   =         0.00000000
  -V(xc)+E(xc)   XCENC  =        30.48671805
  PAW double counting   =      1066.01314870    -1133.41118835
  entropy T*S    EENTRO =        -0.00331997
  eigenvalues    EBANDS =        58.92732385
  atomic energy  EATOM  =      1077.63607467
  Solvation  Ediel_sol  =         0.00000000
  ---------------------------------------------------
  free energy    TOTEN  =        -5.39456945 eV

  energy without entropy =       -5.39124948  energy(sigma->0) =       -5.39346279


--------------------------------------------------------------------------------------------------------




--------------------------------------- Iteration      1(  10)  ---------------------------------------


    POTLOK:  cpu time    0.0031: real time    0.0032
    SETDIJ:  cpu time    0.0033: real time    0.0032
     EDDAV:  cpu time    0.3304: real time    0.3376
       DOS:  cpu time    0.0021: real time    0.0021
    CHARGE:  cpu time    0.0045: real time    0.0045
    MIXING:  cpu time    0.0003: real time    0.0003
    --------------------------------------------
      LOOP:  cpu time    0.3437: real time    0.3509

 eigenvalue-minimisations  :  6136
 total energy-change (2. order) : 0.1157718E-02  (-0.2196940E-03)
 number of electron      10.0000156 magnetization       0.6387555
 augmentation part        6.1850704 magnetization       0.6121911

 Broyden mixing:
  rms(total) = 0.58508E-02    rms(broyden)= 0.58475E-02
  rms(prec ) = 0.76334E-02
  weight for this iteration     100.00

 eigenvalues of (default mixing * dielectric matrix)
  average eigenvalue GAMMA=   1.1173
  2.3349  1.1590  0.8624  0.6150  0.6150

 Free energy of the ion-electron system (eV)
  ---------------------------------------------------
  alpha Z        PSCENC =        41.95140140
  Ewald energy   TEWEN  =      -904.39778147
  -Hartree energ DENC   =      -241.68706736
  -exchange      EXHF   =         0.00000000
  -V(xc)+E(xc)   XCENC  =        30.44604728
  PAW double counting   =      1083.60744401    -1151.53744761
  entropy T*S    EENTRO =        -0.00322343
  eigenvalues    EBANDS =        58.59114079
  atomic energy  EATOM  =      1077.63607467
  Solvation  Ediel_sol  =         0.00000000
  ---------------------------------------------------
  free energy    TOTEN  =        -5.39341173 eV

  energy without entropy =       -5.39018829  energy(sigma->0) =       -5.39233725


--------------------------------------------------------------------------------------------------------




--------------------------------------- Iteration      1(  11)  ---------------------------------------


    POTLOK:  cpu time    0.0032: real time    0.0034
    SETDIJ:  cpu time    0.0033: real time    0.0033
     EDDAV:  cpu time    0.2215: real time    0.2281
       DOS:  cpu time    0.0021: real time    0.0021
    --------------------------------------------
      LOOP:  cpu time    0.2301: real time    0.2368

 eigenvalue-minimisations  :  2940
 total energy-change (2. order) :-0.2136088E-04  (-0.3306322E-05)
 number of electron      10.0000156 magnetization       0.6387555
 augmentation part        6.1850704 magnetization       0.6121911

 Free energy of the ion-electron system (eV)
  ---------------------------------------------------
  alpha Z        PSCENC =        41.95140140
  Ewald energy   TEWEN  =      -904.39778147
  -Hartree energ DENC   =      -241.62348551
  -exchange      EXHF   =         0.00000000
  -V(xc)+E(xc)   XCENC  =        30.44572712
  PAW double counting   =      1085.79547455    -1153.76530231
  entropy T*S    EENTRO =        -0.00330831
  eigenvalues    EBANDS =        58.56776676
  atomic energy  EATOM  =      1077.63607467
  Solvation  Ediel_sol  =         0.00000000
  ---------------------------------------------------
  free energy    TOTEN  =        -5.39343309 eV

  energy without entropy =       -5.39012478  energy(sigma->0) =       -5.39233032


--------------------------------------------------------------------------------------------------------




 average (electrostatic) potential at core
  the test charge radii are     0.9791
  (the norm of the test charge is              1.0000)
       1 -83.3255
 
 
 
 E-fermi :   7.8963     XC(G=0): -12.6118     alpha+bet :-14.7337


 spin component 1

 k-point     1 :       0.0500    0.0500    0.0500
  band No.  band energies     occupation 
      1      -0.2754      1.00000
      2       5.7019      1.00000
      3       5.7420      1.00000
      4       5.7420      1.00000
      5       6.7085      1.00000
      6       6.7085      1.00000
      7      30.3413      0.00000
      8      32.4542      0.00000
      9      33.4422      0.00000
     10      33.4422      0.00000
     11      36.8503      0.00000
     12      36.8503      0.00000

 k-point     2 :       0.1500    0.0500    0.0500
  band No.  band energies     occupation 
      1       0.1986      1.00000
      2       5.5905      1.00000
      3       5.8257      1.00000
      4       5.8388      1.00000
      5       6.6267      1.00000
      6       6.7321      1.00000
      7      27.8559      0.00000
      8      30.0167      0.00000
      9      32.5984      0.00000
     10      34.0813      0.00000
     11      36.8119      0.00000
     12      37.0683      0.00000

 k-point     3 :       0.2500    0.0500    0.0500
  band No.  band energies     occupation 
      1       1.3113      1.00000
      2       5.4375      1.00000
      3       5.9218      1.00000
      4       5.9439      1.00000
      5       6.6131      1.00000
      6       6.8277      1.00000
      7      22.9056      0.00000
      8      28.9929      0.00000
      9      32.0965      0.00000
     10      33.3939      0.00000
     11      36.4226      0.00000
     12      36.5849      0.00000

 k-point     4 :       0.3500    0.0500    0.0500
  band No.  band energies     occupation 
      1       2.7278      1.00000
      2       5.5818      1.00000
      3       5.8621      1.00000
      4       5.8992      1.00000
      5       6.8435      1.00000
      6       7.1050      1.00000
      7      18.2773      0.00000
      8      28.4426      0.00000
      9      31.0158      0.00000
     10      32.4908      0.00000
     11      34.5246      0.00000
     12      36.1444      0.00000

 k-point     5 :       0.4500    0.0500    0.0500
  band No.  band energies     occupation 
      1       3.5505      1.00000
      2       5.7536      1.00000
      3       5.8040      1.00000
      4       6.5378      1.00000
      5       7.1312      1.00000
      6       7.6146      1.03147
      7      14.4215      0.00000
      8      28.3563      0.00000
      9      30.1658      0.00000
     10      31.0840      0.00000
     11      34.0369      0.00000
     12      35.3461      0.00000

 k-point     6 :      -0.4500    0.0500    0.0500
  band No.  band energies     occupation 
      1       3.6740      1.00000
      2       5.7136      1.00000
      3       5.7781      1.00000
      4       6.8761      1.00000
      5       7.2683      1.00004
      6       8.2177     -0.02273
      7      12.9197     -0.00000
      8      28.6657      0.00000
      9      29.9587      0.00000
     10      30.0852      0.00000
     11      34.5680      0.00000
     12      34.7181      0.00000

 k-point     7 :      -0.3500    0.0500    0.0500
  band No.  band energies     occupation 
      1       3.3844      1.00000
      2       5.7750      1.00000
      3       5.8423      1.00000
      4       6.1453      1.00000
      5       7.1771      1.00000
      6       7.2773      1.00005
      7      15.5802      0.00000
      8      29.1557      0.00000
      9      29.5187      0.00000
     10      31.0574      0.00000
     11      34.6284      0.00000
     12      35.8172      0.00000

 k-point     8 :      -0.2500    0.0500    0.0500
  band No.  band energies     occupation 
      1       2.2673      1.00000
      2       5.4533      1.00000
      3       5.8930      1.00000
      4       5.9307      1.00000
      5       6.8035      1.00000
      6       6.9444      1.00000
      7      19.7540      0.00000
      8      29.7304      0.00000
      9      29.7948      0.00000
     10      32.7793      0.00000
     11      35.0065      0.00000
     12      37.6396      0.00000

 k-point     9 :      -0.1500    0.0500    0.0500
  band No.  band energies     occupation 
      1       0.8807      1.00000
      2       5.4719      1.00000
      3       5.9144      1.00000
      4       5.9208      1.00000
      5       6.5987      1.00000
      6       6.7721      1.00000
      7      24.5524      0.00000
      8      30.4884      0.00000
      9      30.5191      0.00000
     10      34.1670      0.00000
     11      35.6208      0.00000
     12      38.9796      0.00000

 k-point    10 :      -0.0500    0.0500    0.0500
  band No.  band energies     occupation 
      1      -0.0366      1.00000
      2       5.6304      1.00000
      3       5.7976      1.00000
      4       5.7984      1.00000
      5       6.6405      1.00000
      6       6.7387      1.00000
      7      29.3516      0.00000
      8      31.3420      0.00000
      9      31.8151      0.00000
     10      33.4698      0.00000
     11      36.9811      0.00000
     12      38.4775      0.00000

 k-point    11 :       0.1500    0.1500    0.0500
  band No.  band energies     occupation 
      1       0.4318      1.00000
      2       5.4893      1.00000
      3       5.9106      1.00000
      4       5.9125      1.00000
      5       6.5206      1.00000
      6       6.7957      1.00000
      7      28.0346      0.00000
      8      29.9905      0.00000
      9      30.1929      0.00000
     10      32.3306      0.00000
     11      36.7565      0.00000
     12      38.7478      0.00000

 k-point    12 :       0.2500    0.1500    0.0500
  band No.  band energies     occupation 
      1       1.3225      1.00000
      2       5.3037      1.00000
      3       5.9869      1.00000
      4       6.0789      1.00000
      5       6.4686      1.00000
      6       6.9014      1.00000
      7      24.8929      0.00000
      8      26.9785      0.00000
      9      30.7433      0.00000
     10      32.0484      0.00000
     11      34.8542      0.00000
     12      39.0519      0.00000

 k-point    13 :       0.3500    0.1500    0.0500
  band No.  band energies     occupation 
      1       2.6563      1.00000
      2       5.2202      1.00000
      3       5.8247      1.00000
      4       6.1123      1.00000
      5       6.8019      1.00000
      6       7.1954      1.00000
      7      20.1117      0.00000
      8      26.2277      0.00000
      9      29.2640      0.00000
     10      31.1152      0.00000
     11      36.9000      0.00000
     12      37.6781      0.00000

 k-point    14 :       0.4500    0.1500    0.0500
  band No.  band energies     occupation 
      1       3.7003      1.00000
      2       5.5430      1.00000
      3       5.7014      1.00000
      4       6.0291      1.00000
      5       7.1662      1.00000
      6       8.0142      0.08470
      7      15.8948      0.00000
      8      26.0818      0.00000
      9      27.4691      0.00000
     10      30.4392      0.00000
     11      36.5062      0.00000
     12      38.7497      0.00000

 k-point    15 :      -0.4500    0.1500    0.0500
  band No.  band energies     occupation 
      1       3.9518      1.00000
      2       5.5230      1.00000
      3       5.9573      1.00000
      4       6.1457      1.00000
      5       7.2437      1.00002
      6       9.4341     -0.00000
      7      13.0557     -0.00000
      8      25.7636      0.00000
      9      26.9427      0.00000
     10      30.3986      0.00000
     11      35.7809      0.00000
     12      38.4195      0.00000

 k-point    16 :      -0.3500    0.1500    0.0500
  band No.  band energies     occupation 
      1       3.8545      1.00000
      2       5.5844      1.00000
      3       5.8921      1.00000
      4       5.9965      1.00000
      5       7.0847      1.00000
      6       8.5619     -0.00001
      7      14.7064      0.00000
      8      25.0168      0.00000
      9      28.1599      0.00000
     10      31.0775      0.00000
     11      35.4282      0.00000
     12      38.1161      0.00000

 k-point    17 :      -0.2500    0.1500    0.0500
  band No.  band energies     occupation 
      1       3.1027      1.00000
      2       5.3306      1.00000
      3       5.7542      1.00000
      4       6.0781      1.00000
      5       6.7406      1.00000
      6       7.5257      1.01248
      7      18.6371      0.00000
      8      24.8861      0.00000
      9      30.0028      0.00000
     10      32.4324      0.00000
     11      35.4883      0.00000
     12      37.3933      0.00000

 k-point    18 :      -0.1500    0.1500    0.0500
  band No.  band energies     occupation 
      1       1.7399      1.00000
      2       5.2983      1.00000
      3       5.9184      1.00000
      4       6.1047      1.00000
      5       6.4696      1.00000
      6       7.0318      1.00000
      7      23.2575      0.00000
      8      25.4080      0.00000
      9      32.1856      0.00000
     10      33.4696      0.00000
     11      35.8547      0.00000
     12      36.7190      0.00000

 k-point    19 :      -0.0500    0.1500    0.0500
  band No.  band energies     occupation 
      1       0.6594      1.00000
      2       5.4766      1.00000
      3       5.9149      1.00000
      4       5.9258      1.00000
      5       6.5408      1.00000
      6       6.7967      1.00000
      7      26.3300      0.00000
      8      28.4648      0.00000
      9      31.9688      0.00000
     10      33.9412      0.00000
     11      36.1090      0.00000
     12      38.1554      0.00000

 k-point    20 :       0.2500    0.2500    0.0500
  band No.  band energies     occupation 
      1       1.9397      1.00000
      2       5.0762      1.00000
      3       6.1212      1.00000
      4       6.2893      1.00000
      5       6.4328      1.00000
      6       6.9702      1.00000
      7      25.3009      0.00000
      8      26.5981      0.00000
      9      28.0470      0.00000
     10      28.8660      0.00000
     11      32.0972      0.00000
     12      42.8793      0.00000

 k-point    21 :       0.3500    0.2500    0.0500
  band No.  band energies     occupation 
      1       2.9876      1.00000
      2       4.8873      1.00000
      3       5.9343      1.00000
      4       6.4990      1.00000
      5       6.8337      1.00000
      6       7.2108      1.00001
      7      22.4006      0.00000
      8      24.3185      0.00000
      9      26.0346      0.00000
     10      29.3565      0.00000
     11      32.4983      0.00000
     12      42.2814      0.00000

[...]
      4       6.5028      1.00000
      5       7.7675      0.93880
      6       7.7675      0.93880
      7      17.0211      0.00000
      8      29.6920      0.00000
      9      31.0389      0.00000
     10      31.0389      0.00000
     11      35.0315      0.00000
     12      35.0315      0.00000

 k-point   102 :       0.4500    0.3500    0.3500
  band No.  band energies     occupation 
      1       3.8083      1.00000
      2       6.2659      1.00000
      3       6.3869      1.00000
      4       6.5642      1.00000
      5       7.7152      1.01235
      6       8.4566     -0.00027
      7      15.9633      0.00000
      8      26.0736      0.00000
      9      30.3352      0.00000
     10      31.0208      0.00000
     11      35.1155      0.00000
     12      36.3866      0.00000

 k-point   103 :      -0.4500    0.3500    0.3500
  band No.  band energies     occupation 
      1       4.6326      1.00000
      2       5.8688      1.00000
      3       6.1673      1.00000
      4       6.8299      1.00000
      5       7.7133      1.01389
      6       9.8856     -0.00000
      7      15.3949      0.00000
      8      21.6962      0.00000
      9      28.2288      0.00000
     10      29.4889      0.00000
     11      38.6048      0.00000
     12      38.7354      0.00000

 k-point   104 :      -0.3500    0.3500    0.3500
  band No.  band energies     occupation 
      1       5.2006      1.00000
      2       5.3889      1.00000
      3       6.1609      1.00000
      4       7.1830      1.00000
      5       7.8072      0.83876
      6      12.0028     -0.00000
      7      14.9834      0.00000
      8      18.1759      0.00000
      9      25.7534      0.00000
     10      28.6072      0.00000
     11      42.0370      0.00000
     12      42.0431      0.00000

 k-point   105 :       0.4500    0.4500    0.3500
  band No.  band energies     occupation 
      1       4.0513      1.00000
      2       6.2033      1.00000
      3       6.5538      1.00000
      4       6.5627      1.00000
      5       8.0257      0.06005
      6       8.5812     -0.00001
      7      14.8174      0.00000
      8      27.5580      0.00000
      9      28.3416      0.00000
     10      29.6582      0.00000
     11      36.4338      0.00000
     12      36.8235      0.00000

 k-point   106 :      -0.4500    0.4500    0.3500
  band No.  band energies     occupation 
      1       4.5754      1.00000
      2       5.8679      1.00000
      3       6.3673      1.00000
      4       6.7653      1.00000
      5       7.9542      0.26603
      6       9.9835     -0.00000
      7      14.1796      0.00000
      8      24.1984      0.00000
      9      25.5121      0.00000
     10      31.3781      0.00000
     11      35.7186      0.00000
     12      40.6072      0.00000

 k-point   107 :      -0.3500    0.4500    0.3500
  band No.  band energies     occupation 
      1       5.1713      1.00000
      2       5.4216      1.00000
      3       6.1301      1.00000
      4       7.0953      1.00000
      5       7.9516      0.27558
      6      12.0453     -0.00000
      7      13.9843      0.00000
      8      20.3056      0.00000
      9      23.2683      0.00000
     10      31.6092      0.00000
     11      37.4603      0.00000
     12      43.1601      0.00000

 k-point   108 :      -0.4500   -0.4500    0.3500
  band No.  band energies     occupation 
      1       4.7633      1.00000
      2       5.6884      1.00000
      3       6.3790      1.00000
      4       6.8522      1.00000
      5       8.0066      0.10299
      6      10.8232     -0.00000
      7      13.6131      0.00000
      8      22.5637      0.00000
      9      26.5397      0.00000
     10      28.7777      0.00000
     11      39.3623      0.00000
     12      39.6532      0.00000

 k-point   109 :       0.4500    0.4500    0.4500
  band No.  band energies     occupation 
      1       3.9827      1.00000
      2       6.4026      1.00000
      3       6.4026      1.00000
      4       7.4107      1.00159
      5       7.9996      0.12089
      6       7.9996      0.12089
      7      13.7937      0.00000
      8      29.1465      0.00000
      9      30.8034      0.00000
     10      30.8034      0.00000
     11      33.9091      0.00000
     12      33.9091      0.00000

 k-point   110 :      -0.4500    0.4500    0.4500
  band No.  band energies     occupation 
      1       4.2603      1.00000
      2       6.2130      1.00000
      3       6.5104      1.00000
      4       6.8760      1.00000
      5       7.9912      0.14429
      6       9.2290     -0.00000
      7      13.3610      0.00000
      8      26.5649      0.00000
      9      29.2635      0.00000
     10      29.5780      0.00000
     11      35.7116      0.00000
     12      36.4185      0.00000


--------------------------------------------------------------------------------------------------------


 soft charge-density along one line, spin component           1
         0         1         2         3         4         5         6         7         8         9
 total charge-density along one line
 
 soft charge-density along one line, spin component           2
         0         1         2         3         4         5         6         7         8         9
 total charge-density along one line
 
 pseudopotential strength for first ion, spin component:           1
 -1.548   0.000   0.000   0.000   0.000   0.000   0.000   0.000   0.000   0.000  -2.185   0.000   0.000   0.000   0.000   0.000
  0.000   0.000  -1.548   0.000  -0.000   0.000   0.000   0.000   0.000   0.000   0.000   0.000  -2.185   0.000  -0.000   0.000
  0.000   0.000  -0.000   0.000  -1.444   0.000  -0.000   0.000   0.000   0.000   0.000   0.000  -0.000   0.000  -2.085   0.000
  0.000   0.000   0.000   0.000  -0.000   0.000  -1.548   0.000  -0.000   0.000   0.000   0.000   0.000   0.000  -0.000   0.000
  0.000   0.000   0.000   0.000   0.000   0.000  -0.000   0.000  -1.444   0.000   0.000   0.000   0.000   0.000   0.000   0.000
 -2.185   0.000   0.000   0.000   0.000   0.000   0.000   0.000   0.000   0.000  -2.752   0.000   0.000   0.000   0.000   0.000
  0.000   0.000  -2.185   0.000  -0.000   0.000   0.000   0.000   0.000   0.000   0.000   0.000  -2.752   0.000  -0.000   0.000
  0.000   0.000  -0.000   0.000  -2.085   0.000  -0.000   0.000   0.000   0.000   0.000   0.000  -0.000   0.000  -2.656   0.000
  0.000   0.000   0.000   0.000  -0.000   0.000  -2.185   0.000  -0.000   0.000   0.000   0.000   0.000   0.000  -0.000   0.000
  0.000   0.000   0.000   0.000   0.000   0.000  -0.000   0.000  -2.085   0.000   0.000   0.000   0.000   0.000   0.000   0.000
 -0.000   0.000  -0.000   0.000  -0.000   0.000  -0.000   0.000   0.000   0.000  -0.000   0.000  -0.000   0.000  -0.000   0.000
 -0.000   0.000  -0.000   0.000  -0.000   0.000  -0.000   0.000   0.000   0.000  -0.000   0.000  -0.000   0.000  -0.000   0.000
 -0.000   0.000  -0.000   0.000   0.000   0.000   0.000   0.000   0.000   0.000  -0.000   0.000  -0.000   0.000   0.000   0.000
  0.000   0.000  -0.000   0.000  -0.000   0.000  -0.000   0.000  -0.000   0.000   0.000   0.000  -0.000   0.000  -0.000   0.000
 -0.000   0.000   0.000   0.000   0.000   0.000  -0.000   0.000  -0.000   0.000  -0.000   0.000   0.000   0.000   0.000   0.000
 -0.000   0.000  -0.000   0.000   0.000   0.000   0.000   0.000   0.000   0.000  -0.000   0.000  -0.000   0.000   0.000   0.000
  0.000   0.000  -0.000   0.000  -0.000   0.000  -0.000   0.000  -0.000   0.000   0.000   0.000  -0.000   0.000  -0.000   0.000
 -0.000   0.000   0.000   0.000   0.000   0.000  -0.000   0.000  -0.000   0.000  -0.000   0.000   0.000   0.000   0.000   0.000
 pseudopotential strength for first ion, spin component:           2
 -0.907   0.000   0.000   0.000   0.000   0.000   0.000   0.000   0.000   0.000  -1.573   0.000   0.000   0.000   0.000   0.000
  0.000   0.000  -0.907   0.000  -0.000   0.000   0.000   0.000   0.000   0.000   0.000   0.000  -1.573   0.000  -0.000   0.000
  0.000   0.000  -0.000   0.000  -0.936   0.000  -0.000   0.000  -0.000   0.000   0.000   0.000  -0.000   0.000  -1.601   0.000
  0.000   0.000   0.000   0.000  -0.000   0.000  -0.907   0.000  -0.000   0.000   0.000   0.000   0.000   0.000  -0.000   0.000
  0.000   0.000   0.000   0.000  -0.000   0.000  -0.000   0.000  -0.936   0.000   0.000   0.000   0.000   0.000  -0.000   0.000
 -1.573   0.000   0.000   0.000   0.000   0.000   0.000   0.000   0.000   0.000  -2.169   0.000   0.000   0.000   0.000   0.000
  0.000   0.000  -1.573   0.000  -0.000   0.000   0.000   0.000   0.000   0.000   0.000   0.000  -2.169   0.000  -0.000   0.000
  0.000   0.000  -0.000   0.000  -1.601   0.000  -0.000   0.000  -0.000   0.000   0.000   0.000  -0.000   0.000  -2.195   0.000
  0.000   0.000   0.000   0.000  -0.000   0.000  -1.573   0.000  -0.000   0.000   0.000   0.000   0.000   0.000  -0.000   0.000
  0.000   0.000   0.000   0.000  -0.000   0.000  -0.000   0.000  -1.601   0.000   0.000   0.000   0.000   0.000  -0.000   0.000
 -0.000   0.000  -0.000   0.000  -0.000   0.000  -0.000   0.000   0.000   0.000  -0.000   0.000  -0.000   0.000  -0.000   0.000
 -0.000   0.000  -0.000   0.000  -0.000   0.000  -0.000   0.000   0.000   0.000  -0.000   0.000  -0.000   0.000  -0.000   0.000
 -0.000   0.000  -0.000   0.000   0.000   0.000   0.000   0.000   0.000   0.000  -0.000   0.000  -0.000   0.000   0.000   0.000
  0.000   0.000  -0.000   0.000  -0.000   0.000  -0.000   0.000  -0.000   0.000   0.000   0.000  -0.000   0.000  -0.000   0.000
 -0.000   0.000   0.000   0.000   0.000   0.000  -0.000   0.000  -0.000   0.000  -0.000   0.000   0.000   0.000   0.000   0.000
 -0.000   0.000  -0.000   0.000   0.000   0.000   0.000   0.000   0.000   0.000  -0.000   0.000  -0.000   0.000   0.000   0.000
  0.000   0.000  -0.000   0.000  -0.000   0.000  -0.000   0.000  -0.000   0.000   0.000   0.000  -0.000   0.000  -0.000   0.000
 -0.000   0.000   0.000   0.000   0.000   0.000  -0.000   0.000  -0.000   0.000  -0.000   0.000   0.000   0.000   0.000   0.000
 total augmentation occupancy for first ion, spin component:           1
  2.523   0.000  -0.000   0.000  -0.000  -0.927   0.000  -0.000   0.000  -0.000  -0.000   0.000   0.000   0.000   0.000   0.000
  0.000   2.523   0.000   0.000   0.000   0.000  -0.927  -0.000  -0.000  -0.000   0.000  -0.000   0.000   0.000   0.000   0.000
  0.000   0.000   3.206  -0.000   0.000   0.000  -0.000  -1.223  -0.000   0.000   0.000   0.000   0.000   0.000   0.000   0.000
  0.000   0.000   0.000   2.523  -0.000   0.000   0.000   0.000  -0.927   0.000   0.000  -0.000   0.000   0.000   0.000   0.000
 -0.000   0.000   0.000  -0.000   3.206  -0.000  -0.000   0.000   0.000  -1.223  -0.000   0.000   0.000   0.000   0.000   0.000
 -0.927  -0.000  -0.000  -0.000   0.000   1.034  -0.000   0.000   0.000   0.000   0.000   0.000   0.000   0.000   0.000   0.000
 -0.000  -0.927  -0.000  -0.000  -0.000  -0.000   1.034  -0.000  -0.000   0.000  -0.000   0.000   0.000   0.000   0.000   0.000
  0.000  -0.000  -1.223   0.000   0.000   0.000  -0.000   1.066  -0.000   0.000   0.000   0.000   0.000   0.000   0.000   0.000
 -0.000   0.000   0.000  -0.927   0.000   0.000  -0.000  -0.000   1.034  -0.000  -0.000   0.000   0.000   0.000   0.000   0.000
  0.000   0.000   0.000   0.000  -1.223   0.000   0.000   0.000  -0.000   1.066   0.000   0.000   0.000   0.000   0.000   0.000
 -0.000   0.000   0.000   0.000   0.000   0.000  -0.000   0.000  -0.000   0.000   2.008  -0.256   0.000   0.000   0.000   0.000
  0.000  -0.000   0.000  -0.000   0.000   0.000  -0.000   0.000  -0.000   0.000  -0.256   0.039   0.000   0.000   0.000   0.000
  0.000   0.000   0.000   0.000   0.000   0.000   0.000   0.000   0.000   0.000   0.000   0.000   0.243   0.000   0.000  -0.024
  0.000   0.000   0.000   0.000   0.000   0.000   0.000   0.000   0.000   0.000   0.000   0.000   0.000   0.243   0.000   0.000
  0.000   0.000   0.000   0.000   0.000   0.000   0.000   0.000   0.000   0.000   0.000   0.000   0.000   0.000   0.243   0.000
  0.000   0.000   0.000   0.000   0.000   0.000   0.000   0.000   0.000   0.000   0.000   0.000  -0.024  -0.000   0.000   0.003
  0.000   0.000   0.000   0.000   0.000   0.000   0.000   0.000   0.000   0.000   0.000   0.000  -0.000  -0.024  -0.000   0.000
  0.000   0.000   0.000   0.000   0.000   0.000   0.000   0.000   0.000   0.000   0.000   0.000  -0.000   0.000  -0.024   0.000
 total augmentation occupancy for first ion, spin component:           2
  0.942   0.000   0.000  -0.000  -0.000  -0.443   0.000  -0.000   0.000   0.000  -0.000  -0.000   0.000   0.000   0.000   0.000
  0.000   0.942   0.000   0.000   0.000   0.000  -0.443  -0.000   0.000  -0.000  -0.000  -0.000   0.000   0.000   0.000   0.000
  0.000   0.000   0.544   0.000   0.000   0.000  -0.000  -0.259   0.000   0.000   0.000   0.000   0.000   0.000   0.000   0.000
  0.000  -0.000   0.000   0.942  -0.000   0.000   0.000   0.000  -0.443   0.000  -0.000   0.000   0.000   0.000   0.000   0.000
 -0.000   0.000  -0.000  -0.000   0.544  -0.000  -0.000   0.000   0.000  -0.259   0.000   0.000   0.000   0.000   0.000   0.000
 -0.443  -0.000   0.000  -0.000  -0.000   0.127   0.000  -0.000   0.000   0.000  -0.000  -0.000   0.000   0.000   0.000   0.000
 -0.000  -0.443   0.000   0.000  -0.000   0.000   0.127  -0.000  -0.000   0.000   0.000   0.000   0.000   0.000   0.000   0.000
 -0.000   0.000  -0.259  -0.000   0.000  -0.000  -0.000   0.063   0.000   0.000   0.000   0.000   0.000   0.000   0.000   0.000
 -0.000  -0.000  -0.000  -0.443  -0.000   0.000   0.000   0.000   0.127  -0.000  -0.000   0.000   0.000   0.000   0.000   0.000
 -0.000  -0.000   0.000   0.000  -0.259  -0.000   0.000   0.000  -0.000   0.063  -0.000   0.000   0.000   0.000   0.000   0.000
  0.000  -0.000   0.000   0.000   0.000  -0.000  -0.000   0.000  -0.000  -0.000  -0.119   0.037   0.000   0.000   0.000   0.000
 -0.000  -0.000   0.000  -0.000   0.000   0.000   0.000   0.000   0.000   0.000   0.037  -0.007   0.000   0.000   0.000   0.000
  0.000   0.000   0.000   0.000   0.000   0.000   0.000   0.000   0.000   0.000   0.000   0.000  -0.016   0.000   0.000   0.002
  0.000   0.000   0.000   0.000   0.000   0.000   0.000   0.000   0.000   0.000   0.000   0.000   0.000  -0.016  -0.000   0.000
  0.000   0.000   0.000   0.000   0.000   0.000   0.000   0.000   0.000   0.000   0.000   0.000   0.000  -0.000  -0.016  -0.000
  0.000   0.000   0.000   0.000   0.000   0.000   0.000   0.000   0.000   0.000   0.000   0.000   0.002   0.000  -0.000  -0.000
  0.000   0.000   0.000   0.000   0.000   0.000   0.000   0.000   0.000   0.000   0.000   0.000   0.000   0.002  -0.000   0.000
  0.000   0.000   0.000   0.000   0.000   0.000   0.000   0.000   0.000   0.000   0.000   0.000  -0.000   0.000   0.002   0.000


------------------------ aborting loop because EDIFF is reached ----------------------------------------


    CHARGE:  cpu time    0.0048: real time    0.0048
    FORLOC:  cpu time    0.0001: real time    0.0001
    FORNL :  cpu time    0.0118: real time    0.0118
    STRESS:  cpu time    0.0470: real time    0.0471
    FORCOR:  cpu time    0.0025: real time    0.0026
    FORHAR:  cpu time    0.0003: real time    0.0004
    MIXING:  cpu time    0.0000: real time    0.0004
    OFIELD:  cpu time    0.0000: real time    0.0000

  FORCE on cell =-STRESS in cart. coord.  units (eV):
  Direction    XX          YY          ZZ          XY          YZ          ZX
  --------------------------------------------------------------------------------------
  Alpha Z    41.95140    41.95140    41.95140
  Ewald    -301.46594  -301.46594  -301.46594     0.00000    -0.00000     0.00000
  Hartree    80.54060    80.54060    80.54060    -0.00000    -0.00000    -0.00000
  E(xc)     -54.75338   -54.75338   -54.75338    -0.00057    -0.00057    -0.00057
  Local     -11.45209   -11.45209   -11.45209     0.00352     0.00352     0.00352
  n-local    -9.51968    -9.06712   -11.46418     1.60273    -1.70169     0.03220
  augment   176.51222   176.51222   176.51222    -0.00130    -0.00130    -0.00130
  Kinetic    76.36064    76.56195    78.49219    -0.68856     0.62955     0.03157
  Fock        0.00000     0.00000     0.00000     0.00000     0.00000     0.00000
  -------------------------------------------------------------------------------------
  Total      -1.54592    -1.54592    -1.54592    -0.00000     0.00000    -0.00000
  in kB    -203.74118  -203.74118  -203.74118    -0.00000     0.00000    -0.00000
  external pressure =     -203.74 kB  Pullay stress =        0.00 kB


 VOLUME and BASIS-vectors are now :
 -----------------------------------------------------------------------------
  energy-cutoff  :      270.00
  volume of cell :       12.16
      direct lattice vectors                 reciprocal lattice vectors
     0.000000000  1.825000000  1.825000000    -0.273972603  0.273972603  0.273972603
     1.825000000  0.000000000  1.825000000     0.273972603 -0.273972603  0.273972603
     1.825000000  1.825000000  0.000000000     0.273972603  0.273972603 -0.273972603

  length of vectors
     2.580939751  2.580939751  2.580939751     0.474534468  0.474534468  0.474534468


 FORCES acting on ions
    electron-ion (+dipol)            ewald-force                    non-local-force                 convergence-correction
 -----------------------------------------------------------------------------------------------
   0.470E-13 0.540E-13 0.451E-13   -.673E-15 0.998E-16 -.198E-14   -.265E-22 0.000E+00 -.132E-22   0.277E-13 0.205E-13 0.364E-13
 -----------------------------------------------------------------------------------------------
   0.470E-13 0.540E-13 0.451E-13   -.673E-15 0.998E-16 -.198E-14   -.265E-22 0.000E+00 -.132E-22   0.277E-13 0.205E-13 0.364E-13
 
 
 POSITION                                       TOTAL-FORCE (eV/Angst)
 -----------------------------------------------------------------------------------
      0.00000      0.00000      0.00000        -0.000000     -0.000000      0.000000
 -----------------------------------------------------------------------------------
    total drift:                                0.000000      0.000000      0.000000


--------------------------------------------------------------------------------------------------------



  FREE ENERGIE OF THE ION-ELECTRON SYSTEM (eV)
  ---------------------------------------------------
  free  energy   TOTEN  =        -5.39343309 eV

  energy  without entropy=       -5.39012478  energy(sigma->0) =       -5.39233032
 


--------------------------------------------------------------------------------------------------------


    POTLOK:  cpu time    0.0058: real time    0.0063


--------------------------------------------------------------------------------------------------------


 writing wavefunctions
     LOOP+:  cpu time    3.7024: real time    3.7859
    4ORBIT:  cpu time    0.0000: real time    0.0000

 total amount of memory used by VASP MPI-rank0    34190. kBytes
=======================================================================

   base      :      30000. kBytes
   nonl-proj :       2092. kBytes
   fftplans  :        142. kBytes
   grid      :        320. kBytes
   one-center:         31. kBytes
   wavefun   :       1605. kBytes
 
  
  
 General timing and accounting informations for this job:
 ========================================================
  
                  Total CPU time used (sec):        4.152
                            User time (sec):        3.665
                          System time (sec):        0.487
                         Elapsed time (sec):        4.323
  
                   Maximum memory used (kb):       59364.
                   Average memory used (kb):           0.
  
                          Minor page faults:        39775
                          Major page faults:            0
                 Voluntary context switches:         3966
