<?xml version="1.0" encoding="ISO-8859-1"?>
<modeling>
 <generator>
  <i name="program" type="string">vasp </i>
  <i name="version" type="string">5.4.4.18Apr17-6-g9f103f2a35  </i>
  <i name="subversion" type="string">(build Jul 01 2019 03:25:34) complex            parallel </i>
  <i name="platform" type="string">LinuxIFC </i>
  <i name="date" type="string">2020 07 09 </i>
  <i name="time" type="string">19:35:47 </i>
 </generator>
 <incar>
  <i type="string" name="SYSTEM"> fcc Ni</i>
  <i type="string" name="PREC">normal</i>
  <i type="int" name="ISPIN">     2</i>
  <i name="EDIFF">      0.00010000</i>
  <i name="ENCUT">    270.00000000</i>
  <v name="MAGMOM">      3.00000000</v>
  <v type="int" name="KPOINT_BSE">    -1     0     0     0</v>
 </incar>
 <structure name="primitive_cell" >
  <crystal>
   <varray name="basis" >
    <v>       0.00000000       1.82500000       1.82500000 </v>
    <v>       1.82500000       0.00000000       1.82500000 </v>
    <v>       1.82500000       1.82500000       0.00000000 </v>
   </varray>
   <i name="volume">     12.15678125 </i>
   <varray name="rec_basis" >
    <v>      -0.27397260       0.27397260       0.27397260 </v>
    <v>       0.27397260      -0.27397260       0.27397260 </v>
    <v>       0.27397260       0.27397260      -0.27397260 </v>
   </varray>
  </crystal>
  <varray name="positions" >
   <v>       0.00000000       0.00000000       0.00000000 </v>
  </varray>
 </structure>
 <varray name="primitive_index" >
  <v type="int" >        1 </v>
 </varray>
 <kpoints>
  <generation param="Monkhorst-Pack">
   <v type="int" name="divisions">      10       10       10 </v>
   <v name="usershift">      0.00000000       0.00000000       0.00000000 </v>
   <v name="genvec1">      0.10000000       0.00000000       0.00000000 </v>
   <v name="genvec2">      0.00000000       0.10000000       0.00000000 </v>
   <v name="genvec3">      0.00000000       0.00000000       0.10000000 </v>
   <v name="shift">      0.50000000       0.50000000       0.50000000 </v>
  </generation>
  <varray name="kpointlist" >
   <v>       0.05000000       0.05000000       0.05000000 </v>
   <v>       0.15000000       0.05000000       0.05000000 </v>
   <v>       0.25000000       0.05000000       0.05000000 </v>
   <v>       0.35000000       0.05000000       0.05000000 </v>
   <v>       0.45000000       0.05000000       0.05000000 </v>
   <v>      -0.45000000       0.05000000       0.05000000 </v>
   <v>      -0.35000000       0.05000000       0.05000000 </v>
   <v>      -0.25000000       0.05000000       0.05000000 </v>
   <v>      -0.15000000       0.05000000       0.05000000 </v>
   <v>      -0.05000000       0.05000000       0.05000000 </v>
   <v>       0.15000000       0.15000000       0.05000000 </v>
   <v>       0.25000000       0.15000000       0.05000000 </v>
   <v>       0.35000000       0.15000000       0.05000000 </v>
   <v>       0.45000000       0.15000000       0.05000000 </v>
   <v>      -0.45000000       0.15000000       0.05000000 </v>
   <v>      -0.35000000       0.15000000       0.05000000 </v>
   <v>      -0.25000000       0.15000000       0.05000000 </v>
   <v>      -0.15000000       0.15000000       0.05000000 </v>
   <v>      -0.05000000       0.15000000       0.05000000 </v>
   <v>       0.25000000       0.25000000       0.05000000 </v>
   <v>       0.35000000       0.25000000       0.05000000 </v>
   <v>       0.45000000       0.25000000       0.05000000 </v>
   <v>      -0.45000000       0.25000000       0.05000000 </v>
   <v>      -0.35000000       0.25000000       0.05000000 </v>
   <v>      -0.25000000       0.25000000       0.05000000 </v>
   <v>      -0.15000000       0.25000000       0.05000000 </v>
   <v>      -0.05000000       0.25000000       0.05000000 </v>
   <v>       0.35000000       0.35000000       0.05000000 </v>
   <v>       0.45000000       0.35000000       0.05000000 </v>
   <v>      -0.45000000       0.35000000       0.05000000 </v>
   <v>      -0.35000000       0.35000000       0.05000000 </v>
   <v>      -0.25000000       0.35000000       0.05000000 </v>
   <v>      -0.15000000       0.35000000       0.05000000 </v>
   <v>      -0.05000000       0.35000000       0.05000000 </v>
   <v>       0.45000000       0.45000000       0.05000000 </v>
   <v>      -0.45000000       0.45000000       0.05000000 </v>
   <v>      -0.35000000       0.45000000       0.05000000 </v>
   <v>      -0.25000000       0.45000000       0.05000000 </v>
   <v>      -0.15000000       0.45000000       0.05000000 </v>
   <v>      -0.05000000       0.45000000       0.05000000 </v>
   <v>      -0.45000000      -0.45000000       0.05000000 </v>
   <v>      -0.35000000      -0.45000000       0.05000000 </v>
   <v>      -0.25000000      -0.45000000       0.05000000 </v>
   <v>      -0.15000000      -0.45000000       0.05000000 </v>
   <v>      -0.35000000      -0.35000000       0.05000000 </v>
   <v>      -0.25000000      -0.35000000       0.05000000 </v>
   <v>      -0.15000000      -0.35000000       0.05000000 </v>
   <v>      -0.25000000      -0.25000000       0.05000000 </v>
   <v>      -0.15000000      -0.25000000       0.05000000 </v>
   <v>      -0.15000000      -0.15000000       0.05000000 </v>
   <v>       0.15000000       0.15000000       0.15000000 </v>
   <v>       0.25000000       0.15000000       0.15000000 </v>
   <v>       0.35000000       0.15000000       0.15000000 </v>
   <v>       0.45000000       0.15000000       0.15000000 </v>
   <v>      -0.45000000       0.15000000       0.15000000 </v>
   <v>      -0.35000000       0.15000000       0.15000000 </v>
   <v>      -0.25000000       0.15000000       0.15000000 </v>
   <v>      -0.15000000       0.15000000       0.15000000 </v>
   <v>       0.25000000       0.25000000       0.15000000 </v>
   <v>       0.35000000       0.25000000       0.15000000 </v>
   <v>       0.45000000       0.25000000       0.15000000 </v>
   <v>      -0.45000000       0.25000000       0.15000000 </v>
   <v>      -0.35000000       0.25000000       0.15000000 </v>
   <v>      -0.25000000       0.25000000       0.15000000 </v>
   <v>      -0.15000000       0.25000000       0.15000000 </v>
   <v>       0.35000000       0.35000000       0.15000000 </v>
   <v>       0.45000000       0.35000000       0.15000000 </v>
   <v>      -0.45000000       0.35000000       0.15000000 </v>
   <v>      -0.35000000       0.35000000       0.15000000 </v>
   <v>      -0.25000000       0.35000000       0.15000000 </v>
   <v>      -0.15000000       0.35000000       0.15000000 </v>
   <v>       0.45000000       0.45000000       0.15000000 </v>
   <v>      -0.45000000       0.45000000       0.15000000 </v>
   <v>      -0.35000000       0.45000000       0.15000000 </v>
   <v>      -0.25000000       0.45000000       0.15000000 </v>
   <v>      -0.15000000       0.45000000       0.15000000 </v>
   <v>      -0.45000000      -0.45000000       0.15000000 </v>
   <v>      -0.35000000      -0.45000000       0.15000000 </v>
   <v>      -0.25000000      -0.45000000       0.15000000 </v>
   <v>      -0.35000000      -0.35000000       0.15000000 </v>
   <v>      -0.25000000      -0.35000000       0.15000000 </v>
   <v>      -0.25000000      -0.25000000       0.15000000 </v>
   <v>       0.25000000       0.25000000       0.25000000 </v>
   <v>       0.35000000       0.25000000       0.25000000 </v>
   <v>       0.45000000       0.25000000       0.25000000 </v>
   <v>      -0.45000000       0.25000000       0.25000000 </v>
   <v>      -0.35000000       0.25000000       0.25000000 </v>
   <v>      -0.25000000       0.25000000       0.25000000 </v>
   <v>       0.35000000       0.35000000       0.25000000 </v>
   <v>       0.45000000       0.35000000       0.25000000 </v>
   <v>      -0.45000000       0.35000000       0.25000000 </v>
   <v>      -0.35000000       0.35000000       0.25000000 </v>
   <v>      -0.25000000       0.35000000       0.25000000 </v>
   <v>       0.45000000       0.45000000       0.25000000 </v>
   <v>      -0.45000000       0.45000000       0.25000000 </v>
   <v>      -0.35000000       0.45000000       0.25000000 </v>
   <v>      -0.25000000       0.45000000       0.25000000 </v>
   <v>      -0.45000000      -0.45000000       0.25000000 </v>
   <v>      -0.35000000      -0.45000000       0.25000000 </v>
   <v>      -0.35000000      -0.35000000       0.25000000 </v>
   <v>       0.35000000       0.35000000       0.35000000 </v>
   <v>       0.45000000       0.35000000       0.35000000 </v>
   <v>      -0.45000000       0.35000000       0.35000000 </v>
   <v>      -0.35000000       0.35000000       0.35000000 </v>
   <v>       0.45000000       0.45000000       0.35000000 </v>
   <v>      -0.45000000       0.45000000       0.35000000 </v>
   <v>      -0.35000000       0.45000000       0.35000000 </v>
   <v>      -0.45000000      -0.45000000       0.35000000 </v>
   <v>       0.45000000       0.45000000       0.45000000 </v>
   <v>      -0.45000000       0.45000000       0.45000000 </v>
  </varray>
  <varray name="weights" >
   <v>       0.00200000 </v>
   <v>       0.00600000 </v>
   <v>       0.00600000 </v>
   <v>       0.00600000 </v>
   <v>       0.00600000 </v>
   <v>       0.00600000 </v>
   <v>       0.00600000 </v>
   <v>       0.00600000 </v>
   <v>       0.00600000 </v>
   <v>       0.00600000 </v>
   <v>       0.00600000 </v>
   <v>       0.01200000 </v>
   <v>       0.01200000 </v>
   <v>       0.01200000 </v>
   <v>       0.01200000 </v>
   <v>       0.01200000 </v>
   <v>       0.01200000 </v>
   <v>       0.01200000 </v>
   <v>       0.01200000 </v>
   <v>       0.00600000 </v>
   <v>       0.01200000 </v>
   <v>       0.01200000 </v>
   <v>       0.01200000 </v>
   <v>       0.01200000 </v>
   <v>       0.01200000 </v>
   <v>       0.01200000 </v>
   <v>       0.01200000 </v>
   <v>       0.00600000 </v>
   <v>       0.01200000 </v>
   <v>       0.01200000 </v>
   <v>       0.01200000 </v>
   <v>       0.01200000 </v>
   <v>       0.01200000 </v>
   <v>       0.01200000 </v>
   <v>       0.00600000 </v>
   <v>       0.01200000 </v>
   <v>       0.01200000 </v>
   <v>       0.01200000 </v>
   <v>       0.01200000 </v>
   <v>       0.01200000 </v>
   <v>       0.00600000 </v>
   <v>       0.01200000 </v>
   <v>       0.01200000 </v>
   <v>       0.01200000 </v>
   <v>       0.00600000 </v>
   <v>       0.01200000 </v>
   <v>       0.01200000 </v>
   <v>       0.00600000 </v>
   <v>       0.01200000 </v>
   <v>       0.00600000 </v>
   <v>       0.00200000 </v>
   <v>       0.00600000 </v>
   <v>       0.00600000 </v>
   <v>       0.00600000 </v>
   <v>       0.00600000 </v>
   <v>       0.00600000 </v>
   <v>       0.00600000 </v>
   <v>       0.00600000 </v>
   <v>       0.00600000 </v>
   <v>       0.01200000 </v>
   <v>       0.01200000 </v>
   <v>       0.01200000 </v>
   <v>       0.01200000 </v>
   <v>       0.01200000 </v>
   <v>       0.01200000 </v>
   <v>       0.00600000 </v>
   <v>       0.01200000 </v>
   <v>       0.01200000 </v>
   <v>       0.01200000 </v>
   <v>       0.01200000 </v>
   <v>       0.01200000 </v>
   <v>       0.00600000 </v>
   <v>       0.01200000 </v>
   <v>       0.01200000 </v>
   <v>       0.01200000 </v>
   <v>       0.01200000 </v>
   <v>       0.00600000 </v>
   <v>       0.01200000 </v>
   <v>       0.01200000 </v>
   <v>       0.00600000 </v>
   <v>       0.01200000 </v>
   <v>       0.00600000 </v>
   <v>       0.00200000 </v>
   <v>       0.00600000 </v>
   <v>       0.00600000 </v>
   <v>       0.00600000 </v>
   <v>       0.00600000 </v>
   <v>       0.00600000 </v>
   <v>       0.00600000 </v>
   <v>       0.01200000 </v>
   <v>       0.01200000 </v>
   <v>       0.01200000 </v>
   <v>       0.01200000 </v>
   <v>       0.00600000 </v>
   <v>       0.01200000 </v>
   <v>       0.01200000 </v>
   <v>       0.01200000 </v>
   <v>       0.00600000 </v>
   <v>       0.01200000 </v>
   <v>       0.00600000 </v>
   <v>       0.00200000 </v>
   <v>       0.00600000 </v>
   <v>       0.00600000 </v>
   <v>       0.00600000 </v>
   <v>       0.00600000 </v>
   <v>       0.01200000 </v>
   <v>       0.01200000 </v>
   <v>       0.00600000 </v>
   <v>       0.00200000 </v>
   <v>       0.00600000 </v>
  </varray>
 </kpoints>
 <parameters>
  <separator name="general" >
   <i type="string" name="SYSTEM">fcc Ni</i>
   <i type="logical" name="LCOMPAT"> F  </i>
  </separator>
  <separator name="electronic" >
   <i type="string" name="PREC">normal</i>
   <i name="ENMAX">    270.00000000</i>
   <i name="ENAUG">    544.56500000</i>
   <i name="EDIFF">      0.00010000</i>
   <i type="int" name="IALGO">    38</i>
   <i type="int" name="IWAVPR">    10</i>
   <i type="int" name="NBANDS">    12</i>
   <i name="NELECT">     10.00000000</i>
   <i type="int" name="TURBO">     0</i>
   <i type="int" name="IRESTART">     0</i>
   <i type="int" name="NREBOOT">     0</i>
   <i type="int" name="NMIN">     0</i>
   <i name="EREF">      0.00000000</i>
   <separator name="electronic smearing" >
    <i type="int" name="ISMEAR">     1</i>
    <i name="SIGMA">      0.20000000</i>
    <i name="KSPACING">      0.50000000</i>
    <i type="logical" name="KGAMMA"> T  </i>
   </separator>
   <separator name="electronic projectors" >
    <i type="logical" name="LREAL"> F  </i>
    <v name="ROPT">      0.00000000</v>
    <i type="int" name="LMAXPAW">  -100</i>
    <i type="int" name="LMAXMIX">     2</i>
    <i type="logical" name="NLSPLINE"> F  </i>
   </separator>
   <separator name="electronic startup" >
    <i type="int" name="ISTART">     0</i>
    <i type="int" name="ICHARG">     2</i>
    <i type="int" name="INIWAV">     1</i>
   </separator>
   <separator name="electronic spin" >
    <i type="int" name="ISPIN">     2</i>
    <i type="logical" name="LNONCOLLINEAR"> F  </i>
    <v name="MAGMOM">      3.00000000</v>
    <i name="NUPDOWN">     -1.00000000</i>
    <i type="logical" name="LSORBIT"> F  </i>
    <v name="SAXIS">      0.00000000      0.00000000      1.00000000</v>
    <i type="logical" name="LSPIRAL"> F  </i>
    <v name="QSPIRAL">      0.00000000      0.00000000      0.00000000</v>
    <i type="logical" name="LZEROZ"> F  </i>
   </separator>
   <separator name="electronic exchange-correlation" >
    <i type="logical" name="LASPH"> F  </i>
    <i type="logical" name="LMETAGGA"> F  </i>
   </separator>
   <separator name="electronic convergence" >
    <i type="int" name="NELM">    60</i>
    <i type="int" name="NELMDL">    -5</i>
    <i type="int" name="NELMIN">     2</i>
    <i name="ENINI">    270.00000000</i>
    <separator name="electronic convergence detail" >
     <i type="logical" name="LDIAG"> T  </i>
     <i type="logical" name="LSUBROT"> F  </i>
     <i name="WEIMIN">      0.00000000</i>
     <i name="EBREAK">      0.00000208</i>
     <i name="DEPER">      0.30000000</i>
     <i type="int" name="NRMM">     4</i>
     <i name="TIME">      0.40000000</i>
    </separator>
   </separator>
   <separator name="electronic mixer" >
    <i name="AMIX">      0.40000000</i>
    <i name="BMIX">      1.00000000</i>
    <i name="AMIN">      0.10000000</i>
    <i name="AMIX_MAG">      1.60000000</i>
    <i name="BMIX_MAG">      1.00000000</i>
    <separator name="electronic mixer details" >
     <i type="int" name="IMIX">     4</i>
     <i type="logical" name="MIXFIRST"> F  </i>
     <i type="int" name="MAXMIX">   -45</i>
     <i name="WC">    100.00000000</i>
     <i type="int" name="INIMIX">     1</i>
     <i type="int" name="MIXPRE">     1</i>
     <i type="int" name="MREMOVE">     5</i>
    </separator>
   </separator>
   <separator name="electronic dipolcorrection" >
    <i type="logical" name="LDIPOL"> F  </i>
    <i type="logical" name="LMONO"> F  </i>
    <i type="int" name="IDIPOL">     0</i>
    <i name="EPSILON">      1.00000000</i>
    <v name="DIPOL">   -100.00000000   -100.00000000   -100.00000000</v>
    <i name="EFIELD">      0.00000000</i>
   </separator>
  </separator>
  <separator name="grids" >
   <i type="int" name="NGX">    10</i>
   <i type="int" name="NGY">    10</i>
   <i type="int" name="NGZ">    10</i>
   <i type="int" name="NGXF">    20</i>
   <i type="int" name="NGYF">    20</i>
   <i type="int" name="NGZF">    20</i>
   <i type="logical" name="ADDGRID"> F  </i>
  </separator>
  <separator name="ionic" >
   <i type="int" name="NSW">     0</i>
   <i type="int" name="IBRION">    -1</i>
   <i type="int" name="MDALGO">     0</i>
   <i type="int" name="ISIF">     2</i>
   <i name="PSTRESS">      0.00000000</i>
   <i name="EDIFFG">      0.00100000</i>
   <i type="int" name="NFREE">     0</i>
   <i name="POTIM">      0.50000000</i>
   <i name="SMASS">     -3.00000000</i>
   <i name="SCALEE">      1.00000000</i>
  </separator>
  <separator name="ionic md" >
   <i name="TEBEG">      0.00010000</i>
   <i name="TEEND">      0.00010000</i>
   <i type="int" name="NBLOCK">     1</i>
   <i type="int" name="KBLOCK">     1</i>
   <i type="int" name="NPACO">   256</i>
   <i name="APACO">     16.00000000</i>
  </separator>
  <separator name="symmetry" >
   <i type="int" name="ISYM">     2</i>
   <i name="SYMPREC">      0.00001000</i>
  </separator>
  <separator name="dos" >
   <i type="int" name="LORBIT">     0</i>
   <v name="RWIGS">     -1.00000000</v>
   <i type="int" name="NEDOS">   301</i>
   <i name="EMIN">     10.00000000</i>
   <i name="EMAX">    -10.00000000</i>
   <i name="EFERMI">      0.00000000</i>
  </separator>
  <separator name="writing" >
   <i type="int" name="NWRITE">     2</i>
   <i type="logical" name="LWAVE"> T  </i>
   <i type="logical" name="LDOWNSAMPLE"> F  </i>
   <i type="logical" name="LCHARG"> T  </i>
   <i type="logical" name="LPARD"> F  </i>
   <i type="logical" name="LVTOT"> F  </i>
   <i type="logical" name="LVHAR"> F  </i>
   <i type="logical" name="LELF"> F  </i>
   <i type="logical" name="LOPTICS"> F  </i>
   <v name="STM">      0.00000000      0.00000000      0.00000000      0.00000000      0.00000000      0.00000000      0.00000000</v>
  </separator>
  <separator name="performance" >
   <i type="int" name="NPAR">     4</i>
   <i type="int" name="NSIM">     4</i>
   <i type="int" name="NBLK">    -1</i>
   <i type="logical" name="LPLANE"> T  </i>
   <i type="logical" name="LSCALAPACK"> T  </i>
   <i type="logical" name="LSCAAWARE"> F  </i>
   <i type="logical" name="LSCALU"> F  </i>
   <i type="logical" name="LASYNC"> F  </i>
   <i type="logical" name="LORBITALREAL"> F  </i>
  </separator>
  <separator name="miscellaneous" >
   <i type="int" name="IDIOT">     3</i>
   <i type="int" name="ISPECIAL">     0</i>
   <i type="logical" name="LMUSIC"> F  </i>
   <v name="POMASS">     58.69000000</v>
   <v name="DARWINR">      0.00000000</v>
   <v name="DARWINV">      1.00000000</v>
   <i type="logical" name="LCORR"> T  </i>
  </separator>
  <i type="logical" name="GGA_COMPAT"> T  </i>
  <i type="logical" name="LBERRY"> F  </i>
  <i type="int" name="ICORELEVEL">     0</i>
  <i type="logical" name="LDAU"> F  </i>
  <i type="int" name="I_CONSTRAINED_M">     0</i>
  <separator name="electronic exchange-correlation" >
   <i type="string" name="GGA">--</i>
   <i type="int" name="VOSKOWN">     0</i>
   <i type="logical" name="LHFCALC"> F  </i>
   <i type="string" name="PRECFOCK"></i>
   <i type="logical" name="LSYMGRAD"> F  </i>
   <i type="logical" name="LHFONE"> F  </i>
   <i type="logical" name="LRHFCALC"> F  </i>
   <i type="logical" name="LTHOMAS"> F  </i>
   <i type="logical" name="LMODELHF"> F  </i>
   <i name="ENCUT4O">     -1.00000000</i>
   <i type="int" name="EXXOEP">     0</i>
   <i type="int" name="FOURORBIT">     0</i>
   <i name="AEXX">      0.00000000</i>
   <i name="HFALPHA">      0.00000000</i>
   <i name="MCALPHA">      0.00000000</i>
   <i name="ALDAX">      1.00000000</i>
   <i name="AGGAX">      1.00000000</i>
   <i name="ALDAC">      1.00000000</i>
   <i name="AGGAC">      1.00000000</i>
   <i type="int" name="NKREDX">     1</i>
   <i type="int" name="NKREDY">     1</i>
   <i type="int" name="NKREDZ">     1</i>
   <i type="logical" name="SHIFTRED"> F  </i>
   <i type="logical" name="ODDONLY"> F  </i>
   <i type="logical" name="EVENONLY"> F  </i>
   <i type="int" name="LMAXFOCK">     0</i>
   <i type="int" name="NMAXFOCKAE">     0</i>
   <i type="logical" name="LFOCKAEDFT"> F  </i>
   <i name="HFSCREEN">      0.00000000</i>
   <i name="HFSCREENC">      0.00000000</i>
   <i type="int" name="NBANDSGWLOW">     0</i>
  </separator>
  <separator name="vdW DFT" >
   <i type="logical" name="LUSE_VDW"> F  </i>
   <i name="Zab_VDW">     -0.84910000</i>
   <i name="PARAM1">      0.12340000</i>
   <i name="PARAM2">      1.00000000</i>
   <i name="PARAM3">      0.00000000</i>
  </separator>
  <separator name="model GW" >
   <i type="int" name="MODEL_GW">     0</i>
   <i name="MODEL_EPS0">      7.29406875</i>
   <i name="MODEL_ALPHA">      1.00000000</i>
  </separator>
  <separator name="linear response parameters" >
   <i type="logical" name="LEPSILON"> F  </i>
   <i type="logical" name="LRPA"> F  </i>
   <i type="logical" name="LNABLA"> F  </i>
   <i type="logical" name="LVEL"> F  </i>
   <i type="int" name="KINTER">     0</i>
   <i name="CSHIFT">      0.10000000</i>
   <i name="OMEGAMAX">     -1.00000000</i>
   <i name="DEG_THRESHOLD">      0.00200000</i>
   <i name="RTIME">     -0.10000000</i>
   <i name="WPLASMAI">      0.00000000</i>
   <v name="DFIELD">      0.00000000      0.00000000      0.00000000</v>
   <v name="WPLASMA">      0.00000000      0.00000000      0.00000000      0.00000000      0.00000000      0.00000000      0.00000000      0.00000000      0.00000000</v>
  </separator>
  <separator name="orbital magnetization" >
   <i type="logical" name="NUCIND"> F  </i>
   <v name="MAGPOS">      0.00000000      0.00000000      0.00000000</v>
   <i type="logical" name="LNICSALL"> T  </i>
   <i type="logical" name="ORBITALMAG"> F  </i>
   <i type="logical" name="LMAGBLOCH"> F  </i>
   <i type="logical" name="LCHIMAG"> F  </i>
   <i type="logical" name="LGAUGE"> T  </i>
   <i type="int" name="MAGATOM">     0</i>
   <v name="MAGDIPOL">      0.00000000      0.00000000      0.00000000</v>
   <v name="AVECCONST">      0.00000000      0.00000000      0.00000000</v>
  </separator>
  <separator name="response functions" >
   <i type="logical" name="LADDER"> F  </i>
   <i type="logical" name="LRPAFORCE"> F  </i>
   <i type="logical" name="LFXC"> F  </i>
   <i type="logical" name="LHARTREE"> T  </i>
   <i type="int" name="IBSE">     0</i>
   <v type="int" name="KPOINT">    -1     0     0     0</v>
   <i type="logical" name="LTCTE"> F  </i>
   <i type="logical" name="LTETE"> F  </i>
   <i type="logical" name="LTRIPLET"> F  </i>
   <i type="logical" name="LFXCEPS"> F  </i>
   <i type="logical" name="LFXHEG"> F  </i>
   <i type="int" name="NATURALO">     2</i>
   <i type="logical" name="L2ORDER"> F  </i>
   <i type="logical" name="LMP2LT"> F  </i>
   <i type="logical" name="LUSEW"> F  </i>
   <i name="ENCUTGW">     -2.00000000</i>
   <i name="ENCUTGWSOFT">     -2.00000000</i>
   <i name="ENCUTLF">     -1.00000000</i>
   <i type="int" name="LMAXMP2">    -1</i>
   <i name="SCISSOR">      0.00000000</i>
   <i type="int" name="NOMEGA">     0</i>
   <i type="int" name="NOMEGAR">     0</i>
   <i type="int" name="NBANDSGW">    -1</i>
   <i type="int" name="NBANDSO">    -1</i>
   <i type="int" name="NBANDSV">    -1</i>
   <i type="int" name="NELM">     1</i>
   <i type="int" name="NELMHF">     1</i>
   <i type="int" name="DIM">     3</i>
   <i type="int" name="ANTIRES">     0</i>
   <i name="OMEGAMAX">    -30.00000000</i>
   <i name="OMEGAMIN">    -30.00000000</i>
   <i name="OMEGATL">   -200.00000000</i>
   <i type="int" name="OMEGAGRID">   140</i>
   <i name="CSHIFT">     -0.10000000</i>
   <i type="logical" name="SELFENERGY"> F  </i>
   <i type="logical" name="LSPECTRAL"> F  </i>
   <i type="logical" name="LSPECTRALGW"> F  </i>
   <i type="logical" name="LSINGLES"> F  </i>
   <i type="logical" name="LFERMIGW"> F  </i>
   <i type="logical" name="ODDONLYGW"> F  </i>
   <i type="logical" name="EVENONLYGW"> F  </i>
   <i type="int" name="NKREDLFX">     1</i>
   <i type="int" name="NKREDLFY">     1</i>
   <i type="int" name="NKREDLFZ">     1</i>
   <i type="int" name="MAXMEM">  2800</i>
   <i type="int" name="TELESCOPE">     0</i>
   <i type="int" name="TAUPAR">     1</i>
   <i type="int" name="OMEGAPAR">    -1</i>
   <i name="LAMBDA">      1.00000000</i>
  </separator>
  <separator name="External order field" >
   <i name="OFIELD_KAPPA">      0.00000000</i>
   <v name="OFIELD_K">      0.00000000      0.00000000      0.00000000</v>
   <i name="OFIELD_Q6_NEAR">      0.00000000</i>
   <i name="OFIELD_Q6_FAR">      0.00000000</i>
   <i name="OFIELD_A">      0.00000000</i>
  </separator>
 </parameters>
 <atominfo>
  <atoms>       1 </atoms>
  <types>       1 </types>
  <array name="atoms" >
   <dimension dim="1">ion</dimension>
   <field type="string">element</field>
   <field type="int">atomtype</field>
   <set>
    <rc><c>Ni</c><c>   1</c></rc>
   </set>
  </array>
  <array name="atomtypes" >
   <dimension dim="1">type</dimension>
   <field type="int">atomspertype</field>
   <field type="string">element</field>
   <field>mass</field>
   <field>valence</field>
   <field type="string">pseudopotential</field>
   <set>
    <rc><c>   1</c><c>Ni</c><c>     58.69000000</c><c>     10.00000000</c><c>  PAW_PBE Ni 02Aug2007                  </c></rc>
   </set>
  </array>
 </atominfo>
 <structure name="initialpos" >
  <crystal>
   <varray name="basis" >
    <v>       0.00000000       1.82500000       1.82500000 </v>
    <v>       1.82500000       0.00000000       1.82500000 </v>
    <v>       1.82500000       1.82500000       0.00000000 </v>
   </varray>
   <i name="volume">     12.15678125 </i>
   <varray name="rec_basis" >
    <v>      -0.27397260       0.27397260       0.27397260 </v>
    <v>       0.27397260      -0.27397260       0.27397260 </v>
    <v>       0.27397260       0.27397260      -0.27397260 </v>
   </varray>
  </crystal>
  <varray name="positions" >
   <v>       0.00000000       0.00000000       0.00000000 </v>
  </varray>
 </structure>
 <calculation>
  <scstep>
   <time name="dav">    0.32    0.33</time>
   <time name="total">    0.33    0.34</time>
   <energy>
    <i name="alphaZ">     41.95140140 </i>
    <i name="ewald">   -904.39778147 </i>
    <i name="hartreedc">   -261.67462877 </i>
    <i name="XCdc">     32.39783564 </i>
    <i name="pawpsdc">    961.92645289 </i>
    <i name="pawaedc">  -1028.66799202 </i>
    <i name="eentropy">     -0.00005057 </i>
    <i name="bandstr">     99.97934477 </i>
    <i name="atom">   1077.63607467 </i>
    <i name="e_fr_energy">     19.15065654 </i>
    <i name="e_wo_entrp">     19.15070711 </i>
    <i name="e_0_energy">     19.15067339 </i>
   </energy>
  </scstep>
  <scstep>
   <time name="dav">    0.30    0.31</time>
   <time name="total">    0.31    0.31</time>
   <energy>
    <i name="e_fr_energy">     -5.35768290 </i>
    <i name="e_wo_entrp">     -5.35813633 </i>
    <i name="e_0_energy">     -5.35783405 </i>
   </energy>
  </scstep>
  <scstep>
   <time name="dav">    0.32    0.33</time>
   <time name="total">    0.32    0.33</time>
   <energy>
    <i name="e_fr_energy">     -5.83821008 </i>
    <i name="e_wo_entrp">     -5.83839211 </i>
    <i name="e_0_energy">     -5.83827075 </i>
   </energy>
  </scstep>
  <scstep>
   <time name="dav">    0.32    0.32</time>
   <time name="total">    0.32    0.33</time>
   <energy>
    <i name="e_fr_energy">     -5.84062749 </i>
    <i name="e_wo_entrp">     -5.84080762 </i>
    <i name="e_0_energy">     -5.84068754 </i>
   </energy>
  </scstep>
  <scstep>
   <time name="dav">    0.32    0.33</time>
   <time name="total">    0.33    0.33</time>
   <energy>
    <i name="e_fr_energy">     -5.84066158 </i>
    <i name="e_wo_entrp">     -5.84084166 </i>
    <i name="e_0_energy">     -5.84072160 </i>
   </energy>
  </scstep>
  <scstep>
   <time name="dav">    0.33    0.34</time>
   <time name="total">    0.34    0.35</time>
   <energy>
    <i name="e_fr_energy">     -5.97306847 </i>
    <i name="e_wo_entrp">     -5.96709029 </i>
    <i name="e_0_energy">     -5.97107575 </i>
   </energy>
  </scstep>
  <scstep>
   <time name="dav">    0.33    0.34</time>
   <time name="total">    0.34    0.35</time>
   <energy>
    <i name="e_fr_energy">     -5.40123473 </i>
    <i name="e_wo_entrp">     -5.39800661 </i>
    <i name="e_0_energy">     -5.40015869 </i>
   </energy>
  </scstep>
  <scstep>
   <time name="dav">    0.33    0.34</time>
   <time name="total">    0.34    0.35</time>
   <energy>
    <i name="e_fr_energy">     -5.39695551 </i>
    <i name="e_wo_entrp">     -5.39353283 </i>
    <i name="e_0_energy">     -5.39581462 </i>
   </energy>
  </scstep>
  <scstep>
   <time name="dav">    0.32    0.32</time>
   <time name="total">    0.33    0.34</time>
   <energy>
    <i name="e_fr_energy">     -5.39456945 </i>
    <i name="e_wo_entrp">     -5.39124948 </i>
    <i name="e_0_energy">     -5.39346279 </i>
   </energy>
  </scstep>
  <scstep>
   <time name="dav">    0.33    0.34</time>
   <time name="total">    0.34    0.35</time>
   <energy>
    <i name="e_fr_energy">     -5.39341173 </i>
    <i name="e_wo_entrp">     -5.39018829 </i>
    <i name="e_0_energy">     -5.39233725 </i>
   </energy>
  </scstep>
  <scstep>
   <time name="dav">    0.22    0.23</time>
   <time name="total">    0.23    0.24</time>
   <energy>
    <i name="alphaZ">     41.95140140 </i>
    <i name="ewald">   -904.39778147 </i>
    <i name="hartreedc">   -241.62348551 </i>
    <i name="XCdc">     30.44572712 </i>
    <i name="pawpsdc">   1085.79547455 </i>
    <i name="pawaedc">  -1153.76530231 </i>
    <i name="eentropy">     -0.00330831 </i>
    <i name="bandstr">     58.56776676 </i>
    <i name="atom">   1077.63607467 </i>
    <i name="e_fr_energy">     -5.39343309 </i>
    <i name="e_wo_entrp">     -5.39012478 </i>
    <i name="e_0_energy">     -5.39233032 </i>
   </energy>
  </scstep>
  <structure>
   <crystal>
    <varray name="basis" >
     <v>       0.00000000       1.82500000       1.82500000 </v>
     <v>       1.82500000       0.00000000       1.82500000 </v>
     <v>       1.82500000       1.82500000       0.00000000 </v>
    </varray>
    <i name="volume">     12.15678125 </i>
    <varray name="rec_basis" >
     <v>      -0.27397260       0.27397260       0.27397260 </v>
     <v>       0.27397260      -0.27397260       0.27397260 </v>
     <v>       0.27397260       0.27397260      -0.27397260 </v>
    </varray>
   </crystal>
   <varray name="positions" >
    <v>       0.00000000       0.00000000       0.00000000 </v>
   </varray>
  </structure>
  <varray name="forces" >
   <v>      -0.00000000      -0.00000000       0.00000000 </v>
  </varray>
  <varray name="stress" >
   <v>    -203.74118190       0.00000000      -0.00000000 </v>
   <v>      -0.00000000    -203.74118190      -0.00000000 </v>
   <v>       0.00000000       0.00000000    -203.74118190 </v>
  </varray>
  <energy>
   <i name="e_fr_energy">     -5.39343309 </i>
   <i name="e_wo_entrp">     -5.39233032 </i>
   <i name="e_0_energy">     -0.00330831 </i>
  </energy>
  <time name="totalsc">    3.70    3.79</time>
  <eigenvalues>
   <array>
    <dimension dim="1">band</dimension>
    <dimension dim="2">kpoint</dimension>
    <dimension dim="3">spin</dimension>
    <field>eigene</field>
    <field>occ</field>
    <set>
     <set comment="spin 1">
      <set comment="kpoint 1">
       <r>   -0.2754    1.0000 </r>
       <r>    5.7019    1.0000 </r>
       <r>    5.7420    1.0000 </r>
       <r>    5.7420    1.0000 </r>
       <r>    6.7085    1.0000 </r>
       <r>    6.7085    1.0000 </r>
       <r>   30.3413    0.0000 </r>
       <r>   32.4542    0.0000 </r>
       <r>   33.4422    0.0000 </r>
       <r>   33.4422    0.0000 </r>
       <r>   36.8503    0.0000 </r>
       <r>   36.8503    0.0000 </r>
      </set>
      <set comment="kpoint 2">
       <r>    0.1986    1.0000 </r>
       <r>    5.5905    1.0000 </r>
       <r>    5.8257    1.0000 </r>
       <r>    5.8388    1.0000 </r>
       <r>    6.6267    1.0000 </r>
       <r>    6.7321    1.0000 </r>
       <r>   27.8559    0.0000 </r>
       <r>   30.0167    0.0000 </r>
       <r>   32.5984    0.0000 </r>
       <r>   34.0813    0.0000 </r>
       <r>   36.8119    0.0000 </r>
       <r>   37.0683    0.0000 </r>
      </set>
      <set comment="kpoint 3">
       <r>    1.3113    1.0000 </r>
       <r>    5.4375    1.0000 </r>
       <r>    5.9218    1.0000 </r>
       <r>    5.9439    1.0000 </r>
       <r>    6.6131    1.0000 </r>
       <r>    6.8277    1.0000 </r>
       <r>   22.9056    0.0000 </r>
       <r>   28.9929    0.0000 </r>
       <r>   32.0965    0.0000 </r>
       <r>   33.3939    0.0000 </r>
       <r>   36.4226    0.0000 </r>
       <r>   36.5849    0.0000 </r>
      </set>
      <set comment="kpoint 4">
       <r>    2.7278    1.0000 </r>
       <r>    5.5818    1.0000 </r>
       <r>    5.8621    1.0000 </r>
       <r>    5.8992    1.0000 </r>
       <r>    6.8435    1.0000 </r>
       <r>    7.1050    1.0000 </r>
       <r>   18.2773    0.0000 </r>
       <r>   28.4426    0.0000 </r>
       <r>   31.0158    0.0000 </r>
       <r>   32.4908    0.0000 </r>
       <r>   34.5246    0.0000 </r>
       <r>   36.1444    0.0000 </r>
      </set>
      <set comment="kpoint 5">
       <r>    3.5505    1.0000 </r>
       <r>    5.7536    1.0000 </r>
       <r>    5.8040    1.0000 </r>
       <r>    6.5378    1.0000 </r>
       <r>    7.1312    1.0000 </r>
       <r>    7.6146    1.0315 </r>
       <r>   14.4215    0.0000 </r>
       <r>   28.3563    0.0000 </r>
       <r>   30.1658    0.0000 </r>
       <r>   31.0840    0.0000 </r>
       <r>   34.0369    0.0000 </r>
       <r>   35.3461    0.0000 </r>
      </set>
      <set comment="kpoint 6">
       <r>    3.6740    1.0000 </r>
       <r>    5.7136    1.0000 </r>
       <r>    5.7781    1.0000 </r>
       <r>    6.8761    1.0000 </r>
       <r>    7.2683    1.0000 </r>
       <r>    8.2177   -0.0227 </r>
       <r>   12.9197   -0.0000 </r>
       <r>   28.6657    0.0000 </r>
       <r>   29.9587    0.0000 </r>
       <r>   30.0852    0.0000 </r>
       <r>   34.5680    0.0000 </r>
       <r>   34.7181    0.0000 </r>
      </set>
      <set comment="kpoint 7">
       <r>    3.3844    1.0000 </r>
       <r>    5.7750    1.0000 </r>
       <r>    5.8423    1.0000 </r>
       <r>    6.1453    1.0000 </r>
       <r>    7.1771    1.0000 </r>
       <r>    7.2773    1.0001 </r>
       <r>   15.5802    0.0000 </r>
       <r>   29.1557    0.0000 </r>
       <r>   29.5187    0.0000 </r>
       <r>   31.0574    0.0000 </r>
       <r>   34.6284    0.0000 </r>
       <r>   35.8172    0.0000 </r>
      </set>
      <set comment="kpoint 8">
       <r>    2.2673    1.0000 </r>
       <r>    5.4533    1.0000 </r>
       <r>    5.8930    1.0000 </r>
       <r>    5.9307    1.0000 </r>
       <r>    6.8035    1.0000 </r>
       <r>    6.9444    1.0000 </r>
       <r>   19.7540    0.0000 </r>
       <r>   29.7304    0.0000 </r>
       <r>   29.7948    0.0000 </r>
       <r>   32.7793    0.0000 </r>
       <r>   35.0065    0.0000 </r>
       <r>   37.6396    0.0000 </r>
      </set>
      <set comment="kpoint 9">
       <r>    0.8807    1.0000 </r>
       <r>    5.4719    1.0000 </r>
       <r>    5.9144    1.0000 </r>
       <r>    5.9208    1.0000 </r>
       <r>    6.5987    1.0000 </r>
       <r>    6.7721    1.0000 </r>
       <r>   24.5524    0.0000 </r>
       <r>   30.4884    0.0000 </r>
       <r>   30.5191    0.0000 </r>
       <r>   34.1670    0.0000 </r>
       <r>   35.6208    0.0000 </r>
       <r>   38.9796    0.0000 </r>
      </set>
      <set comment="kpoint 10">
       <r>   -0.0366    1.0000 </r>
       <r>    5.6304    1.0000 </r>
       <r>    5.7976    1.0000 </r>
       <r>    5.7984    1.0000 </r>
       <r>    6.6405    1.0000 </r>
       <r>    6.7387    1.0000 </r>
       <r>   29.3516    0.0000 </r>
       <r>   31.3420    0.0000 </r>
       <r>   31.8151    0.0000 </r>
       <r>   33.4698    0.0000 </r>
       <r>   36.9811    0.0000 </r>
       <r>   38.4775    0.0000 </r>
      </set>
      <set comment="kpoint 11">
       <r>    0.4318    1.0000 </r>
       <r>    5.4893    1.0000 </r>
       <r>    5.9106    1.0000 </r>
       <r>    5.9125    1.0000 </r>
       <r>    6.5206    1.0000 </r>
       <r>    6.7957    1.0000 </r>
       <r>   28.0346    0.0000 </r>
       <r>   29.9905    0.0000 </r>
       <r>   30.1929    0.0000 </r>
       <r>   32.3306    0.0000 </r>
       <r>   36.7565    0.0000 </r>
       <r>   38.7478    0.0000 </r>
      </set>
      <set comment="kpoint 12">
       <r>    1.3225    1.0000 </r>
       <r>    5.3037    1.0000 </r>
       <r>    5.9869    1.0000 </r>
       <r>    6.0789    1.0000 </r>
       <r>    6.4686    1.0000 </r>
       <r>    6.9014    1.0000 </r>
       <r>   24.8929    0.0000 </r>
       <r>   26.9785    0.0000 </r>
       <r>   30.7433    0.0000 </r>
       <r>   32.0484    0.0000 </r>
       <r>   34.8542    0.0000 </r>
       <r>   39.0519    0.0000 </r>
      </set>
      <set comment="kpoint 13">
       <r>    2.6563    1.0000 </r>
       <r>    5.2202    1.0000 </r>
       <r>    5.8247    1.0000 </r>
       <r>    6.1123    1.0000 </r>
       <r>    6.8019    1.0000 </r>
       <r>    7.1954    1.0000 </r>
       <r>   20.1117    0.0000 </r>
       <r>   26.2277    0.0000 </r>
       <r>   29.2640    0.0000 </r>
       <r>   31.1152    0.0000 </r>
       <r>   36.9000    0.0000 </r>
       <r>   37.6781    0.0000 </r>
      </set>
      <set comment="kpoint 14">
       <r>    3.7003    1.0000 </r>
       <r>    5.5430    1.0000 </r>
       <r>    5.7014    1.0000 </r>
       <r>    6.0291    1.0000 </r>
       <r>    7.1662    1.0000 </r>
       <r>    8.0142    0.0847 </r>
       <r>   15.8948    0.0000 </r>
       <r>   26.0818    0.0000 </r>
       <r>   27.4691    0.0000 </r>
       <r>   30.4392    0.0000 </r>
       <r>   36.5062    0.0000 </r>
       <r>   38.7497    0.0000 </r>
      </set>
      <set comment="kpoint 15">
       <r>    3.9518    1.0000 </r>
       <r>    5.5230    1.0000 </r>
       <r>    5.9573    1.0000 </r>
       <r>    6.1457    1.0000 </r>
       <r>    7.2437    1.0000 </r>
       <r>    9.4341   -0.0000 </r>
       <r>   13.0557   -0.0000 </r>
       <r>   25.7636    0.0000 </r>
       <r>   26.9427    0.0000 </r>
       <r>   30.3986    0.0000 </r>
       <r>   35.7809    0.0000 </r>
       <r>   38.4195    0.0000 </r>
      </set>
      <set comment="kpoint 16">
       <r>    3.8545    1.0000 </r>
       <r>    5.5844    1.0000 </r>
       <r>    5.8921    1.0000 </r>
       <r>    5.9965    1.0000 </r>
       <r>    7.0847    1.0000 </r>
       <r>    8.5619   -0.0000 </r>
       <r>   14.7064    0.0000 </r>
       <r>   25.0168    0.0000 </r>
       <r>   28.1599    0.0000 </r>
       <r>   31.0775    0.0000 </r>
       <r>   35.4282    0.0000 </r>
       <r>   38.1161    0.0000 </r>
      </set>
      <set comment="kpoint 17">
       <r>    3.1027    1.0000 </r>
       <r>    5.3306    1.0000 </r>
       <r>    5.7542    1.0000 </r>
       <r>    6.0781    1.0000 </r>
       <r>    6.7406    1.0000 </r>
       <r>    7.5257    1.0125 </r>
       <r>   18.6371    0.0000 </r>
       <r>   24.8861    0.0000 </r>
       <r>   30.0028    0.0000 </r>
       <r>   32.4324    0.0000 </r>
       <r>   35.4883    0.0000 </r>
       <r>   37.3933    0.0000 </r>
      </set>
      <set comment="kpoint 18">
       <r>    1.7399    1.0000 </r>
       <r>    5.2983    1.0000 </r>
       <r>    5.9184    1.0000 </r>
       <r>    6.1047    1.0000 </r>
       <r>    6.4696    1.0000 </r>
       <r>    7.0318    1.0000 </r>
       <r>   23.2575    0.0000 </r>
       <r>   25.4080    0.0000 </r>
       <r>   32.1856    0.0000 </r>
       <r>   33.4696    0.0000 </r>
       <r>   35.8547    0.0000 </r>
       <r>   36.7190    0.0000 </r>
      </set>
      <set comment="kpoint 19">
       <r>    0.6594    1.0000 </r>
       <r>    5.4766    1.0000 </r>
       <r>    5.9149    1.0000 </r>
       <r>    5.9258    1.0000 </r>
       <r>    6.5408    1.0000 </r>
       <r>    6.7967    1.0000 </r>
       <r>   26.3300    0.0000 </r>
       <r>   28.4648    0.0000 </r>
       <r>   31.9688    0.0000 </r>
       <r>   33.9412    0.0000 </r>
       <r>   36.1090    0.0000 </r>
       <r>   38.1554    0.0000 </r>
      </set>
      <set comment="kpoint 20">
       <r>    1.9397    1.0000 </r>
       <r>    5.0762    1.0000 </r>
       <r>    6.1212    1.0000 </r>
       <r>    6.2893    1.0000 </r>
       <r>    6.4328    1.0000 </r>
       <r>    6.9702    1.0000 </r>
       <r>   25.3009    0.0000 </r>
       <r>   26.5981    0.0000 </r>
       <r>   28.0470    0.0000 </r>
       <r>   28.8660    0.0000 </r>
       <r>   32.0972    0.0000 </r>
       <r>   42.8793    0.0000 </r>
      </set>
      <set comment="kpoint 21">
       <r>    2.9876    1.0000 </r>
       <r>    4.8873    1.0000 </r>
       <r>    5.9343    1.0000 </r>
       <r>    6.4990    1.0000 </r>
       <r>    6.8337    1.0000 </r>
       <r>    7.2108    1.0000 </r>
       <r>   22.4006    0.0000 </r>
       <r>   24.3185    0.0000 </r>
       <r>   26.0346    0.0000 </r>
       <r>   29.3565    0.0000 </r>
       <r>   32.4983    0.0000 </r>
       <r>   42.2814    0.0000 </r>
      </set>
      <set comment="kpoint 22">
       <r>    3.9704    1.0000 </r>
       <r>    4.8911    1.0000 </r>
       <r>    5.7110    1.0000 </r>
       <r>    6.4554    1.0000 </r>
       <r>    7.2154    1.0000 </r>
       <r>    8.3149   -0.0059 </r>
       <r>   18.0028    0.0000 </r>
       <r>   23.5814    0.0000 </r>
       <r>   24.1788    0.0000 </r>
       <r>   29.3792    0.0000 </r>
       <r>   35.9133    0.0000 </r>
       <r>   40.7213    0.0000 </r>
      </set>
      <set comment="kpoint 23">
       <r>    4.3617    1.0000 </r>
       <r>    5.0731    1.0000 </r>
       <r>    5.6753    1.0000 </r>
       <r>    6.3538    1.0000 </r>
       <r>    7.2563    1.0000 </r>
       <r>   10.4336   -0.0000 </r>
       <r>   14.2895    0.0000 </r>
       <r>   21.9222    0.0000 </r>
       <r>   24.5768    0.0000 </r>
       <r>   29.5444    0.0000 </r>
       <r>   38.7414    0.0000 </r>
       <r>   41.0128    0.0000 </r>
      </set>
      <set comment="kpoint 24">
       <r>    4.4488    1.0000 </r>
       <r>    5.2016    1.0000 </r>
       <r>    5.5792    1.0000 </r>
       <r>    6.3075    1.0000 </r>
       <r>    7.0503    1.0000 </r>
       <r>   10.5402   -0.0000 </r>
       <r>   14.3012    0.0000 </r>
       <r>   20.8038    0.0000 </r>
       <r>   25.8257    0.0000 </r>
       <r>   30.2483    0.0000 </r>
       <r>   38.0234    0.0000 </r>
       <r>   41.6678    0.0000 </r>
      </set>
      <set comment="kpoint 25">
       <r>    4.1290    1.0000 </r>
       <r>    5.1949    1.0000 </r>
       <r>    5.4529    1.0000 </r>
       <r>    6.3624    1.0000 </r>
       <r>    6.6863    1.0000 </r>
       <r>    8.6746   -0.0000 </r>
       <r>   18.0067    0.0000 </r>
       <r>   20.4253    0.0000 </r>
       <r>   27.6961    0.0000 </r>
       <r>   31.6519    0.0000 </r>
       <r>   36.9077    0.0000 </r>
       <r>   40.4252    0.0000 </r>
      </set>
      <set comment="kpoint 26">
       <r>    3.0255    1.0000 </r>
       <r>    5.1800    1.0000 </r>
       <r>    5.7382    1.0000 </r>
       <r>    6.2719    1.0000 </r>
       <r>    6.5009    1.0000 </r>
       <r>    7.5925    1.0268 </r>
       <r>   20.4700    0.0000 </r>
       <r>   22.6924    0.0000 </r>
       <r>   29.9839    0.0000 </r>
       <r>   33.4124    0.0000 </r>
       <r>   35.2058    0.0000 </r>
       <r>   38.2130    0.0000 </r>
      </set>
      <set comment="kpoint 27">
       <r>    1.9227    1.0000 </r>
       <r>    5.3509    1.0000 </r>
       <r>    5.9116    1.0000 </r>
       <r>    6.0075    1.0000 </r>
       <r>    6.6292    1.0000 </r>
       <r>    6.9851    1.0000 </r>
       <r>   21.4262    0.0000 </r>
       <r>   27.5577    0.0000 </r>
       <r>   31.1162    0.0000 </r>
       <r>   33.2862    0.0000 </r>
       <r>   35.5152    0.0000 </r>
       <r>   37.0886    0.0000 </r>
      </set>
      <set comment="kpoint 28">
       <r>    3.4976    1.0000 </r>
       <r>    4.6352    1.0000 </r>
       <r>    6.4391    1.0000 </r>
       <r>    6.7768    1.0000 </r>
       <r>    7.1081    1.0000 </r>
       <r>    7.1663    1.0000 </r>
       <r>   22.7859    0.0000 </r>
       <r>   23.1168    0.0000 </r>
       <r>   23.8977    0.0000 </r>
       <r>   27.3976    0.0000 </r>
       <r>   30.2581    0.0000 </r>
       <r>   46.8259    0.0000 </r>
      </set>
      <set comment="kpoint 29">
       <r>    3.9490    1.0000 </r>
       <r>    4.5206    1.0000 </r>
       <r>    6.3964    1.0000 </r>
       <r>    6.9680    1.0000 </r>
       <r>    7.2292    1.0000 </r>
       <r>    8.4928   -0.0001 </r>
       <r>   20.3853    0.0000 </r>
       <r>   20.6853    0.0000 </r>
       <r>   22.4059    0.0000 </r>
       <r>   28.3005    0.0000 </r>
       <r>   31.3786    0.0000 </r>
       <r>   45.1697    0.0000 </r>
      </set>
      <set comment="kpoint 30">
       <r>    4.2993    1.0000 </r>
       <r>    4.6033    1.0000 </r>
       <r>    6.0910    1.0000 </r>
       <r>    6.8376    1.0000 </r>
       <r>    7.2909    1.0001 </r>
       <r>   10.8645   -0.0000 </r>
       <r>   16.6648    0.0000 </r>
       <r>   18.6451    0.0000 </r>
       <r>   22.6765    0.0000 </r>
       <r>   28.7085    0.0000 </r>
       <r>   35.2293    0.0000 </r>
       <r>   43.3785    0.0000 </r>
      </set>
      <set comment="kpoint 31">
       <r>    4.6150    1.0000 </r>
       <r>    4.8109    1.0000 </r>
       <r>    5.6947    1.0000 </r>
       <r>    6.6863    1.0000 </r>
       <r>    7.1146    1.0000 </r>
       <r>   13.0990   -0.0000 </r>
       <r>   13.9903    0.0000 </r>
       <r>   17.5639    0.0000 </r>
       <r>   23.8168    0.0000 </r>
       <r>   29.2526    0.0000 </r>
       <r>   40.0724    0.0000 </r>
       <r>   41.6522    0.0000 </r>
      </set>
      <set comment="kpoint 32">
       <r>    4.6571    1.0000 </r>
       <r>    5.1146    1.0000 </r>
       <r>    5.3655    1.0000 </r>
       <r>    6.4788    1.0000 </r>
       <r>    6.9118    1.0000 </r>
       <r>   10.5613   -0.0000 </r>
       <r>   15.8364    0.0000 </r>
       <r>   18.7047    0.0000 </r>
       <r>   25.6183    0.0000 </r>
       <r>   30.2260    0.0000 </r>
       <r>   39.0755    0.0000 </r>
       <r>   42.8309    0.0000 </r>
      </set>
      <set comment="kpoint 33">
       <r>    4.0039    1.0000 </r>
       <r>    5.4567    1.0000 </r>
       <r>    5.5132    1.0000 </r>
       <r>    6.1645    1.0000 </r>
       <r>    6.8919    1.0000 </r>
       <r>    8.6425   -0.0000 </r>
       <r>   16.2480    0.0000 </r>
       <r>   22.6144    0.0000 </r>
       <r>   27.8509    0.0000 </r>
       <r>   31.4616    0.0000 </r>
       <r>   36.1806    0.0000 </r>
       <r>   39.3994    0.0000 </r>
      </set>
      <set comment="kpoint 34">
       <r>    3.2319    1.0000 </r>
       <r>    5.6558    1.0000 </r>
       <r>    5.7728    1.0000 </r>
       <r>    5.9328    1.0000 </r>
       <r>    6.9805    1.0000 </r>
       <r>    7.3999    1.0013 </r>
       <r>   16.9923    0.0000 </r>
       <r>   27.2103    0.0000 </r>
       <r>   29.9021    0.0000 </r>
       <r>   31.4419    0.0000 </r>
       <r>   35.2356    0.0000 </r>
       <r>   36.8569    0.0000 </r>
      </set>
      <set comment="kpoint 35">
       <r>    3.8873    1.0000 </r>
       <r>    4.3301    1.0000 </r>
       <r>    7.1177    1.0000 </r>
       <r>    7.1875    1.0000 </r>
       <r>    7.3173    1.0002 </r>
       <r>    9.1800   -0.0000 </r>
       <r>   18.0228    0.0000 </r>
       <r>   21.4233    0.0000 </r>
       <r>   22.2176    0.0000 </r>
       <r>   26.8317    0.0000 </r>
       <r>   29.6401    0.0000 </r>
       <r>   49.0692    0.0000 </r>
      </set>
      <set comment="kpoint 36">
       <r>    4.0022    1.0000 </r>
       <r>    4.3371    1.0000 </r>
       <r>    6.8650    1.0000 </r>
       <r>    7.1969    1.0000 </r>
       <r>    7.3504    1.0004 </r>
       <r>   10.8602   -0.0000 </r>
       <r>   16.5326    0.0000 </r>
       <r>   19.6950    0.0000 </r>
       <r>   21.4497    0.0000 </r>
       <r>   27.8950    0.0000 </r>
       <r>   31.0043    0.0000 </r>
       <r>   47.4133    0.0000 </r>
      </set>
      <set comment="kpoint 37">
       <r>    4.2922    1.0000 </r>
       <r>    4.5424    1.0000 </r>
       <r>    6.2314    1.0000 </r>
       <r>    6.9558    1.0000 </r>
       <r>    7.2679    1.0000 </r>
       <r>   12.1734   -0.0000 </r>
       <r>   16.2641    0.0000 </r>
       <r>   16.9824    0.0000 </r>
       <r>   22.3815    0.0000 </r>
       <r>   28.5960    0.0000 </r>
       <r>   35.1067    0.0000 </r>
       <r>   44.4004    0.0000 </r>
      </set>
      <set comment="kpoint 38">
       <r>    4.5378    1.0000 </r>
       <r>    4.8981    1.0000 </r>
       <r>    5.6821    1.0000 </r>
       <r>    6.5411    1.0000 </r>
       <r>    7.1956    1.0000 </r>
       <r>   11.9861   -0.0000 </r>
       <r>   13.8435    0.0000 </r>
       <r>   19.4899    0.0000 </r>
       <r>   24.0708    0.0000 </r>
       <r>   29.3429    0.0000 </r>
       <r>   39.7031    0.0000 </r>
       <r>   41.1195    0.0000 </r>
      </set>
      <set comment="kpoint 39">
       <r>    4.1947    1.0000 </r>
       <r>    5.3537    1.0000 </r>
       <r>    5.8534    1.0000 </r>
       <r>    6.1184    1.0000 </r>
       <r>    7.1782    1.0000 </r>
       <r>   10.2551   -0.0000 </r>
       <r>   13.2227   -0.0000 </r>
       <r>   23.2482    0.0000 </r>
       <r>   26.2471    0.0000 </r>
       <r>   30.3044    0.0000 </r>
       <r>   36.8404    0.0000 </r>
       <r>   40.1636    0.0000 </r>
      </set>
      <set comment="kpoint 40">
       <r>    3.7369    1.0000 </r>
       <r>    5.6634    1.0000 </r>
       <r>    5.8483    1.0000 </r>
       <r>    6.4250    1.0000 </r>
       <r>    7.2233    1.0000 </r>
       <r>    8.4081   -0.0009 </r>
       <r>   13.5489    0.0000 </r>
       <r>   27.3900    0.0000 </r>
       <r>   28.6808    0.0000 </r>
       <r>   30.5486    0.0000 </r>
       <r>   34.8967    0.0000 </r>
       <r>   36.4742    0.0000 </r>
      </set>
      <set comment="kpoint 41">
       <r>    3.8877    1.0000 </r>
       <r>    4.2638    1.0000 </r>
       <r>    7.2463    1.0000 </r>
       <r>    7.2800    1.0001 </r>
       <r>    7.3579    1.0005 </r>
       <r>   10.2812   -0.0000 </r>
       <r>   16.4408    0.0000 </r>
       <r>   21.0883    0.0000 </r>
       <r>   21.8600    0.0000 </r>
       <r>   26.7246    0.0000 </r>
       <r>   29.5490    0.0000 </r>
       <r>   49.5323    0.0000 </r>
      </set>
      <set comment="kpoint 42">
       <r>    4.0084    1.0000 </r>
       <r>    4.3999    1.0000 </r>
       <r>    6.6938    1.0000 </r>
       <r>    7.1341    1.0000 </r>
       <r>    7.3006    1.0001 </r>
       <r>    9.7345   -0.0000 </r>
       <r>   18.1601    0.0000 </r>
       <r>   20.0031    0.0000 </r>
       <r>   21.7739    0.0000 </r>
       <r>   28.0259    0.0000 </r>
       <r>   31.1175    0.0000 </r>
       <r>   46.4875    0.0000 </r>
      </set>
      <set comment="kpoint 43">
       <r>    4.2408    1.0000 </r>
       <r>    4.7262    1.0000 </r>
       <r>    5.8732    1.0000 </r>
       <r>    6.6566    1.0000 </r>
       <r>    7.2836    1.0001 </r>
       <r>    9.4506   -0.0000 </r>
       <r>   17.2265    0.0000 </r>
       <r>   21.0196    0.0000 </r>
       <r>   23.2549    0.0000 </r>
       <r>   28.9622    0.0000 </r>
       <r>   35.4967    0.0000 </r>
       <r>   42.0542    0.0000 </r>
      </set>
      <set comment="kpoint 44">
       <r>    4.0820    1.0000 </r>
       <r>    5.3053    1.0000 </r>
       <r>    5.6825    1.0000 </r>
       <r>    6.1748    1.0000 </r>
       <r>    7.2547    1.0000 </r>
       <r>    9.0591   -0.0000 </r>
       <r>   14.9906    0.0000 </r>
       <r>   24.4958    0.0000 </r>
       <r>   25.3867    0.0000 </r>
       <r>   29.8872    0.0000 </r>
       <r>   37.6137    0.0000 </r>
       <r>   40.8613    0.0000 </r>
      </set>
      <set comment="kpoint 45">
       <r>    3.8144    1.0000 </r>
       <r>    4.4573    1.0000 </r>
       <r>    6.8515    1.0000 </r>
       <r>    7.0082    1.0000 </r>
       <r>    7.2543    1.0000 </r>
       <r>    7.9316    0.3531 </r>
       <r>   20.3177    0.0000 </r>
       <r>   22.0694    0.0000 </r>
       <r>   22.9094    0.0000 </r>
       <r>   27.0489    0.0000 </r>
       <r>   29.8595    0.0000 </r>
       <r>   48.1467    0.0000 </r>
      </set>
      <set comment="kpoint 46">
       <r>    3.6503    1.0000 </r>
       <r>    4.6883    1.0000 </r>
       <r>    6.0759    1.0000 </r>
       <r>    6.7403    1.0000 </r>
       <r>    7.0959    1.0000 </r>
       <r>    7.6185    1.0322 </r>
       <r>   21.3810    0.0000 </r>
       <r>   23.0007    0.0000 </r>
       <r>   23.4478    0.0000 </r>
       <r>   28.7337    0.0000 </r>
       <r>   31.8217    0.0000 </r>
       <r>   43.7426    0.0000 </r>
      </set>
      <set comment="kpoint 47">
       <r>    3.3992    1.0000 </r>
       <r>    5.0625    1.0000 </r>
       <r>    5.7151    1.0000 </r>
       <r>    6.2664    1.0000 </r>
       <r>    7.0566    1.0000 </r>
       <r>    7.5694    1.0215 </r>
       <r>   18.9702    0.0000 </r>
       <r>   25.0157    0.0000 </r>
       <r>   26.5795    0.0000 </r>
       <r>   30.0227    0.0000 </r>
       <r>   36.4445    0.0000 </r>
       <r>   39.3391    0.0000 </r>
      </set>
      <set comment="kpoint 48">
       <r>    2.8135    1.0000 </r>
       <r>    4.8485    1.0000 </r>
       <r>    6.1558    1.0000 </r>
       <r>    6.5298    1.0000 </r>
       <r>    6.6929    1.0000 </r>
       <r>    7.0705    1.0000 </r>
       <r>   24.0406    0.0000 </r>
       <r>   25.1420    0.0000 </r>
       <r>   25.7034    0.0000 </r>
       <r>   27.9135    0.0000 </r>
       <r>   30.9369    0.0000 </r>
       <r>   45.0147    0.0000 </r>
      </set>
      <set comment="kpoint 49">
       <r>    2.1368    1.0000 </r>
       <r>    5.1000    1.0000 </r>
       <r>    5.9653    1.0000 </r>
       <r>    6.2741    1.0000 </r>
       <r>    6.5681    1.0000 </r>
       <r>    7.0338    1.0000 </r>
       <r>   23.5778    0.0000 </r>
       <r>   25.5891    0.0000 </r>
       <r>   28.7906    0.0000 </r>
       <r>   30.2823    0.0000 </r>
       <r>   33.4801    0.0000 </r>
       <r>   40.7390    0.0000 </r>
      </set>
      <set comment="kpoint 50">
       <r>    1.1072    1.0000 </r>
       <r>    5.2977    1.0000 </r>
       <r>    6.0596    1.0000 </r>
       <r>    6.0785    1.0000 </r>
       <r>    6.3905    1.0000 </r>
       <r>    6.8756    1.0000 </r>
       <r>   26.6532    0.0000 </r>
       <r>   28.2268    0.0000 </r>
       <r>   29.1614    0.0000 </r>
       <r>   30.7356    0.0000 </r>
       <r>   34.0999    0.0000 </r>
       <r>   40.6832    0.0000 </r>
      </set>
      <set comment="kpoint 51">
       <r>    0.4293    1.0000 </r>
       <r>    5.5642    1.0000 </r>
       <r>    5.8573    1.0000 </r>
       <r>    5.8573    1.0000 </r>
       <r>    6.6785    1.0000 </r>
       <r>    6.6785    1.0000 </r>
       <r>   26.1701    0.0000 </r>
       <r>   31.3240    0.0000 </r>
       <r>   32.3766    0.0000 </r>
       <r>   32.3766    0.0000 </r>
       <r>   37.7595    0.0000 </r>
       <r>   38.4354    0.0000 </r>
      </set>
      <set comment="kpoint 52">
       <r>    1.1040    1.0000 </r>
       <r>    5.4173    1.0000 </r>
       <r>    5.9262    1.0000 </r>
       <r>    5.9820    1.0000 </r>
       <r>    6.5087    1.0000 </r>
       <r>    6.8723    1.0000 </r>
       <r>   24.7208    0.0000 </r>
       <r>   26.8713    0.0000 </r>
       <r>   33.3119    0.0000 </r>
       <r>   35.1308    0.0000 </r>
       <r>   35.2658    0.0000 </r>
       <r>   36.5210    0.0000 </r>
      </set>
      <set comment="kpoint 53">
       <r>    2.3280    1.0000 </r>
       <r>    5.2596    1.0000 </r>
       <r>    5.8573    1.0000 </r>
       <r>    6.1678    1.0000 </r>
       <r>    6.4296    1.0000 </r>
       <r>    7.2660    1.0000 </r>
       <r>   21.7815    0.0000 </r>
       <r>   23.9667    0.0000 </r>
       <r>   32.5718    0.0000 </r>
       <r>   33.4397    0.0000 </r>
       <r>   35.2866    0.0000 </r>
       <r>   36.8267    0.0000 </r>
      </set>
      <set comment="kpoint 54">
       <r>    3.5782    1.0000 </r>
       <r>    5.4332    1.0000 </r>
       <r>    5.6682    1.0000 </r>
       <r>    6.0770    1.0000 </r>
       <r>    6.7588    1.0000 </r>
       <r>    7.9730    0.2003 </r>
       <r>   17.3532    0.0000 </r>
       <r>   23.6635    0.0000 </r>
       <r>   30.6885    0.0000 </r>
       <r>   30.6933    0.0000 </r>
       <r>   36.6474    0.0000 </r>
       <r>   36.9012    0.0000 </r>
      </set>
      <set comment="kpoint 55">
       <r>    4.0147    1.0000 </r>
       <r>    5.5029    1.0000 </r>
       <r>    5.9765    1.0000 </r>
       <r>    6.0078    1.0000 </r>
       <r>    7.1057    1.0000 </r>
       <r>    9.3296   -0.0000 </r>
       <r>   13.7807    0.0000 </r>
       <r>   24.0433    0.0000 </r>
       <r>   28.5826    0.0000 </r>
       <r>   29.5167    0.0000 </r>
       <r>   37.0330    0.0000 </r>
       <r>   37.7535    0.0000 </r>
      </set>
      <set comment="kpoint 56">
       <r>    3.9981    1.0000 </r>
       <r>    5.4574    1.0000 </r>
       <r>    5.9270    1.0000 </r>
       <r>    6.0296    1.0000 </r>
       <r>    7.2823    1.0001 </r>
       <r>    9.2608   -0.0000 </r>
       <r>   13.7638    0.0000 </r>
       <r>   25.0977    0.0000 </r>
       <r>   27.2562    0.0000 </r>
       <r>   29.0373    0.0000 </r>
       <r>   37.9939    0.0000 </r>
       <r>   38.2369    0.0000 </r>
      </set>
      <set comment="kpoint 57">
       <r>    3.5430    1.0000 </r>
       <r>    5.2709    1.0000 </r>
       <r>    5.6991    1.0000 </r>
       <r>    6.1148    1.0000 </r>
       <r>    7.2250    1.0000 </r>
       <r>    7.6577    1.0353 </r>
       <r>   17.3195    0.0000 </r>
       <r>   26.6833    0.0000 </r>
       <r>   26.7850    0.0000 </r>
       <r>   29.1981    0.0000 </r>
       <r>   38.6478    0.0000 </r>
       <r>   38.9842    0.0000 </r>
      </set>
      <set comment="kpoint 58">
       <r>    2.3175    1.0000 </r>
       <r>    5.1403    1.0000 </r>
       <r>    5.9082    1.0000 </r>
       <r>    6.1704    1.0000 </r>
       <r>    6.7645    1.0000 </r>
       <r>    7.0259    1.0000 </r>
       <r>   21.7691    0.0000 </r>
       <r>   27.1373    0.0000 </r>
       <r>   28.2815    0.0000 </r>
       <r>   30.1665    0.0000 </r>
       <r>   35.1446    0.0000 </r>
       <r>   39.7482    0.0000 </r>
      </set>
      <set comment="kpoint 59">
       <r>    1.5277    1.0000 </r>
       <r>    5.3236    1.0000 </r>
       <r>    5.9603    1.0000 </r>
       <r>    6.0250    1.0000 </r>
       <r>    6.5791    1.0000 </r>
       <r>    6.8932    1.0000 </r>
       <r>   23.0848    0.0000 </r>
       <r>   28.7514    0.0000 </r>
       <r>   29.4786    0.0000 </r>
       <r>   32.7829    0.0000 </r>
       <r>   35.5407    0.0000 </r>
       <r>   38.2884    0.0000 </r>
      </set>
      <set comment="kpoint 60">
       <r>    2.5128    1.0000 </r>
       <r>    5.1395    1.0000 </r>
       <r>    5.8320    1.0000 </r>
       <r>    6.2732    1.0000 </r>
       <r>    6.5620    1.0000 </r>
       <r>    7.2531    1.0000 </r>
       <r>   21.9480    0.0000 </r>
       <r>   24.0938    0.0000 </r>
       <r>   29.3933    0.0000 </r>
       <r>   32.3507    0.0000 </r>
       <r>   35.1578    0.0000 </r>
       <r>   38.1409    0.0000 </r>
      </set>
      <set comment="kpoint 61">
       <r>    3.7223    1.0000 </r>
       <r>    5.0720    1.0000 </r>
       <r>    5.5647    1.0000 </r>
       <r>    6.4326    1.0000 </r>
       <r>    6.6898    1.0000 </r>
       <r>    8.0716   -0.0072 </r>
       <r>   19.3252    0.0000 </r>
       <r>   21.5981    0.0000 </r>
       <r>   26.9884    0.0000 </r>
       <r>   33.4666    0.0000 </r>
       <r>   34.9809    0.0000 </r>
       <r>   38.7046    0.0000 </r>
      </set>
      <set comment="kpoint 62">
       <r>    4.3457    1.0000 </r>
       <r>    5.2516    1.0000 </r>
       <r>    5.4754    1.0000 </r>
       <r>    6.3163    1.0000 </r>
       <r>    7.0474    1.0000 </r>
       <r>    9.6472   -0.0000 </r>
       <r>   15.3291    0.0000 </r>
       <r>   21.7619    0.0000 </r>
       <r>   25.0191    0.0000 </r>
       <r>   32.2598    0.0000 </r>
       <r>   35.8915    0.0000 </r>
       <r>   41.7903    0.0000 </r>
      </set>
      <set comment="kpoint 63">
       <r>    4.3968    1.0000 </r>
       <r>    5.1718    1.0000 </r>
       <r>    5.6616    1.0000 </r>
       <r>    6.2842    1.0000 </r>
       <r>    7.1998    1.0000 </r>
       <r>   10.9165   -0.0000 </r>
       <r>   13.4112    0.0000 </r>
       <r>   22.6247    0.0000 </r>
       <r>   23.6723    0.0000 </r>
       <r>   31.5560    0.0000 </r>
       <r>   36.4149    0.0000 </r>
       <r>   42.9353    0.0000 </r>
      </set>
      <set comment="kpoint 64">
       <r>    4.1816    1.0000 </r>
       <r>    5.0980    1.0000 </r>
       <r>    5.5241    1.0000 </r>
       <r>    6.3826    1.0000 </r>
       <r>    7.1180    1.0000 </r>
       <r>    8.9172   -0.0000 </r>
       <r>   16.5665    0.0000 </r>
       <r>   22.8574    0.0000 </r>
       <r>   24.3187    0.0000 </r>
       <r>   31.4203    0.0000 </r>
       <r>   36.7016    0.0000 </r>
       <r>   39.6127    0.0000 </r>
      </set>
      <set comment="kpoint 65">
       <r>    3.3103    1.0000 </r>
       <r>    4.9642    1.0000 </r>
       <r>    5.7205    1.0000 </r>
       <r>    6.4784    1.0000 </r>
       <r>    6.7755    1.0000 </r>
       <r>    7.5904    1.0263 </r>
       <r>   20.7971    0.0000 </r>
       <r>   22.9392    0.0000 </r>
       <r>   26.4345    0.0000 </r>
       <r>   31.4936    0.0000 </r>
       <r>   34.4589    0.0000 </r>
       <r>   39.3896    0.0000 </r>
      </set>
      <set comment="kpoint 66">
       <r>    3.1357    1.0000 </r>
       <r>    4.9442    1.0000 </r>
       <r>    5.8454    1.0000 </r>
       <r>    6.3516    1.0000 </r>
       <r>    7.1505    1.0000 </r>
       <r>    7.1702    1.0000 </r>
       <r>   20.6131    0.0000 </r>
       <r>   25.7098    0.0000 </r>
       <r>   26.0518    0.0000 </r>
       <r>   28.7906    0.0000 </r>
       <r>   34.3416    0.0000 </r>
       <r>   41.8388    0.0000 </r>
      </set>
      <set comment="kpoint 67">
       <r>    3.9260    1.0000 </r>
       <r>    4.7939    1.0000 </r>
       <r>    5.7252    1.0000 </r>
       <r>    6.7035    1.0000 </r>
       <r>    6.9915    1.0000 </r>
       <r>    8.1954   -0.0278 </r>
       <r>   19.8155    0.0000 </r>
       <r>   21.9515    0.0000 </r>
       <r>   23.5849    0.0000 </r>
       <r>   30.8268    0.0000 </r>
       <r>   33.9038    0.0000 </r>
       <r>   40.6245    0.0000 </r>
      </set>
      <set comment="kpoint 68">
       <r>    4.4875    1.0000 </r>
       <r>    4.8342    1.0000 </r>
       <r>    5.5093    1.0000 </r>
       <r>    6.7715    1.0000 </r>
       <r>    7.0928    1.0000 </r>
       <r>   10.0055   -0.0000 </r>
       <r>   17.5777    0.0000 </r>
       <r>   19.9899    0.0000 </r>
       <r>   21.4194    0.0000 </r>
       <r>   32.7078    0.0000 </r>
       <r>   35.4423    0.0000 </r>
       <r>   39.4364    0.0000 </r>
      </set>
      <set comment="kpoint 69">
       <r>    4.7597    1.0000 </r>
       <r>    4.8863    1.0000 </r>
       <r>    5.4127    1.0000 </r>
       <r>    6.5996    1.0000 </r>
       <r>    7.2145    1.0000 </r>
       <r>   12.5466   -0.0000 </r>
       <r>   14.1492    0.0000 </r>
       <r>   19.7890    0.0000 </r>
       <r>   20.7322    0.0000 </r>
       <r>   33.1632    0.0000 </r>
       <r>   36.9382    0.0000 </r>
       <r>   41.0050    0.0000 </r>
      </set>
      <set comment="kpoint 70">
       <r>    4.7469    1.0000 </r>
       <r>    5.0218    1.0000 </r>
       <r>    5.2207    1.0000 </r>
       <r>    6.6316    1.0000 </r>
       <r>    7.0772    1.0000 </r>
       <r>   10.9077   -0.0000 </r>
       <r>   16.2412    0.0000 </r>
       <r>   18.9721    0.0000 </r>
       <r>   22.1174    0.0000 </r>
       <r>   33.9448    0.0000 </r>
       <r>   35.8790    0.0000 </r>
       <r>   40.2037    0.0000 </r>
      </set>
      <set comment="kpoint 71">
       <r>    4.2579    1.0000 </r>
       <r>    4.9514    1.0000 </r>
       <r>    5.4456    1.0000 </r>
       <r>    6.6225    1.0000 </r>
       <r>    6.9033    1.0000 </r>
       <r>    8.8491   -0.0000 </r>
       <r>   18.3546    0.0000 </r>
       <r>   20.6976    0.0000 </r>
       <r>   24.1103    0.0000 </r>
       <r>   33.1145    0.0000 </r>
       <r>   35.1865    0.0000 </r>
       <r>   38.9115    0.0000 </r>
      </set>
      <set comment="kpoint 72">
       <r>    4.0575    1.0000 </r>
       <r>    4.5875    1.0000 </r>
       <r>    6.1984    1.0000 </r>
       <r>    6.7638    1.0000 </r>
       <r>    7.3175    1.0002 </r>
       <r>    8.8585   -0.0000 </r>
       <r>   18.8271    0.0000 </r>
       <r>   20.6835    0.0000 </r>
       <r>   23.5516    0.0000 </r>
       <r>   27.8381    0.0000 </r>
       <r>   33.2079    0.0000 </r>
       <r>   44.9413    0.0000 </r>
      </set>
      <set comment="kpoint 73">
       <r>    4.2260    1.0000 </r>
       <r>    4.5401    1.0000 </r>
       <r>    6.1791    1.0000 </r>
       <r>    7.0133    1.0000 </r>
       <r>    7.2659    1.0000 </r>
       <r>   10.5368   -0.0000 </r>
       <r>   18.3369    0.0000 </r>
       <r>   18.6009    0.0000 </r>
       <r>   20.6933    0.0000 </r>
       <r>   30.0257    0.0000 </r>
       <r>   33.2802    0.0000 </r>
       <r>   43.2204    0.0000 </r>
      </set>
      <set comment="kpoint 74">
       <r>    4.4473    1.0000 </r>
       <r>    4.7073    1.0000 </r>
       <r>    5.8358    1.0000 </r>
       <r>    6.8382    1.0000 </r>
       <r>    7.3471    1.0004 </r>
       <r>   12.8511   -0.0000 </r>
       <r>   16.6645    0.0000 </r>
       <r>   17.1466    0.0000 </r>
       <r>   19.3230    0.0000 </r>
       <r>   32.2594    0.0000 </r>
       <r>   35.6503    0.0000 </r>
       <r>   41.0687    0.0000 </r>
      </set>
      <set comment="kpoint 75">
       <r>    4.7216    1.0000 </r>
       <r>    4.9332    1.0000 </r>
       <r>    5.3923    1.0000 </r>
       <r>    6.6637    1.0000 </r>
       <r>    7.2459    1.0000 </r>
       <r>   13.5545    0.0000 </r>
       <r>   14.4560    0.0000 </r>
       <r>   17.8014    0.0000 </r>
       <r>   20.4914    0.0000 </r>
       <r>   33.2317    0.0000 </r>
       <r>   38.0578    0.0000 </r>
       <r>   40.1682    0.0000 </r>
      </set>
      <set comment="kpoint 76">
       <r>    4.6064    1.0000 </r>
       <r>    5.0254    1.0000 </r>
       <r>    5.4434    1.0000 </r>
       <r>    6.4752    1.0000 </r>
       <r>    7.1545    1.0000 </r>
       <r>   10.9894   -0.0000 </r>
       <r>   14.6100    0.0000 </r>
       <r>   21.0977    0.0000 </r>
       <r>   22.3346    0.0000 </r>
       <r>   32.8809    0.0000 </r>
       <r>   36.0940    0.0000 </r>
       <r>   41.6061    0.0000 </r>
      </set>
      <set comment="kpoint 77">
       <r>    4.1063    1.0000 </r>
       <r>    4.4063    1.0000 </r>
       <r>    6.6359    1.0000 </r>
       <r>    7.0976    1.0000 </r>
       <r>    7.3051    1.0001 </r>
       <r>   11.3526   -0.0000 </r>
       <r>   16.6126    0.0000 </r>
       <r>   18.0134    0.0000 </r>
       <r>   22.5568    0.0000 </r>
       <r>   27.5364    0.0000 </r>
       <r>   32.7843    0.0000 </r>
       <r>   47.0153    0.0000 </r>
      </set>
      <set comment="kpoint 78">
       <r>    4.2067    1.0000 </r>
       <r>    4.4849    1.0000 </r>
       <r>    6.3474    1.0000 </r>
       <r>    7.0341    1.0000 </r>
       <r>    7.3474    1.0004 </r>
       <r>   11.7668   -0.0000 </r>
       <r>   16.7220    0.0000 </r>
       <r>   18.2048    0.0000 </r>
       <r>   20.4103    0.0000 </r>
       <r>   29.8730    0.0000 </r>
       <r>   33.1782    0.0000 </r>
       <r>   44.2398    0.0000 </r>
      </set>
      <set comment="kpoint 79">
       <r>    4.4878    1.0000 </r>
       <r>    4.7491    1.0000 </r>
       <r>    5.6968    1.0000 </r>
       <r>    6.8338    1.0000 </r>
       <r>    7.2521    1.0000 </r>
       <r>   11.4595   -0.0000 </r>
       <r>   17.0231    0.0000 </r>
       <r>   18.9037    0.0000 </r>
       <r>   19.5996    0.0000 </r>
       <r>   32.4129    0.0000 </r>
       <r>   35.5892    0.0000 </r>
       <r>   40.2774    0.0000 </r>
      </set>
      <set comment="kpoint 80">
       <r>    4.1138    1.0000 </r>
       <r>    4.4679    1.0000 </r>
       <r>    6.4769    1.0000 </r>
       <r>    6.9574    1.0000 </r>
       <r>    7.3328    1.0002 </r>
       <r>   10.1675   -0.0000 </r>
       <r>   18.1346    0.0000 </r>
       <r>   18.4639    0.0000 </r>
       <r>   22.8942    0.0000 </r>
       <r>   27.6299    0.0000 </r>
       <r>   32.9176    0.0000 </r>
       <r>   46.1596    0.0000 </r>
      </set>
      <set comment="kpoint 81">
       <r>    4.1921    1.0000 </r>
       <r>    4.6469    1.0000 </r>
       <r>    5.9222    1.0000 </r>
       <r>    6.9042    1.0000 </r>
       <r>    7.1476    1.0000 </r>
       <r>    9.2063   -0.0000 </r>
       <r>   19.0266    0.0000 </r>
       <r>   20.7712    0.0000 </r>
       <r>   21.3132    0.0000 </r>
       <r>   30.3420    0.0000 </r>
       <r>   33.5180    0.0000 </r>
       <r>   41.9208    0.0000 </r>
      </set>
      <set comment="kpoint 82">
       <r>    3.7701    1.0000 </r>
       <r>    4.7523    1.0000 </r>
       <r>    5.9298    1.0000 </r>
       <r>    6.5538    1.0000 </r>
       <r>    7.2563    1.0000 </r>
       <r>    7.8408    0.7250 </r>
       <r>   19.6250    0.0000 </r>
       <r>   23.3192    0.0000 </r>
       <r>   24.5010    0.0000 </r>
       <r>   28.1901    0.0000 </r>
       <r>   33.6792    0.0000 </r>
       <r>   43.6848    0.0000 </r>
      </set>
      <set comment="kpoint 83">
       <r>    1.7108    1.0000 </r>
       <r>    5.4614    1.0000 </r>
       <r>    5.9188    1.0000 </r>
       <r>    5.9188    1.0000 </r>
       <r>    6.7723    1.0000 </r>
       <r>    6.7723    1.0000 </r>
       <r>   21.2432    0.0000 </r>
       <r>   30.6743    0.0000 </r>
       <r>   31.4966    0.0000 </r>
       <r>   31.4966    0.0000 </r>
       <r>   37.0109    0.0000 </r>
       <r>   37.0109    0.0000 </r>
      </set>
      <set comment="kpoint 84">
       <r>    2.4704    1.0000 </r>
       <r>    5.3611    1.0000 </r>
       <r>    5.8628    1.0000 </r>
       <r>    6.0165    1.0000 </r>
       <r>    6.6301    1.0000 </r>
       <r>    7.2071    1.0000 </r>
       <r>   19.9414    0.0000 </r>
       <r>   26.1527    0.0000 </r>
       <r>   31.8650    0.0000 </r>
       <r>   33.4322    0.0000 </r>
       <r>   35.0174    0.0000 </r>
       <r>   35.8175    0.0000 </r>
      </set>
      <set comment="kpoint 85">
       <r>    3.5982    1.0000 </r>
       <r>    5.2028    1.0000 </r>
       <r>    5.6323    1.0000 </r>
       <r>    6.2728    1.0000 </r>
       <r>    6.5398    1.0000 </r>
       <r>    8.0380    0.0372 </r>
       <r>   19.1543    0.0000 </r>
       <r>   21.4606    0.0000 </r>
       <r>   30.5417    0.0000 </r>
       <r>   30.8628    0.0000 </r>
       <r>   37.1489    0.0000 </r>
       <r>   38.4214    0.0000 </r>
      </set>
      <set comment="kpoint 86">
       <r>    4.4427    1.0000 </r>
       <r>    5.2989    1.0000 </r>
       <r>    5.3175    1.0000 </r>
       <r>    6.3711    1.0000 </r>
       <r>    6.7687    1.0000 </r>
       <r>    9.4769   -0.0000 </r>
       <r>   16.8415    0.0000 </r>
       <r>   19.4562    0.0000 </r>
       <r>   27.9468    0.0000 </r>
       <r>   29.5173    0.0000 </r>
       <r>   39.4993    0.0000 </r>
       <r>   40.1094    0.0000 </r>
      </set>
      <set comment="kpoint 87">
       <r>    4.5075    1.0000 </r>
       <r>    5.0678    1.0000 </r>
       <r>    5.6435    1.0000 </r>
       <r>    6.3938    1.0000 </r>
       <r>    7.1167    1.0000 </r>
       <r>   11.5355   -0.0000 </r>
       <r>   13.5852    0.0000 </r>
       <r>   20.0454    0.0000 </r>
       <r>   25.9611    0.0000 </r>
       <r>   28.6412    0.0000 </r>
       <r>   40.8017    0.0000 </r>
       <r>   41.0232    0.0000 </r>
      </set>
      <set comment="kpoint 88">
       <r>    4.3056    1.0000 </r>
       <r>    4.8866    1.0000 </r>
       <r>    5.7732    1.0000 </r>
       <r>    6.4694    1.0000 </r>
       <r>    7.3065    1.0001 </r>
       <r>    9.8881   -0.0000 </r>
       <r>   15.6158    0.0000 </r>
       <r>   21.3792    0.0000 </r>
       <r>   24.7748    0.0000 </r>
       <r>   28.2554    0.0000 </r>
       <r>   37.8763    0.0000 </r>
       <r>   41.9948    0.0000 </r>
      </set>
      <set comment="kpoint 89">
       <r>    2.9139    1.0000 </r>
       <r>    5.3947    1.0000 </r>
       <r>    5.8040    1.0000 </r>
       <r>    5.9968    1.0000 </r>
       <r>    7.0691    1.0000 </r>
       <r>    7.1039    1.0000 </r>
       <r>   18.4507    0.0000 </r>
       <r>   28.1531    0.0000 </r>
       <r>   28.6955    0.0000 </r>
       <r>   30.7343    0.0000 </r>
       <r>   36.6872    0.0000 </r>
       <r>   38.4852    0.0000 </r>
      </set>
      <set comment="kpoint 90">
       <r>    3.7124    1.0000 </r>
       <r>    5.2495    1.0000 </r>
       <r>    5.6018    1.0000 </r>
       <r>    6.2089    1.0000 </r>
       <r>    6.9461    1.0000 </r>
       <r>    8.0437    0.0278 </r>
       <r>   17.5111    0.0000 </r>
       <r>   23.7860    0.0000 </r>
       <r>   27.1437    0.0000 </r>
       <r>   31.8848    0.0000 </r>
       <r>   36.0247    0.0000 </r>
       <r>   39.2871    0.0000 </r>
      </set>
      <set comment="kpoint 91">
       <r>    4.5340    1.0000 </r>
       <r>    5.1434    1.0000 </r>
       <r>    5.2612    1.0000 </r>
       <r>    6.5130    1.0000 </r>
       <r>    6.8795    1.0000 </r>
       <r>    9.6160   -0.0000 </r>
       <r>   17.0306    0.0000 </r>
       <r>   19.5964    0.0000 </r>
       <r>   24.8291    0.0000 </r>
       <r>   32.7461    0.0000 </r>
       <r>   36.2798    0.0000 </r>
       <r>   40.6667    0.0000 </r>
      </set>
      <set comment="kpoint 92">
       <r>    4.8116    1.0000 </r>
       <r>    4.8992    1.0000 </r>
       <r>    5.3917    1.0000 </r>
       <r>    6.5935    1.0000 </r>
       <r>    7.0824    1.0000 </r>
       <r>   11.9440   -0.0000 </r>
       <r>   15.0181    0.0000 </r>
       <r>   18.1587    0.0000 </r>
       <r>   22.9763    0.0000 </r>
       <r>   31.6155    0.0000 </r>
       <r>   38.5069    0.0000 </r>
       <r>   42.2045    0.0000 </r>
      </set>
      <set comment="kpoint 93">
       <r>    4.5271    1.0000 </r>
       <r>    4.7813    1.0000 </r>
       <r>    5.6971    1.0000 </r>
       <r>    6.7098    1.0000 </r>
       <r>    7.2412    1.0000 </r>
       <r>   11.6993   -0.0000 </r>
       <r>   15.2701    0.0000 </r>
       <r>   19.1258    0.0000 </r>
       <r>   21.7273    0.0000 </r>
       <r>   30.8375    0.0000 </r>
       <r>   37.5658    0.0000 </r>
       <r>   40.4958    0.0000 </r>
      </set>
      <set comment="kpoint 94">
       <r>    4.0289    1.0000 </r>
       <r>    5.0844    1.0000 </r>
       <r>    5.6825    1.0000 </r>
       <r>    6.2775    1.0000 </r>
       <r>    7.2963    1.0001 </r>
       <r>    8.6043   -0.0000 </r>
       <r>   16.3697    0.0000 </r>
       <r>   24.0217    0.0000 </r>
       <r>   25.6523    0.0000 </r>
       <r>   28.5836    0.0000 </r>
       <r>   38.2443    0.0000 </r>
       <r>   40.6910    0.0000 </r>
      </set>
      <set comment="kpoint 95">
       <r>    4.4434    1.0000 </r>
       <r>    4.9161    1.0000 </r>
       <r>    5.5755    1.0000 </r>
       <r>    6.5643    1.0000 </r>
       <r>    7.2082    1.0000 </r>
       <r>   10.1716   -0.0000 </r>
       <r>   15.8146    0.0000 </r>
       <r>   21.5100    0.0000 </r>
       <r>   22.2679    0.0000 </r>
       <r>   31.0698    0.0000 </r>
       <r>   37.2832    0.0000 </r>
       <r>   39.8276    0.0000 </r>
      </set>
      <set comment="kpoint 96">
       <r>    4.7000    1.0000 </r>
       <r>    5.0045    1.0000 </r>
       <r>    5.2990    1.0000 </r>
       <r>    6.6831    1.0000 </r>
       <r>    7.2463    1.0000 </r>
       <r>   12.4746   -0.0000 </r>
       <r>   15.6731    0.0000 </r>
       <r>   18.5369    0.0000 </r>
       <r>   19.6579    0.0000 </r>
       <r>   34.7797    0.0000 </r>
       <r>   36.1430    0.0000 </r>
       <r>   39.6027    0.0000 </r>
      </set>
      <set comment="kpoint 97">
       <r>    4.6258    1.0000 </r>
       <r>    5.0020    1.0000 </r>
       <r>    5.3839    1.0000 </r>
       <r>    6.6903    1.0000 </r>
       <r>    7.3470    1.0004 </r>
       <r>   14.0454    0.0000 </r>
       <r>   15.3564    0.0000 </r>
       <r>   17.5585    0.0000 </r>
       <r>   18.4297    0.0000 </r>
       <r>   34.8618    0.0000 </r>
       <r>   37.3743    0.0000 </r>
       <r>   38.6831    0.0000 </r>
      </set>
      <set comment="kpoint 98">
       <r>    4.4137    1.0000 </r>
       <r>    4.7355    1.0000 </r>
       <r>    5.9073    1.0000 </r>
       <r>    6.6697    1.0000 </r>
       <r>    7.2592    1.0000 </r>
       <r>   11.4173   -0.0000 </r>
       <r>   15.0655    0.0000 </r>
       <r>   18.9749    0.0000 </r>
       <r>   24.1771    0.0000 </r>
       <r>   28.0711    0.0000 </r>
       <r>   37.6305    0.0000 </r>
       <r>   43.3382    0.0000 </r>
      </set>
      <set comment="kpoint 99">
       <r>    4.5237    1.0000 </r>
       <r>    4.7268    1.0000 </r>
       <r>    5.7918    1.0000 </r>
       <r>    6.7870    1.0000 </r>
       <r>    7.2508    1.0000 </r>
       <r>   13.1837   -0.0000 </r>
       <r>   14.9216    0.0000 </r>
       <r>   17.2716    0.0000 </r>
       <r>   21.4746    0.0000 </r>
       <r>   30.7215    0.0000 </r>
       <r>   37.6418    0.0000 </r>
       <r>   41.2572    0.0000 </r>
      </set>
      <set comment="kpoint 100">
       <r>    4.4371    1.0000 </r>
       <r>    4.6619    1.0000 </r>
       <r>    5.9986    1.0000 </r>
       <r>    6.8286    1.0000 </r>
       <r>    7.1773    1.0000 </r>
       <r>   12.8784   -0.0000 </r>
       <r>   14.7028    0.0000 </r>
       <r>   17.1650    0.0000 </r>
       <r>   23.8743    0.0000 </r>
       <r>   27.9926    0.0000 </r>
       <r>   37.5120    0.0000 </r>
       <r>   44.3798    0.0000 </r>
      </set>
      <set comment="kpoint 101">
       <r>    3.0500    1.0000 </r>
       <r>    5.8391    1.0000 </r>
       <r>    5.8391    1.0000 </r>
       <r>    5.9170    1.0000 </r>
       <r>    7.0311    1.0000 </r>
       <r>    7.0311    1.0000 </r>
       <r>   16.8265    0.0000 </r>
       <r>   29.8525    0.0000 </r>
       <r>   30.9546    0.0000 </r>
       <r>   30.9546    0.0000 </r>
       <r>   35.0143    0.0000 </r>
       <r>   35.0143    0.0000 </r>
      </set>
      <set comment="kpoint 102">
       <r>    3.5544    1.0000 </r>
       <r>    5.7118    1.0000 </r>
       <r>    5.8901    1.0000 </r>
       <r>    5.9133    1.0000 </r>
       <r>    6.9656    1.0000 </r>
       <r>    7.8363    0.7415 </r>
       <r>   15.7431    0.0000 </r>
       <r>   26.0404    0.0000 </r>
       <r>   30.4003    0.0000 </r>
[...]
       <r>    35.7556     0.2978    10.5115 </r>
       <r>    35.9384     0.2968    10.5658 </r>
       <r>    36.1212     0.2616    10.6136 </r>
       <r>    36.3041     0.2190    10.6536 </r>
       <r>    36.4869     0.2773    10.7043 </r>
       <r>    36.6697     0.2735    10.7543 </r>
       <r>    36.8525     0.3482    10.8180 </r>
       <r>    37.0353     0.3594    10.8837 </r>
       <r>    37.2181     0.1536    10.9118 </r>
       <r>    37.4009     0.1375    10.9369 </r>
       <r>    37.5837     0.2457    10.9818 </r>
       <r>    37.7665     0.2360    11.0249 </r>
       <r>    37.9493     0.0961    11.0425 </r>
       <r>    38.1321     0.2278    11.0842 </r>
       <r>    38.3149     0.2514    11.1301 </r>
       <r>    38.4977     0.1807    11.1632 </r>
       <r>    38.6805     0.2309    11.2054 </r>
       <r>    38.8633     0.2468    11.2505 </r>
       <r>    39.0461     0.1656    11.2807 </r>
       <r>    39.2289     0.1206    11.3028 </r>
       <r>    39.4117     0.2132    11.3418 </r>
       <r>    39.5945     0.2240    11.3827 </r>
       <r>    39.7773     0.1788    11.4154 </r>
       <r>    39.9601     0.0825    11.4305 </r>
       <r>    40.1429     0.1414    11.4564 </r>
       <r>    40.3257     0.1963    11.4922 </r>
       <r>    40.5085     0.1194    11.5141 </r>
       <r>    40.6913     0.2468    11.5592 </r>
       <r>    40.8741     0.2486    11.6046 </r>
       <r>    41.0569     0.1939    11.6401 </r>
       <r>    41.2397     0.1589    11.6691 </r>
       <r>    41.4225     0.0347    11.6755 </r>
       <r>    41.6053     0.0690    11.6881 </r>
       <r>    41.7881     0.1635    11.7180 </r>
       <r>    41.9709     0.1419    11.7439 </r>
       <r>    42.1537     0.1550    11.7722 </r>
       <r>    42.3365     0.1134    11.7930 </r>
       <r>    42.5193     0.0186    11.7964 </r>
       <r>    42.7021    -0.0005    11.7963 </r>
       <r>    42.8849     0.0785    11.8106 </r>
       <r>    43.0677     0.1000    11.8289 </r>
       <r>    43.2505     0.0983    11.8469 </r>
       <r>    43.4333     0.0936    11.8640 </r>
       <r>    43.6162     0.0378    11.8709 </r>
       <r>    43.7990     0.0619    11.8822 </r>
       <r>    43.9818     0.0210    11.8861 </r>
       <r>    44.1646     0.0103    11.8879 </r>
       <r>    44.3474     0.0785    11.9023 </r>
       <r>    44.5302     0.0721    11.9155 </r>
       <r>    44.7130     0.0032    11.9160 </r>
       <r>    44.8958     0.0107    11.9180 </r>
       <r>    45.0786     0.0554    11.9281 </r>
       <r>    45.2614     0.0568    11.9385 </r>
       <r>    45.4442     0.0105    11.9404 </r>
       <r>    45.6270    -0.0022    11.9400 </r>
       <r>    45.8098    -0.0007    11.9399 </r>
       <r>    45.9926     0.0005    11.9400 </r>
       <r>    46.1754     0.0170    11.9431 </r>
       <r>    46.3582     0.0205    11.9469 </r>
       <r>    46.5410     0.0417    11.9545 </r>
       <r>    46.7238     0.0247    11.9590 </r>
       <r>    46.9066     0.0251    11.9636 </r>
       <r>    47.0894     0.0280    11.9687 </r>
       <r>    47.2722     0.0110    11.9707 </r>
       <r>    47.4550     0.0405    11.9781 </r>
       <r>    47.6378     0.0236    11.9824 </r>
       <r>    47.8206    -0.0024    11.9820 </r>
       <r>    48.0034     0.0014    11.9822 </r>
       <r>    48.1862     0.0206    11.9860 </r>
       <r>    48.3690     0.0121    11.9882 </r>
       <r>    48.5518    -0.0009    11.9880 </r>
       <r>    48.7346    -0.0009    11.9879 </r>
       <r>    48.9174     0.0013    11.9881 </r>
       <r>    49.1002     0.0198    11.9918 </r>
       <r>    49.2830     0.0122    11.9940 </r>
       <r>    49.4658     0.0081    11.9955 </r>
       <r>    49.6486     0.0219    11.9995 </r>
       <r>    49.8314     0.0038    12.0002 </r>
       <r>    50.0142    -0.0009    12.0000 </r>
       <r>    50.1970    -0.0001    12.0000 </r>
       <r>    50.3798    -0.0000    12.0000 </r>
       <r>    50.5626    -0.0000    12.0000 </r>
       <r>    50.7455    -0.0000    12.0000 </r>
       <r>    50.9283    -0.0000    12.0000 </r>
       <r>    51.1111     0.0000    12.0000 </r>
       <r>    51.2939     0.0000    12.0000 </r>
       <r>    51.4767     0.0000    12.0000 </r>
       <r>    51.6595     0.0000    12.0000 </r>
       <r>    51.8423     0.0000    12.0000 </r>
       <r>    52.0251     0.0000    12.0000 </r>
      </set>
      <set comment="spin 2">
       <r>    -2.8157     0.0000     0.0000 </r>
       <r>    -2.6329     0.0000     0.0000 </r>
       <r>    -2.4501     0.0000     0.0000 </r>
       <r>    -2.2673     0.0000     0.0000 </r>
       <r>    -2.0845    -0.0000    -0.0000 </r>
       <r>    -1.9017    -0.0000    -0.0000 </r>
       <r>    -1.7189    -0.0000    -0.0000 </r>
       <r>    -1.5361    -0.0000    -0.0000 </r>
       <r>    -1.3533    -0.0000    -0.0000 </r>
       <r>    -1.1705    -0.0000    -0.0000 </r>
       <r>    -0.9877    -0.0000    -0.0000 </r>
       <r>    -0.8049    -0.0000    -0.0000 </r>
       <r>    -0.6221    -0.0003    -0.0001 </r>
       <r>    -0.4393     0.0008     0.0001 </r>
       <r>    -0.2565     0.0075     0.0015 </r>
       <r>    -0.0737     0.0199     0.0051 </r>
       <r>     0.1091     0.0257     0.0098 </r>
       <r>     0.2920     0.0270     0.0147 </r>
       <r>     0.4748     0.0356     0.0212 </r>
       <r>     0.6576     0.0491     0.0302 </r>
       <r>     0.8404     0.0371     0.0370 </r>
       <r>     1.0232     0.0355     0.0435 </r>
       <r>     1.2060     0.0636     0.0551 </r>
       <r>     1.3888     0.0739     0.0686 </r>
       <r>     1.5716     0.0386     0.0757 </r>
       <r>     1.7544     0.0573     0.0861 </r>
       <r>     1.9372     0.0835     0.1014 </r>
       <r>     2.1200     0.0717     0.1145 </r>
       <r>     2.3028     0.0793     0.1290 </r>
       <r>     2.4856     0.0923     0.1459 </r>
       <r>     2.6684     0.0884     0.1620 </r>
       <r>     2.8512     0.0768     0.1761 </r>
       <r>     3.0340     0.1145     0.1970 </r>
       <r>     3.2168     0.1464     0.2238 </r>
       <r>     3.3996     0.1255     0.2467 </r>
       <r>     3.5824     0.1174     0.2682 </r>
       <r>     3.7652     0.1773     0.3006 </r>
       <r>     3.9480     0.2551     0.3472 </r>
       <r>     4.1308     0.2703     0.3966 </r>
       <r>     4.3136     0.4349     0.4761 </r>
       <r>     4.4964     0.5491     0.5765 </r>
       <r>     4.6792     0.5141     0.6705 </r>
       <r>     4.8620     0.5829     0.7770 </r>
       <r>     5.0448     0.7972     0.9228 </r>
       <r>     5.2276     0.9873     1.1033 </r>
       <r>     5.4104     0.9742     1.2813 </r>
       <r>     5.5932     0.9324     1.4518 </r>
       <r>     5.7760     0.9282     1.6214 </r>
       <r>     5.9588     1.1344     1.8288 </r>
       <r>     6.1416     1.3695     2.0791 </r>
       <r>     6.3244     1.4942     2.3523 </r>
       <r>     6.5072     1.6751     2.6585 </r>
       <r>     6.6900     1.6961     2.9686 </r>
       <r>     6.8728     1.4194     3.2280 </r>
       <r>     7.0556     1.2220     3.4514 </r>
       <r>     7.2384     1.4124     3.7096 </r>
       <r>     7.4213     1.5450     3.9920 </r>
       <r>     7.6041     1.3596     4.2406 </r>
       <r>     7.7869     1.3502     4.4874 </r>
       <r>     7.9697     1.8973     4.8342 </r>
       <r>     8.1525     1.8375     5.1701 </r>
       <r>     8.3353     0.7384     5.3051 </r>
       <r>     8.5181     0.1476     5.3321 </r>
       <r>     8.7009     0.2161     5.3716 </r>
       <r>     8.8837     0.2392     5.4153 </r>
       <r>     9.0665     0.1393     5.4408 </r>
       <r>     9.2493     0.1737     5.4725 </r>
       <r>     9.4321     0.2041     5.5098 </r>
       <r>     9.6149     0.1522     5.5377 </r>
       <r>     9.7977     0.1453     5.5642 </r>
       <r>     9.9805     0.1994     5.6007 </r>
       <r>    10.1633     0.1768     5.6330 </r>
       <r>    10.3461     0.0929     5.6500 </r>
       <r>    10.5289     0.1375     5.6751 </r>
       <r>    10.7117     0.1127     5.6957 </r>
       <r>    10.8945     0.1859     5.7297 </r>
       <r>    11.0773     0.1643     5.7597 </r>
       <r>    11.2601     0.1573     5.7885 </r>
       <r>    11.4429     0.0847     5.8040 </r>
       <r>    11.6257     0.0403     5.8113 </r>
       <r>    11.8085     0.0972     5.8291 </r>
       <r>    11.9913     0.1441     5.8555 </r>
       <r>    12.1741     0.1508     5.8830 </r>
       <r>    12.3569     0.1175     5.9045 </r>
       <r>    12.5397     0.0322     5.9104 </r>
       <r>    12.7225     0.0564     5.9207 </r>
       <r>    12.9053     0.0778     5.9349 </r>
       <r>    13.0881     0.0602     5.9459 </r>
       <r>    13.2709     0.0890     5.9622 </r>
       <r>    13.4537     0.1725     5.9937 </r>
       <r>    13.6365     0.1307     6.0176 </r>
       <r>    13.8193     0.1450     6.0441 </r>
       <r>    14.0021     0.1591     6.0732 </r>
       <r>    14.1849     0.2158     6.1127 </r>
       <r>    14.3677     0.1527     6.1406 </r>
       <r>    14.5505     0.1162     6.1618 </r>
       <r>    14.7334     0.1396     6.1873 </r>
       <r>    14.9162     0.1400     6.2129 </r>
       <r>    15.0990     0.1436     6.2392 </r>
       <r>    15.2818     0.1464     6.2659 </r>
       <r>    15.4646     0.1386     6.2913 </r>
       <r>    15.6474     0.1161     6.3125 </r>
       <r>    15.8302     0.0854     6.3281 </r>
       <r>    16.0130     0.1608     6.3575 </r>
       <r>    16.1958     0.1118     6.3780 </r>
       <r>    16.3786     0.0826     6.3931 </r>
       <r>    16.5614     0.1330     6.4174 </r>
       <r>    16.7442     0.1628     6.4471 </r>
       <r>    16.9270     0.2138     6.4862 </r>
       <r>    17.1098     0.1453     6.5128 </r>
       <r>    17.2926     0.2326     6.5553 </r>
       <r>    17.4754     0.1908     6.5902 </r>
       <r>    17.6582     0.1605     6.6195 </r>
       <r>    17.8410     0.1682     6.6503 </r>
       <r>    18.0238     0.0765     6.6643 </r>
       <r>    18.2066     0.1946     6.6998 </r>
       <r>    18.3894     0.2620     6.7477 </r>
       <r>    18.5722     0.2252     6.7889 </r>
       <r>    18.7550     0.2314     6.8312 </r>
       <r>    18.9378     0.1910     6.8661 </r>
       <r>    19.1206     0.2004     6.9028 </r>
       <r>    19.3034     0.1811     6.9358 </r>
       <r>    19.4862     0.1222     6.9582 </r>
       <r>    19.6690     0.1858     6.9922 </r>
       <r>    19.8518     0.2576     7.0393 </r>
       <r>    20.0346     0.1986     7.0756 </r>
       <r>    20.2174     0.1655     7.1058 </r>
       <r>    20.4002     0.1445     7.1322 </r>
       <r>    20.5830     0.2206     7.1726 </r>
       <r>    20.7658     0.2712     7.2221 </r>
       <r>    20.9486     0.3046     7.2778 </r>
       <r>    21.1314     0.1346     7.3024 </r>
       <r>    21.3142     0.0947     7.3197 </r>
       <r>    21.4970     0.2653     7.3682 </r>
       <r>    21.6798     0.3347     7.4294 </r>
       <r>    21.8627     0.2484     7.4748 </r>
       <r>    22.0455     0.2333     7.5175 </r>
       <r>    22.2283     0.1586     7.5464 </r>
       <r>    22.4111     0.1854     7.5803 </r>
       <r>    22.5939     0.2363     7.6235 </r>
       <r>    22.7767     0.2164     7.6631 </r>
       <r>    22.9595     0.2283     7.7048 </r>
       <r>    23.1423     0.2290     7.7467 </r>
       <r>    23.3251     0.2167     7.7863 </r>
       <r>    23.5079     0.1806     7.8193 </r>
       <r>    23.6907     0.2119     7.8581 </r>
       <r>    23.8735     0.2254     7.8993 </r>
       <r>    24.0563     0.1960     7.9351 </r>
       <r>    24.2391     0.3037     7.9906 </r>
       <r>    24.4219     0.2106     8.0291 </r>
       <r>    24.6047     0.1414     8.0550 </r>
       <r>    24.7875     0.1149     8.0760 </r>
       <r>    24.9703     0.1895     8.1106 </r>
       <r>    25.1531     0.2341     8.1534 </r>
       <r>    25.3359     0.0940     8.1706 </r>
       <r>    25.5187     0.1385     8.1959 </r>
       <r>    25.7015     0.2160     8.2354 </r>
       <r>    25.8843     0.1998     8.2719 </r>
       <r>    26.0671     0.1526     8.2998 </r>
       <r>    26.2499     0.1972     8.3358 </r>
       <r>    26.4327     0.1678     8.3665 </r>
       <r>    26.6155     0.1639     8.3965 </r>
       <r>    26.7983     0.1437     8.4227 </r>
       <r>    26.9811     0.1607     8.4521 </r>
       <r>    27.1639     0.2187     8.4921 </r>
       <r>    27.3467     0.1738     8.5239 </r>
       <r>    27.5295     0.1534     8.5519 </r>
       <r>    27.7123     0.1590     8.5810 </r>
       <r>    27.8951     0.1647     8.6111 </r>
       <r>    28.0779     0.2621     8.6590 </r>
       <r>    28.2607     0.2846     8.7110 </r>
       <r>    28.4435     0.2340     8.7538 </r>
       <r>    28.6263     0.2260     8.7951 </r>
       <r>    28.8091     0.3486     8.8588 </r>
       <r>    28.9919     0.2279     8.9005 </r>
       <r>    29.1748     0.1523     8.9283 </r>
       <r>    29.3576     0.2860     8.9806 </r>
       <r>    29.5404     0.3411     9.0430 </r>
       <r>    29.7232     0.2081     9.0810 </r>
       <r>    29.9060     0.2247     9.1221 </r>
       <r>    30.0888     0.3780     9.1912 </r>
       <r>    30.2716     0.3638     9.2577 </r>
       <r>    30.4544     0.3398     9.3198 </r>
       <r>    30.6372     0.2276     9.3614 </r>
       <r>    30.8200     0.2667     9.4102 </r>
       <r>    31.0028     0.2714     9.4598 </r>
       <r>    31.1856     0.3435     9.5226 </r>
       <r>    31.3684     0.2413     9.5667 </r>
       <r>    31.5512     0.3376     9.6284 </r>
       <r>    31.7340     0.2674     9.6773 </r>
       <r>    31.9168     0.1789     9.7100 </r>
       <r>    32.0996     0.1910     9.7449 </r>
       <r>    32.2824     0.1935     9.7803 </r>
       <r>    32.4652     0.2492     9.8258 </r>
       <r>    32.6480     0.2042     9.8632 </r>
       <r>    32.8308     0.1876     9.8975 </r>
       <r>    33.0136     0.1345     9.9221 </r>
       <r>    33.1964     0.1569     9.9507 </r>
       <r>    33.3792     0.3121    10.0078 </r>
       <r>    33.5620     0.3516    10.0721 </r>
       <r>    33.7448     0.1513    10.0997 </r>
       <r>    33.9276     0.1226    10.1221 </r>
       <r>    34.1104     0.1574    10.1509 </r>
       <r>    34.2932     0.0657    10.1629 </r>
       <r>    34.4760     0.0697    10.1757 </r>
       <r>    34.6588     0.1272    10.1989 </r>
       <r>    34.8416     0.1428    10.2250 </r>
       <r>    35.0244     0.2407    10.2690 </r>
       <r>    35.2072     0.3664    10.3360 </r>
       <r>    35.3900     0.3318    10.3966 </r>
       <r>    35.5728     0.2840    10.4486 </r>
       <r>    35.7556     0.3040    10.5041 </r>
       <r>    35.9384     0.3013    10.5592 </r>
       <r>    36.1212     0.2853    10.6114 </r>
       <r>    36.3041     0.2444    10.6560 </r>
       <r>    36.4869     0.2621    10.7040 </r>
       <r>    36.6697     0.2783    10.7548 </r>
       <r>    36.8525     0.3395    10.8169 </r>
       <r>    37.0353     0.3634    10.8833 </r>
       <r>    37.2181     0.1591    10.9124 </r>
       <r>    37.4009     0.1346    10.9370 </r>
       <r>    37.5837     0.2299    10.9790 </r>
       <r>    37.7665     0.2475    11.0243 </r>
       <r>    37.9493     0.1094    11.0443 </r>
       <r>    38.1321     0.2228    11.0850 </r>
       <r>    38.3149     0.2416    11.1292 </r>
       <r>    38.4977     0.2004    11.1658 </r>
       <r>    38.6805     0.2114    11.2045 </r>
       <r>    38.8633     0.2518    11.2505 </r>
       <r>    39.0461     0.1823    11.2838 </r>
       <r>    39.2289     0.1189    11.3055 </r>
       <r>    39.4117     0.2231    11.3463 </r>
       <r>    39.5945     0.1898    11.3810 </r>
       <r>    39.7773     0.1845    11.4147 </r>
       <r>    39.9601     0.0808    11.4295 </r>
       <r>    40.1429     0.1261    11.4526 </r>
       <r>    40.3257     0.2036    11.4898 </r>
       <r>    40.5085     0.1513    11.5174 </r>
       <r>    40.6913     0.2613    11.5652 </r>
       <r>    40.8741     0.2285    11.6070 </r>
       <r>    41.0569     0.1825    11.6403 </r>
       <r>    41.2397     0.1700    11.6714 </r>
       <r>    41.4225     0.0253    11.6760 </r>
       <r>    41.6053     0.0780    11.6903 </r>
       <r>    41.7881     0.1667    11.7208 </r>
       <r>    41.9709     0.1496    11.7481 </r>
       <r>    42.1537     0.1465    11.7749 </r>
       <r>    42.3365     0.1010    11.7933 </r>
       <r>    42.5193     0.0146    11.7960 </r>
       <r>    42.7021     0.0182    11.7993 </r>
       <r>    42.8849     0.0981    11.8173 </r>
       <r>    43.0677     0.0649    11.8291 </r>
       <r>    43.2505     0.1081    11.8489 </r>
       <r>    43.4333     0.0931    11.8659 </r>
       <r>    43.6162     0.0383    11.8729 </r>
       <r>    43.7990     0.0616    11.8842 </r>
       <r>    43.9818     0.0097    11.8860 </r>
       <r>    44.1646     0.0292    11.8913 </r>
       <r>    44.3474     0.0897    11.9077 </r>
       <r>    44.5302     0.0479    11.9164 </r>
       <r>    44.7130    -0.0034    11.9158 </r>
       <r>    44.8958     0.0254    11.9205 </r>
       <r>    45.0786     0.0597    11.9314 </r>
       <r>    45.2614     0.0447    11.9395 </r>
       <r>    45.4442     0.0041    11.9403 </r>
       <r>    45.6270    -0.0016    11.9400 </r>
       <r>    45.8098    -0.0008    11.9399 </r>
       <r>    45.9926     0.0024    11.9403 </r>
       <r>    46.1754     0.0194    11.9438 </r>
       <r>    46.3582     0.0246    11.9483 </r>
       <r>    46.5410     0.0432    11.9562 </r>
       <r>    46.7238     0.0191    11.9597 </r>
       <r>    46.9066     0.0297    11.9651 </r>
       <r>    47.0894     0.0230    11.9693 </r>
       <r>    47.2722     0.0169    11.9724 </r>
       <r>    47.4550     0.0443    11.9805 </r>
       <r>    47.6378     0.0100    11.9824 </r>
       <r>    47.8206    -0.0028    11.9818 </r>
       <r>    48.0034     0.0045    11.9827 </r>
       <r>    48.1862     0.0225    11.9868 </r>
       <r>    48.3690     0.0078    11.9882 </r>
       <r>    48.5518    -0.0011    11.9880 </r>
       <r>    48.7346    -0.0010    11.9878 </r>
       <r>    48.9174     0.0041    11.9886 </r>
       <r>    49.1002     0.0220    11.9926 </r>
       <r>    49.2830     0.0080    11.9941 </r>
       <r>    49.4658     0.0136    11.9965 </r>
       <r>    49.6486     0.0188    12.0000 </r>
       <r>    49.8314     0.0008    12.0001 </r>
       <r>    50.0142    -0.0005    12.0000 </r>
       <r>    50.1970    -0.0000    12.0000 </r>
       <r>    50.3798    -0.0000    12.0000 </r>
       <r>    50.5626    -0.0000    12.0000 </r>
       <r>    50.7455    -0.0000    12.0000 </r>
       <r>    50.9283     0.0000    12.0000 </r>
       <r>    51.1111     0.0000    12.0000 </r>
       <r>    51.2939     0.0000    12.0000 </r>
       <r>    51.4767     0.0000    12.0000 </r>
       <r>    51.6595     0.0000    12.0000 </r>
       <r>    51.8423     0.0000    12.0000 </r>
       <r>    52.0251     0.0000    12.0000 </r>
      </set>
     </set>
    </array>
   </total>
  </dos>
 </calculation>
 <structure name="finalpos" >
  <crystal>
   <varray name="basis" >
    <v>       0.00000000       1.82500000       1.82500000 </v>
    <v>       1.82500000       0.00000000       1.82500000 </v>
    <v>       1.82500000       1.82500000       0.00000000 </v>
   </varray>
   <i name="volume">     12.15678125 </i>
   <varray name="rec_basis" >
    <v>      -0.27397260       0.27397260       0.27397260 </v>
    <v>       0.27397260      -0.27397260       0.27397260 </v>
    <v>       0.27397260       0.27397260      -0.27397260 </v>
   </varray>
  </crystal>
  <varray name="positions" >
   <v>       0.00000000       0.00000000       0.00000000 </v>
  </varray>
 </structure>
</modeling>
