fcc Au                                  
   4.25000000000000     
     0.000000    0.500000    0.500000
     0.500000    0.000000    0.500000
     0.500000    0.500000    0.000000
   Au
     1
Direct
  0.000000  0.000000  0.000000
 
   24   24   24
  93.293      89.468      79.681      67.417      55.112      43.207      31.601      21.139      13.244      8.4815    
  5.9788      4.6726      4.2661      4.6726      5.9788      8.4815      13.244      21.139      31.601      43.207    
  55.112      67.417      79.681      89.468      89.468      82.703      71.853      59.901      48.129      36.538    
  25.524      16.400      10.276      6.9229      5.1288      4.3166      4.3163      5.1283      6.9228      10.276    
  16.401      25.528      36.545      48.134      59.893      71.830      82.677      89.457      79.681      71.853    
  61.635      50.768      39.731      28.845      19.192      12.088      7.8779      5.6255      4.4483      4.0845    
  4.4482      5.6254      7.8776      12.087      19.194      28.851      39.740      50.770      61.621      71.827    
  79.660      82.677      67.417      59.901      50.768      40.835      30.621      21.099      13.576      8.7474    
  6.0895      4.6158      3.9611      3.9612      4.6163      6.0897      8.7464      13.574      21.098      30.623    
  40.839      50.770      59.898      67.411      71.827      71.830      55.112      48.129      39.731      30.621    
  21.774      14.416      9.3699      6.4485      4.7704      3.9079      3.6451      3.9080      4.7709      6.4493    
  9.3698      14.414      21.770      30.617      39.732      48.134      55.119      59.898      61.621      59.893    
  43.207      36.538      28.845      21.099      14.416      9.5972      6.6444      4.8749      3.8877      3.4570    
  3.4567      3.8873      4.8756      6.6468      9.6002      14.417      21.095      28.838      36.531      43.204    
  48.134      50.770      50.770      48.134      31.601      25.524      19.192      13.576      9.3699      6.6444    
  4.9112      3.8796      3.3575      3.1995      3.3571      3.8789      4.9112      6.6471      9.3759      13.582    
  19.194      25.517      31.588      36.531      39.732      40.839      39.740      36.545      21.139      16.400    
  12.088      8.7474      6.4485      4.8749      3.8796      3.3259      3.0838      3.0840      3.3256      3.8775    
  4.8719      6.4481      8.7530      12.098      16.409      21.139      25.517      28.838      30.617      30.623    
  28.851      25.528      13.244      10.276      7.8779      6.0895      4.7704      3.8877      3.3575      3.0838    
  3.0004      3.0845      3.3575      3.8849      4.7644      6.0838      7.8780      10.284      13.255      16.409    
  19.194      21.095      21.770      21.098      19.194      16.401      8.4815      6.9229      5.6255      4.6158    
  3.9079      3.4570      3.1995      3.0840      3.0845      3.2013      3.4596      3.9082      4.6104      5.6157    
  6.9149      8.4813      10.284      12.098      13.582      14.417      14.414      13.574      12.087      10.276    
  5.9788      5.1288      4.4483      3.9611      3.6451      3.4567      3.3571      3.3256      3.3575      3.4596    
  3.6512      3.9668      4.4482      5.1208      5.9671      6.9149      7.8780      8.7530      9.3759      9.6002    
  9.3698      8.7464      7.8776      6.9228      4.6726      4.3166      4.0845      3.9612      3.9080      3.8873    
  3.8789      3.8775      3.8849      3.9082      3.9668      4.0939      4.3242      4.6728      5.1208      5.6157    
  6.0838      6.4481      6.6471      6.6468      6.4493      6.0897      5.6254      5.1283      4.2661      4.3163    
  4.4482      4.6163      4.7709      4.8756      4.9112      4.8719      4.7644      4.6104      4.4482      4.3242    
  4.2778      4.3242      4.4482      4.6104      4.7644      4.8719      4.9112      4.8756      4.7709      4.6163    
  4.4482      4.3163      4.6726      5.1283      5.6254      6.0897      6.4493      6.6468      6.6471      6.4481    
  6.0838      5.6157      5.1208      4.6728      4.3242      4.0939      3.9668      3.9082      3.8849      3.8775    
  3.8789      3.8873      3.9080      3.9612      4.0845      4.3166      5.9788      6.9228      7.8776      8.7464    
  9.3698      9.6002      9.3759      8.7530      7.8780      6.9149      5.9671      5.1208      4.4482      3.9668    
  3.6512      3.4596      3.3575      3.3256      3.3571      3.4567      3.6451      3.9611      4.4483      5.1288    
  8.4815      10.276      12.087      13.574      14.414      14.417      13.582      12.098      10.284      8.4813    
  6.9149      5.6157      4.6104      3.9082      3.4596      3.2013      3.0845      3.0840      3.1995      3.4570    
  3.9079      4.6158      5.6255      6.9229      13.244      16.401      19.194      21.098      21.770      21.095    
  19.194      16.409      13.255      10.284      7.8780      6.0838      4.7644      3.8849      3.3575      3.0845    
  3.0004      3.0838      3.3575      3.8877      4.7704      6.0895      7.8779      10.276      21.139      25.528    
  28.851      30.623      30.617      28.838      25.517      21.139      16.409      12.098      8.7530      6.4481    
  4.8719      3.8775      3.3256      3.0840      3.0838      3.3259      3.8796      4.8749      6.4485      8.7474    
  12.088      16.400      31.601      36.545      39.740      40.839      39.732      36.531      31.588      25.517    
  19.194      13.582      9.3759      6.6471      4.9112      3.8789      3.3571      3.1995      3.3575      3.8796    
  4.9112      6.6444      9.3699      13.576      19.192      25.524      43.207      48.134      50.770      50.770    
  48.134      43.204      36.531      28.838      21.095      14.417      9.6002      6.6468      4.8756      3.8873    
  3.4567      3.4570      3.8877      4.8749      6.6444      9.5972      14.416      21.099      28.845      36.538    
  55.112      59.893      61.621      59.898      55.119      48.134      39.732      30.617      21.770      14.414    
  9.3698      6.4493      4.7709      3.9080      3.6451      3.9079      4.7704      6.4485      9.3699      14.416    
  21.774      30.621      39.731      48.129      67.417      71.830      71.827      67.411      59.898      50.770    
  40.839      30.623      21.098      13.574      8.7464      6.0897      4.6163      3.9612      3.9611      4.6158    
  6.0895      8.7474      13.576      21.099      30.621      40.835      50.768      59.901      79.681      82.677    
  79.660      71.827      61.621      50.770      39.740      28.851      19.194      12.087      7.8776      5.6254    
  4.4482      4.0845      4.4483      5.6255      7.8779      12.088      19.192      28.845      39.731      50.768    
  61.635      71.853      89.468      89.457      82.677      71.830      59.893      48.134      36.545      25.528    
  16.401      10.276      6.9228      5.1283      4.3163      4.3166      5.1288      6.9229      10.276      16.400    
  25.524      36.538      48.129      59.901      71.853      82.703      89.468      82.703      71.853      59.901    
  48.129      36.538      25.524      16.400      10.276      6.9229      5.1288      4.3166      4.3163      5.1283    
  6.9228      10.276      16.401      25.528      36.545      48.134      59.893      71.830      82.677      89.457    
  82.703      74.248      63.376      52.060      40.769      29.681      19.793      12.451      8.0724      5.7433    
  4.5256      4.1484      4.5255      5.7431      8.0718      12.451      19.797      29.691      40.781      52.060    
  63.353      74.208      82.671      85.957      71.853      63.376      53.438      42.987      32.383      22.424    
  14.426      9.2132      6.3552      4.7834      4.0809      4.0811      4.7837      6.3549      9.2115      14.424    
  22.428      32.393      42.997      53.436      63.358      71.829      76.934      76.945      59.901      52.060    
  42.987      33.316      23.851      15.804      10.157      6.8776      5.0355      4.0811      3.7889      4.0810    
  5.0358      6.8777      10.155      15.801      23.849      33.318      42.994      52.066      59.905      65.488    
  67.550      65.487      48.129      40.769      32.383      23.851      16.299      10.696      7.2366      5.2312    
  4.1067      3.6141      3.6139      4.1066      5.2321      7.2379      10.695      16.295      23.845      32.380    
  40.772      48.139      53.742      56.823      56.819      53.732      36.538      29.681      22.424      15.804    
  10.696      7.3663      5.3374      4.1288      3.5165      3.3310      3.5163      4.1287      5.3384      7.3691    
  10.699      15.805      22.420      29.674      36.533      42.120      45.773      47.045      45.771      42.120    
  25.524      19.793      14.426      10.157      7.2366      5.3374      4.1368      3.4718      3.1819      3.1818    
  3.4713      4.1356      5.3372      7.2399      10.164      14.432      19.794      25.517      30.711      34.606    
  36.684      36.688      34.616      30.722      16.400      12.451      9.2132      6.8776      5.2312      4.1288    
  3.4718      3.1355      3.0333      3.1356      3.4708      4.1258      5.2277      6.8772      9.2188      12.461    
  16.408      20.497      24.030      26.407      27.245      26.414      24.037      20.496      10.276      8.0724    
  6.3552      5.0355      4.1067      3.5165      3.1819      3.0333      3.0338      3.1830      3.5165      4.1033    
  5.0285      6.3485      8.0721      10.284      12.861      15.420      17.481      18.627      18.627      17.478    
  15.412      12.849      6.9229      5.7433      4.7834      4.0811      3.6141      3.3310      3.1818      3.1356    
  3.1830      3.3339      3.6176      4.0813      4.7773      5.7330      6.9149      8.2699      9.7302      11.082    
  12.045      12.393      12.038      11.072      9.7228      8.2702      5.1288      4.5256      4.0809      3.7889    
  3.6139      3.5163      3.4713      3.4708      3.5165      3.6176      3.7962      4.0873      4.5255      5.1209    
  5.8412      6.6109      7.3356      7.9211      8.2522      8.2496      7.9164      7.3352      6.6181      5.8524    
  4.3166      4.1484      4.0811      4.0810      4.1066      4.1287      4.1356      4.1258      4.1033      4.0813    
  4.0873      4.1585      4.3243      4.5895      4.9269      5.2843      5.5991      5.8138      5.8899      5.8153    
  5.6041      5.2927      4.9337      4.5894      4.3163      4.5255      4.7837      5.0358      5.2321      5.3384    
  5.3372      5.2277      5.0285      4.7773      4.5255      4.3243      4.2084      4.1841      4.2291      4.3051    
  4.3753      4.4163      4.4182      4.3802      4.3098      4.2291      4.1770      4.1973      5.1283      5.7431    
  6.3549      6.8777      7.2379      7.3691      7.2399      6.8772      6.3485      5.7330      5.1209      4.5895    
  4.1841      3.9106      3.7444      3.6504      3.6024      3.5882      3.6037      3.6502      3.7399      3.9026    
  4.1773      4.5894      6.9228      8.0718      9.2115      10.155      10.695      10.699      10.164      9.2188    
  8.0721      6.9149      5.8412      4.9269      4.2291      3.7444      3.4334      3.2518      3.1684      3.1681    
  3.2499      3.4289      3.7397      4.2292      4.9343      5.8524      10.276      12.451      14.424      15.801    
  16.295      15.805      14.432      12.461      10.284      8.2699      6.6109      5.2843      4.3051      3.6504    
  3.2518      3.0417      2.9763      3.0407      3.2501      3.6503      4.3093      5.2925      6.6181      8.2702    
  16.401      19.797      22.428      23.849      23.845      22.420      19.794      16.408      12.861      9.7302    
  7.3356      5.5991      4.3753      3.6024      3.1684      2.9763      2.9760      3.1682      3.6043      4.3800    
  5.6037      7.3354      9.7226      12.849      25.528      29.691      32.393      33.318      32.380      29.674    
  25.517      20.497      15.420      11.082      7.9211      5.8138      4.4163      3.5882      3.1681      3.0407    
  3.1682      3.5893      4.4183      5.8141      7.9168      11.073      15.412      20.496      36.545      40.781    
  42.997      42.994      40.772      36.533      30.711      24.030      17.481      12.045      8.2522      5.8899    
  4.4182      3.6037      3.2499      3.2501      3.6043      4.4183      5.8879      8.2477      12.040      17.480    
  24.036      30.722      48.134      52.060      53.436      52.066      48.139      42.120      34.606      26.407    
  18.627      12.393      8.2496      5.8153      4.3802      3.6502      3.4289      3.6503      4.3800      5.8141    
  8.2477      12.392      18.631      26.414      34.613      42.120      59.893      63.353      63.358      59.905    
  53.742      45.773      36.684      27.245      18.627      12.038      7.9164      5.6041      4.3098      3.7399    
  3.7397      4.3093      5.6037      7.9168      12.040      18.631      27.249      36.685      45.767      53.732    
  71.830      74.208      71.829      65.488      56.823      47.045      36.688      26.414      17.478      11.072    
  7.3352      5.2927      4.2291      3.9026      4.2292      5.2925      7.3354      11.073      17.480      26.414    
  36.685      47.040      56.820      65.487      82.677      82.671      76.934      67.550      56.819      45.771    
  34.616      24.037      15.412      9.7228      6.6181      4.9337      4.1770      4.1773      4.9343      6.6181    
  9.7226      15.412      24.036      34.613      45.767      56.820      67.559      76.945      89.457      85.957    
  76.945      65.487      53.732      42.120      30.722      20.496      12.849      8.2702      5.8524      4.5894    
  4.1973      4.5894      5.8524      8.2702      12.849      20.496      30.722      42.120      53.732      65.487    
  76.945      85.957      79.681      71.853      61.635      50.768      39.731      28.845      19.192      12.088    
  7.8779      5.6255      4.4483      4.0845      4.4482      5.6254      7.8776      12.087      19.194      28.851    
  39.740      50.770      61.621      71.827      79.660      82.677      71.853      63.376      53.438      42.987    
  32.383      22.424      14.426      9.2132      6.3552      4.7834      4.0809      4.0811      4.7837      6.3549    
  9.2115      14.424      22.428      32.393      42.997      53.436      63.358      71.829      76.934      76.945    
  61.635      53.438      44.102      34.237      24.572      16.296      10.440      7.0305      5.1298      4.1423    
  3.8394      4.1421      5.1298      7.0299      10.438      16.293      24.572      34.243      44.112      53.444    
  61.635      67.556      69.762      67.559      50.768      42.987      34.237      25.321      17.332      11.313    
  7.5666      5.4275      4.2271      3.6995      3.6991      4.2268      5.4281      7.5667      11.310      17.326    
  25.315      34.238      42.999      50.787      56.838      60.226      60.218      56.820      39.731      32.383    
  24.572      17.332      11.630      7.8701      5.6283      4.2985      3.6233      3.4186      3.6233      4.2989    
  5.6296      7.8712      11.628      17.326      24.564      32.380      39.740      45.785      49.795      51.202    
  49.780      45.767      28.845      22.424      16.296      11.313      7.8701      5.6996      4.3381      3.5845    
  3.2563      3.2564      3.5844      4.3379      5.7007      7.8733      11.316      16.295      22.419      28.839    
  34.611      38.936      41.247      41.245      38.933      34.613      19.192      14.426      10.440      7.5666    
  5.6283      4.3381      3.5725      3.1824      3.0638      3.1821      3.5712      4.3363      5.6283      7.5703    
  10.447      14.431      19.192      24.030      28.152      30.902      31.867      30.908      28.160      24.036    
  12.088      9.2132      7.0305      5.4275      4.2985      3.5845      3.1824      3.0045      3.0047      3.1823    
  3.5830      4.2949      5.4236      7.0298      9.2183      12.096      15.419      18.664      21.238      22.657    
  22.659      21.241      18.663      15.412      7.8779      6.3552      5.1298      4.2271      3.6233      3.2563    
  3.0638      3.0047      3.0651      3.2581      3.6233      4.2229      5.1221      6.3486      7.8776      9.7293    
  11.756      13.622      14.940      15.415      14.937      13.614      11.747      9.7226      5.6255      4.7834    
  4.1423      3.6995      3.4186      3.2564      3.1821      3.1823      3.2581      3.4223      3.7033      4.1423    
  4.7773      5.6159      6.6110      7.6806      8.7415      9.6225      10.126      10.122      9.6152      8.7356    
  7.6809      6.6181      4.4483      4.0809      3.8394      3.6991      3.6233      3.5844      3.5712      3.5830    
  3.6233      3.7033      3.8471      4.0873      4.4483      4.9271      5.4852      6.0534      6.5464      6.8842    
  7.0043      6.8820      6.5464      6.0591      5.4946      4.9343      4.0845      4.0811      4.1421      4.2268    
  4.2989      4.3379      4.3363      4.2949      4.2229      4.1423      4.0873      4.0941      4.1842      4.3535    
  4.5720      4.7943      4.9731      5.0723      5.0733      4.9768      4.8005      4.5775      4.3535      4.1773    
  4.4482      4.7837      5.1298      5.4281      5.6296      5.7007      5.6283      5.4236      5.1221      4.7773    
  4.4483      4.1842      4.0111      3.9258      3.9027      3.9093      3.9214      3.9275      3.9242      3.9126    
  3.9027      3.9201      4.0017      4.1770      5.6254      6.3549      7.0299      7.5667      7.8712      7.8733    
  7.5703      7.0298      6.3486      5.6159      4.9271      4.3535      3.9258      3.6354      3.4515      3.3437    
  3.2937      3.2942      3.3437      3.4485      3.6293      3.9204      4.3535      4.9337      7.8776      9.2115    
  10.438      11.310      11.628      11.316      10.447      9.2183      7.8776      6.6110      5.4852      4.5720    
  3.9027      3.4515      3.1710      3.0192      2.9711      3.0181      3.1682      3.4483      3.9027      4.5779    
  5.4946      6.6181      12.087      14.424      16.293      17.326      17.326      16.295      14.431      12.096    
  9.7293      7.6806      6.0534      4.7943      3.9093      3.3437      3.0192      2.8729      2.8725      3.0182    
  3.3438      3.9122      4.8003      6.0590      7.6809      9.7228      19.194      22.428      24.572      25.315    
  24.564      22.419      19.192      15.419      11.756      8.7415      6.5464      4.9731      3.9214      3.2937    
  2.9711      2.8725      2.9711      3.2948      3.9242      4.9763      6.5464      8.7357      11.747      15.412    
  28.851      32.393      34.243      34.238      32.380      28.839      24.030      18.664      13.622      9.6225    
  6.8842      5.0723      3.9275      3.2942      3.0181      3.0182      3.2948      3.9285      5.0723      6.8812    
  9.6164      13.616      18.663      24.037      39.740      42.997      44.112      42.999      39.740      34.611    
  28.152      21.238      14.940      10.126      7.0043      5.0733      3.9242      3.3437      3.1682      3.3438    
  3.9242      5.0723      7.0015      10.122      14.940      21.243      28.160      34.616      50.770      53.436    
  53.444      50.787      45.785      38.936      30.902      22.657      15.415      10.122      6.8820      4.9768    
  3.9126      3.4485      3.4483      3.9122      4.9763      6.8812      10.122      15.418      22.664      30.908    
  38.933      45.771      61.621      63.358      61.635      56.838      49.795      41.247      31.867      22.659    
  14.937      9.6152      6.5464      4.8005      3.9027      3.6293      3.9027      4.8003      6.5464      9.6164    
  14.940      22.664      31.870      41.242      49.780      56.819      71.827      71.829      67.556      60.226    
  51.202      41.245      30.908      21.241      13.614      8.7356      6.0591      4.5775      3.9201      3.9204    
  4.5779      6.0590      8.7357      13.616      21.243      30.908      41.242      51.196      60.218      67.550    
  79.660      76.934      69.762      60.218      49.780      38.933      28.160      18.663      11.747      7.6809    
  5.4946      4.3535      4.0017      4.3535      5.4946      7.6809      11.747      18.663      28.160      38.933    
  49.780      60.218      69.762      76.934      82.677      76.945      67.559      56.820      45.767      34.613    
  24.036      15.412      9.7226      6.6181      4.9343      4.1773      4.1770      4.9337      6.6181      9.7228    
  15.412      24.037      34.616      45.771      56.819      67.550      76.934      82.671      67.417      59.901    
  50.768      40.835      30.621      21.099      13.576      8.7474      6.0895      4.6158      3.9611      3.9612    
  4.6163      6.0897      8.7464      13.574      21.098      30.623      40.839      50.770      59.898      67.411    
  71.827      71.830      59.901      52.060      42.987      33.316      23.851      15.804      10.157      6.8776    
  5.0355      4.0811      3.7889      4.0810      5.0358      6.8777      10.155      15.801      23.849      33.318    
  42.994      52.066      59.905      65.488      67.550      65.487      50.768      42.987      34.237      25.321    
  17.332      11.313      7.5666      5.4275      4.2271      3.6995      3.6991      4.2268      5.4281      7.5667    
  11.310      17.326      25.315      34.238      42.999      50.787      56.838      60.226      60.218      56.820    
  40.835      33.316      25.321      17.874      11.966      8.0517      5.7317      4.3591      3.6613      3.4495    
  3.6612      4.3595      5.7330      8.0522      11.963      17.864      25.311      33.315      40.850      47.066    
  51.216      52.677      51.196      47.040      30.621      23.851      17.332      11.966      8.2279      5.8987    
  4.4489      3.6463      3.2968      3.2969      3.6465      4.4496      5.9007      8.2301      11.965      17.324    
  23.840      30.617      36.694      41.258      43.704      43.696      41.242      36.685      21.099      15.804    
  11.313      8.0517      5.8987      4.4806      3.6408      3.2141      3.0846      3.2140      3.6402      4.4806    
  5.9011      8.0562      11.316      15.802      21.091      26.406      30.904      33.895      34.941      33.896    
  30.908      26.414      13.576      10.157      7.5666      5.7317      4.4489      3.6408      3.1879      2.9879    
  2.9878      3.1872      3.6391      4.4472      5.7325      7.5708      10.163      13.580      17.478      21.236    
  24.186      25.802      25.806      24.194      21.243      17.480      8.7474      6.8776      5.4275      4.3591    
  3.6463      3.2141      2.9879      2.9183      2.9884      3.2141      3.6444      4.3552      5.4239      6.8775    
  8.7521      11.080      13.620      15.933      17.552      18.135      17.554      15.933      13.616      11.073    
  6.0895      5.0355      4.2271      3.6613      3.2968      3.0846      2.9878      2.9884      3.0863      3.2987    
  3.6611      4.2229      5.0286      6.0841      7.3352      8.7408      10.167      11.354      12.031      12.030    
  11.349      10.160      8.7357      7.3354      4.6158      4.0811      3.6995      3.4495      3.2969      3.2140    
  3.1872      3.2141      3.2987      3.4535      3.7033      4.0811      4.6105      5.2847      6.0534      6.8283    
  7.5161      8.0040      8.1805      8.0004      7.5123      6.8287      6.0590      5.2925      3.9611      3.7889    
  3.6991      3.6612      3.6465      3.6402      3.6391      3.6444      3.6611      3.7033      3.7961      3.9668    
  4.2292      4.5722      4.9582      5.3305      5.6254      5.7881      5.7877      5.6259      5.3345      4.9653    
  4.5779      4.2292      3.9612      4.0810      4.2268      4.3595      4.4496      4.4806      4.4472      4.3552    
  4.2229      4.0811      3.9668      3.9107      3.9259      4.0023      4.1121      4.2207      4.2984      4.3268    
  4.3005      4.2247      4.1158      4.0022      3.9204      3.9026      4.6163      5.0358      5.4281      5.7330    
  5.9007      5.9011      5.7325      5.4239      5.0286      4.6105      4.2292      3.9259      3.7152      3.5864    
  3.5147      3.4771      3.4609      3.4620      3.4791      3.5147      3.5823      3.7081      3.9201      4.2291    
  6.0897      6.8777      7.5667      8.0522      8.2301      8.0562      7.5708      6.8775      6.0841      5.2847    
  4.5722      4.0023      3.5864      3.3040      3.1242      3.0238      2.9915      3.0237      3.1225      3.3000    
  3.5825      4.0022      4.5775      5.2927      8.7464      10.155      11.310      11.963      11.965      11.316    
  10.163      8.7521      7.3352      6.0534      4.9582      4.1121      3.5147      3.1242      2.8923      2.7847    
  2.7842      2.8908      3.1223      3.5148      4.1162      4.9653      6.0591      7.3352      13.574      15.801    
  17.326      17.864      17.324      15.802      13.580      11.080      8.7408      6.8283      5.3305      4.2207    
  3.4771      3.0238      2.7847      2.7103      2.7843      3.0237      3.4787      4.2245      5.3344      6.8287    
  8.7356      11.072      21.098      23.849      25.315      25.311      23.840      21.091      17.478      13.620    
  10.167      7.5161      5.6254      4.2984      3.4609      2.9915      2.7842      2.7843      2.9921      3.4625    
  4.3001      5.6252      7.5121      10.160      13.614      17.478      30.623      33.318      34.238      33.315    
  30.617      26.406      21.236      15.933      11.354      8.0040      5.7881      4.3268      3.4620      3.0237    
  2.8908      3.0237      3.4625      4.3271      5.7865      8.0000      11.350      15.933      21.241      26.414    
  40.839      42.994      42.999      40.850      36.694      30.904      24.186      17.552      12.031      8.1805    
  5.7877      4.3005      3.4791      3.1225      3.1223      3.4787      4.3001      5.7865      8.1786      12.032    
  17.558      24.194      30.908      36.688      50.770      52.066      50.787      47.066      41.258      33.895    
  25.802      18.135      12.030      8.0004      5.6259      4.2247      3.5147      3.3000      3.5148      4.2245    
  5.6252      8.0000      12.032      18.141      25.810      33.896      41.245      47.045      59.898      59.905    
  56.838      51.216      43.704      34.941      25.806      17.554      11.349      7.5123      5.3345      4.1158    
  3.5823      3.5825      4.1162      5.3344      7.5121      11.350      17.558      25.810      34.941      43.696    
  51.202      56.823      67.411      65.488      60.226      52.677      43.696      33.896      24.194      15.933    
  10.160      6.8287      4.9653      4.0022      3.7081      4.0022      4.9653      6.8287      10.160      15.933    
  24.194      33.896      43.696      52.677      60.226      65.488      71.827      67.550      60.218      51.196    
  41.242      30.908      21.243      13.616      8.7357      6.0590      4.5779      3.9204      3.9201      4.5775    
  6.0591      8.7356      13.614      21.241      30.908      41.245      51.202      60.226      67.556      71.829    
  71.830      65.487      56.820      47.040      36.685      26.414      17.480      11.073      7.3354      5.2925    
  4.2292      3.9026      4.2291      5.2927      7.3352      11.072      17.478      26.414      36.688      47.045    
  56.823      65.488      71.829      74.208      55.112      48.129      39.731      30.621      21.774      14.416    
  9.3699      6.4485      4.7704      3.9079      3.6451      3.9080      4.7709      6.4493      9.3698      14.414    
  21.770      30.617      39.732      48.134      55.119      59.898      61.621      59.893      48.129      40.769    
  32.383      23.851      16.299      10.696      7.2366      5.2312      4.1067      3.6141      3.6139      4.1066    
  5.2321      7.2379      10.695      16.295      23.845      32.380      40.772      48.139      53.742      56.823    
  56.819      53.732      39.731      32.383      24.572      17.332      11.630      7.8701      5.6283      4.2985    
  3.6233      3.4186      3.6233      4.2989      5.6296      7.8712      11.628      17.326      24.564      32.380    
  39.740      45.785      49.795      51.202      49.780      45.767      30.621      23.851      17.332      11.966    
  8.2279      5.8987      4.4489      3.6463      3.2968      3.2969      3.6465      4.4496      5.9007      8.2301    
  11.965      17.324      23.840      30.617      36.694      41.258      43.704      43.696      41.242      36.685    
  21.774      16.299      11.630      8.2279      5.9945      4.5309      3.6648      3.2254      3.0920      3.2253    
  3.6648      4.5320      5.9980      8.2321      11.630      16.292      21.763      27.242      31.870      34.944    
  36.018      34.941      31.870      27.249      14.416      10.696      7.8701      5.8987      4.5309      3.6713    
  3.1913      2.9797      2.9797      3.1909      3.6706      4.5314      5.9022      7.8757      10.700      14.414    
  18.622      22.653      25.801      27.521      27.524      25.810      22.664      18.631      9.3699      7.2366    