fcc Au                                  
   4.25000000000000     
     0.000000    0.500000    0.500000
     0.500000    0.000000    0.500000
     0.500000    0.500000    0.000000
   Au
     1
Direct
  0.000000  0.000000  0.000000
 
   24   24   24
 0.93292717333E+02 0.89468405412E+02 0.79681434857E+02 0.67416738534E+02 0.55111598371E+02
 0.43206680627E+02 0.31601279639E+02 0.21138964628E+02 0.13243616059E+02 0.84815006683E+01
 0.59787831687E+01 0.46725856583E+01 0.42660646935E+01 0.46725856583E+01 0.59787831687E+01
 0.84815006683E+01 0.13243616059E+02 0.21138964628E+02 0.31601279639E+02 0.43206680627E+02
 0.55111598371E+02 0.67416738534E+02 0.79681434857E+02 0.89468405412E+02 0.89468405412E+02
 0.82703113058E+02 0.71852920322E+02 0.59901231276E+02 0.48129184067E+02 0.36537996999E+02
 0.25523863517E+02 0.16400187597E+02 0.10275848020E+02 0.69229003001E+01 0.51288305373E+01
 0.43166086577E+01 0.43162572100E+01 0.51282979479E+01 0.69228075333E+01 0.10276108297E+02
 0.16401392004E+02 0.25528067850E+02 0.36545340533E+02 0.48133615788E+02 0.59893241314E+02
 0.71829961966E+02 0.82676575912E+02 0.89456576645E+02 0.79681434857E+02 0.71852920322E+02
 0.61634926581E+02 0.50767763724E+02 0.39731438095E+02 0.28845003499E+02 0.19191950249E+02
 0.12087635318E+02 0.78779457422E+01 0.56254986095E+01 0.44483348101E+01 0.40845132923E+01
 0.44481535825E+01 0.56254054544E+01 0.78776379677E+01 0.12087149020E+02 0.19193555236E+02
 0.28851491904E+02 0.39740431787E+02 0.50769707666E+02 0.61621070003E+02 0.71826930946E+02
 0.79660316731E+02 0.82676575912E+02 0.67416738534E+02 0.59901231276E+02 0.50767763724E+02
 0.40834557142E+02 0.30620735635E+02 0.21098750536E+02 0.13575881085E+02 0.87473669859E+01
 0.60895475897E+01 0.46158219970E+01 0.39610771717E+01 0.39612406393E+01 0.46162546294E+01
 0.60897416886E+01 0.87464362975E+01 0.13573982939E+02 0.21098022312E+02 0.30623343991E+02
 0.40839383830E+02 0.50770362936E+02 0.59898423713E+02 0.67410833370E+02 0.71826930946E+02
 0.71829961966E+02 0.55111598371E+02 0.48129184067E+02 0.39731438095E+02 0.30620735635E+02
 0.21774131703E+02 0.14416359401E+02 0.93698887293E+01 0.64484628284E+01 0.47703844758E+01
 0.39079481726E+01 0.36450586100E+01 0.39079686034E+01 0.47708765544E+01 0.64493042784E+01
 0.93698407185E+01 0.14414088618E+02 0.21769962560E+02 0.30617170191E+02 0.39731511030E+02
 0.48133892510E+02 0.55118668462E+02 0.59898423713E+02 0.61621070003E+02 0.59893241314E+02
 0.43206680627E+02 0.36537996999E+02 0.28845003499E+02 0.21098750536E+02 0.14416359401E+02
 0.95972246197E+01 0.66443524651E+01 0.48749105105E+01 0.38877215114E+01 0.34569971303E+01
 0.34566718637E+01 0.38872950018E+01 0.48755922407E+01 0.66467785537E+01 0.96001871819E+01
 0.14417031026E+02 0.21095002662E+02 0.28837870382E+02 0.36531308308E+02 0.43203646452E+02
 0.48133892510E+02 0.50770362936E+02 0.50769707666E+02 0.48133615788E+02 0.31601279639E+02
 0.25523863517E+02 0.19191950249E+02 0.13575881085E+02 0.93698887293E+01 0.66443524651E+01
 0.49111796960E+01 0.38796267831E+01 0.33575358532E+01 0.31994544630E+01 0.33571288543E+01
 0.38788501962E+01 0.49111650679E+01 0.66471093095E+01 0.93759344201E+01 0.13582260722E+02
 0.19193557851E+02 0.25517440185E+02 0.31588312550E+02 0.36531308308E+02 0.39731511030E+02
 0.40839383830E+02 0.39740431787E+02 0.36545340533E+02 0.21138964628E+02 0.16400187597E+02
 0.12087635318E+02 0.87473669859E+01 0.64484628284E+01 0.48749105105E+01 0.38796267831E+01
 0.33259221410E+01 0.30837952246E+01 0.30839783160E+01 0.33255978945E+01 0.38775315926E+01
 0.48719183150E+01 0.64481334279E+01 0.87529820271E+01 0.12098015901E+02 0.16408805286E+02
 0.21138561887E+02 0.25517440185E+02 0.28837870382E+02 0.30617170191E+02 0.30623343991E+02
 0.28851491904E+02 0.25528067850E+02 0.13243616059E+02 0.10275848020E+02 0.78779457422E+01
 0.60895475897E+01 0.47703844758E+01 0.38877215114E+01 0.33575358532E+01 0.30837952246E+01
 0.30004397989E+01 0.30844885921E+01 0.33575147414E+01 0.38849285944E+01 0.47644025975E+01
 0.60837778429E+01 0.78779872542E+01 0.10283995823E+02 0.13255290773E+02 0.16408805286E+02
 0.19193557851E+02 0.21095002662E+02 0.21769962560E+02 0.21098022312E+02 0.19193555236E+02
 0.16401392004E+02 0.84815006683E+01 0.69229003001E+01 0.56254986095E+01 0.46158219970E+01
 0.39079481726E+01 0.34569971303E+01 0.31994544630E+01 0.30839783160E+01 0.30844885921E+01
 0.32013132422E+01 0.34596240631E+01 0.39082088711E+01 0.46104452198E+01 0.56156919214E+01
 0.69149159288E+01 0.84813199590E+01 0.10283995823E+02 0.12098015901E+02 0.13582260722E+02
 0.14417031026E+02 0.14414088618E+02 0.13573982939E+02 0.12087149020E+02 0.10276108297E+02
 0.59787831687E+01 0.51288305373E+01 0.44483348101E+01 0.39610771717E+01 0.36450586100E+01
 0.34566718637E+01 0.33571288543E+01 0.33255978945E+01 0.33575147414E+01 0.34596240631E+01
 0.36511823272E+01 0.39667810702E+01 0.44481640419E+01 0.51208061792E+01 0.59671282754E+01
 0.69149159288E+01 0.78779872542E+01 0.87529820271E+01 0.93759344201E+01 0.96001871819E+01
 0.93698407185E+01 0.87464362975E+01 0.78776379677E+01 0.69228075333E+01 0.46725856583E+01
 0.43166086577E+01 0.40845132923E+01 0.39612406393E+01 0.39079686034E+01 0.38872950018E+01
 0.38788501962E+01 0.38775315926E+01 0.38849285944E+01 0.39082088711E+01 0.39667810702E+01
 0.40939240266E+01 0.43242245097E+01 0.46728026603E+01 0.51208061792E+01 0.56156919214E+01
 0.60837778429E+01 0.64481334279E+01 0.66471093095E+01 0.66467785537E+01 0.64493042784E+01
 0.60897416886E+01 0.56254054544E+01 0.51282979479E+01 0.42660646935E+01 0.43162572100E+01
 0.44481535825E+01 0.46162546294E+01 0.47708765544E+01 0.48755922407E+01 0.49111650679E+01
 0.48719183150E+01 0.47644025975E+01 0.46104452198E+01 0.44481640419E+01 0.43242245097E+01
 0.42777958673E+01 0.43242245097E+01 0.44481640419E+01 0.46104452198E+01 0.47644025975E+01
 0.48719183150E+01 0.49111650679E+01 0.48755922407E+01 0.47708765544E+01 0.46162546294E+01
 0.44481535825E+01 0.43162572100E+01 0.46725856583E+01 0.51282979479E+01 0.56254054544E+01
 0.60897416886E+01 0.64493042784E+01 0.66467785537E+01 0.66471093095E+01 0.64481334279E+01
 0.60837778429E+01 0.56156919214E+01 0.51208061792E+01 0.46728026603E+01 0.43242245097E+01
 0.40939240266E+01 0.39667810702E+01 0.39082088711E+01 0.38849285944E+01 0.38775315926E+01
 0.38788501962E+01 0.38872950018E+01 0.39079686034E+01 0.39612406393E+01 0.40845132923E+01
 0.43166086577E+01 0.59787831687E+01 0.69228075333E+01 0.78776379677E+01 0.87464362975E+01
 0.93698407185E+01 0.96001871819E+01 0.93759344201E+01 0.87529820271E+01 0.78779872542E+01
 0.69149159288E+01 0.59671282754E+01 0.51208061792E+01 0.44481640419E+01 0.39667810702E+01
 0.36511823272E+01 0.34596240631E+01 0.33575147414E+01 0.33255978945E+01 0.33571288543E+01
 0.34566718637E+01 0.36450586100E+01 0.39610771717E+01 0.44483348101E+01 0.51288305373E+01
 0.84815006683E+01 0.10276108297E+02 0.12087149020E+02 0.13573982939E+02 0.14414088618E+02
 0.14417031026E+02 0.13582260722E+02 0.12098015901E+02 0.10283995823E+02 0.84813199590E+01
 0.69149159288E+01 0.56156919214E+01 0.46104452198E+01 0.39082088711E+01 0.34596240631E+01
 0.32013132422E+01 0.30844885921E+01 0.30839783160E+01 0.31994544630E+01 0.34569971303E+01
 0.39079481726E+01 0.46158219970E+01 0.56254986095E+01 0.69229003001E+01 0.13243616059E+02
 0.16401392004E+02 0.19193555236E+02 0.21098022312E+02 0.21769962560E+02 0.21095002662E+02
 0.19193557851E+02 0.16408805286E+02 0.13255290773E+02 0.10283995823E+02 0.78779872542E+01
 0.60837778429E+01 0.47644025975E+01 0.38849285944E+01 0.33575147414E+01 0.30844885921E+01
 0.30004397989E+01 0.30837952246E+01 0.33575358532E+01 0.38877215114E+01 0.47703844758E+01
 0.60895475897E+01 0.78779457422E+01 0.10275848020E+02 0.21138964628E+02 0.25528067850E+02
 0.28851491904E+02 0.30623343991E+02 0.30617170191E+02 0.28837870382E+02 0.25517440185E+02
 0.21138561887E+02 0.16408805286E+02 0.12098015901E+02 0.87529820271E+01 0.64481334279E+01
 0.48719183150E+01 0.38775315926E+01 0.33255978945E+01 0.30839783160E+01 0.30837952246E+01
 0.33259221410E+01 0.38796267831E+01 0.48749105105E+01 0.64484628284E+01 0.87473669859E+01
 0.12087635318E+02 0.16400187597E+02 0.31601279639E+02 0.36545340533E+02 0.39740431787E+02
 0.40839383830E+02 0.39731511030E+02 0.36531308308E+02 0.31588312550E+02 0.25517440185E+02
 0.19193557851E+02 0.13582260722E+02 0.93759344201E+01 0.66471093095E+01 0.49111650679E+01
 0.38788501962E+01 0.33571288543E+01 0.31994544630E+01 0.33575358532E+01 0.38796267831E+01
 0.49111796960E+01 0.66443524651E+01 0.93698887293E+01 0.13575881085E+02 0.19191950249E+02
 0.25523863517E+02 0.43206680627E+02 0.48133615788E+02 0.50769707666E+02 0.50770362936E+02
 0.48133892510E+02 0.43203646452E+02 0.36531308308E+02 0.28837870382E+02 0.21095002662E+02
 0.14417031026E+02 0.96001871819E+01 0.66467785537E+01 0.48755922407E+01 0.38872950018E+01
 0.34566718637E+01 0.34569971303E+01 0.38877215114E+01 0.48749105105E+01 0.66443524651E+01
 0.95972246197E+01 0.14416359401E+02 0.21098750536E+02 0.28845003499E+02 0.36537996999E+02
 0.55111598371E+02 0.59893241314E+02 0.61621070003E+02 0.59898423713E+02 0.55118668462E+02
 0.48133892510E+02 0.39731511030E+02 0.30617170191E+02 0.21769962560E+02 0.14414088618E+02
 0.93698407185E+01 0.64493042784E+01 0.47708765544E+01 0.39079686034E+01 0.36450586100E+01
 0.39079481726E+01 0.47703844758E+01 0.64484628284E+01 0.93698887293E+01 0.14416359401E+02
 0.21774131703E+02 0.30620735635E+02 0.39731438095E+02 0.48129184067E+02 0.67416738534E+02
 0.71829961966E+02 0.71826930946E+02 0.67410833370E+02 0.59898423713E+02 0.50770362936E+02
 0.40839383830E+02 0.30623343991E+02 0.21098022312E+02 0.13573982939E+02 0.87464362975E+01
 0.60897416886E+01 0.46162546294E+01 0.39612406393E+01 0.39610771717E+01 0.46158219970E+01
 0.60895475897E+01 0.87473669859E+01 0.13575881085E+02 0.21098750536E+02 0.30620735635E+02
 0.40834557142E+02 0.50767763724E+02 0.59901231276E+02 0.79681434857E+02 0.82676575912E+02
 0.79660316731E+02 0.71826930946E+02 0.61621070003E+02 0.50769707666E+02 0.39740431787E+02
 0.28851491904E+02 0.19193555236E+02 0.12087149020E+02 0.78776379677E+01 0.56254054544E+01
 0.44481535825E+01 0.40845132923E+01 0.44483348101E+01 0.56254986095E+01 0.78779457422E+01
 0.12087635318E+02 0.19191950249E+02 0.28845003499E+02 0.39731438095E+02 0.50767763724E+02
 0.61634926581E+02 0.71852920322E+02 0.89468405412E+02 0.89456576645E+02 0.82676575912E+02
 0.71829961966E+02 0.59893241314E+02 0.48133615788E+02 0.36545340533E+02 0.25528067850E+02
 0.16401392004E+02 0.10276108297E+02 0.69228075333E+01 0.51282979479E+01 0.43162572100E+01
 0.43166086577E+01 0.51288305373E+01 0.69229003001E+01 0.10275848020E+02 0.16400187597E+02
 0.25523863517E+02 0.36537996999E+02 0.48129184067E+02 0.59901231276E+02 0.71852920322E+02
 0.82703113058E+02 0.89468405412E+02 0.82703113058E+02 0.71852920322E+02 0.59901231276E+02
 0.48129184067E+02 0.36537996999E+02 0.25523863517E+02 0.16400187597E+02 0.10275848020E+02
 0.69229003001E+01 0.51288305373E+01 0.43166086577E+01 0.43162572100E+01 0.51282979479E+01
 0.69228075333E+01 0.10276108297E+02 0.16401392004E+02 0.25528067850E+02 0.36545340533E+02
 0.48133615788E+02 0.59893241314E+02 0.71829961966E+02 0.82676575912E+02 0.89456576645E+02
 0.82703113058E+02 0.74248231382E+02 0.63376102522E+02 0.52059549698E+02 0.40768542020E+02
 0.29680920007E+02 0.19793423636E+02 0.12451129674E+02 0.80724347662E+01 0.57432644903E+01
 0.45255717314E+01 0.41484039214E+01 0.45254691301E+01 0.57430953462E+01 0.80717677454E+01
 0.12450583382E+02 0.19796578975E+02 0.29691096078E+02 0.40781094710E+02 0.52060265052E+02
 0.63353206829E+02 0.74208301201E+02 0.82671384707E+02 0.85956802562E+02 0.71852920322E+02
 0.63376102522E+02 0.53437944969E+02 0.42987208864E+02 0.32382844535E+02 0.22424443647E+02
 0.14425862432E+02 0.92132275440E+01 0.63552027498E+01 0.47834426874E+01 0.40809474295E+01
 0.40811020198E+01 0.47837427102E+01 0.63548646527E+01 0.92114922482E+01 0.14424379240E+02
 0.22427579050E+02 0.32392520769E+02 0.42997074950E+02 0.53436285214E+02 0.63358024011E+02
 0.71828938617E+02 0.76933541496E+02 0.76944661125E+02 0.59901231276E+02 0.52059549698E+02
 0.42987208864E+02 0.33315649039E+02 0.23851308183E+02 0.15804499791E+02 0.10156753166E+02
 0.68775944122E+01 0.50355393453E+01 0.40811076113E+01 0.37889213355E+01 0.40810365697E+01
 0.50358365152E+01 0.68776544024E+01 0.10155068022E+02 0.15801185396E+02 0.23849392543E+02
 0.33318318697E+02 0.42993914179E+02 0.52066186591E+02 0.59904528010E+02 0.65487950298E+02
 0.67550339613E+02 0.65487429161E+02 0.48129184067E+02 0.40768542020E+02 0.32382844535E+02
 0.23851308183E+02 0.16299183488E+02 0.10696019332E+02 0.72366138181E+01 0.52311796615E+01
 0.41066975328E+01 0.36141138914E+01 0.36138690454E+01 0.41066132573E+01 0.52321448701E+01
 0.72379370665E+01 0.10695388951E+02 0.16295036462E+02 0.23845344630E+02 0.32379717558E+02
 0.40772288694E+02 0.48139310073E+02 0.53742402192E+02 0.56823359922E+02 0.56818685166E+02
 0.53731509563E+02 0.36537996999E+02 0.29680920007E+02 0.22424443647E+02 0.15804499791E+02
 0.10696019332E+02 0.73663407710E+01 0.53374019594E+01 0.41287524365E+01 0.35164651759E+01
 0.33309706017E+01 0.35162554775E+01 0.41286977517E+01 0.53384469424E+01 0.73690842639E+01
 0.10699058301E+02 0.15804692984E+02 0.22420027197E+02 0.29674133067E+02 0.36533370935E+02
 0.42119577784E+02 0.45772614329E+02 0.47044952647E+02 0.45771040204E+02 0.42119923998E+02
 0.25523863517E+02 0.19793423636E+02 0.14425862432E+02 0.10156753166E+02 0.72366138181E+01
 0.53374019594E+01 0.41368336801E+01 0.34718470304E+01 0.31818612343E+01 0.31818252279E+01
 0.34712745902E+01 0.41355605786E+01 0.53371791818E+01 0.72399402295E+01 0.10163586233E+02
 0.14432265298E+02 0.19794348941E+02 0.25517467059E+02 0.30710766202E+02 0.34606273995E+02
 0.36683956983E+02 0.36687765244E+02 0.34615930554E+02 0.30721553941E+02 0.16400187597E+02
 0.12451129674E+02 0.92132275440E+01 0.68775944122E+01 0.52311796615E+01 0.41287524365E+01
 0.34718470304E+01 0.31355192596E+01 0.30332856742E+01 0.31356051954E+01 0.34708219440E+01
 0.41257975504E+01 0.52277050218E+01 0.68772150656E+01 0.92187936556E+01 0.12461043808E+02
 0.16408274669E+02 0.20496835928E+02 0.24030115473E+02 0.26406809562E+02 0.27244865080E+02
 0.26413555754E+02 0.24036704931E+02 0.20496329018E+02 0.10275848020E+02 0.80724347662E+01
 0.63552027498E+01 0.50355393453E+01 0.41066975328E+01 0.35164651759E+01 0.31818612343E+01
 0.30332856742E+01 0.30337985326E+01 0.31829704172E+01 0.35165145573E+01 0.41033129746E+01
 0.50284564197E+01 0.63485169707E+01 0.80720538805E+01 0.10283605408E+02 0.12860540733E+02
 0.15420438318E+02 0.17480771374E+02 0.18627408814E+02 0.18627111965E+02 0.17477864488E+02
 0.15412285802E+02 0.12849300448E+02 0.69229003001E+01 0.57432644903E+01 0.47834426874E+01
 0.40811076113E+01 0.36141138914E+01 0.33309706017E+01 0.31818252279E+01 0.31356051954E+01
 0.31829704172E+01 0.33339418030E+01 0.36176306389E+01 0.40812621183E+01 0.47773185061E+01
 0.57330047688E+01 0.69149366526E+01 0.82698734458E+01 0.97301666406E+01 0.11081952701E+02
 0.12045302533E+02 0.12392662541E+02 0.12038495143E+02 0.11071922130E+02 0.97228297553E+01
 0.82701630983E+01 0.51288305373E+01 0.45255717314E+01 0.40809474295E+01 0.37889213355E+01
 0.36138690454E+01 0.35162554775E+01 0.34712745902E+01 0.34708219440E+01 0.35165145573E+01
 0.36176306389E+01 0.37961550753E+01 0.40873057581E+01 0.45255338225E+01 0.51208998714E+01
 0.58412174963E+01 0.66109383218E+01 0.73355668582E+01 0.79211050714E+01 0.82522267696E+01
 0.82495736817E+01 0.79163850362E+01 0.73352343803E+01 0.66181296420E+01 0.58523926477E+01
 0.43166086577E+01 0.41484039214E+01 0.40811020198E+01 0.40810365697E+01 0.41066132573E+01
 0.41286977517E+01 0.41355605786E+01 0.41257975504E+01 0.41033129746E+01 0.40812621183E+01
 0.40873057581E+01 0.41584608593E+01 0.43243175068E+01 0.45894872206E+01 0.49268876138E+01
 0.52843419545E+01 0.55990731336E+01 0.58137599915E+01 0.58899040201E+01 0.58152769521E+01
 0.56041157402E+01 0.52926579128E+01 0.49337325306E+01 0.45893509890E+01 0.43162572100E+01
 0.45254691301E+01 0.47837427102E+01 0.50358365152E+01 0.52321448701E+01 0.53384469424E+01
 0.53371791818E+01 0.52277050218E+01 0.50284564197E+01 0.47773185061E+01 0.45255338225E+01
 0.43243175068E+01 0.42083880693E+01 0.41840641106E+01 0.42290676824E+01 0.43050630652E+01
 0.43753195249E+01 0.44163131248E+01 0.44182404188E+01 0.43801956732E+01 0.43098048110E+01
 0.42291202883E+01 0.41769706195E+01 0.41972554556E+01 0.51282979479E+01 0.57430953462E+01
 0.63548646527E+01 0.68776544024E+01 0.72379370665E+01 0.73690842639E+01 0.72399402295E+01
 0.68772150656E+01 0.63485169707E+01 0.57330047688E+01 0.51208998714E+01 0.45894872206E+01
 0.41840641106E+01 0.39106151879E+01 0.37443576263E+01 0.36503602625E+01 0.36023897924E+01
 0.35881716143E+01 0.36037313784E+01 0.36501989482E+01 0.37399242502E+01 0.39026327333E+01
 0.41773344977E+01 0.45893509890E+01 0.69228075333E+01 0.80717677454E+01 0.92114922482E+01
 0.10155068022E+02 0.10695388951E+02 0.10699058301E+02 0.10163586233E+02 0.92187936556E+01
 0.80720538805E+01 0.69149366526E+01 0.58412174963E+01 0.49268876138E+01 0.42290676824E+01
 0.37443576263E+01 0.34333856688E+01 0.32517627653E+01 0.31683563705E+01 0.31680815821E+01
 0.32498798404E+01 0.34289088808E+01 0.37396922159E+01 0.42291649670E+01 0.49342523382E+01
 0.58523926477E+01 0.10276108297E+02 0.12450583382E+02 0.14424379240E+02 0.15801185396E+02
 0.16295036462E+02 0.15804692984E+02 0.14432265298E+02 0.12461043808E+02 0.10283605408E+02
 0.82698734458E+01 0.66109383218E+01 0.52843419545E+01 0.43050630652E+01 0.36503602625E+01
 0.32517627653E+01 0.30417358687E+01 0.29763386822E+01 0.30406999551E+01 0.32501494864E+01
 0.36502849727E+01 0.43092797225E+01 0.52925459188E+01 0.66181046810E+01 0.82701630983E+01
 0.16401392004E+02 0.19796578975E+02 0.22427579050E+02 0.23849392543E+02 0.23845344630E+02
 0.22420027197E+02 0.19794348941E+02 0.16408274669E+02 0.12860540733E+02 0.97301666406E+01
 0.73355668582E+01 0.55990731336E+01 0.43753195249E+01 0.36023897924E+01 0.31683563705E+01
 0.29763386822E+01 0.29759847605E+01 0.31682071461E+01 0.36043249386E+01 0.43799507654E+01
 0.56037477237E+01 0.73353884525E+01 0.97225829097E+01 0.12849300448E+02 0.25528067850E+02
 0.29691096078E+02 0.32392520769E+02 0.33318318697E+02 0.32379717558E+02 0.29674133067E+02
 0.25517467059E+02 0.20496835928E+02 0.15420438318E+02 0.11081952701E+02 0.79211050714E+01
 0.58137599915E+01 0.44163131248E+01 0.35881716143E+01 0.31680815821E+01 0.30406999551E+01
 0.31682071461E+01 0.35892862325E+01 0.44182525730E+01 0.58140977925E+01 0.79168298297E+01
 0.11073135737E+02 0.15412146205E+02 0.20496329018E+02 0.36545340533E+02 0.40781094710E+02
 0.42997074950E+02 0.42993914179E+02 0.40772288694E+02 0.36533370935E+02 0.30710766202E+02
 0.24030115473E+02 0.17480771374E+02 0.12045302533E+02 0.82522267696E+01 0.58899040201E+01
 0.44182404188E+01 0.36037313784E+01 0.32498798404E+01 0.32501494864E+01 0.36043249386E+01
 0.44182525730E+01 0.58878799997E+01 0.82477159955E+01 0.12040484035E+02 0.17479698292E+02
 0.24035525762E+02 0.30721553941E+02 0.48133615788E+02 0.52060265052E+02 0.53436285214E+02
 0.52066186591E+02 0.48139310073E+02 0.42119577784E+02 0.34606273995E+02 0.26406809562E+02
 0.18627408814E+02 0.12392662541E+02 0.82495736817E+01 0.58152769521E+01 0.43801956732E+01
 0.36501989482E+01 0.34289088808E+01 0.36502849727E+01 0.43799507654E+01 0.58140977925E+01
 0.82477159955E+01 0.12392169593E+02 0.18630814656E+02 0.26413849729E+02 0.34612506493E+02
 0.42119923998E+02 0.59893241314E+02 0.63353206829E+02 0.63358024011E+02 0.59904528010E+02
 0.53742402192E+02 0.45772614329E+02 0.36683956983E+02 0.27244865080E+02 0.18627111965E+02
 0.12038495143E+02 0.79163850362E+01 0.56041157402E+01 0.43098048110E+01 0.37399242502E+01
 0.37396922159E+01 0.43092797225E+01 0.56037477237E+01 0.79168298297E+01 0.12040484035E+02
 0.18630814656E+02 0.27248803914E+02 0.36684826875E+02 0.45767355828E+02 0.53731509563E+02
 0.71829961966E+02 0.74208301201E+02 0.71828938617E+02 0.65487950298E+02 0.56823359922E+02
 0.47044952647E+02 0.36687765244E+02 0.26413555754E+02 0.17477864488E+02 0.11071922130E+02
 0.73352343803E+01 0.52926579128E+01 0.42291202883E+01 0.39026327333E+01 0.42291649670E+01
 0.52925459188E+01 0.73353884525E+01 0.11073135737E+02 0.17479698292E+02 0.26413849729E+02
 0.36684826875E+02 0.47040005890E+02 0.56819720354E+02 0.65487429161E+02 0.82676575912E+02
 0.82671384707E+02 0.76933541496E+02 0.67550339613E+02 0.56818685166E+02 0.45771040204E+02
 0.34615930554E+02 0.24036704931E+02 0.15412285802E+02 0.97228297553E+01 0.66181296420E+01
 0.49337325306E+01 0.41769706195E+01 0.41773344977E+01 0.49342523382E+01 0.66181046810E+01
 0.97225829097E+01 0.15412146205E+02 0.24035525762E+02 0.34612506493E+02 0.45767355828E+02
 0.56819720354E+02 0.67558669067E+02 0.76944661125E+02 0.89456576645E+02 0.85956802562E+02
 0.76944661125E+02 0.65487429161E+02 0.53731509563E+02 0.42119923998E+02 0.30721553941E+02
 0.20496329018E+02 0.12849300448E+02 0.82701630983E+01 0.58523926477E+01 0.45893509890E+01
 0.41972554556E+01 0.45893509890E+01 0.58523926477E+01 0.82701630983E+01 0.12849300448E+02
 0.20496329018E+02 0.30721553941E+02 0.42119923998E+02 0.53731509563E+02 0.65487429161E+02
 0.76944661125E+02 0.85956802562E+02 0.79681434857E+02 0.71852920322E+02 0.61634926581E+02
 0.50767763724E+02 0.39731438095E+02 0.28845003499E+02 0.19191950249E+02 0.12087635318E+02
 0.78779457422E+01 0.56254986095E+01 0.44483348101E+01 0.40845132923E+01 0.44481535825E+01
 0.56254054544E+01 0.78776379677E+01 0.12087149020E+02 0.19193555236E+02 0.28851491904E+02
 0.39740431787E+02 0.50769707666E+02 0.61621070003E+02 0.71826930946E+02 0.79660316731E+02
 0.82676575912E+02 0.71852920322E+02 0.63376102522E+02 0.53437944969E+02 0.42987208864E+02
 0.32382844535E+02 0.22424443647E+02 0.14425862432E+02 0.92132275440E+01 0.63552027498E+01
 0.47834426874E+01 0.40809474295E+01 0.40811020198E+01 0.47837427102E+01 0.63548646527E+01
 0.92114922482E+01 0.14424379240E+02 0.22427579050E+02 0.32392520769E+02 0.42997074950E+02
 0.53436285214E+02 0.63358024011E+02 0.71828938617E+02 0.76933541496E+02 0.76944661125E+02
 0.61634926581E+02 0.53437944969E+02 0.44102454784E+02 0.34237002190E+02 0.24572143519E+02
 0.16296244745E+02 0.10440024079E+02 0.70304636130E+01 0.51298124154E+01 0.41422848247E+01
 0.38394264854E+01 0.41421161202E+01 0.51298163837E+01 0.70298650619E+01 0.10437504563E+02
 0.16292908091E+02 0.24572181978E+02 0.34243329280E+02 0.44112172512E+02 0.53444381273E+02
 0.61634874875E+02 0.67555870638E+02 0.69762018350E+02 0.67558669067E+02 0.50767763724E+02
 0.42987208864E+02 0.34237002190E+02 0.25321180383E+02 0.17332210176E+02 0.11312925298E+02
 0.75665556992E+01 0.54275403534E+01 0.42270527287E+01 0.36994614994E+01 0.36991160196E+01
 0.42267762137E+01 0.54281435666E+01 0.75667135661E+01 0.11309925177E+02 0.17325601366E+02
 0.25315187788E+02 0.34238266808E+02 0.42999302541E+02 0.50787359046E+02 0.56837820669E+02
 0.60225587552E+02 0.60218261026E+02 0.56819720354E+02 0.39731438095E+02 0.32382844535E+02
 0.24572143519E+02 0.17332210176E+02 0.11630100094E+02 0.78700962923E+01 0.56282775134E+01
 0.42984820200E+01 0.36233290568E+01 0.34185969970E+01 0.36233287760E+01 0.42989488621E+01
 0.56295558811E+01 0.78711943306E+01 0.11628363539E+02 0.17325794576E+02 0.24563848717E+02
 0.32380192387E+02 0.39740384627E+02 0.45784856326E+02 0.49794605112E+02 0.51201900449E+02
 0.49780378736E+02 0.45767355828E+02 0.28845003499E+02 0.22424443647E+02 0.16296244745E+02
 0.11312925298E+02 0.78700962923E+01 0.56995547863E+01 0.43380729248E+01 0.35844955808E+01
 0.32563068441E+01 0.32563977181E+01 0.35844319554E+01 0.43379029229E+01 0.57006530080E+01
 0.78732731905E+01 0.11315931661E+02 0.16295196214E+02 0.22418601079E+02 0.28838654888E+02
 0.34610517086E+02 0.38935580607E+02 0.41246932874E+02 0.41245269399E+02 0.38933408777E+02
 0.34612506493E+02 0.19191950249E+02 0.14425862432E+02 0.10440024079E+02 0.75665556992E+01
 0.56282775134E+01 0.43380729248E+01 0.35725332816E+01 0.31824012454E+01 0.30637832938E+01
 0.31820627833E+01 0.35712405389E+01 0.43363178584E+01 0.56283093462E+01 0.75703275845E+01
 0.10446505276E+02 0.14431029866E+02 0.19191893872E+02 0.24029721008E+02 0.28152159619E+02
 0.30901789019E+02 0.31866625141E+02 0.30907571779E+02 0.28160379675E+02 0.24035525762E+02
 0.12087635318E+02 0.92132275440E+01 0.70304636130E+01 0.54275403534E+01 0.42984820200E+01
 0.35844955808E+01 0.31824012454E+01 0.30045150939E+01 0.30046812930E+01 0.31823489704E+01
 0.35829907400E+01 0.42949428551E+01 0.54236212291E+01 0.70297940815E+01 0.92182825272E+01
 0.12096437611E+02 0.15419068222E+02 0.18664404121E+02 0.21237667404E+02 0.22656676860E+02
 0.22658772309E+02 0.21240972100E+02 0.18663435455E+02 0.15412146205E+02 0.78779457422E+01
 0.63552027498E+01 0.51298124154E+01 0.42270527287E+01 0.36233290568E+01 0.32563068441E+01
 0.30637832938E+01 0.30046812930E+01 0.30650578095E+01 0.32580564777E+01 0.36233369902E+01
 0.42229273480E+01 0.51221241629E+01 0.63486059745E+01 0.78776146948E+01 0.97292964902E+01
 0.11756142235E+02 0.13621794561E+02 0.14939953215E+02 0.15414885686E+02 0.14936513891E+02
 0.13614395401E+02 0.11746613972E+02 0.97225829097E+01 0.56254986095E+01 0.47834426874E+01
 0.41422848247E+01 0.36994614994E+01 0.34185969970E+01 0.32563977181E+01 0.31820627833E+01
 0.31823489704E+01 0.32580564777E+01 0.34223441186E+01 0.37033394259E+01 0.41422634714E+01
 0.47773358513E+01 0.56159388294E+01 0.66109842006E+01 0.76805884765E+01 0.87414953537E+01
 0.96225335598E+01 0.10125663435E+02 0.10122457235E+02 0.96152308154E+01 0.87355567459E+01
 0.76808892192E+01 0.66181046810E+01 0.44483348101E+01 0.40809474295E+01 0.38394264854E+01
 0.36991160196E+01 0.36233287760E+01 0.35844319554E+01 0.35712405389E+01 0.35829907400E+01
 0.36233369902E+01 0.37033394259E+01 0.38470918282E+01 0.40873082780E+01 0.44482873297E+01
 0.49270867010E+01 0.54851608882E+01 0.60534083720E+01 0.65464179184E+01 0.68841723042E+01
 0.70042771960E+01 0.68819640909E+01 0.65463741294E+01 0.60590607795E+01 0.54946368759E+01
 0.49342523382E+01 0.40845132923E+01 0.40811020198E+01 0.41421161202E+01 0.42267762137E+01
 0.42989488621E+01 0.43379029229E+01 0.43363178584E+01 0.42949428551E+01 0.42229273480E+01
 0.41422634714E+01 0.40873082780E+01 0.40941004044E+01 0.41842298672E+01 0.43535163329E+01
 0.45720482072E+01 0.47942754869E+01 0.49731243834E+01 0.50722975248E+01 0.50733117537E+01
 0.49767652305E+01 0.48004531342E+01 0.45774934465E+01 0.43534713016E+01 0.41773344977E+01
 0.44481535825E+01 0.47837427102E+01 0.51298163837E+01 0.54281435666E+01 0.56295558811E+01
 0.57006530080E+01 0.56283093462E+01 0.54236212291E+01 0.51221241629E+01 0.47773358513E+01
 0.44482873297E+01 0.41842298672E+01 0.40111105761E+01 0.39258242826E+01 0.39026711230E+01
 0.39092503825E+01 0.39213615699E+01 0.39275049737E+01 0.39242132404E+01 0.39125659057E+01
 0.39026790884E+01 0.39201313487E+01 0.40016914614E+01 0.41769706195E+01 0.56254054544E+01
 0.63548646527E+01 0.70298650619E+01 0.75667135661E+01 0.78711943306E+01 0.78732731905E+01
 0.75703275845E+01 0.70297940815E+01 0.63486059745E+01 0.56159388294E+01 0.49270867010E+01
 0.43535163329E+01 0.39258242826E+01 0.36353679082E+01 0.34515426610E+01 0.33437395548E+01
 0.32936914352E+01 0.32941622966E+01 0.33437103672E+01 0.34485101481E+01 0.36292846205E+01
 0.39203966835E+01 0.43534713016E+01 0.49337325306E+01 0.78776379677E+01 0.92114922482E+01
 0.10437504563E+02 0.11309925177E+02 0.11628363539E+02 0.11315931661E+02 0.10446505276E+02
 0.92182825272E+01 0.78776146948E+01 0.66109842006E+01 0.54851608882E+01 0.45720482072E+01
 0.39026711230E+01 0.34515426610E+01 0.31709865413E+01 0.30192014121E+01 0.29710878193E+01
 0.30181243782E+01 0.31682281352E+01 0.34483416532E+01 0.39026684875E+01 0.45778555631E+01
 0.54946368759E+01 0.66181296420E+01 0.12087149020E+02 0.14424379240E+02 0.16292908091E+02
 0.17325601366E+02 0.17325794576E+02 0.16295196214E+02 0.14431029866E+02 0.12096437611E+02
 0.97292964902E+01 0.76805884765E+01 0.60534083720E+01 0.47942754869E+01 0.39092503825E+01
 0.33437395548E+01 0.30192014121E+01 0.28729151867E+01 0.28724607681E+01 0.30182465489E+01
 0.33437515968E+01 0.39122140255E+01 0.48003218945E+01 0.60590382231E+01 0.76808892192E+01
 0.97228297553E+01 0.19193555236E+02 0.22427579050E+02 0.24572181978E+02 0.25315187788E+02
 0.24563848717E+02 0.22418601079E+02 0.19191893872E+02 0.15419068222E+02 0.11756142235E+02
 0.87414953537E+01 0.65464179184E+01 0.49731243834E+01 0.39213615699E+01 0.32936914352E+01
 0.29710878193E+01 0.28724607681E+01 0.29710935689E+01 0.32947686969E+01 0.39241879451E+01
 0.49762622631E+01 0.65463816213E+01 0.87357188541E+01 0.11746613972E+02 0.15412285802E+02
 0.28851491904E+02 0.32392520769E+02 0.34243329280E+02 0.34238266808E+02 0.32380192387E+02
 0.28838654888E+02 0.24029721008E+02 0.18664404121E+02 0.13621794561E+02 0.96225335598E+01
 0.68841723042E+01 0.50722975248E+01 0.39275049737E+01 0.32941622966E+01 0.30181243782E+01
 0.30182465489E+01 0.32947686969E+01 0.39285341195E+01 0.50723277328E+01 0.68811910152E+01
 0.96163985876E+01 0.13615744687E+02 0.18663435455E+02 0.24036704931E+02 0.39740431787E+02
 0.42997074950E+02 0.44112172512E+02 0.42999302541E+02 0.39740384627E+02 0.34610517086E+02
 0.28152159619E+02 0.21237667404E+02 0.14939953215E+02 0.10125663435E+02 0.70042771960E+01
 0.50733117537E+01 0.39242132404E+01 0.33437103672E+01 0.31682281352E+01 0.33437515968E+01
 0.39241879451E+01 0.50723277328E+01 0.70014889221E+01 0.10122459909E+02 0.14939986131E+02
 0.21243130875E+02 0.28160379675E+02 0.34615930554E+02 0.50769707666E+02 0.53436285214E+02
 0.53444381273E+02 0.50787359046E+02 0.45784856326E+02 0.38935580607E+02 0.30901789019E+02
 0.22656676860E+02 0.15414885686E+02 0.10122457235E+02 0.68819640909E+01 0.49767652305E+01
 0.39125659057E+01 0.34485101481E+01 0.34483416532E+01 0.39122140255E+01 0.49762622631E+01
 0.68811910152E+01 0.10122459909E+02 0.15418151535E+02 0.22663929258E+02 0.30908320707E+02