   1   1   1   0
  0.1919141E+02  0.3005204E-09  0.3005204E-09  0.3005204E-09  0.5000000E-15
  1.000000000000000E-004
  CAR 
 fcc Au                                  
     34.48509665     -6.57855180  301      3.99985725      1.00000000
     -6.579  0.0000E+00  0.0000E+00
     -6.442  0.0000E+00  0.0000E+00
     -6.305 -0.3149E-33 -0.4311E-34
     -6.168 -0.2453E-28 -0.3358E-29
     -6.031 -0.7435E-24 -0.1018E-24
     -5.894 -0.8751E-20 -0.1198E-20
     -5.757 -0.3830E-16 -0.5244E-17
     -5.620 -0.6785E-13 -0.9292E-14
     -5.484 -0.4550E-10 -0.6238E-11
     -5.347 -0.1159E-07 -0.1592E-08
     -5.210 -0.1101E-05 -0.1523E-06
     -5.073 -0.3762E-04 -0.5301E-05
     -4.936 -0.4186E-03 -0.6259E-04
     -4.799 -0.9377E-03 -0.1909E-03
     -4.662  0.3881E-02  0.3403E-03
     -4.525  0.1861E-01  0.2888E-02
     -4.388  0.4255E-01  0.8712E-02
     -4.252  0.5887E-01  0.1677E-01
     -4.115  0.6120E-01  0.2515E-01
     -3.978  0.7232E-01  0.3505E-01
     -3.841  0.1000E+00  0.4874E-01
     -3.704  0.1148E+00  0.6445E-01
     -3.567  0.8546E-01  0.7615E-01
     -3.430  0.9514E-01  0.8917E-01
     -3.293  0.1644E+00  0.1117E+00
     -3.157  0.1758E+00  0.1357E+00
     -3.020  0.1269E+00  0.1531E+00
     -2.883  0.1614E+00  0.1752E+00
     -2.746  0.2102E+00  0.2040E+00
     -2.609  0.2089E+00  0.2326E+00
     -2.472  0.2657E+00  0.2689E+00
     -2.335  0.3844E+00  0.3215E+00
     -2.198  0.5435E+00  0.3959E+00
     -2.062  0.6586E+00  0.4861E+00
     -1.925  0.8894E+00  0.6078E+00
     -1.788  0.1222E+01  0.7751E+00
     -1.651  0.1605E+01  0.9948E+00
     -1.514  0.2007E+01  0.1269E+01
     -1.377  0.2135E+01  0.1562E+01
     -1.240  0.2034E+01  0.1840E+01
     -1.103  0.1844E+01  0.2093E+01
     -0.967  0.1729E+01  0.2329E+01
     -0.830  0.1461E+01  0.2529E+01
     -0.693  0.1627E+01  0.2752E+01
     -0.556  0.2126E+01  0.3043E+01
     -0.419  0.2344E+01  0.3364E+01
     -0.282  0.2341E+01  0.3684E+01
     -0.145  0.2520E+01  0.4029E+01
     -0.008  0.2751E+01  0.4406E+01
      0.129  0.3077E+01  0.4827E+01
      0.265  0.3651E+01  0.5327E+01
      0.402  0.3325E+01  0.5782E+01
      0.539  0.2325E+01  0.6100E+01
      0.676  0.1792E+01  0.6345E+01
      0.813  0.1939E+01  0.6611E+01
      0.950  0.2290E+01  0.6924E+01
      1.087  0.2681E+01  0.7291E+01
      1.224  0.2512E+01  0.7635E+01
      1.360  0.2242E+01  0.7942E+01
      1.497  0.2235E+01  0.8248E+01
      1.634  0.1946E+01  0.8514E+01
      1.771  0.2009E+01  0.8789E+01
      1.908  0.2209E+01  0.9091E+01
      2.045  0.2873E+01  0.9485E+01
      2.182  0.3277E+01  0.9933E+01
      2.319  0.2550E+01  0.1028E+02
      2.455  0.1416E+01  0.1048E+02
      2.592  0.6915E+00  0.1057E+02
      2.729  0.2575E+00  0.1061E+02
      2.866  0.1390E+00  0.1063E+02
      3.003  0.2562E+00  0.1066E+02
      3.140  0.4520E+00  0.1072E+02
      3.277  0.3867E+00  0.1077E+02
      3.414  0.2258E+00  0.1081E+02
      3.550  0.1225E+00  0.1082E+02
      3.687  0.2741E+00  0.1086E+02
      3.824  0.5343E+00  0.1093E+02
      3.961  0.4149E+00  0.1099E+02
      4.098  0.2230E+00  0.1102E+02
      4.235  0.1995E+00  0.1105E+02
      4.372  0.2049E+00  0.1108E+02
      4.509  0.3533E+00  0.1112E+02
      4.646  0.4366E+00  0.1118E+02
      4.782  0.2969E+00  0.1122E+02
      4.919  0.2660E+00  0.1126E+02
      5.056  0.3143E+00  0.1130E+02
      5.193  0.2876E+00  0.1134E+02
      5.330  0.2472E+00  0.1138E+02
      5.467  0.2993E+00  0.1142E+02
      5.604  0.3354E+00  0.1146E+02
      5.741  0.3080E+00  0.1151E+02
      5.877  0.2735E+00  0.1154E+02
      6.014  0.2235E+00  0.1157E+02
      6.151  0.2854E+00  0.1161E+02
      6.288  0.3782E+00  0.1167E+02
      6.425  0.3306E+00  0.1171E+02
      6.562  0.2652E+00  0.1175E+02
      6.699  0.3589E+00  0.1180E+02
      6.836  0.5889E+00  0.1188E+02
      6.972  0.5071E+00  0.1195E+02
      7.109  0.2667E+00  0.1198E+02
      7.246  0.2229E+00  0.1201E+02
      7.383  0.2491E+00  0.1205E+02
      7.520  0.3093E+00  0.1209E+02
      7.657  0.3879E+00  0.1214E+02
      7.794  0.4155E+00  0.1220E+02
      7.931  0.3339E+00  0.1224E+02
      8.067  0.1442E+00  0.1226E+02
      8.204  0.4208E-01  0.1227E+02
      8.341  0.2313E+00  0.1230E+02
      8.478  0.4533E+00  0.1236E+02
      8.615  0.4695E+00  0.1243E+02
      8.752  0.4251E+00  0.1249E+02
      8.889  0.4545E+00  0.1255E+02
      9.026  0.3999E+00  0.1260E+02
      9.163  0.3140E+00  0.1265E+02
      9.299  0.3213E+00  0.1269E+02
      9.436  0.3886E+00  0.1274E+02
      9.573  0.4432E+00  0.1280E+02
      9.710  0.3738E+00  0.1286E+02
      9.847  0.2055E+00  0.1288E+02
      9.984  0.2006E+00  0.1291E+02
     10.121  0.4111E+00  0.1297E+02
     10.258  0.4853E+00  0.1303E+02
     10.394  0.2436E+00  0.1307E+02
     10.531  0.8356E-01  0.1308E+02
     10.668  0.2559E+00  0.1311E+02
     10.805  0.4745E+00  0.1318E+02
     10.942  0.3683E+00  0.1323E+02
     11.079  0.3634E+00  0.1328E+02
     11.216  0.4299E+00  0.1334E+02
     11.353  0.3273E+00  0.1338E+02
     11.489  0.5324E+00  0.1346E+02
     11.626  0.6192E+00  0.1354E+02
     11.763  0.2242E+00  0.1357E+02
     11.900  0.4663E-02  0.1357E+02
     12.037  0.1322E+00  0.1359E+02
     12.174  0.4306E+00  0.1365E+02
     12.311  0.5546E+00  0.1372E+02
     12.448  0.3749E+00  0.1378E+02
     12.584  0.3727E+00  0.1383E+02
     12.721  0.4740E+00  0.1389E+02
     12.858  0.3923E+00  0.1395E+02
     12.995  0.5097E+00  0.1401E+02
     13.132  0.4928E+00  0.1408E+02
     13.269  0.2945E+00  0.1412E+02
     13.406  0.3752E+00  0.1417E+02
     13.543  0.4838E+00  0.1424E+02
     13.680  0.4132E+00  0.1430E+02
     13.816  0.4230E+00  0.1435E+02
     13.953  0.7124E+00  0.1445E+02
     14.090  0.7604E+00  0.1456E+02
     14.227  0.3650E+00  0.1461E+02
     14.364  0.3519E+00  0.1465E+02
     14.501  0.4716E+00  0.1472E+02
     14.638  0.3835E+00  0.1477E+02
     14.775  0.5699E+00  0.1485E+02
     14.911  0.7846E+00  0.1496E+02
     15.048  0.8503E+00  0.1507E+02
     15.185  0.6976E+00  0.1517E+02
     15.322  0.4076E+00  0.1522E+02
     15.459  0.2289E+00  0.1526E+02
     15.596  0.2451E+00  0.1529E+02
     15.733  0.4303E+00  0.1535E+02
     15.870  0.5335E+00  0.1542E+02
     16.006  0.6419E+00  0.1551E+02
     16.143  0.6395E+00  0.1560E+02
     16.280  0.5128E+00  0.1567E+02
     16.417  0.4390E+00  0.1573E+02
     16.554  0.5255E+00  0.1580E+02
     16.691  0.5874E+00  0.1588E+02
     16.828  0.4267E+00  0.1594E+02
     16.965  0.4433E+00  0.1600E+02
     17.101  0.5870E+00  0.1608E+02
     17.238  0.5099E+00  0.1615E+02
     17.375  0.3883E+00  0.1620E+02
     17.512  0.4439E+00  0.1626E+02
     17.649  0.5373E+00  0.1634E+02
     17.786  0.4728E+00  0.1640E+02
     17.923  0.2990E+00  0.1644E+02
     18.060  0.3318E+00  0.1649E+02
     18.197  0.5879E+00  0.1657E+02
     18.333  0.5623E+00  0.1664E+02
     18.470  0.4393E+00  0.1670E+02
     18.607  0.5278E+00  0.1678E+02
     18.744  0.6507E+00  0.1687E+02
     18.881  0.6601E+00  0.1696E+02
     19.018  0.5344E+00  0.1703E+02
     19.155  0.4325E+00  0.1709E+02
     19.292  0.4152E+00  0.1715E+02
     19.428  0.5284E+00  0.1722E+02
     19.565  0.5573E+00  0.1729E+02
     19.702  0.3996E+00  0.1735E+02
     19.839  0.3003E+00  0.1739E+02
     19.976  0.5417E+00  0.1746E+02
     20.113  0.9352E+00  0.1759E+02
     20.250  0.1082E+01  0.1774E+02
     20.387  0.9606E+00  0.1787E+02
     20.523  0.8182E+00  0.1798E+02
     20.660  0.7545E+00  0.1809E+02
     20.797  0.8053E+00  0.1820E+02
     20.934  0.1125E+01  0.1835E+02
     21.071  0.1218E+01  0.1852E+02
     21.208  0.9511E+00  0.1865E+02
     21.345  0.7534E+00  0.1875E+02
     21.482  0.5895E+00  0.1883E+02
     21.618  0.4351E+00  0.1889E+02
     21.755  0.5887E+00  0.1897E+02
     21.892  0.8924E+00  0.1909E+02
     22.029  0.7632E+00  0.1920E+02
     22.166  0.6220E+00  0.1928E+02
     22.303  0.7749E+00  0.1939E+02
     22.440  0.8299E+00  0.1950E+02
     22.577  0.7616E+00  0.1961E+02
     22.714  0.5539E+00  0.1968E+02
     22.850  0.5416E+00  0.1976E+02
     22.987  0.5545E+00  0.1983E+02
     23.124  0.3651E+00  0.1988E+02
     23.261  0.3210E+00  0.1993E+02
     23.398  0.5109E+00  0.2000E+02
     23.535  0.4549E+00  0.2006E+02
     23.672  0.3928E+00  0.2011E+02
     23.809  0.6601E+00  0.2020E+02
     23.945  0.8156E+00  0.2032E+02
     24.082  0.4926E+00  0.2038E+02
     24.219  0.2928E+00  0.2042E+02
     24.356  0.2694E+00  0.2046E+02
     24.493  0.2105E+00  0.2049E+02
     24.630  0.2209E+00  0.2052E+02
     24.767  0.2744E+00  0.2056E+02
     24.904  0.3467E+00  0.2060E+02
     25.040  0.3396E+00  0.2065E+02
     25.177  0.4614E+00  0.2071E+02
     25.314  0.7445E+00  0.2082E+02
     25.451  0.7281E+00  0.2092E+02
     25.588  0.4306E+00  0.2097E+02
     25.725  0.1956E+00  0.2100E+02
     25.862  0.2198E+00  0.2103E+02
     25.999  0.3712E+00  0.2108E+02
     26.135  0.3112E+00  0.2112E+02
     26.272  0.2455E+00  0.2116E+02
     26.409  0.4863E+00  0.2122E+02
     26.546  0.6789E+00  0.2132E+02
     26.683  0.6124E+00  0.2140E+02
     26.820  0.5595E+00  0.2148E+02
     26.957  0.6346E+00  0.2156E+02
     27.094  0.8793E+00  0.2169E+02
     27.231  0.1215E+01  0.2185E+02
     27.367  0.1179E+01  0.2201E+02
     27.504  0.6925E+00  0.2211E+02
     27.641  0.4841E+00  0.2217E+02
     27.778  0.6204E+00  0.2226E+02
     27.915  0.5114E+00  0.2233E+02
     28.052  0.4469E+00  0.2239E+02
     28.189  0.6941E+00  0.2249E+02
     28.326  0.7280E+00  0.2258E+02
     28.462  0.6289E+00  0.2267E+02
     28.599  0.9540E+00  0.2280E+02
     28.736  0.1177E+01  0.2296E+02
     28.873  0.7951E+00  0.2307E+02
     29.010  0.4410E+00  0.2313E+02
     29.147  0.5213E+00  0.2320E+02
     29.284  0.7014E+00  0.2330E+02
     29.421  0.6499E+00  0.2339E+02
     29.557  0.4477E+00  0.2345E+02
     29.694  0.3412E+00  0.2350E+02
     29.831  0.3957E+00  0.2355E+02
     29.968  0.4034E+00  0.2361E+02
     30.105  0.2943E+00  0.2365E+02
     30.242  0.3922E+00  0.2370E+02
     30.379  0.5485E+00  0.2377E+02
     30.516  0.3870E+00  0.2383E+02
     30.652  0.1222E+00  0.2384E+02
     30.789  0.4977E-02  0.2384E+02
     30.926  0.3377E-01  0.2385E+02
     31.063  0.1128E+00  0.2386E+02
     31.200  0.1052E+00  0.2388E+02
     31.337  0.8214E-01  0.2389E+02
     31.474  0.1520E+00  0.2391E+02
     31.611  0.2274E+00  0.2394E+02
     31.748  0.1494E+00  0.2396E+02
     31.884  0.1863E-01  0.2397E+02
     32.021 -0.1190E-01  0.2396E+02
     32.158  0.1125E-02  0.2396E+02
     32.295  0.4444E-01  0.2397E+02
     32.432  0.1025E+00  0.2398E+02
     32.569  0.9683E-01  0.2400E+02
     32.706  0.2602E-01  0.2400E+02
     32.843 -0.4409E-02  0.2400E+02
     32.979 -0.1937E-02  0.2400E+02
     33.116 -0.1598E-03  0.2400E+02
     33.253 -0.4349E-05  0.2400E+02
     33.390 -0.4316E-07  0.2400E+02
     33.527 -0.1618E-09  0.2400E+02
     33.664 -0.2325E-12  0.2400E+02
     33.801 -0.1363E-15  0.2400E+02
     33.938  0.0000E+00  0.2400E+02
     34.074  0.0000E+00  0.2400E+02
     34.211  0.0000E+00  0.2400E+02
     34.348  0.0000E+00  0.2400E+02
     34.485  0.0000E+00  0.2400E+02
     34.48509665     -6.57855180  301      3.99985725      1.00000000
     -6.579  0.0000E+00  0.0000E+00  0.0000E+00
     -6.442  0.0000E+00  0.0000E+00  0.0000E+00
     -6.305 -0.1917E-33 -0.1176E-35 -0.2860E-37
     -6.168 -0.1493E-28 -0.9161E-31 -0.2228E-32
     -6.031 -0.4525E-24 -0.2776E-26 -0.6753E-28
     -5.894 -0.5326E-20 -0.3268E-22 -0.7948E-24
     -5.757 -0.2331E-16 -0.1430E-18 -0.3479E-20
     -5.620 -0.4129E-13 -0.2534E-15 -0.6164E-17
     -5.484 -0.2769E-10 -0.1700E-12 -0.4137E-14
     -5.347 -0.7053E-08 -0.4333E-10 -0.1057E-11
     -5.210 -0.6702E-06 -0.4134E-08 -0.1019E-09
     -5.073 -0.2289E-04 -0.1439E-06 -0.3714E-08
     -4.936 -0.2545E-03 -0.1765E-05 -0.5543E-07
     -4.799 -0.5665E-03 -0.7577E-05 -0.4417E-06
     -4.662  0.2386E-02 -0.8667E-05 -0.1856E-05
     -4.525  0.1131E-01  0.8585E-04  0.6904E-06
     -4.388  0.2559E-01  0.4612E-03  0.2445E-04
     -4.252  0.3512E-01  0.8977E-03  0.8446E-04
     -4.115  0.3609E-01  0.1302E-02  0.1880E-03
     -3.978  0.4202E-01  0.2063E-02  0.3720E-03
     -3.841  0.5726E-01  0.3500E-02  0.8249E-03
     -3.704  0.6501E-01  0.4460E-02  0.1385E-02
     -3.567  0.4776E-01  0.3621E-02  0.1522E-02
     -3.430  0.5175E-01  0.4927E-02  0.2424E-02
     -3.293  0.8786E-01  0.9293E-02  0.5319E-02
     -3.157  0.9272E-01  0.1035E-01  0.6834E-02
     -3.020  0.6524E-01  0.7896E-02  0.6820E-02
     -2.883  0.7965E-01  0.1078E-01  0.1249E-01
     -2.746  0.1009E+00  0.1433E-01  0.1973E-01
     -2.609  0.9670E-01  0.1507E-01  0.2333E-01
     -2.472  0.1175E+00  0.1954E-01  0.3725E-01
     -2.335  0.1497E+00  0.2389E-01  0.9043E-01
     -2.198  0.1726E+00  0.2423E-01  0.1988E+00
     -2.062  0.1784E+00  0.2501E-01  0.2909E+00
     -1.925  0.2127E+00  0.3612E-01  0.4244E+00
     -1.788  0.2341E+00  0.4433E-01  0.6659E+00
     -1.651  0.2254E+00  0.4815E-01  0.1005E+01
     -1.514  0.2102E+00  0.5150E-01  0.1378E+01
     -1.377  0.1765E+00  0.5273E-01  0.1544E+01
     -1.240  0.1291E+00  0.5019E-01  0.1531E+01
     -1.103  0.9013E-01  0.5115E-01  0.1420E+01
     -0.967  0.5725E-01  0.5306E-01  0.1362E+01
     -0.830  0.2628E-01  0.5072E-01  0.1173E+01
     -0.693  0.1695E-01  0.6467E-01  0.1315E+01
     -0.556  0.1891E-01  0.8215E-01  0.1734E+01
     -0.419  0.2087E-01  0.7785E-01  0.1944E+01
     -0.282  0.2648E-01  0.6661E-01  0.1969E+01
     -0.145  0.3781E-01  0.7772E-01  0.2114E+01
     -0.008  0.4839E-01  0.9057E-01  0.2303E+01
      0.129  0.4870E-01  0.8774E-01  0.2623E+01
      0.265  0.4733E-01  0.1078E+00  0.3135E+01
      0.402  0.5110E-01  0.1170E+00  0.2819E+01
      0.539  0.4559E-01  0.8672E-01  0.1954E+01
      0.676  0.2604E-01  0.6096E-01  0.1534E+01
      0.813  0.2003E-01  0.6586E-01  0.1677E+01
      0.950  0.2826E-01  0.7134E-01  0.1993E+01
      1.087  0.3289E-01  0.6994E-01  0.2365E+01
      1.224  0.2650E-01  0.5229E-01  0.2252E+01
      1.360  0.1913E-01  0.3822E-01  0.2040E+01
      1.497  0.1978E-01  0.4512E-01  0.2028E+01
      1.634  0.1593E-01  0.3835E-01  0.1776E+01
      1.771  0.1486E-01  0.3118E-01  0.1858E+01
      1.908  0.2012E-01  0.3068E-01  0.2052E+01
      2.045  0.2341E-01  0.2672E-01  0.2706E+01
      2.182  0.1618E-01  0.1773E-01  0.3132E+01
      2.319  0.1086E-01  0.1334E-01  0.2446E+01
      2.455  0.2657E-01  0.1870E-01  0.1314E+01
      2.592  0.4260E-01  0.2535E-01  0.5748E+00
      2.729  0.3137E-01  0.2429E-01  0.1664E+00
      2.866  0.2208E-01  0.2527E-01  0.6033E-01
      3.003  0.3162E-01  0.2857E-01  0.1572E+00
      3.140  0.5635E-01  0.3800E-01  0.3009E+00
      3.277  0.5260E-01  0.3695E-01  0.2442E+00
      3.414  0.3562E-01  0.3037E-01  0.1207E+00
      3.550  0.2216E-01  0.1729E-01  0.6073E-01
      3.687  0.4537E-01  0.3558E-01  0.1457E+00
      3.824  0.8184E-01  0.8485E-01  0.2634E+00
      3.961  0.6360E-01  0.7557E-01  0.1872E+00
      4.098  0.4028E-01  0.4266E-01  0.9106E-01
      4.235  0.3944E-01  0.3465E-01  0.8424E-01
      4.372  0.4316E-01  0.2953E-01  0.9310E-01
      4.509  0.7280E-01  0.5761E-01  0.1494E+00
      4.646  0.8489E-01  0.8350E-01  0.1694E+00
      4.782  0.5946E-01  0.5970E-01  0.1090E+00
      4.919  0.5242E-01  0.5337E-01  0.9902E-01
      5.056  0.5515E-01  0.7076E-01  0.1112E+00
      5.193  0.6085E-01  0.6088E-01  0.9573E-01
      5.330  0.6102E-01  0.5198E-01  0.7249E-01
      5.467  0.7506E-01  0.6214E-01  0.8844E-01
      5.604  0.8563E-01  0.6264E-01  0.1090E+00
      5.741  0.7383E-01  0.6192E-01  0.9814E-01
      5.877  0.6179E-01  0.6461E-01  0.7668E-01
      6.014  0.4599E-01  0.6310E-01  0.5074E-01
      6.151  0.7906E-01  0.6071E-01  0.7176E-01
      6.288  0.1216E+00  0.6396E-01  0.1021E+00
      6.425  0.1057E+00  0.5871E-01  0.8672E-01
      6.562  0.9414E-01  0.3981E-01  0.7173E-01
      6.699  0.1504E+00  0.3572E-01  0.9983E-01
      6.836  0.2398E+00  0.7543E-01  0.1407E+00
      6.972  0.1998E+00  0.7358E-01  0.1128E+00
      7.109  0.9097E-01  0.4978E-01  0.5784E-01
      7.246  0.7844E-01  0.4328E-01  0.4363E-01
      7.383  0.1092E+00  0.3136E-01  0.5052E-01
      7.520  0.1332E+00  0.4144E-01  0.6131E-01
      7.657  0.1245E+00  0.8203E-01  0.7776E-01
      7.794  0.1092E+00  0.1028E+00  0.8674E-01
      7.931  0.9699E-01  0.7821E-01  0.6499E-01
      8.067  0.4285E-01  0.3419E-01  0.2518E-01
      8.204  0.4416E-02  0.1511E-01  0.8678E-02
      8.341  0.3492E-01  0.7580E-01  0.4922E-01
      8.478  0.9987E-01  0.1317E+00  0.8520E-01
      8.615  0.1157E+00  0.1320E+00  0.8047E-01
      8.752  0.1109E+00  0.1188E+00  0.6742E-01
      8.889  0.1472E+00  0.1135E+00  0.6342E-01
      9.026  0.1398E+00  0.9222E-01  0.5944E-01
      9.163  0.1095E+00  0.6765E-01  0.5368E-01
      9.299  0.7841E-01  0.9063E-01  0.5706E-01
      9.436  0.7114E-01  0.1309E+00  0.6125E-01
      9.573  0.7981E-01  0.1481E+00  0.7392E-01
      9.710  0.6816E-01  0.1194E+00  0.6975E-01
      9.847  0.4443E-01  0.6291E-01  0.3370E-01
      9.984  0.5489E-01  0.5799E-01  0.2387E-01
     10.121  0.1067E+00  0.1188E+00  0.5578E-01
     10.258  0.1305E+00  0.1411E+00  0.5988E-01
     10.394  0.7255E-01  0.7103E-01  0.2162E-01
     10.531  0.3152E-01  0.2235E-01  0.5067E-02
     10.668  0.6781E-01  0.7701E-01  0.3318E-01
     10.805  0.1130E+00  0.1452E+00  0.6556E-01
     10.942  0.8702E-01  0.1105E+00  0.5318E-01
     11.079  0.5981E-01  0.1171E+00  0.6880E-01
     11.216  0.6234E-01  0.1405E+00  0.8639E-01
     11.353  0.5374E-01  0.1116E+00  0.5304E-01
     11.489  0.8198E-01  0.1940E+00  0.7505E-01
     11.626  0.9280E-01  0.2221E+00  0.9011E-01
     11.763  0.3750E-01  0.7675E-01  0.3124E-01
     11.900  0.4440E-02 -0.2042E-02  0.8617E-03
     12.037  0.1771E-01  0.4444E-01  0.2521E-01
     12.174  0.4544E-01  0.1623E+00  0.7329E-01
     12.311  0.6727E-01  0.2114E+00  0.8103E-01
     12.448  0.6210E-01  0.1353E+00  0.4368E-01
     12.584  0.7032E-01  0.1269E+00  0.4417E-01
     12.721  0.7271E-01  0.1676E+00  0.7149E-01
     12.858  0.4194E-01  0.1471E+00  0.6829E-01
     12.995  0.3202E-01  0.2057E+00  0.8756E-01
     13.132  0.2271E-01  0.1971E+00  0.9040E-01
     13.269  0.1511E-01  0.1040E+00  0.6292E-01
     13.406  0.3089E-01  0.1306E+00  0.7002E-01
     13.543  0.4360E-01  0.1801E+00  0.7143E-01
     13.680  0.4627E-01  0.1560E+00  0.4544E-01
     13.816  0.5252E-01  0.1654E+00  0.4247E-01
     13.953  0.4250E-01  0.2978E+00  0.9703E-01
     14.090  0.2155E-01  0.3116E+00  0.1251E+00
     14.227  0.6451E-02  0.1440E+00  0.6501E-01
     14.364  0.1157E-01  0.1463E+00  0.5070E-01
     14.501  0.2271E-01  0.1878E+00  0.7414E-01
     14.638  0.2762E-01  0.1415E+00  0.6158E-01
     14.775  0.4073E-01  0.2117E+00  0.8592E-01
     14.911  0.5105E-01  0.3058E+00  0.1152E+00
     15.048  0.4413E-01  0.3488E+00  0.1197E+00
     15.185  0.2654E-01  0.2868E+00  0.9692E-01
     15.322  0.1289E-01  0.1629E+00  0.6085E-01
     15.459  0.1034E-01  0.8702E-01  0.3954E-01
     15.596  0.1221E-01  0.9678E-01  0.4074E-01
     15.733  0.1302E-01  0.1707E+00  0.6894E-01
     15.870  0.1590E-01  0.2012E+00  0.8460E-01
     16.006  0.2807E-01  0.2376E+00  0.1013E+00
     16.143  0.2788E-01  0.2483E+00  0.9851E-01
     16.280  0.2323E-01  0.2056E+00  0.7220E-01
     16.417  0.2008E-01  0.1766E+00  0.6018E-01
     16.554  0.2051E-01  0.2087E+00  0.7732E-01
     16.691  0.1803E-01  0.2304E+00  0.8755E-01
     16.828  0.1042E-01  0.1604E+00  0.6646E-01
     16.965  0.1142E-01  0.1681E+00  0.6945E-01
     17.101  0.1804E-01  0.2151E+00  0.9560E-01
     17.238  0.2009E-01  0.1659E+00  0.8848E-01
     17.375  0.1807E-01  0.1290E+00  0.5771E-01
     17.512  0.1511E-01  0.1641E+00  0.6153E-01
     17.649  0.1122E-01  0.1899E+00  0.8213E-01
     17.786  0.8741E-02  0.1621E+00  0.6862E-01
     17.923  0.5079E-02  0.1142E+00  0.3612E-01
     18.060  0.3680E-02  0.1306E+00  0.4626E-01
     18.197  0.8580E-02  0.2130E+00  0.8781E-01
     18.333  0.1455E-01  0.1977E+00  0.7506E-01
     18.470  0.1684E-01  0.1403E+00  0.5453E-01
     18.607  0.1561E-01  0.1409E+00  0.6826E-01
     18.744  0.1423E-01  0.1540E+00  0.7758E-01
     18.881  0.1279E-01  0.1489E+00  0.7525E-01
     19.018  0.9244E-02  0.1128E+00  0.6528E-01
     19.155  0.6721E-02  0.9581E-01  0.5714E-01
     19.292  0.6111E-02  0.1052E+00  0.4454E-01
     19.428  0.8112E-02  0.1242E+00  0.4829E-01
     19.565  0.7782E-02  0.1094E+00  0.5296E-01
     19.702  0.4913E-02  0.5895E-01  0.3694E-01
     19.839  0.2432E-02  0.5536E-01  0.2549E-01
     19.976  0.9782E-02  0.1528E+00  0.4949E-01
     20.113  0.2985E-01  0.2267E+00  0.9308E-01
     20.250  0.3871E-01  0.1949E+00  0.1150E+00
     20.387  0.2895E-01  0.1593E+00  0.1067E+00
     20.523  0.1839E-01  0.1760E+00  0.9661E-01
     20.660  0.1698E-01  0.1646E+00  0.9977E-01
     20.797  0.2738E-01  0.1594E+00  0.1100E+00
     20.934  0.5509E-01  0.2167E+00  0.1603E+00
     21.071  0.6773E-01  0.2221E+00  0.1899E+00
     21.208  0.4276E-01  0.1930E+00  0.1511E+00
     21.345  0.2034E-01  0.1826E+00  0.1045E+00
     21.482  0.1262E-01  0.1521E+00  0.7011E-01
     21.618  0.5409E-02  0.1244E+00  0.4012E-01
     21.755  0.7000E-02  0.1778E+00  0.4715E-01
     21.892  0.9745E-02  0.2564E+00  0.8208E-01
     22.029  0.6721E-02  0.2065E+00  0.7597E-01
     22.166  0.1584E-01  0.1354E+00  0.9577E-01
     22.303  0.2839E-01  0.1322E+00  0.1539E+00
     22.440  0.2165E-01  0.1332E+00  0.1576E+00
     22.577  0.9661E-02  0.1461E+00  0.1165E+00
     22.714  0.8052E-02  0.1245E+00  0.9021E-01
     22.850  0.1105E-01  0.1195E+00  0.1114E+00
     22.987  0.9103E-02  0.1213E+00  0.1083E+00
     23.124  0.4818E-02  0.8529E-01  0.4870E-01
     23.261  0.3038E-02  0.7971E-01  0.2406E-01
     23.398  0.5106E-02  0.1338E+00  0.3713E-01
     23.535  0.8162E-02  0.1178E+00  0.3798E-01
     23.672  0.1135E-01  0.8088E-01  0.5807E-01
     23.809  0.1920E-01  0.9010E-01  0.1433E+00
     23.945  0.2692E-01  0.1348E+00  0.1788E+00
     24.082  0.1912E-01  0.1422E+00  0.7611E-01
     24.219  0.8843E-02  0.1183E+00  0.1041E-01
     24.356  0.4502E-02  0.8752E-01  0.1079E-01
     24.493  0.1857E-02  0.4424E-01  0.1687E-01
     24.630  0.1199E-02  0.4515E-01  0.2134E-01
     24.767  0.8623E-03  0.6756E-01  0.2470E-01
     24.904  0.1183E-02  0.7593E-01  0.3318E-01
     25.040  0.2723E-02  0.6704E-01  0.4259E-01
     25.177  0.1069E-01  0.1160E+00  0.6423E-01
     25.314  0.2404E-01  0.1569E+00  0.1100E+00
     25.451  0.2274E-01  0.1207E+00  0.1048E+00
     25.588  0.1003E-01  0.6081E-01  0.4887E-01
     25.725  0.2777E-02  0.1667E-01  0.2026E-01
     25.862  0.6456E-03  0.1252E-01  0.3717E-01
     25.999  0.1872E-02  0.4168E-01  0.6192E-01
     26.135  0.3023E-02  0.4820E-01  0.4604E-01
     26.272  0.2577E-02  0.2952E-01  0.3820E-01
     26.409  0.3836E-02  0.3891E-01  0.9342E-01
     26.546  0.3790E-02  0.4976E-01  0.1412E+00
     26.683  0.4227E-02  0.4372E-01  0.1248E+00
     26.820  0.1181E-01  0.4398E-01  0.1125E+00
     26.957  0.1834E-01  0.5518E-01  0.1453E+00
     27.094  0.1584E-01  0.5460E-01  0.2246E+00
     27.231  0.1315E-01  0.5920E-01  0.3056E+00
     27.367  0.1220E-01  0.5206E-01  0.3075E+00
     27.504  0.8777E-02  0.2218E-01  0.2002E+00
     27.641  0.5593E-02  0.2821E-01  0.1225E+00
     27.778  0.4738E-02  0.4781E-01  0.1582E+00
     27.915  0.3101E-02  0.4713E-01  0.1328E+00
     28.052  0.4710E-02  0.3486E-01  0.1038E+00
     28.189  0.1166E-01  0.3412E-01  0.1681E+00
     28.326  0.1560E-01  0.3471E-01  0.1691E+00
     28.462  0.2138E-01  0.2588E-01  0.1363E+00
     28.599  0.3328E-01  0.3550E-01  0.2090E+00
     28.736  0.3281E-01  0.5088E-01  0.2519E+00
     28.873  0.1836E-01  0.4020E-01  0.1544E+00
     29.010  0.1200E-01  0.1928E-01  0.7579E-01
     29.147  0.1710E-01  0.1782E-01  0.9525E-01
     29.284  0.2117E-01  0.2915E-01  0.1337E+00
     29.421  0.2158E-01  0.3064E-01  0.1283E+00
     29.557  0.1314E-01  0.1628E-01  0.8525E-01
     29.694  0.6722E-02  0.8410E-02  0.6328E-01
     29.831  0.1570E-01  0.2026E-01  0.7684E-01
     29.968  0.1768E-01  0.2050E-01  0.7251E-01
     30.105  0.6240E-02  0.6877E-02  0.4114E-01
     30.242  0.2635E-02  0.6442E-02  0.3992E-01
     30.379  0.9695E-02  0.1518E-01  0.5595E-01
     30.516  0.1492E-01  0.1495E-01  0.4362E-01
     30.652  0.1113E-01  0.7644E-02  0.1482E-01
     30.789  0.2441E-02  0.1273E-02  0.5263E-03
     30.926 -0.5037E-03  0.1301E-03  0.2868E-02
     31.063  0.3694E-03  0.1671E-02  0.1042E-01
     31.200  0.6254E-03  0.1612E-02  0.9610E-02
     31.337  0.1489E-03  0.4485E-03  0.6000E-02
     31.474  0.1487E-03  0.7778E-03  0.8854E-02
     31.611  0.2835E-03  0.2086E-02  0.1109E-01
     31.748  0.1158E-03  0.1684E-02  0.6014E-02
     31.884 -0.4429E-05  0.2613E-03  0.5130E-03
     32.021 -0.7400E-05 -0.1002E-03 -0.4191E-03
     32.158 -0.9871E-06 -0.4565E-04 -0.1465E-03
     32.295 -0.4577E-07  0.1184E-04  0.5096E-03
     32.432  0.2416E-07  0.3686E-03  0.2619E-02
     32.569  0.4443E-07  0.6159E-03  0.3459E-02
     32.706  0.1737E-07  0.2298E-03  0.1119E-02
     32.843 -0.1473E-08 -0.2179E-04 -0.1413E-03
     32.979 -0.1123E-08 -0.1498E-04 -0.7607E-04
     33.116 -0.1051E-09 -0.1374E-05 -0.6583E-05
     33.253 -0.3101E-11 -0.3998E-07 -0.1846E-06
     33.390 -0.3268E-13 -0.4174E-09 -0.1874E-08
     33.527 -0.1284E-15 -0.1627E-11 -0.7154E-11
     33.664 -0.1914E-18 -0.2414E-14 -0.1043E-13
     33.801 -0.1098E-21 -0.1389E-17 -0.6063E-17
     33.938  0.0000E+00  0.0000E+00  0.0000E+00
     34.074  0.0000E+00  0.0000E+00  0.0000E+00
     34.211  0.0000E+00  0.0000E+00  0.0000E+00
     34.348  0.0000E+00  0.0000E+00  0.0000E+00
     34.485  0.0000E+00  0.0000E+00  0.0000E+00
