    1    1    1    1
  0.1919141E+02  0.3005204E-09  0.3005204E-09  0.3005204E-09  0.5000000E-15
  1.000000000000000E-004
  CAR 
 fcc Au                                  
     11    110     12
 
  0.5000000E-01  0.5000000E-01  0.5000000E-01  0.2000000E-02
    1       -4.578552   1.000000
    2       -0.060850   1.000000
    3       -0.013937   1.000000
    4       -0.013937   1.000000
    5        1.199967   1.000000
    6        1.199967   1.000000
    7       19.406101   0.000000
    8       21.782015   0.000000
    9       22.508921   0.000000
   10       22.508921   0.000000
   11       27.075167   0.000000
   12       29.269508   0.000000
 
  0.1500000E+00  0.5000000E-01  0.5000000E-01  0.6000000E-02
    1       -4.169927   1.000000
    2       -0.180290   1.000000
    3        0.100338   1.000000
    4        0.127815   1.000000
    5        1.086469   1.000000
    6        1.242972   1.000000
    7       19.315725   0.000000
    8       20.036423   0.000000
    9       21.986243   0.000000
   10       23.303567   0.000000
   11       26.124533   0.000000
   12       28.656397   0.000000
 
  0.2500000E+00  0.5000000E-01  0.5000000E-01  0.6000000E-02
    1       -3.275104   1.000000
    2       -0.260124   1.000000
    3        0.230206   1.000000
    4        0.245253   1.000000
    5        1.099734   1.000000
    6        1.424347   1.000000
    7       15.843217   0.000000
    8       19.960459   0.000000
    9       21.913692   0.000000
   10       24.052056   0.000000
   11       24.606922   0.000000
   12       26.583357   0.000000
 
  0.3500000E+00  0.5000000E-01  0.5000000E-01  0.6000000E-02
    1       -2.446358   1.000000
    2        0.087908   1.000000
    3        0.153393   1.000000
    4        0.345586   1.000000
    5        1.494072   1.000000
    6        1.892832   1.000000
    7       11.938121   0.000000
    8       19.407005   0.000000
    9       20.917511   0.000000
   10       22.807872   0.000000
   11       25.652500   0.000000
   12       26.509345   0.000000
 
  0.4500000E+00  0.5000000E-01  0.5000000E-01  0.6000000E-02
    1       -2.219923   1.000000
    2       -0.036925   1.000000
    3        0.018539   1.000000
    4        1.637038   1.000000
    5        1.973440   1.000000
    6        2.790634   1.000000
    7        8.329670  -0.000000
    8       18.819965   0.000000
    9       20.111367   0.000000
   10       21.126608   0.000000
   11       27.020500   0.000000
   12       27.136199   0.000000
 
 -0.4500000E+00  0.5000000E-01  0.5000000E-01  0.6000000E-02
    1       -2.209719   1.000000
    2       -0.090656   1.000000
    3       -0.013365   1.000000
    4        1.892833   1.000000
    5        2.194166   1.000000
    6        3.851942   0.972935
    7        6.629959  -0.000000
    8       18.669480   0.000000
    9       20.170469   0.000000
   10       20.307899   0.000000
   11       27.348603   0.000000
   12       27.395955   0.000000
 
 -0.3500000E+00  0.5000000E-01  0.5000000E-01  0.6000000E-02
    1       -2.250307   1.000000
    2       -0.012242   1.000000
    3        0.075641   1.000000
    4        1.170931   1.000000
    5        2.037301   1.000000
    6        2.243311   1.000000
    7        9.458924  -0.000000
    8       19.057325   0.000000
    9       20.489682   0.000000
   10       21.227028   0.000000
   11       26.956722   0.000000
   12       27.226935   0.000000
 
 -0.2500000E+00  0.5000000E-01  0.5000000E-01  0.6000000E-02
    1       -2.660221   1.000000
    2       -0.033308   1.000000
    3        0.174731   1.000000
    4        0.214132   1.000000
    5        1.430330   1.000000
    6        1.631869   1.000000
    7       13.231067   0.000000
    8       19.814368   0.000000
    9       21.260193   0.000000
   10       22.934767   0.000000
   11       25.318739   0.000000
   12       27.130017   0.000000
 
 -0.1500000E+00  0.5000000E-01  0.5000000E-01  0.6000000E-02
    1       -3.606155   1.000000
    2       -0.276726   1.000000
    3        0.220923   1.000000
    4        0.230375   1.000000
    5        1.063208   1.000000
    6        1.320377   1.000000
    7       17.125306   0.000000
    8       20.193674   0.000000
    9       21.873577   0.000000
   10       23.632646   0.000000
   11       24.905487   0.000000
   12       27.639681   0.000000
 
 -0.5000000E-01  0.5000000E-01  0.5000000E-01  0.6000000E-02
    1       -4.371033   1.000000
    2       -0.146182   1.000000
    3        0.065149   1.000000
    4        0.070367   1.000000
    5        1.104175   1.000000
    6        1.248119   1.000000
    7       19.545943   0.000000
    8       20.887563   0.000000
    9       22.123032   0.000000
   10       22.571524   0.000000
   11       27.250868   0.000000
   12       28.683956   0.000000
 
  0.1500000E+00  0.1500000E+00  0.5000000E-01  0.6000000E-02
    1       -3.966698   1.000000
    2       -0.318166   1.000000
    3        0.230861   1.000000
    4        0.233134   1.000000
    5        0.932919   1.000000
    6        1.337304   1.000000
    7       19.566048   0.000000
    8       20.181458   0.000000
    9       21.292149   0.000000
   10       22.097711   0.000000
   11       26.021579   0.000000
   12       28.307744   0.000000
 
  0.2500000E+00  0.1500000E+00  0.5000000E-01  0.1200000E-01
    1       -3.225216   1.000000
    2       -0.513429   1.000000
    3        0.316748   1.000000
    4        0.461588   1.000000
    5        0.900150   1.000000
    6        1.520525   1.000000
    7       17.346872   0.000000
    8       19.155943   0.000000
    9       21.276169   0.000000
   10       22.433961   0.000000
   11       23.995130   0.000000
   12       27.578716   0.000000
 
  0.3500000E+00  0.1500000E+00  0.5000000E-01  0.1200000E-01
    1       -2.296512   1.000000
    2       -0.427536   1.000000
    3        0.078719   1.000000
    4        0.471485   1.000000
    5        1.443540   1.000000
    6        2.005397   1.000000
    7       13.451437   0.000000
    8       18.554082   0.000000
    9       20.284513   0.000000
   10       21.784574   0.000000
   11       25.371352   0.000000
   12       27.322156   0.000000
 
  0.4500000E+00  0.1500000E+00  0.5000000E-01  0.1200000E-01
    1       -1.921814   1.000000
    2       -0.162882   1.000000
    3        0.287566   1.000000
    4        0.437901   1.000000
    5        2.031398   1.000000
    6        3.099736   1.000000
    7        9.682901   0.000000
    8       18.223510   0.000000
    9       18.921556   0.000000
   10       20.701474   0.000000
   11       27.221776   0.000000
   12       28.131091   0.000000
 
 -0.4500000E+00  0.1500000E+00  0.5000000E-01  0.1200000E-01
    1       -1.893166   1.000000
    2       -0.266942   1.000000
    3        0.231813   1.000000
    4        1.074133   1.000000
    5        2.158602   1.000000
    6        5.017282  -0.000000
    7        6.669088  -0.000000
    8       17.858595   0.000000
    9       18.462992   0.000000
   10       20.210517   0.000000
   11       27.403315   0.000000
   12       28.559762   0.000000
 
 -0.3500000E+00  0.1500000E+00  0.5000000E-01  0.1200000E-01
    1       -1.884732   1.000000
    2       -0.203538   1.000000
    3        0.252874   1.000000
    4        0.814818   1.000000
    5        1.913108   1.000000
    6        3.746060   1.035174
    7        8.591387  -0.000000
    8       17.372648   0.000000
    9       19.208169   0.000000
   10       20.885612   0.000000
   11       26.819746   0.000000
   12       28.153463   0.000000
 
 -0.2500000E+00  0.1500000E+00  0.5000000E-01  0.1200000E-01
    1       -2.071502   1.000000
    2       -0.195512   1.000000
    3        0.057676   1.000000
    4        0.405396   1.000000
    5        1.362666   1.000000
    6        2.468603   1.000000
    7       12.182692   0.000000
    8       17.529106   0.000000
    9       20.333756   0.000000
   10       22.573932   0.000000
   11       25.309241   0.000000
   12       27.316398   0.000000
 
 -0.1500000E+00  0.1500000E+00  0.5000000E-01  0.1200000E-01
    1       -2.902307   1.000000
    2       -0.473945   1.000000
    3        0.235004   1.000000
    4        0.479953   1.000000
    5        0.893250   1.000000
    6        1.738743   1.000000
    7       15.975811   0.000000
    8       18.134334   0.000000
    9       21.902088   0.000000
   10       22.832443   0.000000
   11       25.161064   0.000000
   12       26.356273   0.000000
 
 -0.5000000E-01  0.1500000E+00  0.5000000E-01  0.1200000E-01
    1       -3.778631   1.000000
    2       -0.312013   1.000000
    3        0.233869   1.000000
    4        0.240665   1.000000
    5        0.966009   1.000000
    6        1.347982   1.000000
    7       18.410040   0.000000
    8       19.713842   0.000000
    9       21.599082   0.000000
   10       23.340086   0.000000
   11       25.204944   0.000000
   12       27.882457   0.000000
 
  0.2500000E+00  0.2500000E+00  0.5000000E-01  0.6000000E-02
    1       -2.723070   1.000000
    2       -0.804055   1.000000
    3        0.450934   1.000000
    4        0.775118   1.000000
    5        0.937664   1.000000
    6        1.615113   1.000000
    7       17.705854   0.000000
    8       18.747317   0.000000
    9       20.276766   0.000000
   10       20.821634   0.000000
   11       21.333655   0.000000
   12       29.265584   0.000000
 
  0.3500000E+00  0.2500000E+00  0.5000000E-01  0.1200000E-01
    1       -1.983899   1.000000
    2       -0.985166   1.000000
    3        0.249334   1.000000
    4        1.060129   1.000000
    5        1.483365   1.000000
    6        2.022791   1.000000
    7       15.076893   0.000000
    8       16.960033   0.000000
    9       18.558077   0.000000
   10       21.086709   0.000000
   11       22.497574   0.000000
   12       29.221386   0.000000
 
  0.4500000E+00  0.2500000E+00  0.5000000E-01  0.1200000E-01
    1       -1.548908   1.000000
    2       -0.753553   1.000000
    3        0.052067   1.000000
    4        0.954782   1.000000
    5        2.098015   1.000000
    6        3.324648   1.000010
    7       11.287525   0.000000
    8       16.258647   0.000000
    9       16.958255   0.000000
   10       20.878557   0.000000
   11       25.454947   0.000000
   12       28.953274   0.000000
 
 -0.4500000E+00  0.2500000E+00  0.5000000E-01  0.1200000E-01
    1       -1.446342   1.000000
    2       -0.529220   1.000000
    3        0.238050   1.000000
    4        0.795193   1.000000
    5        2.187753   1.000000
    6        5.547507  -0.000000
    7        7.967641  -0.000000
    8       15.028513   0.000000
    9       17.021283   0.000000
   10       20.654697   0.000000
   11       28.051243   0.000000
   12       29.197807   0.000000
 
 -0.3500000E+00  0.2500000E+00  0.5000000E-01  0.1200000E-01
    1       -1.307918   1.000000
    2       -0.482762   1.000000
    3        0.273115   1.000000
    4        0.710074   1.000000
    5        1.873138   1.000000
    6        5.398203  -0.000000
    7        8.399104  -0.000000
    8       14.036348   0.000000
    9       18.137625   0.000000
   10       20.849796   0.000000
   11       27.373934   0.000000
   12       29.587859   0.000000
 
 -0.2500000E+00  0.2500000E+00  0.5000000E-01  0.1200000E-01
    1       -1.251221   1.000000
    2       -0.434700   1.000000
    3       -0.197389   1.000000
    4        0.778850   1.000000
    5        1.325973   1.000000
    6        3.702407   1.028216
    7       11.567988   0.000000
    8       13.935937   0.000000
    9       19.527140   0.000000
   10       21.915660   0.000000
   11       25.570257   0.000000
   12       29.273978   0.000000
 
 -0.1500000E+00  0.2500000E+00  0.5000000E-01  0.1200000E-01
    1       -1.949001   1.000000
    2       -0.531515   1.000000
    3        0.028008   1.000000
    4        0.672223   1.000000
    5        1.007229   1.000000
    6        2.537133   1.000000
    7       13.581073   0.000000
    8       16.034980   0.000000
    9       20.713491   0.000000
   10       23.336112   0.000000
   11       24.241052   0.000000
   12       27.736785   0.000000
 
 -0.5000000E-01  0.2500000E+00  0.5000000E-01  0.1200000E-01
    1       -2.817900   1.000000
    2       -0.318289   1.000000
    3        0.211511   1.000000
    4        0.324573   1.000000
    5        1.156219   1.000000
    6        1.677983   1.000000
    7       14.619080   0.000000
    8       19.407496   0.000000
    9       21.177901   0.000000
   10       23.407627   0.000000
   11       24.815213   0.000000
   12       26.601100   0.000000
 
  0.3500000E+00  0.3500000E+00  0.5000000E-01  0.6000000E-02
    1       -1.823024   1.000000
    2       -1.297031   1.000000
    3        1.018166   1.000000
    4        1.486228   1.000000
    5        1.891788   1.000000
    6        1.947627   1.000000
    7       14.931211   0.000000
    8       16.145556   0.000000
    9       16.175818   0.000000
   10       20.044679   0.000000
   11       21.856061   0.000000
   12       31.619898   0.000000
 
  0.4500000E+00  0.3500000E+00  0.5000000E-01  0.1200000E-01
    1       -1.675256   1.000000
    2       -1.385391   1.000000
    3        1.039453   1.000000
    4        1.732625   1.000000
    5        2.109112   1.000000
    6        3.427263   1.000197
    7       12.305471   0.000000
    8       14.477617   0.000000
    9       15.132832   0.000000
   10       20.920853   0.000000
   11       22.733032   0.000000
   12       31.074873   0.000000
 
 -0.4500000E+00  0.3500000E+00  0.5000000E-01  0.1200000E-01
    1       -1.532085   1.000000
    2       -1.113082   1.000000
    3        0.744448   1.000000
    4        1.487797   1.000000
    5        2.267155   1.000000
    6        5.772489  -0.000000
    7        9.452881  -0.000000
    8       12.704418   0.000000
    9       15.267918   0.000000
   10       21.180590   0.000000
   11       25.301618   0.000000
   12       30.090381   0.000000
 
 -0.3500000E+00  0.3500000E+00  0.5000000E-01  0.1200000E-01
    1       -1.293816   1.000000
    2       -0.678299   1.000000
    3        0.294657   1.000000
    4        1.222330   1.000000
    5        2.011672   1.000000
    6        6.842025  -0.000000
    7        8.940350  -0.000000
    8       11.126102   0.000000
    9       16.424958   0.000000
   10       21.110956   0.000000
   11       28.494916   0.000000
   12       28.956390   0.000000
 
 -0.2500000E+00  0.3500000E+00  0.5000000E-01  0.1200000E-01
    1       -1.073115   1.000000
    2       -0.433625   1.000000
    3       -0.108873   1.000000
    4        0.934212   1.000000
    5        1.684231   1.000000
    6        5.207263  -0.000000
    7       10.131662   0.000000
    8       12.106146   0.000000
    9       18.080971   0.000000
   10       21.137125   0.000000
   11       27.268760   0.000000
   12       29.904991   0.000000
 
 -0.1500000E+00  0.3500000E+00  0.5000000E-01  0.1200000E-01
    1       -1.580060   1.000000
    2       -0.281333   1.000000
    3        0.172724   1.000000
    4        0.531699   1.000000
    5        1.618720   1.000000
    6        3.717069   1.031251
    7       10.055790   0.000000
    8       15.615267   0.000000
    9       19.399846   0.000000
   10       21.445112   0.000000
   11       26.145259   0.000000
   12       28.657084   0.000000
 
 -0.5000000E-01  0.3500000E+00  0.5000000E-01  0.1200000E-01
    1       -2.193816   1.000000
    2       -0.008709   1.000000
    3        0.191829   1.000000
    4        0.481313   1.000000
    5        1.729902   1.000000
    6        2.337833   1.000000
    7       10.754633   0.000000
    8       18.904536   0.000000
    9       20.017239   0.000000
   10       21.816620   0.000000
   11       26.396370   0.000000
   12       27.071596   0.000000
 
  0.4500000E+00  0.4500000E+00  0.5000000E-01  0.6000000E-02
    1       -1.886282   1.000000
    2       -1.626188   1.000000
    3        2.021429   1.000000
    4        2.067784   1.000000
    5        2.291310   1.000000
    6        4.060700   0.255284
    7       10.804533   0.000000
    8       14.002318   0.000000
    9       14.350164   0.000000
   10       20.210028   0.000000
   11       22.337172   0.000000
   12       32.447616   0.000000
 
 -0.4500000E+00  0.4500000E+00  0.5000000E-01  0.1200000E-01
    1       -1.819946   1.000000
    2       -1.583482   1.000000
    3        1.772420   1.000000
    4        1.991252   1.000000
    5        2.408325   1.000000
    6        5.938770  -0.000000
    7        9.026672  -0.000000
    8       12.998143   0.000000
    9       13.947737   0.000000
   10       21.057240   0.000000
   11       22.919925   0.000000
   12       31.618160   0.000000
 
 -0.3500000E+00  0.4500000E+00  0.5000000E-01  0.1200000E-01
    1       -1.572652   1.000000
    2       -1.190188   1.000000
    3        0.983597   1.000000
    4        1.621624   1.000000
    5        2.265166   1.000000
    6        7.165964  -0.000000
    7        8.515503  -0.000000
    8       11.551322   0.000000
    9       14.958515   0.000000
   10       21.300917   0.000000
   11       25.279295   0.000000
   12       30.333915   0.000000
 
 -0.2500000E+00  0.4500000E+00  0.5000000E-01  0.1200000E-01
    1       -1.327693   1.000000
    2       -0.640010   1.000000
    3        0.258512   1.000000
    4        1.044118   1.000000
    5        2.109501   1.000000
    6        6.794096  -0.000000
    7        7.679769  -0.000000
    8       13.002498   0.000000
    9       16.623778   0.000000
   10       20.926657   0.000000
   11       28.309452   0.000000
   12       29.054042   0.000000
 
 -0.1500000E+00  0.4500000E+00  0.5000000E-01  0.1200000E-01
    1       -1.616750   1.000000
    2       -0.397866   1.000000
    3        0.449795   1.000000
    4        0.682530   1.000000
    5        2.058646   1.000000
    6        5.673743  -0.000000
    7        6.894555  -0.000000
    8       16.001945   0.000000
    9       18.264159   0.000000
   10       20.456786   0.000000
   11       27.450198   0.000000
   12       29.128621   0.000000
 
 -0.5000000E-01  0.4500000E+00  0.5000000E-01  0.1200000E-01
    1       -2.099322   1.000000
    2       -0.135666   1.000000
    3        0.082044   1.000000
    4        1.427912   1.000000
    5        2.127100   1.000000
    6        3.794761   1.027573
    7        7.381444  -0.000000
    8       18.623584   0.000000
    9       19.350740   0.000000
   10       20.458237   0.000000
   11       27.250436   0.000000
   12       27.777711   0.000000
 
 -0.4500000E+00 -0.4500000E+00  0.5000000E-01  0.6000000E-02
    1       -1.945749   1.000000
    2       -1.696643   1.000000
    3        2.110520   1.000000
    4        2.279294   1.000000
    5        2.417436   1.000000
    6        5.317793  -0.000000
    7        9.165445  -0.000000
    8       13.580815   0.000000
    9       13.949286   0.000000
   10       20.287754   0.000000
   11       22.438814   0.000000
   12       32.294301   0.000000
 
 -0.3500000E+00 -0.4500000E+00  0.5000000E-01  0.1200000E-01
    1       -1.758157   1.000000
    2       -1.515957   1.000000
    3        1.486134   1.000000
    4        1.946176   1.000000
    5        2.286534   1.000000
    6        4.666562  -0.000013
    7       10.580834   0.000000
    8       13.486806   0.000000
    9       14.340934   0.000000
   10       20.993743   0.000000
   11       22.852790   0.000000
   12       31.508400   0.000000
 
 -0.2500000E+00 -0.4500000E+00  0.5000000E-01  0.1200000E-01
    1       -1.492757   1.000000
    2       -0.959386   1.000000
    3        0.382270   1.000000
    4        1.242268   1.000000
    5        2.228242   1.000000
    6        4.446033  -0.003537
    7       10.327568   0.000000
    8       14.465323   0.000000
    9       15.887283   0.000000
   10       21.005646   0.000000
   11       25.360519   0.000000
   12       29.612804   0.000000
 
 -0.1500000E+00 -0.4500000E+00  0.5000000E-01  0.1200000E-01
    1       -1.658265   1.000000
    2       -0.352786   1.000000
    3        0.269029   1.000000
    4        0.559052   1.000000
    5        2.177531   1.000000
    6        4.210987  -0.029980
    7        8.737497  -0.000000
    8       17.011584   0.000000
    9       17.646439   0.000000
   10       20.470254   0.000000
   11       27.706954   0.000000
   12       29.150505   0.000000
 
 -0.3500000E+00 -0.3500000E+00  0.5000000E-01  0.6000000E-02
    1       -1.808378   1.000000
    2       -1.489780   1.000000
    3        1.643581   1.000000
    4        1.808912   1.000000
    5        2.118487   1.000000
    6        2.778829   1.000000
    7       12.889782   0.000000
    8       14.827759   0.000000
    9       15.106237   0.000000
   10       20.103836   0.000000
   11       22.140128   0.000000
   12       32.485097   0.000000
 
 -0.2500000E+00 -0.3500000E+00  0.5000000E-01  0.1200000E-01
    1       -1.684282   1.000000
    2       -1.203360   1.000000
    3        0.540488   1.000000
    4        1.407208   1.000000
    5        1.864885   1.000000
    6        2.525939   1.000000
    7       13.800222   0.000000
    8       15.745276   0.000000
    9       16.535580   0.000000
   10       20.928901   0.000000
   11       22.586736   0.000000
   12       30.236336   0.000000
 
 -0.1500000E+00 -0.3500000E+00  0.5000000E-01  0.1200000E-01
    1       -1.823503   1.000000
    2       -0.562850   1.000000
    3       -0.050914   1.000000
    4        0.686231   1.000000
    5        1.834405   1.000000
    6        2.500061   1.000000
    7       12.337170   0.000000
    8       17.492184   0.000000
    9       18.760317   0.000000
   10       20.975321   0.000000
   11       25.524582   0.000000
   12       28.169219   0.000000
 
 -0.2500000E+00 -0.2500000E+00  0.5000000E-01  0.6000000E-02
    1       -2.121704   1.000000
    2       -1.062256   1.000000
    3        0.540729   1.000000
    4        1.122809   1.000000
    5        1.338355   1.000000
    6        1.779947   1.000000
    7       16.461487   0.000000
    8       17.388498   0.000000
    9       18.315800   0.000000
   10       20.116104   0.000000
   11       21.519188   0.000000
   12       30.343350   0.000000
 
 -0.1500000E+00 -0.2500000E+00  0.5000000E-01  0.1200000E-01
    1       -2.575438   1.000000
    2       -0.747688   1.000000
    3        0.256566   1.000000
    4        0.738346   1.000000
    5        1.096584   1.000000
    6        1.737765   1.000000
    7       16.244502   0.000000
    8       18.151128   0.000000
    9       20.553215   0.000000
   10       21.433077   0.000000
   11       22.778667   0.000000
   12       28.251714   0.000000
 
 -0.1500000E+00 -0.1500000E+00  0.5000000E-01  0.6000000E-02
    1       -3.394041   1.000000
    2       -0.547042   1.000000
    3        0.430260   1.000000
    4        0.470877   1.000000
    5        0.777656   1.000000
    6        1.462496   1.000000
    7       18.772508   0.000000
    8       20.100753   0.000000
    9       20.300807   0.000000
   10       21.420103   0.000000
   11       23.579183   0.000000
   12       28.512618   0.000000
 
  0.1500000E+00  0.1500000E+00  0.1500000E+00  0.2000000E-02
    1       -3.978076   1.000000
    2       -0.188974   1.000000
    3        0.142617   1.000000
    4        0.142617   1.000000
    5        1.169020   1.000000
    6        1.169020   1.000000
    7       18.284310   0.000000
    8       20.147752   0.000000
    9       22.842328   0.000000
   10       22.842328   0.000000
   11       25.882690   0.000000
   12       27.935485   0.000000
 
  0.2500000E+00  0.1500000E+00  0.1500000E+00  0.6000000E-02
    1       -3.414372   1.000000
    2       -0.353155   1.000000
    3        0.252709   1.000000
    4        0.311174   1.000000
    5        0.922349   1.000000
    6        1.483029   1.000000
    7       17.163576   0.000000
    8       19.010792   0.000000
    9       21.941193   0.000000
   10       23.830092   0.000000
   11       24.793838   0.000000
   12       26.990454   0.000000
 
  0.3500000E+00  0.1500000E+00  0.1500000E+00  0.6000000E-02
    1       -2.458141   1.000000
    2       -0.473655   1.000000
    3        0.178041   1.000000
    4        0.544721   1.000000
    5        0.853296   1.000000
    6        2.094591   1.000000
    7       14.719529   0.000000
    8       17.093283   0.000000
    9       21.668153   0.000000
   10       23.421142   0.000000
   11       24.610430   0.000000
   12       26.849038   0.000000
 
  0.4500000E+00  0.1500000E+00  0.1500000E+00  0.6000000E-02
    1       -1.828333   1.000000
    2       -0.166289   1.000000
    3        0.196264   1.000000
    4        0.383363   1.000000
    5        1.397679   1.000000
    6        3.020439   1.000000
    7       11.050789   0.000000
    8       16.535245   0.000000
    9       20.273287   0.000000
   10       22.013754   0.000000
   11       25.520499   0.000000
   12       27.891055   0.000000
 
 -0.4500000E+00  0.1500000E+00  0.1500000E+00  0.6000000E-02
    1       -1.783342   1.000000
    2       -0.276108   1.000000
    3        0.293843   1.000000
    4        0.896800   1.000000
    5        1.944394   1.000000
    6        4.587508  -0.000131
    7        7.664273  -0.000000
    8       16.623560   0.000000
    9       19.619867   0.000000
   10       19.979437   0.000000
   11       27.369045   0.000000
   12       28.166953   0.000000
 
 -0.3500000E+00  0.1500000E+00  0.1500000E+00  0.6000000E-02
    1       -1.814803   1.000000
    2       -0.295148   1.000000
    3        0.333479   1.000000
    4        0.741882   1.000000
    5        2.219763   1.000000
    6        4.595383  -0.000106
    7        7.519641  -0.000000
    8       17.439395   0.000000
    9       18.839073   0.000000
   10       19.621848   0.000000
   11       28.305167   0.000000
   12       28.312576   0.000000
 
 -0.2500000E+00  0.1500000E+00  0.1500000E+00  0.6000000E-02
    1       -1.897927   1.000000
    2       -0.190947   1.000000
    3       -0.026348   1.000000
    4        0.464143   1.000000
    5        2.102906   1.000000
    6        2.626679   1.000000
    7       10.940007   0.000000
    8       18.655006   0.000000
    9       18.794200   0.000000
   10       20.138167   0.000000
   11       27.214710   0.000000
   12       28.434534   0.000000
 
 -0.1500000E+00  0.1500000E+00  0.1500000E+00  0.6000000E-02
    1       -2.475402   1.000000
    2       -0.637279   1.000000
    3        0.178299   1.000000
    4        0.571077   1.000000
    5        1.392286   1.000000
    6        1.737228   1.000000
    7       14.841523   0.000000
    8       19.184706   0.000000
    9       20.093586   0.000000
   10       21.116401   0.000000
   11       24.134830   0.000000
   12       28.522456   0.000000
 
  0.2500000E+00  0.2500000E+00  0.1500000E+00  0.6000000E-02
    1       -3.083592   1.000000
    2       -0.440011   1.000000
    3        0.269603   1.000000
    4        0.372776   1.000000
    5        1.081781   1.000000
    6        1.518735   1.000000
    7       15.977344   0.000000
    8       20.200224   0.000000
    9       20.574494   0.000000
   10       23.053590   0.000000
   11       24.194697   0.000000
   12       27.921403   0.000000
 
  0.3500000E+00  0.2500000E+00  0.1500000E+00  0.1200000E-01
    1       -2.301898   1.000000
    2       -0.646769   1.000000
    3        0.099889   1.000000
    4        0.714688   1.000000
    5        1.071405   1.000000
    6        2.076736   1.000000
    7       14.836364   0.000000
    8       17.118000   0.000000
    9       20.624458   0.000000
   10       22.545523   0.000000
   11       24.246341   0.000000
   12       27.163993   0.000000
 
  0.4500000E+00  0.2500000E+00  0.1500000E+00  0.1200000E-01
    1       -1.461423   1.000000
    2       -0.621113   1.000000
    3       -0.209484   1.000000
    4        0.909045   1.000000
    5        1.320071   1.000000
    6        3.094414   1.000000
    7       12.546894   0.000000
    8       14.990640   0.000000
    9       19.063918   0.000000
   10       22.976022   0.000000
   11       24.612425   0.000000
   12       28.200373   0.000000
 
 -0.4500000E+00  0.2500000E+00  0.1500000E+00  0.1200000E-01
    1       -1.331316   1.000000
    2       -0.471022   1.000000
    3        0.073237   1.000000
    4        0.751101   1.000000
    5        1.868783   1.000000
    6        4.643043  -0.000027
    7        9.205857  -0.000000
    8       14.781024   0.000000
    9       17.642265   0.000000
   10       21.794108   0.000000
   11       26.442010   0.000000
   12       29.800452   0.000000
 
 -0.3500000E+00  0.2500000E+00  0.1500000E+00  0.1200000E-01
    1       -1.386815   1.000000
    2       -0.540230   1.000000
    3        0.350840   1.000000
    4        0.693808   1.000000
    5        2.099540   1.000000
    6        6.240607  -0.000000
    7        7.032658  -0.000000
    8       15.308827   0.000000
    9       16.691511   0.000000
   10       21.381131   0.000000
   11       27.130814   0.000000
   12       30.407517   0.000000
 
 -0.2500000E+00  0.2500000E+00  0.1500000E+00  0.1200000E-01
    1       -1.428835   1.000000
    2       -0.457059   1.000000
    3       -0.149209   1.000000
    4        0.852703   1.000000
    5        1.970926   1.000000
    6        3.963398   0.651465
    7       10.162964   0.000000
    8       15.592223   0.000000
    9       17.222383   0.000000
   10       21.687975   0.000000
   11       26.381291   0.000000
   12       28.583729   0.000000
 
 -0.1500000E+00  0.2500000E+00  0.1500000E+00  0.1200000E-01
    1       -1.739446   1.000000
    2       -0.833647   1.000000
    3       -0.036439   1.000000
    4        1.005958   1.000000
    5        1.407745   1.000000
    6        2.524020   1.000000
    7       13.726233   0.000000
    8       16.035578   0.000000
    9       18.761956   0.000000
   10       22.311158   0.000000
   11       23.844222   0.000000