       N       E                     dE             d eps       ncg     rms          rms(c)
DAV:   1     0.308945783246E+02    0.30895E+02   -0.34665E+03  3216   0.419E+02
DAV:   2    -0.419863510982E+01   -0.35093E+02   -0.32435E+02  3004   0.142E+02
DAV:   3    -0.455509551999E+01   -0.35646E+00   -0.35632E+00  3184   0.148E+01
DAV:   4    -0.455600527412E+01   -0.90975E-03   -0.90972E-03  3124   0.789E-01
DAV:   5    -0.455601180168E+01   -0.65276E-05   -0.65276E-05  2864   0.670E-02    0.308E+00
DAV:   6    -0.425572179728E+01    0.30029E+00   -0.96409E-01  3116   0.915E+00    0.696E-01
DAV:   7    -0.424055577862E+01    0.15166E-01   -0.32495E-02  3204   0.134E+00    0.307E-01
DAV:   8    -0.423671673295E+01    0.38390E-02   -0.15946E-03  3020   0.429E-01    0.125E-02
DAV:   9    -0.423671852149E+01   -0.17885E-05   -0.10782E-05  1652   0.217E-02
   1 F= -.42367185E+01 E0= -.42370498E+01  d E =0.993761E-03
