 vasp.5.4.4.18Apr17-6-g9f103f2a35 (build May 18 2018 14:42:58) complex          
  
 executed on             LinuxIFC date 2020.06.30  13:41:08
 running on    4 total cores
 distrk:  each k-point on    4 cores,    1 groups
 distr:  one band on NCORES_PER_BAND=   1 cores,    4 groups


--------------------------------------------------------------------------------------------------------


 INCAR:
 POTCAR:   PAW Au 04Feb1998                       
 POTCAR:   PAW Au 04Feb1998                       
   VRHFIN =Au: s1d10                                                            
   LEXCH  = CA                                                                  
   EATOM  =   929.4667 eV,   68.3139 Ry                                         
                                                                                
   TITEL  = PAW Au 04Feb1998                                                    
   LULTRA =        F    use ultrasoft PP ?                                      
   IUNSCR =        1    unscreen: 0-lin 1-nonlin 2-no                           
   RPACOR =    2.330    partial core radius                                     
   POMASS =  196.966; ZVAL   =   11.000    mass and valenz                      
   RCORE  =    2.500    outmost cutoff radius                                   
   RWIGS  =    2.840; RWIGS  =    1.503    wigner-seitz radius (au A)           
   ENMAX  =  229.869; ENMIN  =  172.402 eV                                      
   RCLOC  =    1.964    cutoff for local pot                                    
   LCOR   =        T    correct aug charges                                     
   LPAW   =        T    paw PP                                                  
   EAUG   =  356.670                                                            
   DEXC   =    -.020                                                            
   RMAX   =    3.041    core radius for proj-oper                               
   RDEP   =    2.598    core radius for depl-charge                             
   QCUT   =   -4.110; QGAM   =    8.221    optimization parameters              
                                                                                
   Description                                                                  
     l     E      TYP  RCUT    TYP  RCUT                                        
     2   .000     23  2.500                                                     
     2   .000     23  2.500                                                     
     0   .000     23  2.500                                                     
     0   .000     23  2.500                                                     
     1  -.200     23  2.500                                                     
     1   .000     23  2.500                                                     
     3   .000      7   .000                                                     
  local pseudopotential read in
  partial core-charges read in
  atomic valenz-charges read in
  non local Contribution for L=           2  read in
    real space projection operators read in
  non local Contribution for L=           2  read in
    real space projection operators read in
  non local Contribution for L=           0  read in
    real space projection operators read in
  non local Contribution for L=           0  read in
    real space projection operators read in
  non local Contribution for L=           1  read in
    real space projection operators read in
  non local Contribution for L=           1  read in
    real space projection operators read in
    PAW grid and wavefunctions read in
 
   number of l-projection  operators is LMAX  =           6
   number of lm-projection operators is LMMAX =          18
 
 PAW Au 04Feb1998                       :
 energy of atom  1       EATOM= -929.4667
 kinetic energy error for atom=    0.0706 (will be added to EATOM!!)
 
 
 POSCAR: FCC Au Bulk                             
  positions in direct lattice
  No initial velocities read in
 exchange correlation table for  LEXCH =        2
   RHO(1)=    0.500       N(1)  =     2000
   RHO(2)=  100.500       N(2)  =     4000
 


--------------------------------------------------------------------------------------------------------


 ion  position               nearest neighbor table
   1  0.000  0.000  0.000-
 
  LATTYP: Found a face centered cubic cell.
 ALAT       =     4.2500000000
  
  Lattice vectors:
  
 A1 = (   0.0000000000,   2.1250000000,   2.1250000000)
 A2 = (   2.1250000000,   0.0000000000,   2.1250000000)
 A3 = (   2.1250000000,   2.1250000000,   0.0000000000)


Analysis of symmetry for initial positions (statically):
=====================================================================
 Subroutine PRICEL returns:
 Original cell was already a primitive cell.
 

 Routine SETGRP: Setting up the symmetry group for a 
 face centered cubic supercell.


 Subroutine GETGRP returns: Found 48 space group operations
 (whereof 48 operations were pure point group operations)
 out of a pool of 48 trial point group operations.


The static configuration has the point symmetry O_h .


Analysis of symmetry for dynamics (positions and initial velocities):
=====================================================================
 Subroutine PRICEL returns:
 Original cell was already a primitive cell.
 

 Routine SETGRP: Setting up the symmetry group for a 
 face centered cubic supercell.


 Subroutine GETGRP returns: Found 48 space group operations
 (whereof 48 operations were pure point group operations)
 out of a pool of 48 trial point group operations.


The dynamic configuration has the point symmetry O_h .


 Subroutine INISYM returns: Found 48 space group operations
 (whereof 48 operations are pure point group operations),
 and found     1 'primitive' translations

 
 
 KPOINTS: 10x10x10                                

Automatic generation of k-mesh.
Space group operators:
 irot       det(A)        alpha          n_x          n_y          n_z        tau_x        tau_y        tau_z
    1     1.000000     0.000000     1.000000     0.000000     0.000000     0.000000     0.000000     0.000000
    2    -1.000000     0.000000     1.000000     0.000000     0.000000     0.000000     0.000000     0.000000
    3     1.000000   120.000000    -0.577350    -0.577350    -0.577350     0.000000     0.000000     0.000000
    4    -1.000000   120.000000    -0.577350    -0.577350    -0.577350     0.000000     0.000000     0.000000
    5     1.000000   120.000000     0.577350     0.577350     0.577350     0.000000     0.000000     0.000000
    6    -1.000000   120.000000     0.577350     0.577350     0.577350     0.000000     0.000000     0.000000
    7     1.000000    90.000000     0.000000     0.000000    -1.000000     0.000000     0.000000     0.000000
    8    -1.000000    90.000000     0.000000     0.000000    -1.000000     0.000000     0.000000     0.000000
    9     1.000000   180.000000     0.000000     0.707107     0.707107     0.000000     0.000000     0.000000
   10    -1.000000   180.000000     0.000000     0.707107     0.707107     0.000000     0.000000     0.000000
   11     1.000000    90.000000     0.000000     1.000000     0.000000     0.000000     0.000000     0.000000
   12    -1.000000    90.000000     0.000000     1.000000     0.000000     0.000000     0.000000     0.000000
   13     1.000000   180.000000     0.000000     0.000000     1.000000     0.000000     0.000000     0.000000
   14    -1.000000   180.000000     0.000000     0.000000     1.000000     0.000000     0.000000     0.000000
   15     1.000000   120.000000    -0.577350     0.577350     0.577350     0.000000     0.000000     0.000000
   16    -1.000000   120.000000    -0.577350     0.577350     0.577350     0.000000     0.000000     0.000000
   17     1.000000   120.000000    -0.577350     0.577350    -0.577350     0.000000     0.000000     0.000000
   18    -1.000000   120.000000    -0.577350     0.577350    -0.577350     0.000000     0.000000     0.000000
   19     1.000000    90.000000     0.000000     0.000000     1.000000     0.000000     0.000000     0.000000
   20    -1.000000    90.000000     0.000000     0.000000     1.000000     0.000000     0.000000     0.000000
   21     1.000000    90.000000    -1.000000     0.000000     0.000000     0.000000     0.000000     0.000000
   22    -1.000000    90.000000    -1.000000     0.000000     0.000000     0.000000     0.000000     0.000000
   23     1.000000   180.000000     0.707107     0.000000     0.707107     0.000000     0.000000     0.000000
   24    -1.000000   180.000000     0.707107     0.000000     0.707107     0.000000     0.000000     0.000000
   25     1.000000   120.000000     0.577350    -0.577350     0.577350     0.000000     0.000000     0.000000
   26    -1.000000   120.000000     0.577350    -0.577350     0.577350     0.000000     0.000000     0.000000
   27     1.000000   120.000000    -0.577350    -0.577350     0.577350     0.000000     0.000000     0.000000
   28    -1.000000   120.000000    -0.577350    -0.577350     0.577350     0.000000     0.000000     0.000000
   29     1.000000   180.000000     1.000000     0.000000     0.000000     0.000000     0.000000     0.000000
   30    -1.000000   180.000000     1.000000     0.000000     0.000000     0.000000     0.000000     0.000000
   31     1.000000    90.000000     0.000000    -1.000000     0.000000     0.000000     0.000000     0.000000
   32    -1.000000    90.000000     0.000000    -1.000000     0.000000     0.000000     0.000000     0.000000
   33     1.000000   180.000000     0.707107     0.707107     0.000000     0.000000     0.000000     0.000000
   34    -1.000000   180.000000     0.707107     0.707107     0.000000     0.000000     0.000000     0.000000
   35     1.000000    90.000000     1.000000     0.000000     0.000000     0.000000     0.000000     0.000000
   36    -1.000000    90.000000     1.000000     0.000000     0.000000     0.000000     0.000000     0.000000
   37     1.000000   120.000000     0.577350    -0.577350    -0.577350     0.000000     0.000000     0.000000
   38    -1.000000   120.000000     0.577350    -0.577350    -0.577350     0.000000     0.000000     0.000000
   39     1.000000   180.000000     0.000000     1.000000     0.000000     0.000000     0.000000     0.000000
   40    -1.000000   180.000000     0.000000     1.000000     0.000000     0.000000     0.000000     0.000000
   41     1.000000   120.000000     0.577350     0.577350    -0.577350     0.000000     0.000000     0.000000
   42    -1.000000   120.000000     0.577350     0.577350    -0.577350     0.000000     0.000000     0.000000
   43     1.000000   180.000000     0.000000    -0.707107     0.707107     0.000000     0.000000     0.000000
   44    -1.000000   180.000000     0.000000    -0.707107     0.707107     0.000000     0.000000     0.000000
   45     1.000000   180.000000     0.707107    -0.707107     0.000000     0.000000     0.000000     0.000000
   46    -1.000000   180.000000     0.707107    -0.707107     0.000000     0.000000     0.000000     0.000000
   47     1.000000   180.000000     0.707107     0.000000    -0.707107     0.000000     0.000000     0.000000
   48    -1.000000   180.000000     0.707107     0.000000    -0.707107     0.000000     0.000000     0.000000
 
 Subroutine IBZKPT returns following result:
 ===========================================
 
 Found    110 irreducible k-points:
 
 Following reciprocal coordinates:
            Coordinates               Weight
  0.050000  0.050000  0.050000     96.000000
  0.150000  0.050000  0.050000    288.000000
  0.250000  0.050000  0.050000    288.000000
  0.350000  0.050000  0.050000    288.000000
  0.450000  0.050000  0.050000    288.000000
 -0.450000  0.050000  0.050000    288.000000
 -0.350000  0.050000  0.050000    288.000000
 -0.250000  0.050000  0.050000    288.000000
 -0.150000  0.050000  0.050000    288.000000
 -0.050000  0.050000  0.050000    288.000000
  0.150000  0.150000  0.050000    288.000000
  0.250000  0.150000  0.050000    576.000000
  0.350000  0.150000  0.050000    576.000000
  0.450000  0.150000  0.050000    576.000000
 -0.450000  0.150000  0.050000    576.000000
 -0.350000  0.150000  0.050000    576.000000
 -0.250000  0.150000  0.050000    576.000000
 -0.150000  0.150000  0.050000    576.000000
 -0.050000  0.150000  0.050000    576.000000
  0.250000  0.250000  0.050000    288.000000
  0.350000  0.250000  0.050000    576.000000
  0.450000  0.250000  0.050000    576.000000
 -0.450000  0.250000  0.050000    576.000000
 -0.350000  0.250000  0.050000    576.000000
 -0.250000  0.250000  0.050000    576.000000
 -0.150000  0.250000  0.050000    576.000000
 -0.050000  0.250000  0.050000    576.000000
  0.350000  0.350000  0.050000    288.000000
  0.450000  0.350000  0.050000    576.000000
 -0.450000  0.350000  0.050000    576.000000
 -0.350000  0.350000  0.050000    576.000000
 -0.250000  0.350000  0.050000    576.000000
 -0.150000  0.350000  0.050000    576.000000
 -0.050000  0.350000  0.050000    576.000000
  0.450000  0.450000  0.050000    288.000000
 -0.450000  0.450000  0.050000    576.000000
 -0.350000  0.450000  0.050000    576.000000
 -0.250000  0.450000  0.050000    576.000000
 -0.150000  0.450000  0.050000    576.000000
 -0.050000  0.450000  0.050000    576.000000
 -0.450000 -0.450000  0.050000    288.000000
 -0.350000 -0.450000  0.050000    576.000000
 -0.250000 -0.450000  0.050000    576.000000
 -0.150000 -0.450000  0.050000    576.000000
 -0.350000 -0.350000  0.050000    288.000000
 -0.250000 -0.350000  0.050000    576.000000
 -0.150000 -0.350000  0.050000    576.000000
 -0.250000 -0.250000  0.050000    288.000000
 -0.150000 -0.250000  0.050000    576.000000
 -0.150000 -0.150000  0.050000    288.000000
  0.150000  0.150000  0.150000     96.000000
  0.250000  0.150000  0.150000    288.000000
  0.350000  0.150000  0.150000    288.000000
  0.450000  0.150000  0.150000    288.000000
 -0.450000  0.150000  0.150000    288.000000
 -0.350000  0.150000  0.150000    288.000000
 -0.250000  0.150000  0.150000    288.000000
 -0.150000  0.150000  0.150000    288.000000
  0.250000  0.250000  0.150000    288.000000
  0.350000  0.250000  0.150000    576.000000
  0.450000  0.250000  0.150000    576.000000
 -0.450000  0.250000  0.150000    576.000000
 -0.350000  0.250000  0.150000    576.000000
 -0.250000  0.250000  0.150000    576.000000
 -0.150000  0.250000  0.150000    576.000000
  0.350000  0.350000  0.150000    288.000000
  0.450000  0.350000  0.150000    576.000000
 -0.450000  0.350000  0.150000    576.000000
 -0.350000  0.350000  0.150000    576.000000
 -0.250000  0.350000  0.150000    576.000000
 -0.150000  0.350000  0.150000    576.000000
  0.450000  0.450000  0.150000    288.000000
 -0.450000  0.450000  0.150000    576.000000
 -0.350000  0.450000  0.150000    576.000000
 -0.250000  0.450000  0.150000    576.000000
 -0.150000  0.450000  0.150000    576.000000
 -0.450000 -0.450000  0.150000    288.000000
 -0.350000 -0.450000  0.150000    576.000000
 -0.250000 -0.450000  0.150000    576.000000
 -0.350000 -0.350000  0.150000    288.000000
 -0.250000 -0.350000  0.150000    576.000000
 -0.250000 -0.250000  0.150000    288.000000
  0.250000  0.250000  0.250000     96.000000
  0.350000  0.250000  0.250000    288.000000
  0.450000  0.250000  0.250000    288.000000
 -0.450000  0.250000  0.250000    288.000000
 -0.350000  0.250000  0.250000    288.000000
 -0.250000  0.250000  0.250000    288.000000
  0.350000  0.350000  0.250000    288.000000
  0.450000  0.350000  0.250000    576.000000
 -0.450000  0.350000  0.250000    576.000000
 -0.350000  0.350000  0.250000    576.000000
 -0.250000  0.350000  0.250000    576.000000
  0.450000  0.450000  0.250000    288.000000
 -0.450000  0.450000  0.250000    576.000000
 -0.350000  0.450000  0.250000    576.000000
 -0.250000  0.450000  0.250000    576.000000
 -0.450000 -0.450000  0.250000    288.000000
 -0.350000 -0.450000  0.250000    576.000000
 -0.350000 -0.350000  0.250000    288.000000
  0.350000  0.350000  0.350000     96.000000
  0.450000  0.350000  0.350000    288.000000
 -0.450000  0.350000  0.350000    288.000000
 -0.350000  0.350000  0.350000    288.000000
  0.450000  0.450000  0.350000    288.000000
 -0.450000  0.450000  0.350000    576.000000
 -0.350000  0.450000  0.350000    576.000000
 -0.450000 -0.450000  0.350000    288.000000
  0.450000  0.450000  0.450000     96.000000
 -0.450000  0.450000  0.450000    288.000000
 
 Following cartesian coordinates:
            Coordinates               Weight
  0.050000  0.050000  0.050000     96.000000
 -0.050000  0.150000  0.150000    288.000000
 -0.150000  0.250000  0.250000    288.000000
 -0.250000  0.350000  0.350000    288.000000
 -0.350000  0.450000  0.450000    288.000000
  0.550000 -0.450000 -0.450000    288.000000
  0.450000 -0.350000 -0.350000    288.000000
  0.350000 -0.250000 -0.250000    288.000000
  0.250000 -0.150000 -0.150000    288.000000
  0.150000 -0.050000 -0.050000    288.000000
  0.050000  0.050000  0.250000    288.000000
 -0.050000  0.150000  0.350000    576.000000
 -0.150000  0.250000  0.450000    576.000000
 -0.250000  0.350000  0.550000    576.000000
  0.650000 -0.550000 -0.350000    576.000000
  0.550000 -0.450000 -0.250000    576.000000
  0.450000 -0.350000 -0.150000    576.000000
  0.350000 -0.250000 -0.050000    576.000000
  0.250000 -0.150000  0.050000    576.000000
  0.050000  0.050000  0.450000    288.000000
 -0.050000  0.150000  0.550000    576.000000
 -0.150000  0.250000  0.650000    576.000000
  0.750000 -0.650000 -0.250000    576.000000
  0.650000 -0.550000 -0.150000    576.000000
  0.550000 -0.450000 -0.050000    576.000000
  0.450000 -0.350000  0.050000    576.000000
  0.350000 -0.250000  0.150000    576.000000
  0.050000  0.050000  0.650000    288.000000
 -0.050000  0.150000  0.750000    576.000000
  0.850000 -0.750000 -0.150000    576.000000
  0.750000 -0.650000 -0.050000    576.000000
  0.650000 -0.550000  0.050000    576.000000
  0.550000 -0.450000  0.150000    576.000000
  0.450000 -0.350000  0.250000    576.000000
  0.050000  0.050000  0.850000    288.000000
  0.950000 -0.850000 -0.050000    576.000000
  0.850000 -0.750000  0.050000    576.000000
  0.750000 -0.650000  0.150000    576.000000
  0.650000 -0.550000  0.250000    576.000000
  0.550000 -0.450000  0.350000    576.000000
  0.050000  0.050000 -0.950000    288.000000
 -0.050000  0.150000 -0.850000    576.000000
 -0.150000  0.250000 -0.750000    576.000000
 -0.250000  0.350000 -0.650000    576.000000
  0.050000  0.050000 -0.750000    288.000000
 -0.050000  0.150000 -0.650000    576.000000
 -0.150000  0.250000 -0.550000    576.000000
  0.050000  0.050000 -0.550000    288.000000
 -0.050000  0.150000 -0.450000    576.000000
  0.050000  0.050000 -0.350000    288.000000
  0.150000  0.150000  0.150000     96.000000
  0.050000  0.250000  0.250000    288.000000
 -0.050000  0.350000  0.350000    288.000000
 -0.150000  0.450000  0.450000    288.000000
  0.750000 -0.450000 -0.450000    288.000000
  0.650000 -0.350000 -0.350000    288.000000
  0.550000 -0.250000 -0.250000    288.000000
  0.450000 -0.150000 -0.150000    288.000000
  0.150000  0.150000  0.350000    288.000000
  0.050000  0.250000  0.450000    576.000000
 -0.050000  0.350000  0.550000    576.000000
  0.850000 -0.550000 -0.350000    576.000000
  0.750000 -0.450000 -0.250000    576.000000
  0.650000 -0.350000 -0.150000    576.000000
  0.550000 -0.250000 -0.050000    576.000000
  0.150000  0.150000  0.550000    288.000000
  0.050000  0.250000  0.650000    576.000000
  0.950000 -0.650000 -0.250000    576.000000
  0.850000 -0.550000 -0.150000    576.000000
  0.750000 -0.450000 -0.050000    576.000000
  0.650000 -0.350000  0.050000    576.000000
  0.150000  0.150000  0.750000    288.000000
  1.050000 -0.750000 -0.150000    576.000000
  0.950000 -0.650000 -0.050000    576.000000
  0.850000 -0.550000  0.050000    576.000000
  0.750000 -0.450000  0.150000    576.000000
  0.150000  0.150000 -1.050000    288.000000
  0.050000  0.250000 -0.950000    576.000000
 -0.050000  0.350000 -0.850000    576.000000
  0.150000  0.150000 -0.850000    288.000000
  0.050000  0.250000 -0.750000    576.000000
  0.150000  0.150000 -0.650000    288.000000
  0.250000  0.250000  0.250000     96.000000
  0.150000  0.350000  0.350000    288.000000
  0.050000  0.450000  0.450000    288.000000
  0.950000 -0.450000 -0.450000    288.000000
  0.850000 -0.350000 -0.350000    288.000000
  0.750000 -0.250000 -0.250000    288.000000
  0.250000  0.250000  0.450000    288.000000
  0.150000  0.350000  0.550000    576.000000
  1.050000 -0.550000 -0.350000    576.000000
  0.950000 -0.450000 -0.250000    576.000000
  0.850000 -0.350000 -0.150000    576.000000
  0.250000  0.250000  0.650000    288.000000
  1.150000 -0.650000 -0.250000    576.000000
  1.050000 -0.550000 -0.150000    576.000000
  0.950000 -0.450000 -0.050000    576.000000
  0.250000  0.250000 -1.150000    288.000000
  0.150000  0.350000 -1.050000    576.000000
  0.250000  0.250000 -0.950000    288.000000
  0.350000  0.350000  0.350000     96.000000
  0.250000  0.450000  0.450000    288.000000
  1.150000 -0.450000 -0.450000    288.000000
  1.050000 -0.350000 -0.350000    288.000000
  0.350000  0.350000  0.550000    288.000000
  1.250000 -0.550000 -0.350000    576.000000
  1.150000 -0.450000 -0.250000    576.000000
  0.350000  0.350000 -1.250000    288.000000
  0.450000  0.450000  0.450000     96.000000
  1.350000 -0.450000 -0.450000    288.000000
 


--------------------------------------------------------------------------------------------------------




 Dimension of arrays:
   k-points           NKPTS =    110   k-points in BZ     NKDIM =    110   number of bands    NBANDS=     12
   number of dos      NEDOS =    301   number of ions     NIONS =      1
   non local maximal  LDIM  =      6   non local SUM 2l+1 LMDIM =     18
   total plane-waves  NPLWV =   1728
   max r-space proj   IRMAX =      1   max aug-charges    IRDMAX=   5705
   dimension x,y,z NGX =    12 NGY =   12 NGZ =   12
   dimension x,y,z NGXF=    24 NGYF=   24 NGZF=   24
   support grid    NGXF=    24 NGYF=   24 NGZF=   24
   ions per type =               1
   NGX,Y,Z   is equivalent  to a cutoff of   6.64,  6.64,  6.64 a.u.
   NGXF,Y,Z  is equivalent  to a cutoff of  13.28, 13.28, 13.28 a.u.

 SYSTEM =  fcc Au                                  
 POSCAR =  FCC Au Bulk                             

 Startparameter for this run:
   NWRITE =      2    write-flag & timer
   PREC   = normal    normal or accurate (medium, high low for compatibility)
   ISTART =      0    job   : 0-new  1-cont  2-samecut
   ICHARG =      2    charge: 1-file 2-atom 10-const
   ISPIN  =      1    spin polarized calculation?
   LNONCOLLINEAR =      F non collinear calculations
   LSORBIT =      F    spin-orbit coupling
   INIWAV =      1    electr: 0-lowe 1-rand  2-diag
   LASPH  =      F    aspherical Exc in radial PAW
   METAGGA=      F    non-selfconsistent MetaGGA calc.

 Electronic Relaxation 1
   ENCUT  =  229.9 eV  16.89 Ry    4.11 a.u.   3.72  3.72  3.72*2*pi/ulx,y,z
   ENINI  =  229.9     initial cutoff
   ENAUG  =  356.7 eV  augmentation charge cutoff
   NELM   =     60;   NELMIN=  2; NELMDL= -5     # of ELM steps 
   EDIFF  = 0.1E-03   stopping-criterion for ELM
   LREAL  =      F    real-space projection
   NLSPLINE    = F    spline interpolate recip. space projectors
   LCOMPAT=      F    compatible to vasp.4.4
   GGA_COMPAT  = T    GGA compatible to vasp.4.4-vasp.4.6
   LMAXPAW     = -100 max onsite density
   LMAXMIX     =    2 max onsite mixed and CHGCAR
   VOSKOWN=      0    Vosko Wilk Nusair interpolation
   ROPT   =    0.00000
 Ionic relaxation
   EDIFFG = 0.1E-02   stopping-criterion for IOM
   NSW    =      0    number of steps for IOM
   NBLOCK =      1;   KBLOCK =      1    inner block; outer block 
   IBRION =     -1    ionic relax: 0-MD 1-quasi-New 2-CG
   NFREE  =      0    steps in history (QN), initial steepest desc. (CG)
   ISIF   =      2    stress and relaxation
   IWAVPR =     10    prediction:  0-non 1-charg 2-wave 3-comb
   ISYM   =      2    0-nonsym 1-usesym 2-fastsym
   LCORR  =      T    Harris-Foulkes like correction to forces

   POTIM  = 0.5000    time-step for ionic-motion
   TEIN   =    0.0    initial temperature
   TEBEG  =    0.0;   TEEND  =   0.0 temperature during run
   SMASS  =  -3.00    Nose mass-parameter (am)
   estimated Nose-frequenzy (Omega)   =  0.10E-29 period in steps =****** mass=  -0.206E-27a.u.
   SCALEE = 1.0000    scale energy and forces
   NPACO  =    256;   APACO  = 16.0  distance and # of slots for P.C.
   PSTRESS=    0.0 pullay stress

  Mass of Ions in am
   POMASS = 196.97
  Ionic Valenz
   ZVAL   =  11.00
  Atomic Wigner-Seitz radii
   RWIGS  =   1.50
  virtual crystal weights 
   VCA    =   1.00
   NELECT =      11.0000    total number of electrons
   NUPDOWN=      -1.0000    fix difference up-down

 DOS related values:
   EMIN   =  10.00;   EMAX   =-10.00  energy-range for DOS
   EFERMI =   0.00
   ISMEAR =     1;   SIGMA  =   0.20  broadening in eV -4-tet -1-fermi 0-gaus

 Electronic relaxation 2 (details)
   IALGO  =     38    algorithm
   LDIAG  =      T    sub-space diagonalisation (order eigenvalues)
   LSUBROT=      F    optimize rotation matrix (better conditioning)
   TURBO    =      0    0=normal 1=particle mesh
   IRESTART =      0    0=no restart 2=restart with 2 vectors
   NREBOOT  =      0    no. of reboots
   NMIN     =      0    reboot dimension
   EREF     =   0.00    reference energy to select bands
   IMIX   =      4    mixing-type and parameters
     AMIX     =   0.40;   BMIX     =  1.00
     AMIX_MAG =   1.60;   BMIX_MAG =  1.00
     AMIN     =   0.10
     WC   =   100.;   INIMIX=   1;  MIXPRE=   1;  MAXMIX= -45

 Intra band minimization:
   WEIMIN = 0.0000     energy-eigenvalue tresh-hold
   EBREAK =  0.21E-05  absolut break condition
   DEPER  =   0.30     relativ break condition  

   TIME   =   0.40     timestep for ELM

  volume/ion in A,a.u.               =      19.19       129.51
  Fermi-wavevector in a.u.,A,eV,Ry     =   1.359889  2.569818 25.161228  1.849298
  Thomas-Fermi vector in A             =   2.486598
 
 Write flags
   LWAVE        =      T    write WAVECAR
   LDOWNSAMPLE  =      F    k-point downsampling of WAVECAR
   LCHARG       =      T    write CHGCAR
   LVTOT        =      F    write LOCPOT, total local potential
   LVHAR        =      F    write LOCPOT, Hartree potential only
   LELF         =      F    write electronic localiz. function (ELF)
   LORBIT       =      0    0 simple, 1 ext, 2 COOP (PROOUT), +10 PAW based schemes


 Dipole corrections
   LMONO  =      F    monopole corrections only (constant potential shift)
   LDIPOL =      F    correct potential (dipole corrections)
   IDIPOL =      0    1-x, 2-y, 3-z, 4-all directions 
   EPSILON=  1.0000000 bulk dielectric constant

 Exchange correlation treatment:
   GGA     =    --    GGA type
   LEXCH   =     2    internal setting for exchange type
   VOSKOWN=      0    Vosko Wilk Nusair interpolation
   LHFCALC =     F    Hartree Fock is set to
   LHFONE  =     F    Hartree Fock one center treatment
   AEXX    =    0.0000 exact exchange contribution

 Linear response parameters
   LEPSILON=     F    determine dielectric tensor
   LRPA    =     F    only Hartree local field effects (RPA)
   LNABLA  =     F    use nabla operator in PAW spheres
   LVEL    =     F    velocity operator in full k-point grid
   LINTERFAST=   F  fast interpolation
   KINTER  =     0    interpolate to denser k-point grid
   CSHIFT  =0.1000    complex shift for real part using Kramers Kronig
   OMEGAMAX=  -1.0    maximum frequency
   DEG_THRESHOLD= 0.2000000E-02 threshold for treating states as degnerate
   RTIME   =   -0.100 relaxation time in fs
  (WPLASMAI=    0.000 imaginary part of plasma frequency in eV, 0.658/RTIME)
   DFIELD  = 0.0000000 0.0000000 0.0000000 field for delta impulse in time
 
 Orbital magnetization related:
   ORBITALMAG=     F  switch on orbital magnetization
   LCHIMAG   =     F  perturbation theory with respect to B field
   DQ        =  0.001000  dq finite difference perturbation B field
   LLRAUG    =     F  two centre corrections for induced B field



--------------------------------------------------------------------------------------------------------


 Static calculation
 charge density and potential will be updated during run
 non-spin polarized calculation
 Variant of blocked Davidson
 Davidson routine will perform the subspace rotation
 perform sub-space diagonalisation
    after iterative eigenvector-optimisation
 modified Broyden-mixing scheme, WC =      100.0
 initial mixing is a Kerker type mixing with AMIX =  0.4000 and BMIX =      1.0000
 Hartree-type preconditioning will be used
 using additional bands            6
 reciprocal scheme for non local part
 use partial core corrections
 calculate Harris-corrections to forces 
   (improved forces if not selfconsistent)
 use of overlap-Matrix (Vanderbilt PP)
 Methfessel and Paxton  Order N= 1 SIGMA  =   0.20


--------------------------------------------------------------------------------------------------------


  energy-cutoff  :      229.87
  volume of cell :       19.19
      direct lattice vectors                 reciprocal lattice vectors
     0.000000000  2.125000000  2.125000000    -0.235294118  0.235294118  0.235294118
     2.125000000  0.000000000  2.125000000     0.235294118 -0.235294118  0.235294118
     2.125000000  2.125000000  0.000000000     0.235294118  0.235294118 -0.235294118

  length of vectors
     3.005203820  3.005203820  3.005203820     0.407541366  0.407541366  0.407541366


 
 k-points in units of 2pi/SCALE and weight: 10x10x10                                
   0.05000000  0.05000000  0.05000000       0.002
  -0.05000000  0.15000000  0.15000000       0.006
  -0.15000000  0.25000000  0.25000000       0.006
  -0.25000000  0.35000000  0.35000000       0.006
  -0.35000000  0.45000000  0.45000000       0.006
   0.55000000 -0.45000000 -0.45000000       0.006
   0.45000000 -0.35000000 -0.35000000       0.006
   0.35000000 -0.25000000 -0.25000000       0.006
   0.25000000 -0.15000000 -0.15000000       0.006
   0.15000000 -0.05000000 -0.05000000       0.006
   0.05000000  0.05000000  0.25000000       0.006
  -0.05000000  0.15000000  0.35000000       0.012
  -0.15000000  0.25000000  0.45000000       0.012
  -0.25000000  0.35000000  0.55000000       0.012
   0.65000000 -0.55000000 -0.35000000       0.012
   0.55000000 -0.45000000 -0.25000000       0.012
   0.45000000 -0.35000000 -0.15000000       0.012
   0.35000000 -0.25000000 -0.05000000       0.012
   0.25000000 -0.15000000  0.05000000       0.012
   0.05000000  0.05000000  0.45000000       0.006
  -0.05000000  0.15000000  0.55000000       0.012
  -0.15000000  0.25000000  0.65000000       0.012
   0.75000000 -0.65000000 -0.25000000       0.012
   0.65000000 -0.55000000 -0.15000000       0.012
   0.55000000 -0.45000000 -0.05000000       0.012
   0.45000000 -0.35000000  0.05000000       0.012
   0.35000000 -0.25000000  0.15000000       0.012
   0.05000000  0.05000000  0.65000000       0.006
  -0.05000000  0.15000000  0.75000000       0.012
   0.85000000 -0.75000000 -0.15000000       0.012
   0.75000000 -0.65000000 -0.05000000       0.012
   0.65000000 -0.55000000  0.05000000       0.012
   0.55000000 -0.45000000  0.15000000       0.012
   0.45000000 -0.35000000  0.25000000       0.012
   0.05000000  0.05000000  0.85000000       0.006
   0.95000000 -0.85000000 -0.05000000       0.012
   0.85000000 -0.75000000  0.05000000       0.012
   0.75000000 -0.65000000  0.15000000       0.012
   0.65000000 -0.55000000  0.25000000       0.012
   0.55000000 -0.45000000  0.35000000       0.012
   0.05000000  0.05000000 -0.95000000       0.006
  -0.05000000  0.15000000 -0.85000000       0.012
  -0.15000000  0.25000000 -0.75000000       0.012
  -0.25000000  0.35000000 -0.65000000       0.012
   0.05000000  0.05000000 -0.75000000       0.006
  -0.05000000  0.15000000 -0.65000000       0.012
  -0.15000000  0.25000000 -0.55000000       0.012
   0.05000000  0.05000000 -0.55000000       0.006
  -0.05000000  0.15000000 -0.45000000       0.012
   0.05000000  0.05000000 -0.35000000       0.006
   0.15000000  0.15000000  0.15000000       0.002
   0.05000000  0.25000000  0.25000000       0.006
  -0.05000000  0.35000000  0.35000000       0.006
  -0.15000000  0.45000000  0.45000000       0.006
   0.75000000 -0.45000000 -0.45000000       0.006
   0.65000000 -0.35000000 -0.35000000       0.006
   0.55000000 -0.25000000 -0.25000000       0.006
   0.45000000 -0.15000000 -0.15000000       0.006
   0.15000000  0.15000000  0.35000000       0.006
   0.05000000  0.25000000  0.45000000       0.012
  -0.05000000  0.35000000  0.55000000       0.012
   0.85000000 -0.55000000 -0.35000000       0.012
   0.75000000 -0.45000000 -0.25000000       0.012
   0.65000000 -0.35000000 -0.15000000       0.012
   0.55000000 -0.25000000 -0.05000000       0.012
   0.15000000  0.15000000  0.55000000       0.006
   0.05000000  0.25000000  0.65000000       0.012
   0.95000000 -0.65000000 -0.25000000       0.012
   0.85000000 -0.55000000 -0.15000000       0.012
   0.75000000 -0.45000000 -0.05000000       0.012
   0.65000000 -0.35000000  0.05000000       0.012
   0.15000000  0.15000000  0.75000000       0.006
   1.05000000 -0.75000000 -0.15000000       0.012
   0.95000000 -0.65000000 -0.05000000       0.012
   0.85000000 -0.55000000  0.05000000       0.012
   0.75000000 -0.45000000  0.15000000       0.012
   0.15000000  0.15000000 -1.05000000       0.006
   0.05000000  0.25000000 -0.95000000       0.012
  -0.05000000  0.35000000 -0.85000000       0.012
   0.15000000  0.15000000 -0.85000000       0.006
   0.05000000  0.25000000 -0.75000000       0.012
   0.15000000  0.15000000 -0.65000000       0.006
   0.25000000  0.25000000  0.25000000       0.002
   0.15000000  0.35000000  0.35000000       0.006
   0.05000000  0.45000000  0.45000000       0.006
   0.95000000 -0.45000000 -0.45000000       0.006
   0.85000000 -0.35000000 -0.35000000       0.006
   0.75000000 -0.25000000 -0.25000000       0.006
   0.25000000  0.25000000  0.45000000       0.006
   0.15000000  0.35000000  0.55000000       0.012
   1.05000000 -0.55000000 -0.35000000       0.012
   0.95000000 -0.45000000 -0.25000000       0.012
   0.85000000 -0.35000000 -0.15000000       0.012
   0.25000000  0.25000000  0.65000000       0.006
   1.15000000 -0.65000000 -0.25000000       0.012
   1.05000000 -0.55000000 -0.15000000       0.012
   0.95000000 -0.45000000 -0.05000000       0.012
   0.25000000  0.25000000 -1.15000000       0.006
   0.15000000  0.35000000 -1.05000000       0.012
   0.25000000  0.25000000 -0.95000000       0.006
   0.35000000  0.35000000  0.35000000       0.002
   0.25000000  0.45000000  0.45000000       0.006
   1.15000000 -0.45000000 -0.45000000       0.006
   1.05000000 -0.35000000 -0.35000000       0.006
   0.35000000  0.35000000  0.55000000       0.006
   1.25000000 -0.55000000 -0.35000000       0.012
   1.15000000 -0.45000000 -0.25000000       0.012
   0.35000000  0.35000000 -1.25000000       0.006
   0.45000000  0.45000000  0.45000000       0.002
   1.35000000 -0.45000000 -0.45000000       0.006
 
 k-points in reciprocal lattice and weights: 10x10x10                                
   0.05000000  0.05000000  0.05000000       0.002
   0.15000000  0.05000000  0.05000000       0.006
   0.25000000  0.05000000  0.05000000       0.006
   0.35000000  0.05000000  0.05000000       0.006
   0.45000000  0.05000000  0.05000000       0.006
  -0.45000000  0.05000000  0.05000000       0.006
  -0.35000000  0.05000000  0.05000000       0.006
  -0.25000000  0.05000000  0.05000000       0.006
  -0.15000000  0.05000000  0.05000000       0.006
  -0.05000000  0.05000000  0.05000000       0.006
   0.15000000  0.15000000  0.05000000       0.006
   0.25000000  0.15000000  0.05000000       0.012
   0.35000000  0.15000000  0.05000000       0.012
   0.45000000  0.15000000  0.05000000       0.012
  -0.45000000  0.15000000  0.05000000       0.012
  -0.35000000  0.15000000  0.05000000       0.012
  -0.25000000  0.15000000  0.05000000       0.012
  -0.15000000  0.15000000  0.05000000       0.012
  -0.05000000  0.15000000  0.05000000       0.012
   0.25000000  0.25000000  0.05000000       0.006
   0.35000000  0.25000000  0.05000000       0.012
   0.45000000  0.25000000  0.05000000       0.012
  -0.45000000  0.25000000  0.05000000       0.012
  -0.35000000  0.25000000  0.05000000       0.012
  -0.25000000  0.25000000  0.05000000       0.012
  -0.15000000  0.25000000  0.05000000       0.012
  -0.05000000  0.25000000  0.05000000       0.012
   0.35000000  0.35000000  0.05000000       0.006
   0.45000000  0.35000000  0.05000000       0.012
  -0.45000000  0.35000000  0.05000000       0.012
  -0.35000000  0.35000000  0.05000000       0.012
  -0.25000000  0.35000000  0.05000000       0.012
  -0.15000000  0.35000000  0.05000000       0.012
  -0.05000000  0.35000000  0.05000000       0.012
   0.45000000  0.45000000  0.05000000       0.006
  -0.45000000  0.45000000  0.05000000       0.012
  -0.35000000  0.45000000  0.05000000       0.012
  -0.25000000  0.45000000  0.05000000       0.012
  -0.15000000  0.45000000  0.05000000       0.012
  -0.05000000  0.45000000  0.05000000       0.012
  -0.45000000 -0.45000000  0.05000000       0.006
  -0.35000000 -0.45000000  0.05000000       0.012
  -0.25000000 -0.45000000  0.05000000       0.012
  -0.15000000 -0.45000000  0.05000000       0.012
  -0.35000000 -0.35000000  0.05000000       0.006
  -0.25000000 -0.35000000  0.05000000       0.012
  -0.15000000 -0.35000000  0.05000000       0.012
  -0.25000000 -0.25000000  0.05000000       0.006
  -0.15000000 -0.25000000  0.05000000       0.012
  -0.15000000 -0.15000000  0.05000000       0.006
   0.15000000  0.15000000  0.15000000       0.002
   0.25000000  0.15000000  0.15000000       0.006
   0.35000000  0.15000000  0.15000000       0.006
   0.45000000  0.15000000  0.15000000       0.006
  -0.45000000  0.15000000  0.15000000       0.006
  -0.35000000  0.15000000  0.15000000       0.006
  -0.25000000  0.15000000  0.15000000       0.006
  -0.15000000  0.15000000  0.15000000       0.006
   0.25000000  0.25000000  0.15000000       0.006
   0.35000000  0.25000000  0.15000000       0.012
   0.45000000  0.25000000  0.15000000       0.012
  -0.45000000  0.25000000  0.15000000       0.012
  -0.35000000  0.25000000  0.15000000       0.012
  -0.25000000  0.25000000  0.15000000       0.012
  -0.15000000  0.25000000  0.15000000       0.012
   0.35000000  0.35000000  0.15000000       0.006
   0.45000000  0.35000000  0.15000000       0.012
  -0.45000000  0.35000000  0.15000000       0.012
  -0.35000000  0.35000000  0.15000000       0.012
  -0.25000000  0.35000000  0.15000000       0.012
  -0.15000000  0.35000000  0.15000000       0.012
   0.45000000  0.45000000  0.15000000       0.006
  -0.45000000  0.45000000  0.15000000       0.012
  -0.35000000  0.45000000  0.15000000       0.012
  -0.25000000  0.45000000  0.15000000       0.012
  -0.15000000  0.45000000  0.15000000       0.012
  -0.45000000 -0.45000000  0.15000000       0.006
  -0.35000000 -0.45000000  0.15000000       0.012
  -0.25000000 -0.45000000  0.15000000       0.012
  -0.35000000 -0.35000000  0.15000000       0.006
  -0.25000000 -0.35000000  0.15000000       0.012
  -0.25000000 -0.25000000  0.15000000       0.006
   0.25000000  0.25000000  0.25000000       0.002
   0.35000000  0.25000000  0.25000000       0.006
   0.45000000  0.25000000  0.25000000       0.006
  -0.45000000  0.25000000  0.25000000       0.006
  -0.35000000  0.25000000  0.25000000       0.006
  -0.25000000  0.25000000  0.25000000       0.006
   0.35000000  0.35000000  0.25000000       0.006
   0.45000000  0.35000000  0.25000000       0.012
  -0.45000000  0.35000000  0.25000000       0.012
  -0.35000000  0.35000000  0.25000000       0.012
  -0.25000000  0.35000000  0.25000000       0.012
   0.45000000  0.45000000  0.25000000       0.006
  -0.45000000  0.45000000  0.25000000       0.012
  -0.35000000  0.45000000  0.25000000       0.012
  -0.25000000  0.45000000  0.25000000       0.012
  -0.45000000 -0.45000000  0.25000000       0.006
  -0.35000000 -0.45000000  0.25000000       0.012
  -0.35000000 -0.35000000  0.25000000       0.006
   0.35000000  0.35000000  0.35000000       0.002
   0.45000000  0.35000000  0.35000000       0.006
  -0.45000000  0.35000000  0.35000000       0.006
  -0.35000000  0.35000000  0.35000000       0.006
   0.45000000  0.45000000  0.35000000       0.006
  -0.45000000  0.45000000  0.35000000       0.012
  -0.35000000  0.45000000  0.35000000       0.012
  -0.45000000 -0.45000000  0.35000000       0.006
   0.45000000  0.45000000  0.45000000       0.002
  -0.45000000  0.45000000  0.45000000       0.006
 
 position of ions in fractional coordinates (direct lattice) 
   0.00000000  0.00000000  0.00000000
 
 position of ions in cartesian coordinates  (Angst):
   0.00000000  0.00000000  0.00000000
 


--------------------------------------------------------------------------------------------------------


 k-point  1 :   0.0500 0.0500 0.0500  plane waves:     165
 k-point  2 :   0.1500 0.0500 0.0500  plane waves:     158
 k-point  3 :   0.2500 0.0500 0.0500  plane waves:     151
 k-point  4 :   0.3500 0.0500 0.0500  plane waves:     153
 k-point  5 :   0.4500 0.0500 0.0500  plane waves:     149
 k-point  6 :  -0.4500 0.0500 0.0500  plane waves:     156
 k-point  7 :  -0.3500 0.0500 0.0500  plane waves:     149
 k-point  8 :  -0.2500 0.0500 0.0500  plane waves:     152
 k-point  9 :  -0.1500 0.0500 0.0500  plane waves:     154
 k-point 10 :  -0.0500 0.0500 0.0500  plane waves:     158
 k-point 11 :   0.1500 0.1500 0.0500  plane waves:     157
 k-point 12 :   0.2500 0.1500 0.0500  plane waves:     153
 k-point 13 :   0.3500 0.1500 0.0500  plane waves:     153
 k-point 14 :   0.4500 0.1500 0.0500  plane waves:     150
 k-point 15 :  -0.4500 0.1500 0.0500  plane waves:     155
 k-point 16 :  -0.3500 0.1500 0.0500  plane waves:     153
 k-point 17 :  -0.2500 0.1500 0.0500  plane waves:     151
 k-point 18 :  -0.1500 0.1500 0.0500  plane waves:     153
 k-point 19 :  -0.0500 0.1500 0.0500  plane waves:     156
 k-point 20 :   0.2500 0.2500 0.0500  plane waves:     152
 k-point 21 :   0.3500 0.2500 0.0500  plane waves:     150
 k-point 22 :   0.4500 0.2500 0.0500  plane waves:     149
 k-point 23 :  -0.4500 0.2500 0.0500  plane waves:     152
 k-point 24 :  -0.3500 0.2500 0.0500  plane waves:     153
 k-point 25 :  -0.2500 0.2500 0.0500  plane waves:     150
 k-point 26 :  -0.1500 0.2500 0.0500  plane waves:     149
 k-point 27 :  -0.0500 0.2500 0.0500  plane waves:     153
 k-point 28 :   0.3500 0.3500 0.0500  plane waves:     149
 k-point 29 :   0.4500 0.3500 0.0500  plane waves:     152
 k-point 30 :  -0.4500 0.3500 0.0500  plane waves:     151
 k-point 31 :  -0.3500 0.3500 0.0500  plane waves:     151
 k-point 32 :  -0.2500 0.3500 0.0500  plane waves:     152
 k-point 33 :  -0.1500 0.3500 0.0500  plane waves:     151
 k-point 34 :  -0.0500 0.3500 0.0500  plane waves:     151
 k-point 35 :   0.4500 0.4500 0.0500  plane waves:     152
 k-point 36 :  -0.4500 0.4500 0.0500  plane waves:     150
 k-point 37 :  -0.3500 0.4500 0.0500  plane waves:     152
 k-point 38 :  -0.2500 0.4500 0.0500  plane waves:     150
 k-point 39 :  -0.1500 0.4500 0.0500  plane waves:     155
 k-point 40 :  -0.0500 0.4500 0.0500  plane waves:     153
 k-point 41 :  -0.4500-0.4500 0.0500  plane waves:     150
 k-point 42 :  -0.3500-0.4500 0.0500  plane waves:     151
 k-point 43 :  -0.2500-0.4500 0.0500  plane waves:     149
 k-point 44 :  -0.1500-0.4500 0.0500  plane waves:     151
 k-point 45 :  -0.3500-0.3500 0.0500  plane waves:     150
 k-point 46 :  -0.2500-0.3500 0.0500  plane waves:     149
 k-point 47 :  -0.1500-0.3500 0.0500  plane waves:     150
 k-point 48 :  -0.2500-0.2500 0.0500  plane waves:     151
 k-point 49 :  -0.1500-0.2500 0.0500  plane waves:     153
 k-point 50 :  -0.1500-0.1500 0.0500  plane waves:     157
 k-point 51 :   0.1500 0.1500 0.1500  plane waves:     153
 k-point 52 :   0.2500 0.1500 0.1500  plane waves:     155
 k-point 53 :   0.3500 0.1500 0.1500  plane waves:     152
 k-point 54 :   0.4500 0.1500 0.1500  plane waves:     149
 k-point 55 :  -0.4500 0.1500 0.1500  plane waves:     156
 k-point 56 :  -0.3500 0.1500 0.1500  plane waves:     155
 k-point 57 :  -0.2500 0.1500 0.1500  plane waves:     148
 k-point 58 :  -0.1500 0.1500 0.1500  plane waves:     152
 k-point 59 :   0.2500 0.2500 0.1500  plane waves:     153
 k-point 60 :   0.3500 0.2500 0.1500  plane waves:     151
 k-point 61 :   0.4500 0.2500 0.1500  plane waves:     148
 k-point 62 :  -0.4500 0.2500 0.1500  plane waves:     153
 k-point 63 :  -0.3500 0.2500 0.1500  plane waves:     151
 k-point 64 :  -0.2500 0.2500 0.1500  plane waves:     151
 k-point 65 :  -0.1500 0.2500 0.1500  plane waves:     150
 k-point 66 :   0.3500 0.3500 0.1500  plane waves:     152
 k-point 67 :   0.4500 0.3500 0.1500  plane waves:     149
 k-point 68 :  -0.4500 0.3500 0.1500  plane waves:     151
 k-point 69 :  -0.3500 0.3500 0.1500  plane waves:     154
 k-point 70 :  -0.2500 0.3500 0.1500  plane waves:     153
 k-point 71 :  -0.1500 0.3500 0.1500  plane waves:     149
 k-point 72 :   0.4500 0.4500 0.1500  plane waves:     151
 k-point 73 :  -0.4500 0.4500 0.1500  plane waves:     152
 k-point 74 :  -0.3500 0.4500 0.1500  plane waves:     152
 k-point 75 :  -0.2500 0.4500 0.1500  plane waves:     150
 k-point 76 :  -0.1500 0.4500 0.1500  plane waves:     152
 k-point 77 :  -0.4500-0.4500 0.1500  plane waves:     150
 k-point 78 :  -0.3500-0.4500 0.1500  plane waves:     154
 k-point 79 :  -0.2500-0.4500 0.1500  plane waves:     155
 k-point 80 :  -0.3500-0.3500 0.1500  plane waves:     150
 k-point 81 :  -0.2500-0.3500 0.1500  plane waves:     150
 k-point 82 :  -0.2500-0.2500 0.1500  plane waves:     149
 k-point 83 :   0.2500 0.2500 0.2500  plane waves:     150
 k-point 84 :   0.3500 0.2500 0.2500  plane waves:     150
 k-point 85 :   0.4500 0.2500 0.2500  plane waves:     148
 k-point 86 :  -0.4500 0.2500 0.2500  plane waves:     152
 k-point 87 :  -0.3500 0.2500 0.2500  plane waves:     153
 k-point 88 :  -0.2500 0.2500 0.2500  plane waves:     149
 k-point 89 :   0.3500 0.3500 0.2500  plane waves:     150
 k-point 90 :   0.4500 0.3500 0.2500  plane waves:     150
 k-point 91 :  -0.4500 0.3500 0.2500  plane waves:     150
 k-point 92 :  -0.3500 0.3500 0.2500  plane waves:     152
 k-point 93 :  -0.2500 0.3500 0.2500  plane waves:     155
 k-point 94 :   0.4500 0.4500 0.2500  plane waves:     149
 k-point 95 :  -0.4500 0.4500 0.2500  plane waves:     151
 k-point 96 :  -0.3500 0.4500 0.2500  plane waves:     151
 k-point 97 :  -0.2500 0.4500 0.2500  plane waves:     152
 k-point 98 :  -0.4500-0.4500 0.2500  plane waves:     152
 k-point 99 :  -0.3500-0.4500 0.2500  plane waves:     152
 k-point ** :  -0.3500-0.3500 0.2500  plane waves:     150
 k-point ** :   0.3500 0.3500 0.3500  plane waves:     153
 k-point ** :   0.4500 0.3500 0.3500  plane waves:     151
 k-point ** :  -0.4500 0.3500 0.3500  plane waves:     155
 k-point ** :  -0.3500 0.3500 0.3500  plane waves:     151
 k-point ** :   0.4500 0.4500 0.3500  plane waves:     151
 k-point ** :  -0.4500 0.4500 0.3500  plane waves:     154
 k-point ** :  -0.3500 0.4500 0.3500  plane waves:     153
 k-point ** :  -0.4500-0.4500 0.3500  plane waves:     154
 k-point ** :   0.4500 0.4500 0.4500  plane waves:     153
 k-point ** :  -0.4500 0.4500 0.4500  plane waves:     156

 maximum and minimum number of plane-waves per node :       165      148

 maximum number of plane-waves:       165
 maximum index in each direction: 
   IXMAX=    4   IYMAX=    4   IZMAX=    3
   IXMIN=   -4   IYMIN=   -4   IZMIN=   -4


 serial   3D FFT for wavefunctions
 parallel 3D FFT for charge:
    minimum data exchange during FFTs selected (reduces bandwidth)


 total amount of memory used by VASP MPI-rank0    34239. kBytes
=======================================================================

   base      :      30000. kBytes
   nonl-proj :       2663. kBytes
   fftplans  :        238. kBytes
   grid      :        331. kBytes
   one-center:         15. kBytes
   wavefun   :        992. kBytes
 
     INWAV:  cpu time    0.0008: real time    0.0002
 Broyden mixing: mesh for mixing (old mesh)
   NGX =  7   NGY =  7   NGZ =  7
  (NGX  = 24   NGY  = 24   NGZ  = 24)
  gives a total of    343 points

 initial charge density was supplied:
 charge density of overlapping atoms calculated
 number of electron      11.0000000 magnetization 
 keeping initial charge density in first step


--------------------------------------------------------------------------------------------------------


 Maximum index for augmentation-charges         1333 (set IRDMAX)


--------------------------------------------------------------------------------------------------------


 First call to EWALD:  gamma=   0.662
 Maximum number of real-space cells 3x 3x 3
 Maximum number of reciprocal cells 3x 3x 3

    FEWALD:  cpu time    0.0014: real time    0.0012


--------------------------------------- Iteration      1(   1)  ---------------------------------------


    POTLOK:  cpu time    0.0014: real time    0.0023
    SETDIJ:  cpu time    0.0017: real time    0.0018
     EDDAV:  cpu time    0.2505: real time    0.2598
       DOS:  cpu time    0.0015: real time    0.0015
    --------------------------------------------
      LOOP:  cpu time    0.2551: real time    0.2654

 eigenvalue-minimisations  :  3216
 total energy-change (2. order) : 0.3089458E+02  (-0.3466451E+03)
 number of electron      11.0000000 magnetization 
 augmentation part       11.0000000 magnetization 

 Free energy of the ion-electron system (eV)
  ---------------------------------------------------
  alpha Z        PSCENC =        95.76574619
  Ewald energy   TEWEN  =      -939.82889455
  -Hartree energ DENC   =      -138.46134419
  -exchange      EXHF   =         0.00000000
  -V(xc)+E(xc)   XCENC  =        15.97153156
  PAW double counting   =       746.10209728     -725.46159323
  entropy T*S    EENTRO =        -0.00001664
  eigenvalues    EBANDS =        47.41090211
  atomic energy  EATOM  =       929.39614979
  Solvation  Ediel_sol  =         0.00000000
  ---------------------------------------------------
  free energy    TOTEN  =        30.89457832 eV

  energy without entropy =       30.89459497  energy(sigma->0) =       30.89458387


--------------------------------------------------------------------------------------------------------




--------------------------------------- Iteration      1(   2)  ---------------------------------------


     EDDAV:  cpu time    0.2289: real time    0.2358
       DOS:  cpu time    0.0013: real time    0.0013
    --------------------------------------------
      LOOP:  cpu time    0.2302: real time    0.2371

 eigenvalue-minimisations  :  3004
 total energy-change (2. order) :-0.3509321E+02  (-0.3243520E+02)
 number of electron      11.0000000 magnetization 
 augmentation part       11.0000000 magnetization 

 Free energy of the ion-electron system (eV)
  ---------------------------------------------------
  alpha Z        PSCENC =        95.76574619
  Ewald energy   TEWEN  =      -939.82889455
  -Hartree energ DENC   =      -138.46134419
  -exchange      EXHF   =         0.00000000
  -V(xc)+E(xc)   XCENC  =        15.97153156
  PAW double counting   =       746.10209728     -725.46159323
  entropy T*S    EENTRO =         0.00073229
  eigenvalues    EBANDS =        12.31693975
  atomic energy  EATOM  =       929.39614979
  Solvation  Ediel_sol  =         0.00000000
  ---------------------------------------------------
  free energy    TOTEN  =        -4.19863511 eV

  energy without entropy =       -4.19936739  energy(sigma->0) =       -4.19887920


--------------------------------------------------------------------------------------------------------




--------------------------------------- Iteration      1(   3)  ---------------------------------------


     EDDAV:  cpu time    0.2336: real time    0.2392
       DOS:  cpu time    0.0014: real time    0.0014
    --------------------------------------------
      LOOP:  cpu time    0.2350: real time    0.2407

 eigenvalue-minimisations  :  3184
 total energy-change (2. order) :-0.3564604E+00  (-0.3563184E+00)
 number of electron      11.0000000 magnetization 
 augmentation part       11.0000000 magnetization 

 Free energy of the ion-electron system (eV)
  ---------------------------------------------------
  alpha Z        PSCENC =        95.76574619
  Ewald energy   TEWEN  =      -939.82889455
  -Hartree energ DENC   =      -138.46134419
  -exchange      EXHF   =         0.00000000
  -V(xc)+E(xc)   XCENC  =        15.97153156
  PAW double counting   =       746.10209728     -725.46159323
  entropy T*S    EENTRO =         0.00061176
  eigenvalues    EBANDS =        11.96059986
  atomic energy  EATOM  =       929.39614979
  Solvation  Ediel_sol  =         0.00000000
  ---------------------------------------------------
  free energy    TOTEN  =        -4.55509552 eV

  energy without entropy =       -4.55570728  energy(sigma->0) =       -4.55529944


--------------------------------------------------------------------------------------------------------




--------------------------------------- Iteration      1(   4)  ---------------------------------------


     EDDAV:  cpu time    0.2341: real time    0.2396
       DOS:  cpu time    0.0014: real time    0.0014
    --------------------------------------------
      LOOP:  cpu time    0.2355: real time    0.2411

 eigenvalue-minimisations  :  3124
 total energy-change (2. order) :-0.9097541E-03  (-0.9097233E-03)
 number of electron      11.0000000 magnetization 
 augmentation part       11.0000000 magnetization 

 Free energy of the ion-electron system (eV)
  ---------------------------------------------------
  alpha Z        PSCENC =        95.76574619
  Ewald energy   TEWEN  =      -939.82889455
  -Hartree energ DENC   =      -138.46134419
  -exchange      EXHF   =         0.00000000
  -V(xc)+E(xc)   XCENC  =        15.97153156
  PAW double counting   =       746.10209728     -725.46159323
  entropy T*S    EENTRO =         0.00061057
  eigenvalues    EBANDS =        11.95969129
  atomic energy  EATOM  =       929.39614979
  Solvation  Ediel_sol  =         0.00000000
  ---------------------------------------------------
  free energy    TOTEN  =        -4.55600527 eV

  energy without entropy =       -4.55661585  energy(sigma->0) =       -4.55620880


--------------------------------------------------------------------------------------------------------




--------------------------------------- Iteration      1(   5)  ---------------------------------------


     EDDAV:  cpu time    0.2179: real time    0.2231
       DOS:  cpu time    0.0015: real time    0.0015
    CHARGE:  cpu time    0.0047: real time    0.0047
    MIXING:  cpu time    0.0003: real time    0.0004
    --------------------------------------------
      LOOP:  cpu time    0.2245: real time    0.2297

 eigenvalue-minimisations  :  2864
 total energy-change (2. order) :-0.6527556E-05  (-0.6527576E-05)
 number of electron      10.9999937 magnetization 
 augmentation part        3.8354285 magnetization 

 Broyden mixing:
  rms(total) = 0.30826E+00    rms(broyden)= 0.30796E+00
  rms(prec ) = 0.12733E+01
  weight for this iteration     100.00

 Free energy of the ion-electron system (eV)
  ---------------------------------------------------
  alpha Z        PSCENC =        95.76574619
  Ewald energy   TEWEN  =      -939.82889455
  -Hartree energ DENC   =      -138.46134419
  -exchange      EXHF   =         0.00000000
  -V(xc)+E(xc)   XCENC  =        15.97153156
  PAW double counting   =       746.10209728     -725.46159323
  entropy T*S    EENTRO =         0.00061056
  eigenvalues    EBANDS =        11.95968477
  atomic energy  EATOM  =       929.39614979
  Solvation  Ediel_sol  =         0.00000000
  ---------------------------------------------------
  free energy    TOTEN  =        -4.55601180 eV

  energy without entropy =       -4.55662237  energy(sigma->0) =       -4.55621532


--------------------------------------------------------------------------------------------------------




--------------------------------------- Iteration      1(   6)  ---------------------------------------


    POTLOK:  cpu time    0.0015: real time    0.0016
    SETDIJ:  cpu time    0.0012: real time    0.0013
     EDDAV:  cpu time    0.2401: real time    0.2464
       DOS:  cpu time    0.0015: real time    0.0014
    CHARGE:  cpu time    0.0044: real time    0.0045
    MIXING:  cpu time    0.0009: real time    0.0005
    --------------------------------------------
      LOOP:  cpu time    0.2496: real time    0.2556

 eigenvalue-minimisations  :  3116
 total energy-change (2. order) : 0.3002900E+00  (-0.9640917E-01)
 number of electron      10.9999934 magnetization 
 augmentation part        3.9967711 magnetization 

 Broyden mixing:
  rms(total) = 0.69559E-01    rms(broyden)= 0.69484E-01
  rms(prec ) = 0.25633E+00
  weight for this iteration     100.00

 eigenvalues of (default mixing * dielectric matrix)
  average eigenvalue GAMMA=   1.1500
  1.1500

 Free energy of the ion-electron system (eV)
  ---------------------------------------------------
  alpha Z        PSCENC =        95.76574619
  Ewald energy   TEWEN  =      -939.82889455
  -Hartree energ DENC   =      -129.92205901
  -exchange      EXHF   =         0.00000000
  -V(xc)+E(xc)   XCENC  =        15.54120272
  PAW double counting   =       732.44111073     -712.82555126
  entropy T*S    EENTRO =         0.00095830
  eigenvalues    EBANDS =         5.17561530
  atomic energy  EATOM  =       929.39614979
  Solvation  Ediel_sol  =         0.00000000
  ---------------------------------------------------
  free energy    TOTEN  =        -4.25572180 eV

  energy without entropy =       -4.25668010  energy(sigma->0) =       -4.25604123


--------------------------------------------------------------------------------------------------------




--------------------------------------- Iteration      1(   7)  ---------------------------------------


    POTLOK:  cpu time    0.0011: real time    0.0016
    SETDIJ:  cpu time    0.0013: real time    0.0013
     EDDAV:  cpu time    0.2432: real time    0.2486
       DOS:  cpu time    0.0016: real time    0.0015
    CHARGE:  cpu time    0.0047: real time    0.0048
    MIXING:  cpu time    0.0005: real time    0.0005
    --------------------------------------------
      LOOP:  cpu time    0.2522: real time    0.2583

 eigenvalue-minimisations  :  3204
 total energy-change (2. order) : 0.1516602E-01  (-0.3249460E-02)
 number of electron      10.9999934 magnetization 
 augmentation part        4.0225094 magnetization 

 Broyden mixing:
  rms(total) = 0.30683E-01    rms(broyden)= 0.30671E-01
  rms(prec ) = 0.71042E-01
  weight for this iteration     100.00

 eigenvalues of (default mixing * dielectric matrix)
  average eigenvalue GAMMA=   1.7502
  1.1450  2.3553

 Free energy of the ion-electron system (eV)
  ---------------------------------------------------
  alpha Z        PSCENC =        95.76574619
  Ewald energy   TEWEN  =      -939.82889455
  -Hartree energ DENC   =      -127.99654583
  -exchange      EXHF   =         0.00000000
  -V(xc)+E(xc)   XCENC  =        15.43826070
  PAW double counting   =       732.48896696     -713.44815754
  entropy T*S    EENTRO =         0.00099737
  eigenvalues    EBANDS =         3.94292114
  atomic energy  EATOM  =       929.39614979
  Solvation  Ediel_sol  =         0.00000000
  ---------------------------------------------------
  free energy    TOTEN  =        -4.24055578 eV

  energy without entropy =       -4.24155315  energy(sigma->0) =       -4.24088823


--------------------------------------------------------------------------------------------------------




--------------------------------------- Iteration      1(   8)  ---------------------------------------


    POTLOK:  cpu time    0.0015: real time    0.0017
    SETDIJ:  cpu time    0.0014: real time    0.0014
     EDDAV:  cpu time    0.2159: real time    0.2206
       DOS:  cpu time    0.0012: real time    0.0012
    CHARGE:  cpu time    0.0038: real time    0.0038
    MIXING:  cpu time    0.0003: real time    0.0003
    --------------------------------------------
      LOOP:  cpu time    0.2242: real time    0.2291

 eigenvalue-minimisations  :  3020
 total energy-change (2. order) : 0.3839046E-02  (-0.1594616E-03)
 number of electron      10.9999934 magnetization 
 augmentation part        4.0219357 magnetization 

 Broyden mixing:
  rms(total) = 0.12537E-02    rms(broyden)= 0.12473E-02
  rms(prec ) = 0.29929E-02
  weight for this iteration     100.00

 eigenvalues of (default mixing * dielectric matrix)
  average eigenvalue GAMMA=   1.6695
  1.1537  1.3748  2.4799

 Free energy of the ion-electron system (eV)
  ---------------------------------------------------
  alpha Z        PSCENC =        95.76574619
  Ewald energy   TEWEN  =      -939.82889455
  -Hartree energ DENC   =      -127.29377808
  -exchange      EXHF   =         0.00000000
  -V(xc)+E(xc)   XCENC  =        15.39514722
  PAW double counting   =       736.32908400     -717.81614742
  entropy T*S    EENTRO =         0.00099347
  eigenvalues    EBANDS =         3.81498265
  atomic energy  EATOM  =       929.39614979
  Solvation  Ediel_sol  =         0.00000000
  ---------------------------------------------------
  free energy    TOTEN  =        -4.23671673 eV

  energy without entropy =       -4.23771021  energy(sigma->0) =       -4.23704789


--------------------------------------------------------------------------------------------------------




--------------------------------------- Iteration      1(   9)  ---------------------------------------


    POTLOK:  cpu time    0.0014: real time    0.0016
    SETDIJ:  cpu time    0.0013: real time    0.0012
     EDDAV:  cpu time    0.1642: real time    0.1689
       DOS:  cpu time    0.0014: real time    0.0014
    --------------------------------------------
      LOOP:  cpu time    0.1682: real time    0.1729

 eigenvalue-minimisations  :  1652
 total energy-change (2. order) :-0.1788536E-05  (-0.1078226E-05)
 number of electron      10.9999934 magnetization 
 augmentation part        4.0219357 magnetization 

 Free energy of the ion-electron system (eV)
  ---------------------------------------------------
  alpha Z        PSCENC =        95.76574619
  Ewald energy   TEWEN  =      -939.82889455
  -Hartree energ DENC   =      -127.26591195
  -exchange      EXHF   =         0.00000000
  -V(xc)+E(xc)   XCENC  =        15.39351358
  PAW double counting   =       736.87236791     -718.36485433
  entropy T*S    EENTRO =         0.00099376
  eigenvalues    EBANDS =         3.79417108
  atomic energy  EATOM  =       929.39614979
  Solvation  Ediel_sol  =         0.00000000
  ---------------------------------------------------
  free energy    TOTEN  =        -4.23671852 eV

  energy without entropy =       -4.23771228  energy(sigma->0) =       -4.23704978


--------------------------------------------------------------------------------------------------------




 average (electrostatic) potential at core
  the test charge radii are     1.2098
  (the norm of the test charge is              1.0000)
       1 -46.9077
 
 
 
 E-fermi :   3.9999     XC(G=0): -12.3067     alpha+bet : -9.1385


 k-point     1 :       0.0500    0.0500    0.0500
  band No.  band energies     occupation 
      1      -4.5786      2.00000
      2      -0.0608      2.00000
      3      -0.0139      2.00000
      4      -0.0139      2.00000
      5       1.2000      2.00000
      6       1.2000      2.00000
      7      19.4061      0.00000
      8      21.7820      0.00000
      9      22.5089      0.00000
     10      22.5089      0.00000
     11      27.0752      0.00000
     12      29.2695      0.00000

 k-point     2 :       0.1500    0.0500    0.0500
  band No.  band energies     occupation 
      1      -4.1699      2.00000
      2      -0.1803      2.00000
      3       0.1003      2.00000
      4       0.1278      2.00000
      5       1.0865      2.00000
      6       1.2430      2.00000
      7      19.3157      0.00000
      8      20.0364      0.00000
      9      21.9862      0.00000
     10      23.3036      0.00000
     11      26.1245      0.00000
     12      28.6564      0.00000

 k-point     3 :       0.2500    0.0500    0.0500
  band No.  band energies     occupation 
      1      -3.2751      2.00000
      2      -0.2601      2.00000
      3       0.2302      2.00000
      4       0.2453      2.00000
      5       1.0997      2.00000
      6       1.4243      2.00000
      7      15.8432      0.00000
      8      19.9605      0.00000
      9      21.9137      0.00000
     10      24.0521      0.00000
     11      24.6069      0.00000
     12      26.5834      0.00000

 k-point     4 :       0.3500    0.0500    0.0500
  band No.  band energies     occupation 
      1      -2.4464      2.00000
      2       0.0879      2.00000
      3       0.1534      2.00000
      4       0.3456      2.00000
      5       1.4941      2.00000
      6       1.8928      2.00000
      7      11.9381      0.00000
      8      19.4070      0.00000
      9      20.9175      0.00000
     10      22.8079      0.00000
     11      25.6525      0.00000
     12      26.5093      0.00000

 k-point     5 :       0.4500    0.0500    0.0500
  band No.  band energies     occupation 
      1      -2.2199      2.00000
      2      -0.0369      2.00000
      3       0.0185      2.00000
      4       1.6370      2.00000
      5       1.9734      2.00000
      6       2.7906      2.00000
      7       8.3297     -0.00000
      8      18.8200      0.00000
      9      20.1114      0.00000
     10      21.1266      0.00000
     11      27.0205      0.00000
     12      27.1362      0.00000

 k-point     6 :      -0.4500    0.0500    0.0500
  band No.  band energies     occupation 
      1      -2.2097      2.00000
      2      -0.0907      2.00000
      3      -0.0134      2.00000
      4       1.8928      2.00000
      5       2.1942      2.00000
      6       3.8519      1.94587
      7       6.6300     -0.00000
      8      18.6695      0.00000
      9      20.1705      0.00000
     10      20.3079      0.00000
     11      27.3486      0.00000
     12      27.3960      0.00000

 k-point     7 :      -0.3500    0.0500    0.0500
  band No.  band energies     occupation 
      1      -2.2503      2.00000
      2      -0.0122      2.00000
      3       0.0756      2.00000
      4       1.1709      2.00000
      5       2.0373      2.00000
      6       2.2433      2.00000
      7       9.4589     -0.00000
      8      19.0573      0.00000
      9      20.4897      0.00000
     10      21.2270      0.00000
     11      26.9567      0.00000
     12      27.2269      0.00000

 k-point     8 :      -0.2500    0.0500    0.0500
  band No.  band energies     occupation 
      1      -2.6602      2.00000
      2      -0.0333      2.00000
      3       0.1747      2.00000
      4       0.2141      2.00000
      5       1.4303      2.00000
      6       1.6319      2.00000
      7      13.2311      0.00000
      8      19.8144      0.00000
      9      21.2602      0.00000
     10      22.9348      0.00000
     11      25.3187      0.00000
     12      27.1300      0.00000

 k-point     9 :      -0.1500    0.0500    0.0500
  band No.  band energies     occupation 
      1      -3.6062      2.00000
      2      -0.2767      2.00000
      3       0.2209      2.00000
      4       0.2304      2.00000
      5       1.0632      2.00000
      6       1.3204      2.00000
      7      17.1253      0.00000
      8      20.1937      0.00000
      9      21.8736      0.00000
     10      23.6326      0.00000
     11      24.9055      0.00000
     12      27.6397      0.00000

 k-point    10 :      -0.0500    0.0500    0.0500
  band No.  band energies     occupation 
      1      -4.3710      2.00000
      2      -0.1462      2.00000
      3       0.0651      2.00000
      4       0.0704      2.00000
      5       1.1042      2.00000
      6       1.2481      2.00000
      7      19.5459      0.00000
      8      20.8876      0.00000
      9      22.1230      0.00000
     10      22.5715      0.00000
     11      27.2509      0.00000
     12      28.6840      0.00000

 k-point    11 :       0.1500    0.1500    0.0500
  band No.  band energies     occupation 
      1      -3.9667      2.00000
      2      -0.3182      2.00000
      3       0.2309      2.00000
      4       0.2331      2.00000
      5       0.9329      2.00000
      6       1.3373      2.00000
      7      19.5660      0.00000
      8      20.1815      0.00000
      9      21.2921      0.00000
     10      22.0977      0.00000
     11      26.0216      0.00000
     12      28.3077      0.00000

 k-point    12 :       0.2500    0.1500    0.0500
  band No.  band energies     occupation 
      1      -3.2252      2.00000
      2      -0.5134      2.00000
      3       0.3167      2.00000
      4       0.4616      2.00000
      5       0.9002      2.00000
      6       1.5205      2.00000
      7      17.3469      0.00000
      8      19.1559      0.00000
      9      21.2762      0.00000
     10      22.4340      0.00000
     11      23.9951      0.00000
     12      27.5787      0.00000

 k-point    13 :       0.3500    0.1500    0.0500
  band No.  band energies     occupation 
      1      -2.2965      2.00000
      2      -0.4275      2.00000
      3       0.0787      2.00000
      4       0.4715      2.00000
      5       1.4435      2.00000
      6       2.0054      2.00000
      7      13.4514      0.00000
      8      18.5541      0.00000
      9      20.2845      0.00000
     10      21.7846      0.00000
     11      25.3714      0.00000
     12      27.3222      0.00000

 k-point    14 :       0.4500    0.1500    0.0500
  band No.  band energies     occupation 
      1      -1.9218      2.00000
      2      -0.1629      2.00000
      3       0.2876      2.00000
      4       0.4379      2.00000
      5       2.0314      2.00000
      6       3.0997      2.00000
      7       9.6829      0.00000
      8      18.2235      0.00000
      9      18.9216      0.00000
     10      20.7015      0.00000
     11      27.2218      0.00000
     12      28.1311      0.00000

 k-point    15 :      -0.4500    0.1500    0.0500
  band No.  band energies     occupation 
      1      -1.8932      2.00000
      2      -0.2669      2.00000
      3       0.2318      2.00000
      4       1.0741      2.00000
      5       2.1586      2.00000
      6       5.0173     -0.00000
      7       6.6691     -0.00000
      8      17.8586      0.00000
      9      18.4630      0.00000
     10      20.2105      0.00000
     11      27.4033      0.00000
     12      28.5598      0.00000

 k-point    16 :      -0.3500    0.1500    0.0500
  band No.  band energies     occupation 
      1      -1.8847      2.00000
      2      -0.2035      2.00000
      3       0.2529      2.00000
      4       0.8148      2.00000
      5       1.9131      2.00000
      6       3.7461      2.07035
      7       8.5914     -0.00000
      8      17.3726      0.00000
      9      19.2082      0.00000
     10      20.8856      0.00000
     11      26.8197      0.00000
     12      28.1535      0.00000

 k-point    17 :      -0.2500    0.1500    0.0500
  band No.  band energies     occupation 
      1      -2.0715      2.00000
      2      -0.1955      2.00000
      3       0.0577      2.00000
      4       0.4054      2.00000
      5       1.3627      2.00000
      6       2.4686      2.00000
      7      12.1827      0.00000
      8      17.5291      0.00000
      9      20.3338      0.00000
     10      22.5739      0.00000
     11      25.3092      0.00000
     12      27.3164      0.00000

 k-point    18 :      -0.1500    0.1500    0.0500
  band No.  band energies     occupation 
      1      -2.9023      2.00000
      2      -0.4739      2.00000
      3       0.2350      2.00000
      4       0.4800      2.00000
      5       0.8932      2.00000
      6       1.7387      2.00000
      7      15.9758      0.00000
      8      18.1343      0.00000
      9      21.9021      0.00000
     10      22.8324      0.00000
     11      25.1611      0.00000
     12      26.3563      0.00000

 k-point    19 :      -0.0500    0.1500    0.0500
  band No.  band energies     occupation 
      1      -3.7786      2.00000
      2      -0.3120      2.00000
      3       0.2339      2.00000
      4       0.2407      2.00000
      5       0.9660      2.00000
      6       1.3480      2.00000
      7      18.4100      0.00000
      8      19.7138      0.00000
      9      21.5991      0.00000
     10      23.3401      0.00000
     11      25.2049      0.00000
     12      27.8825      0.00000

 k-point    20 :       0.2500    0.2500    0.0500
  band No.  band energies     occupation 
      1      -2.7231      2.00000
      2      -0.8041      2.00000
      3       0.4509      2.00000
      4       0.7751      2.00000
      5       0.9377      2.00000
      6       1.6151      2.00000
      7      17.7059      0.00000
      8      18.7473      0.00000
      9      20.2768      0.00000
     10      20.8216      0.00000
     11      21.3337      0.00000
     12      29.2656      0.00000

 k-point    21 :       0.3500    0.2500    0.0500
  band No.  band energies     occupation 
      1      -1.9839      2.00000
      2      -0.9852      2.00000
      3       0.2493      2.00000
      4       1.0601      2.00000
      5       1.4834      2.00000
      6       2.0228      2.00000
      7      15.0769      0.00000
      8      16.9600      0.00000
      9      18.5581      0.00000
     10      21.0867      0.00000
     11      22.4976      0.00000
     12      29.2214      0.00000

 k-point    22 :       0.4500    0.2500    0.0500
  band No.  band energies     occupation 
      1      -1.5489      2.00000
      2      -0.7536      2.00000
      3       0.0521      2.00000
      4       0.9548      2.00000
      5       2.0980      2.00000
      6       3.3246      2.00002
      7      11.2875      0.00000
      8      16.2586      0.00000
      9      16.9583      0.00000
     10      20.8786      0.00000
     11      25.4549      0.00000
     12      28.9533      0.00000

 k-point    23 :      -0.4500    0.2500    0.0500
  band No.  band energies     occupation 
      1      -1.4463      2.00000
      2      -0.5292      2.00000
      3       0.2380      2.00000
      4       0.7952      2.00000
      5       2.1878      2.00000
      6       5.5475     -0.00000
      7       7.9676     -0.00000
      8      15.0285      0.00000
      9      17.0213      0.00000
     10      20.6547      0.00000
     11      28.0512      0.00000
     12      29.1978      0.00000

 k-point    24 :      -0.3500    0.2500    0.0500
  band No.  band energies     occupation 
      1      -1.3079      2.00000
      2      -0.4828      2.00000
      3       0.2731      2.00000
      4       0.7101      2.00000
      5       1.8731      2.00000
      6       5.3982     -0.00000
      7       8.3991     -0.00000
      8      14.0363      0.00000
      9      18.1376      0.00000
     10      20.8498      0.00000
     11      27.3739      0.00000
     12      29.5879      0.00000

 k-point    25 :      -0.2500    0.2500    0.0500
  band No.  band energies     occupation 
      1      -1.2512      2.00000
      2      -0.4347      2.00000
      3      -0.1974      2.00000
      4       0.7789      2.00000
      5       1.3260      2.00000
      6       3.7024      2.05643
      7      11.5680      0.00000
      8      13.9359      0.00000
      9      19.5271      0.00000
     10      21.9157      0.00000
     11      25.5703      0.00000
     12      29.2740      0.00000

 k-point    26 :      -0.1500    0.2500    0.0500
  band No.  band energies     occupation 
      1      -1.9490      2.00000
      2      -0.5315      2.00000
      3       0.0280      2.00000
      4       0.6722      2.00000
      5       1.0072      2.00000
      6       2.5371      2.00000
      7      13.5811      0.00000
      8      16.0350      0.00000
      9      20.7135      0.00000
     10      23.3361      0.00000
     11      24.2411      0.00000
     12      27.7368      0.00000

 k-point    27 :      -0.0500    0.2500    0.0500
  band No.  band energies     occupation 
      1      -2.8179      2.00000
      2      -0.3183      2.00000
      3       0.2115      2.00000
      4       0.3246      2.00000
      5       1.1562      2.00000
      6       1.6780      2.00000
      7      14.6191      0.00000
      8      19.4075      0.00000
      9      21.1779      0.00000
     10      23.4076      0.00000
     11      24.8152      0.00000
     12      26.6011      0.00000

 k-point    28 :       0.3500    0.3500    0.0500
  band No.  band energies     occupation 
      1      -1.8230      2.00000
      2      -1.2970      2.00000
      3       1.0182      2.00000
      4       1.4862      2.00000
      5       1.8918      2.00000
      6       1.9476      2.00000
      7      14.9312      0.00000
      8      16.1456      0.00000
      9      16.1758      0.00000
     10      20.0447      0.00000
     11      21.8561      0.00000
     12      31.6199      0.00000

 k-point    29 :       0.4500    0.3500    0.0500
  band No.  band energies     occupation 
      1      -1.6753      2.00000
      2      -1.3854      2.00000
      3       1.0395      2.00000
      4       1.7326      2.00000
      5       2.1091      2.00000
      6       3.4273      2.00039
      7      12.3055      0.00000
      8      14.4776      0.00000
      9      15.1328      0.00000
     10      20.9209      0.00000
     11      22.7330      0.00000
     12      31.0749      0.00000

 k-point    30 :      -0.4500    0.3500    0.0500
  band No.  band energies     occupation 
      1      -1.5321      2.00000
      2      -1.1131      2.00000
      3       0.7444      2.00000
      4       1.4878      2.00000
      5       2.2672      2.00000
      6       5.7725     -0.00000
      7       9.4529     -0.00000
      8      12.7044      0.00000
      9      15.2679      0.00000
     10      21.1806      0.00000
     11      25.3016      0.00000
     12      30.0904      0.00000

 k-point    31 :      -0.3500    0.3500    0.0500
  band No.  band energies     occupation 
      1      -1.2938      2.00000
      2      -0.6783      2.00000
      3       0.2947      2.00000
      4       1.2223      2.00000
      5       2.0117      2.00000
      6       6.8420     -0.00000
      7       8.9404     -0.00000
      8      11.1261      0.00000
      9      16.4250      0.00000
     10      21.1110      0.00000
     11      28.4949      0.00000
     12      28.9564      0.00000

 k-point    32 :      -0.2500    0.3500    0.0500
  band No.  band energies     occupation 
      1      -1.0731      2.00000
      2      -0.4336      2.00000
      3      -0.1089      2.00000
      4       0.9342      2.00000
      5       1.6842      2.00000
      6       5.2073     -0.00000
      7      10.1317      0.00000
      8      12.1061      0.00000
      9      18.0810      0.00000
     10      21.1371      0.00000
     11      27.2688      0.00000
     12      29.9050      0.00000

 k-point    33 :      -0.1500    0.3500    0.0500
  band No.  band energies     occupation 
      1      -1.5801      2.00000
      2      -0.2813      2.00000
[...]
      1      -1.2895      2.00000
      2      -0.8317      2.00000
      3       0.2324      2.00000
      4       1.2872      2.00000
      5       2.1963      2.00000
      6       6.4298     -0.00000
      7       8.7916     -0.00000
      8      12.6479      0.00000
      9      15.0479      0.00000
     10      22.1479      0.00000
     11      26.7842      0.00000
     12      28.7041      0.00000

 k-point    94 :       0.4500    0.4500    0.2500
  band No.  band energies     occupation 
      1      -1.6279      2.00000
      2      -0.4617      2.00000
      3       0.0763      2.00000
      4       0.6876      2.00000
      5       2.2317      2.00000
      6       3.6742      2.04351
      7       9.9349      0.00000
      8      16.8409      0.00000
      9      17.6350      0.00000
     10      20.1069      0.00000
     11      27.2581      0.00000
     12      29.1343      0.00000

 k-point    95 :      -0.4500    0.4500    0.2500
  band No.  band energies     occupation 
      1      -1.2987      2.00000
      2      -0.6857      2.00000
      3       0.0089      2.00000
      4       1.1090      2.00000
      5       2.1234      2.00000
      6       5.1184     -0.00000
      7       9.3625     -0.00000
      8      14.3394      0.00000
      9      15.7699      0.00000
     10      21.8877      0.00000
     11      26.6090      0.00000
     12      28.6652      0.00000

 k-point    96 :      -0.3500    0.4500    0.2500
  band No.  band energies     occupation 
      1      -0.9525      2.00000
      2      -0.6520      2.00000
      3      -0.2722      2.00000
      4       1.2010      2.00000
      5       2.2336      2.00000
      6       6.7581     -0.00000
      7       9.7079      0.00000
      8      11.4500      0.00000
      9      14.0840      0.00000
     10      24.3984      0.00000
     11      25.9767      0.00000
     12      28.6924      0.00000

 k-point    97 :      -0.2500    0.4500    0.2500
  band No.  band energies     occupation 
      1      -1.0533      2.00000
      2      -0.6458      2.00000
      3      -0.1398      2.00000
      4       1.1642      2.00000
      5       2.4020      2.00000
      6       7.8352     -0.00000
      7       9.4743      0.00000
      8      10.6983      0.00000
      9      13.1645      0.00000
     10      25.0695      0.00000
     11      26.5283      0.00000
     12      27.6459      0.00000

 k-point    98 :      -0.4500   -0.4500    0.2500
  band No.  band energies     occupation 
      1      -1.4694      2.00000
      2      -0.8581      2.00000
      3       0.5329      2.00000
      4       1.2272      2.00000
      5       2.2070      2.00000
      6       6.3101     -0.00000
      7       8.4592     -0.00000
      8      12.7591      0.00000
      9      16.3243      0.00000
     10      20.5720      0.00000
     11      26.9123      0.00000
     12      30.1846      0.00000

 k-point    99 :      -0.3500   -0.4500    0.2500
  band No.  band energies     occupation 
      1      -1.3164      2.00000
      2      -0.8946      2.00000
      3       0.4060      2.00000
      4       1.3521      2.00000
      5       2.2392      2.00000
      6       7.5105     -0.00000
      7       8.6420     -0.00000
      8      11.1494      0.00000
      9      14.7506      0.00000
     10      22.3211      0.00000
     11      26.9106      0.00000
     12      28.7376      0.00000

 k-point   100 :      -0.3500   -0.3500    0.2500
  band No.  band energies     occupation 
      1      -1.4782      2.00000
      2      -0.9352      2.00000
      3       0.6970      2.00000
      4       1.4350      2.00000
      5       2.1134      2.00000
      6       7.3743     -0.00000
      7       8.3422     -0.00000
      8      11.1635      0.00000
      9      16.0600      0.00000
     10      20.7363      0.00000
     11      26.8500      0.00000
     12      30.3996      0.00000

 k-point   101 :       0.3500    0.3500    0.3500
  band No.  band energies     occupation 
      1      -2.3798      2.00000
      2       0.0713      2.00000
      3       0.0713      2.00000
      4       0.9357      2.00000
      5       1.7934      2.00000
      6       1.7934      2.00000
      7      10.6336      0.00000
      8      19.2743      0.00000
      9      21.5957      0.00000
     10      21.5957      0.00000
     11      26.7474      0.00000
     12      26.7949      0.00000

 k-point   102 :       0.4500    0.3500    0.3500
  band No.  band energies     occupation 
      1      -2.0671      2.00000
      2      -0.0713      2.00000
      3       0.1646      2.00000
      4       0.8372      2.00000
      5       1.7094      2.00000
      6       2.9208      2.00000
      7       9.6033      0.00000
      8      18.1212      0.00000
      9      19.8136      0.00000
     10      21.6119      0.00000
     11      26.3488      0.00000
     12      27.3614      0.00000

 k-point   103 :      -0.4500    0.3500    0.3500
  band No.  band energies     occupation 
      1      -1.4525      2.00000
      2      -0.3582      2.00000
      3       0.3518      2.00000
      4       0.5393      2.00000
      5       1.6923      2.00000
      6       4.4646     -0.00491
      7       9.1517     -0.00000
      8      14.7600      0.00000
      9      19.9500      0.00000
     10      20.0361      0.00000
     11      27.0018      0.00000
     12      28.7179      0.00000

 k-point   104 :      -0.3500    0.3500    0.3500
  band No.  band energies     occupation 
      1      -1.2117      2.00000
      2      -0.4735      2.00000
      3       0.1080      2.00000
      4       1.0484      2.00000
      5       1.8128      2.00000
      6       5.9844     -0.00000
      7       9.5237      0.00000
      8      11.4494      0.00000
      9      17.8587      0.00000
     10      20.4266      0.00000
     11      28.7630      0.00000
     12      29.6444      0.00000

 k-point   105 :       0.4500    0.4500    0.3500
  band No.  band energies     occupation 
      1      -2.0576      2.00000
      2      -0.1406      2.00000
      3       0.1654      2.00000
      4       0.9835      2.00000
      5       2.1848      2.00000
      6       3.2954      2.00001
      7       8.4184     -0.00000
      8      18.7996      0.00000
      9      19.5603      0.00000
     10      19.9791      0.00000
     11      27.7451      0.00000
     12      27.8084      0.00000

 k-point   106 :      -0.4500    0.4500    0.3500
  band No.  band energies     occupation 
      1      -1.6517      2.00000
      2      -0.3756      2.00000
      3       0.4160      2.00000
      4       0.6325      2.00000
      5       2.0704      2.00000
      6       4.8754     -0.00000
      7       7.7243     -0.00000
      8      16.6287      0.00000
      9      17.7560      0.00000
     10      20.9325      0.00000
     11      27.0340      0.00000
     12      29.3633      0.00000

 k-point   107 :      -0.3500    0.4500    0.3500
  band No.  band energies     occupation 
      1      -1.1401      2.00000
      2      -0.6362      2.00000
      3       0.1111      2.00000
      4       0.9232      2.00000
      5       2.0363      2.00000
      6       6.4673     -0.00000
      7       7.8701     -0.00000
      8      13.4125      0.00000
      9      16.2966      0.00000
     10      21.9050      0.00000
     11      27.1939      0.00000
     12      30.5462      0.00000

 k-point   108 :      -0.4500   -0.4500    0.3500
  band No.  band energies     occupation 
      1      -1.5512      2.00000
      2      -0.4347      2.00000
      3       0.5031      2.00000
      4       0.5644      2.00000
      5       2.1429      2.00000
      6       6.0828     -0.00000
      7       6.7893     -0.00000
      8      15.4752      0.00000
      9      18.3272      0.00000
     10      19.8823      0.00000
     11      28.5735      0.00000
     12      28.8627      0.00000

 k-point   109 :       0.4500    0.4500    0.4500
  band No.  band energies     occupation 
      1      -2.2687      2.00000
      2      -0.0420      2.00000
      3      -0.0420      2.00000
      4       2.1418      2.00000
      5       2.1418      2.00000
      6       2.9818      2.00000
      7       7.3015     -0.00000
      8      18.7167      0.00000
      9      20.6648      0.00000
     10      20.6648      0.00000
     11      27.1498      0.00000
     12      27.1498      0.00000

 k-point   110 :      -0.4500    0.4500    0.4500
  band No.  band energies     occupation 
      1      -2.0444      2.00000
      2      -0.1758      2.00000
      3       0.1022      2.00000
      4       1.4340      2.00000
      5       2.1232      2.00000
      6       4.5242     -0.00132
      7       6.6606     -0.00000
      8      18.2247      0.00000
      9      19.4137      0.00000
     10      20.0846      0.00000
     11      27.5594      0.00000
     12      27.6966      0.00000


--------------------------------------------------------------------------------------------------------


 soft charge-density along one line, spin component           1
         0         1         2         3         4         5         6         7         8         9
 total charge-density along one line
 
 pseudopotential strength for first ion, spin component:           1
-10.284   0.000  -0.000   0.000   0.000   0.000  -0.000   0.000  -0.000   0.000  -0.027   0.000   0.000   0.000  -0.000   0.000
 -0.000   0.000 -10.284   0.000  -0.000   0.000  -0.000   0.000   0.000   0.000   0.000   0.000  -0.027   0.000   0.000   0.000
  0.000   0.000  -0.000   0.000 -10.268   0.000  -0.000   0.000   0.000   0.000  -0.000   0.000   0.000   0.000  -0.028   0.000
 -0.000   0.000  -0.000   0.000  -0.000   0.000 -10.284   0.000  -0.000   0.000   0.000   0.000   0.000   0.000   0.000   0.000
 -0.000   0.000   0.000   0.000   0.000   0.000  -0.000   0.000 -10.268   0.000   0.000   0.000  -0.000   0.000  -0.000   0.000
 -0.027   0.000   0.000   0.000  -0.000   0.000   0.000   0.000   0.000   0.000   0.274   0.000  -0.000   0.000   0.000   0.000
  0.000   0.000  -0.027   0.000   0.000   0.000   0.000   0.000  -0.000   0.000  -0.000   0.000   0.274   0.000  -0.000   0.000
 -0.000   0.000   0.000   0.000  -0.028   0.000   0.000   0.000  -0.000   0.000   0.000   0.000  -0.000   0.000   0.274   0.000
  0.000   0.000   0.000   0.000   0.000   0.000  -0.027   0.000   0.000   0.000  -0.000   0.000  -0.000   0.000  -0.000   0.000
  0.000   0.000  -0.000   0.000  -0.000   0.000   0.000   0.000  -0.028   0.000  -0.000   0.000   0.000   0.000   0.000   0.000
  0.000   0.000   0.000   0.000  -0.000   0.000   0.000   0.000   0.000   0.000   0.000   0.000   0.000   0.000  -0.000   0.000
 -0.000   0.000  -0.000   0.000   0.000   0.000  -0.000   0.000  -0.000   0.000   0.000   0.000   0.000   0.000   0.000   0.000
  0.000   0.000  -0.000   0.000  -0.000   0.000  -0.000   0.000  -0.000   0.000  -0.000   0.000   0.000   0.000   0.000   0.000
 -0.000   0.000   0.000   0.000   0.000   0.000   0.000   0.000   0.000   0.000   0.000   0.000  -0.000   0.000   0.000   0.000
  0.000   0.000  -0.000   0.000  -0.000   0.000  -0.000   0.000   0.000   0.000  -0.000   0.000   0.000   0.000   0.000   0.000
 -0.000   0.000   0.000   0.000   0.000   0.000   0.000   0.000   0.000   0.000   0.000   0.000  -0.000   0.000  -0.000   0.000
  0.000   0.000  -0.000   0.000  -0.000   0.000  -0.000   0.000  -0.000   0.000  -0.000   0.000   0.000   0.000   0.000   0.000
 -0.000   0.000   0.000   0.000   0.000   0.000   0.000   0.000  -0.000   0.000   0.000   0.000  -0.000   0.000  -0.000   0.000
 total augmentation occupancy for first ion, spin component:           1
  1.904  -0.000   0.000  -0.000   0.000  -0.066   0.000   0.000   0.000  -0.000   0.000   0.000   0.000   0.000   0.000   0.000
  0.000   1.904  -0.000   0.000  -0.000   0.000  -0.066  -0.000  -0.000   0.000   0.000   0.000   0.000   0.000   0.000   0.000
  0.000   0.000   1.950   0.000   0.000   0.000   0.000  -0.104  -0.000   0.000   0.000   0.000   0.000   0.000   0.000   0.000
 -0.000   0.000   0.000   1.904   0.000   0.000   0.000  -0.000  -0.066   0.000  -0.000  -0.000   0.000   0.000   0.000   0.000
 -0.000   0.000   0.000  -0.000   1.950   0.000  -0.000   0.000   0.000  -0.104   0.000   0.000   0.000   0.000   0.000   0.000
 -0.066  -0.000   0.000   0.000  -0.000   0.142   0.000  -0.000   0.000   0.000   0.000  -0.000   0.000   0.000   0.000   0.000
 -0.000  -0.066  -0.000  -0.000  -0.000  -0.000   0.142  -0.000  -0.000   0.000   0.000   0.000   0.000   0.000   0.000   0.000
  0.000   0.000  -0.104   0.000   0.000  -0.000  -0.000   0.114   0.000   0.000  -0.000   0.000   0.000   0.000   0.000   0.000
 -0.000   0.000  -0.000  -0.066   0.000   0.000   0.000   0.000   0.142  -0.000  -0.000  -0.000   0.000   0.000   0.000   0.000
  0.000   0.000   0.000   0.000  -0.104  -0.000  -0.000   0.000  -0.000   0.114  -0.000   0.000   0.000   0.000   0.000   0.000
  0.000   0.000   0.000   0.000   0.000   0.000   0.000  -0.000  -0.000  -0.000   1.020  -0.311   0.000   0.000   0.000   0.000
  0.000   0.000   0.000  -0.000   0.000  -0.000  -0.000   0.000   0.000   0.000  -0.311   0.182   0.000   0.000   0.000   0.000
  0.000   0.000   0.000   0.000   0.000   0.000   0.000   0.000   0.000   0.000   0.000   0.000   0.126   0.000   0.000  -0.010
  0.000   0.000   0.000   0.000   0.000   0.000   0.000   0.000   0.000   0.000   0.000   0.000   0.000   0.126   0.000   0.000
  0.000   0.000   0.000   0.000   0.000   0.000   0.000   0.000   0.000   0.000   0.000   0.000   0.000   0.000   0.126  -0.000
  0.000   0.000   0.000   0.000   0.000   0.000   0.000   0.000   0.000   0.000   0.000   0.000  -0.010   0.000  -0.000   0.001
  0.000   0.000   0.000   0.000   0.000   0.000   0.000   0.000   0.000   0.000   0.000   0.000   0.000  -0.010  -0.000   0.000
  0.000   0.000   0.000   0.000   0.000   0.000   0.000   0.000   0.000   0.000   0.000   0.000   0.000  -0.000  -0.010   0.000


------------------------ aborting loop because EDIFF is reached ----------------------------------------


    CHARGE:  cpu time    0.0041: real time    0.0041
    FORLOC:  cpu time    0.0002: real time    0.0001
    FORNL :  cpu time    0.0095: real time    0.0098
    STRESS:  cpu time    0.0551: real time    0.0552
    FORCOR:  cpu time    0.0009: real time    0.0009
    FORHAR:  cpu time    0.0006: real time    0.0007
    MIXING:  cpu time    0.0003: real time    0.0002
    OFIELD:  cpu time    0.0000: real time    0.0000

  FORCE on cell =-STRESS in cart. coord.  units (eV):
  Direction    XX          YY          ZZ          XY          YZ          ZX
  --------------------------------------------------------------------------------------
  Alpha Z    95.76575    95.76575    95.76575
  Ewald    -313.27631  -313.27631  -313.27631    -0.00000    -0.00000    -0.00000
  Hartree    42.42863    42.42863    42.42863     0.00000     0.00000     0.00000
  E(xc)     -48.56202   -48.56202   -48.56202     0.00002     0.00002     0.00002
  Local      76.98324    76.98324    76.98324     0.00030     0.00030     0.00030
  n-local   -51.62260   -49.07758   -52.84438     0.56616    -0.72814    -0.01574
  augment    42.63353    42.63353    42.63353    -0.00006    -0.00006    -0.00006
  Kinetic   152.83127   151.63155   153.64272    -0.56040     0.31921    -0.00109
  Fock        0.00000     0.00000     0.00000     0.00000     0.00000     0.00000
  -------------------------------------------------------------------------------------
  Total      -2.50686    -2.50686    -2.50686    -0.00000    -0.00000     0.00000
  in kB    -209.28311  -209.28311  -209.28311    -0.00000    -0.00000     0.00000
  external pressure =     -209.28 kB  Pullay stress =        0.00 kB


 VOLUME and BASIS-vectors are now :
 -----------------------------------------------------------------------------
  energy-cutoff  :      229.87
  volume of cell :       19.19
      direct lattice vectors                 reciprocal lattice vectors
     0.000000000  2.125000000  2.125000000    -0.235294118  0.235294118  0.235294118
     2.125000000  0.000000000  2.125000000     0.235294118 -0.235294118  0.235294118
     2.125000000  2.125000000  0.000000000     0.235294118  0.235294118 -0.235294118

  length of vectors
     3.005203820  3.005203820  3.005203820     0.407541366  0.407541366  0.407541366


 FORCES acting on ions
    electron-ion (+dipol)            ewald-force                    non-local-force                 convergence-correction
 -----------------------------------------------------------------------------------------------
   -.968E-15 -.158E-14 -.156E-14   -.125E-14 -.240E-14 0.289E-16   0.132E-22 -.132E-22 0.662E-23   0.919E-14 -.328E-14 -.106E-14
 -----------------------------------------------------------------------------------------------
   -.968E-15 -.158E-14 -.156E-14   -.125E-14 -.240E-14 0.289E-16   0.132E-22 -.132E-22 0.662E-23   0.919E-14 -.328E-14 -.106E-14
 
 
 POSITION                                       TOTAL-FORCE (eV/Angst)
 -----------------------------------------------------------------------------------
      0.00000      0.00000      0.00000         0.000000      0.000000      0.000000
 -----------------------------------------------------------------------------------
    total drift:                                0.000000     -0.000000     -0.000000


--------------------------------------------------------------------------------------------------------



  FREE ENERGIE OF THE ION-ELECTRON SYSTEM (eV)
  ---------------------------------------------------
  free  energy   TOTEN  =        -4.23671852 eV

  energy  without entropy=       -4.23771228  energy(sigma->0) =       -4.23704978
 


--------------------------------------------------------------------------------------------------------


    POTLOK:  cpu time    0.0029: real time    0.0030


--------------------------------------------------------------------------------------------------------


 writing wavefunctions
     LOOP+:  cpu time    2.2320: real time    2.2923
    4ORBIT:  cpu time    0.0000: real time    0.0000

volume of typ            1:    74.1 %
 
total charge     
 
# of ion       s       p       d       tot
------------------------------------------
    1        0.553   0.342   8.842   9.736
 
orbital moment (x)
 
# of ion     s             p             d             tot
-----------------------------------------------------------------
    1     0.000000E+00 -0.375295E-08 -0.264564E-08 -0.639859E-08
 
orbital moment (y)
 
# of ion     s             p             d             tot
-----------------------------------------------------------------
    1     0.000000E+00  0.273011E-08 -0.406235E-08 -0.133224E-08
 
orbital moment (z)
 
# of ion     s             p             d             tot
-----------------------------------------------------------------
    1     0.000000E+00  0.750083E-09 -0.176567E-08 -0.101559E-08
 

 total amount of memory used by VASP MPI-rank0    34239. kBytes
=======================================================================

   base      :      30000. kBytes
   nonl-proj :       2663. kBytes
   fftplans  :        238. kBytes
   grid      :        331. kBytes
   one-center:         15. kBytes
   wavefun   :        992. kBytes
 
  
  
 General timing and accounting informations for this job:
 ========================================================
  
                  Total CPU time used (sec):        2.842
                            User time (sec):        2.318
                          System time (sec):        0.524
                         Elapsed time (sec):        2.952
  
                   Maximum memory used (kb):       58976.
                   Average memory used (kb):           0.
  
                          Minor page faults:        22035
                          Major page faults:            0
                 Voluntary context switches:         2170
