PROCAR new format
# of k-points:  110         # of bands:   12         # of ions:    1

 k-point     1 :    0.05000000 0.05000000 0.05000000     weight = 0.00200000

band     1 # energy   -4.57855180 # occ.  2.00000000
 
ion      s      p      d    tot
    1  0.609  0.004  0.000  0.612
 
band     2 # energy   -0.06084980 # occ.  2.00000000
 
ion      s      p      d    tot
    1  0.000  0.001  0.931  0.932
 
band     3 # energy   -0.01393725 # occ.  2.00000000
 
ion      s      p      d    tot
    1  0.000  0.000  0.934  0.934
 
band     4 # energy   -0.01393725 # occ.  2.00000000
 
ion      s      p      d    tot
    1  0.000  0.000  0.934  0.934
 
band     5 # energy    1.19996727 # occ.  2.00000000
 
ion      s      p      d    tot
    1  0.000  0.000  0.961  0.961
 
band     6 # energy    1.19996727 # occ.  2.00000000
 
ion      s      p      d    tot
    1  0.000  0.000  0.961  0.961
 
band     7 # energy   19.40610076 # occ.  0.00000000
 
ion      s      p      d    tot
    1  0.000  0.001  0.012  0.012
 
band     8 # energy   21.78201455 # occ.  0.00000000
 
ion      s      p      d    tot
    1  0.016  0.256  0.015  0.287
 
band     9 # energy   22.50892056 # occ.  0.00000000
 
ion      s      p      d    tot
    1  0.000  0.277  0.008  0.285
 
band    10 # energy   22.50892056 # occ.  0.00000000
 
ion      s      p      d    tot
    1  0.000  0.277  0.008  0.285
 
band    11 # energy   27.07516707 # occ.  0.00000000
 
ion      s      p      d    tot
    1  0.053  0.072  0.020  0.146
 
band    12 # energy   29.26950826 # occ.  0.00000000
 
ion      s      p      d    tot
    1  0.016  0.113  0.304  0.433
 

 k-point     2 :    0.15000000 0.05000000 0.05000000     weight = 0.00600000

band     1 # energy   -4.16992657 # occ.  2.00000000
 
ion      s      p      d    tot
    1  0.588  0.022  0.004  0.614
 
band     2 # energy   -0.18029042 # occ.  2.00000000
 
ion      s      p      d    tot
    1  0.000  0.004  0.918  0.923
 
band     3 # energy    0.10033830 # occ.  2.00000000
 
ion      s      p      d    tot
    1  0.000  0.000  0.935  0.935
 
band     4 # energy    0.12781496 # occ.  2.00000000
 
ion      s      p      d    tot
    1  0.001  0.003  0.930  0.934
 
band     5 # energy    1.08646891 # occ.  2.00000000
 
ion      s      p      d    tot
    1  0.000  0.000  0.954  0.955
 
band     6 # energy    1.24297217 # occ.  2.00000000
 
ion      s      p      d    tot
    1  0.000  0.000  0.959  0.960
 
band     7 # energy   19.31572490 # occ.  0.00000000
 
ion      s      p      d    tot
    1  0.023  0.145  0.102  0.270
 
band     8 # energy   20.03642336 # occ.  0.00000000
 
ion      s      p      d    tot
    1  0.034  0.133  0.028  0.195
 
band     9 # energy   21.98624336 # occ.  0.00000000
 
ion      s      p      d    tot
    1  0.000  0.324  0.045  0.369
 
band    10 # energy   23.30356714 # occ.  0.00000000
 
ion      s      p      d    tot
    1  0.000  0.284  0.029  0.313
 
band    11 # energy   26.12453326 # occ.  0.00000000
 
ion      s      p      d    tot
    1  0.001  0.255  0.108  0.365
 
band    12 # energy   28.65639698 # occ.  0.00000000
 
ion      s      p      d    tot
    1  0.001  0.135  0.173  0.309
 

 k-point     3 :    0.25000000 0.05000000 0.05000000     weight = 0.00600000

band     1 # energy   -3.27510447 # occ.  2.00000000
 
ion      s      p      d    tot
    1  0.523  0.054  0.055  0.631
 
band     2 # energy   -0.26012395 # occ.  2.00000000
 
ion      s      p      d    tot
    1  0.015  0.027  0.849  0.892
 
band     3 # energy    0.23020636 # occ.  2.00000000
 
ion      s      p      d    tot
    1  0.002  0.006  0.922  0.930
 
band     4 # energy    0.24525342 # occ.  2.00000000
 
ion      s      p      d    tot
    1  0.000  0.000  0.935  0.935
 
band     5 # energy    1.09973383 # occ.  2.00000000
 
ion      s      p      d    tot
    1  0.000  0.001  0.948  0.949
 
band     6 # energy    1.42434728 # occ.  2.00000000
 
ion      s      p      d    tot
    1  0.003  0.003  0.950  0.956
 
band     7 # energy   15.84321672 # occ.  0.00000000
 
ion      s      p      d    tot
    1  0.109  0.301  0.143  0.553
 
band     8 # energy   19.96045910 # occ.  0.00000000
 
ion      s      p      d    tot
    1  0.008  0.072  0.103  0.184
 
band     9 # energy   21.91369224 # occ.  0.00000000
 
ion      s      p      d    tot
    1  0.002  0.374  0.078  0.454
 
band    10 # energy   24.05205556 # occ.  0.00000000
 
ion      s      p      d    tot
    1  0.000  0.447  0.092  0.539
 
band    11 # energy   24.60692172 # occ.  0.00000000
 
ion      s      p      d    tot
    1  0.020  0.165  0.030  0.214
 
band    12 # energy   26.58335654 # occ.  0.00000000
 
ion      s      p      d    tot
    1  0.000  0.137  0.193  0.330
 

 k-point     4 :    0.35000000 0.05000000 0.05000000     weight = 0.00600000

band     1 # energy   -2.44635832 # occ.  2.00000000
 
ion      s      p      d    tot
    1  0.351  0.041  0.325  0.716
 
band     2 # energy    0.08790806 # occ.  2.00000000
 
ion      s      p      d    tot
    1  0.008  0.009  0.905  0.921
 
band     3 # energy    0.15339320 # occ.  2.00000000
 
ion      s      p      d    tot
    1  0.000  0.000  0.930  0.931
 
band     4 # energy    0.34558637 # occ.  2.00000000
 
ion      s      p      d    tot
    1  0.094  0.117  0.586  0.796
 
band     5 # energy    1.49407206 # occ.  2.00000000
 
ion      s      p      d    tot
    1  0.000  0.002  0.954  0.956
 
band     6 # energy    1.89283232 # occ.  2.00000000
 
ion      s      p      d    tot
    1  0.018  0.014  0.919  0.950
 
band     7 # energy   11.93812086 # occ.  0.00000000
 
ion      s      p      d    tot
    1  0.194  0.292  0.176  0.661
 
band     8 # energy   19.40700451 # occ.  0.00000000
 
ion      s      p      d    tot
    1  0.003  0.070  0.074  0.147
 
band     9 # energy   20.91751139 # occ.  0.00000000
 
ion      s      p      d    tot
    1  0.009  0.444  0.062  0.514
 
band    10 # energy   22.80787229 # occ.  0.00000000
 
ion      s      p      d    tot
    1  0.000  0.554  0.064  0.618
 
band    11 # energy   25.65249994 # occ.  0.00000000
 
ion      s      p      d    tot
    1  0.037  0.068  0.136  0.241
 
band    12 # energy   26.50934457 # occ.  0.00000000
 
ion      s      p      d    tot
    1  0.000  0.001  0.326  0.327
 

 k-point     5 :    0.45000000 0.05000000 0.05000000     weight = 0.00600000

band     1 # energy   -2.21992340 # occ.  2.00000000
 
ion      s      p      d    tot
    1  0.209  0.009  0.577  0.794
 
band     2 # energy   -0.03692489 # occ.  2.00000000
 
ion      s      p      d    tot
    1  0.000  0.001  0.922  0.924
 
band     3 # energy    0.01853898 # occ.  2.00000000
 
ion      s      p      d    tot
    1  0.000  0.000  0.926  0.926
 
band     4 # energy    1.63703759 # occ.  2.00000000
 
ion      s      p      d    tot
    1  0.046  0.132  0.648  0.826
 
band     5 # energy    1.97343966 # occ.  2.00000000
 
ion      s      p      d    tot
    1  0.000  0.001  0.967  0.968
 
band     6 # energy    2.79063442 # occ.  2.00000000
 
ion      s      p      d    tot
    1  0.098  0.179  0.511  0.788
 
band     7 # energy    8.32966957 # occ. -0.00000000
 
ion      s      p      d    tot
    1  0.316  0.190  0.243  0.749
 
band     8 # energy   18.81996516 # occ.  0.00000000
 
ion      s      p      d    tot
    1  0.001  0.041  0.032  0.074
 
band     9 # energy   20.11136656 # occ.  0.00000000
 
ion      s      p      d    tot
    1  0.010  0.486  0.032  0.528
 
band    10 # energy   21.12660795 # occ.  0.00000000
 
ion      s      p      d    tot
    1  0.000  0.529  0.023  0.551
 
band    11 # energy   27.02049960 # occ.  0.00000000
 
ion      s      p      d    tot
    1  0.028  0.009  0.347  0.383
 
band    12 # energy   27.13619894 # occ.  0.00000000
 
ion      s      p      d    tot
    1  0.000  0.005  0.453  0.457
 

 k-point     6 :   -0.45000000 0.05000000 0.05000000     weight = 0.00600000

band     1 # energy   -2.20971859 # occ.  2.00000000
 
ion      s      p      d    tot
    1  0.181  0.003  0.625  0.809
 
band     2 # energy   -0.09065576 # occ.  2.00000000
 
ion      s      p      d    tot
    1  0.000  0.001  0.921  0.922
 
band     3 # energy   -0.01336539 # occ.  2.00000000
 
ion      s      p      d    tot
    1  0.000  0.000  0.925  0.925
 
band     4 # energy    1.89283271 # occ.  2.00000000
 
ion      s      p      d    tot
    1  0.001  0.062  0.847  0.911
 
band     5 # energy    2.19416634 # occ.  2.00000000
 
ion      s      p      d    tot
    1  0.000  0.000  0.975  0.975
 
band     6 # energy    3.85194187 # occ.  1.94587044
 
ion      s      p      d    tot
    1  0.017  0.432  0.146  0.595
 
band     7 # energy    6.62995907 # occ. -0.00000000
 
ion      s      p      d    tot
    1  0.469  0.023  0.358  0.850
 
band     8 # energy   18.66948000 # occ.  0.00000000
 
ion      s      p      d    tot
    1  0.000  0.024  0.017  0.041
 
band     9 # energy   20.17046907 # occ.  0.00000000
 
ion      s      p      d    tot
    1  0.012  0.503  0.025  0.540
 
band    10 # energy   20.30789938 # occ.  0.00000000
 
ion      s      p      d    tot
    1  0.000  0.522  0.015  0.537
 
band    11 # energy   27.34860282 # occ.  0.00000000
 
ion      s      p      d    tot
    1  0.000  0.003  0.452  0.456
 
band    12 # energy   27.39595451 # occ.  0.00000000
 
ion      s      p      d    tot
    1  0.004  0.001  0.458  0.463
 

 k-point     7 :   -0.35000000 0.05000000 0.05000000     weight = 0.00600000

band     1 # energy   -2.25030733 # occ.  2.00000000
 
ion      s      p      d    tot
    1  0.240  0.016  0.522  0.777
 
band     2 # energy   -0.01224246 # occ.  2.00000000
 
ion      s      p      d    tot
    1  0.000  0.000  0.924  0.924
 
band     3 # energy    0.07564083 # occ.  2.00000000
 
ion      s      p      d    tot
    1  0.000  0.001  0.926  0.928
 
band     4 # energy    1.17093116 # occ.  2.00000000
 
ion      s      p      d    tot
    1  0.085  0.149  0.554  0.788
 
band     5 # energy    2.03730057 # occ.  2.00000000
 
ion      s      p      d    tot
    1  0.000  0.001  0.969  0.970
 
band     6 # energy    2.24331127 # occ.  2.00000000
 
ion      s      p      d    tot
    1  0.075  0.098  0.687  0.860
 
band     7 # energy    9.45892381 # occ. -0.00000000
 
ion      s      p      d    tot
    1  0.267  0.238  0.211  0.716
 
band     8 # energy   19.05732512 # occ.  0.00000000
 
ion      s      p      d    tot
    1  0.000  0.020  0.028  0.048
 
band     9 # energy   20.48968157 # occ.  0.00000000
 
ion      s      p      d    tot
    1  0.000  0.517  0.053  0.570
 
band    10 # energy   21.22702815 # occ.  0.00000000
 
ion      s      p      d    tot
    1  0.015  0.506  0.052  0.573
 
band    11 # energy   26.95672220 # occ.  0.00000000
 
ion      s      p      d    tot
    1  0.007  0.026  0.363  0.396
 
band    12 # energy   27.22693540 # occ.  0.00000000
 
ion      s      p      d    tot
    1  0.000  0.006  0.333  0.340
 

 k-point     8 :   -0.25000000 0.05000000 0.05000000     weight = 0.00600000

band     1 # energy   -2.66022071 # occ.  2.00000000
 
ion      s      p      d    tot
    1  0.419  0.053  0.208  0.679
 
band     2 # energy   -0.03330776 # occ.  2.00000000
 
ion      s      p      d    tot
    1  0.058  0.067  0.722  0.847
 
band     3 # energy    0.17473106 # occ.  2.00000000
 
ion      s      p      d    tot
    1  0.008  0.014  0.892  0.914
 
band     4 # energy    0.21413201 # occ.  2.00000000
 
ion      s      p      d    tot
    1  0.000  0.002  0.930  0.932
 
band     5 # energy    1.43033031 # occ.  2.00000000
 
ion      s      p      d    tot
    1  0.012  0.010  0.921  0.944
 
band     6 # energy    1.63186873 # occ.  2.00000000
 
ion      s      p      d    tot
    1  0.000  0.002  0.960  0.961
 
band     7 # energy   13.23106662 # occ.  0.00000000
 
ion      s      p      d    tot
    1  0.163  0.304  0.165  0.631
 
band     8 # energy   19.81436784 # occ.  0.00000000
 
ion      s      p      d    tot
    1  0.002  0.017  0.064  0.083
 
band     9 # energy   21.26019282 # occ.  0.00000000
 
ion      s      p      d    tot
    1  0.000  0.490  0.112  0.602
 
band    10 # energy   22.93476663 # occ.  0.00000000
 
ion      s      p      d    tot
    1  0.023  0.496  0.081  0.600
 
band    11 # energy   25.31873909 # occ.  0.00000000
 
ion      s      p      d    tot
    1  0.013  0.124  0.119  0.256
 
band    12 # energy   27.13001720 # occ.  0.00000000
 
ion      s      p      d    tot
    1  0.002  0.035  0.174  0.212
 

 k-point     9 :   -0.15000000 0.05000000 0.05000000     weight = 0.00600000

band     1 # energy   -3.60615548 # occ.  2.00000000
 
ion      s      p      d    tot
    1  0.552  0.045  0.024  0.621
 
band     2 # energy   -0.27672636 # occ.  2.00000000
 
ion      s      p      d    tot
    1  0.006  0.015  0.886  0.906
 
band     3 # energy    0.22092270 # occ.  2.00000000
 
ion      s      p      d    tot
    1  0.001  0.003  0.929  0.933
 
band     4 # energy    0.23037504 # occ.  2.00000000
 
ion      s      p      d    tot
    1  0.000  0.003  0.932  0.935
 
band     5 # energy    1.06320837 # occ.  2.00000000
 
ion      s      p      d    tot
    1  0.002  0.002  0.945  0.949
 
band     6 # energy    1.32037743 # occ.  2.00000000
 
ion      s      p      d    tot
    1  0.000  0.001  0.958  0.958
 
band     7 # energy   17.12530634 # occ.  0.00000000
 
ion      s      p      d    tot
    1  0.084  0.287  0.132  0.503
 
band     8 # energy   20.19367385 # occ.  0.00000000
 
ion      s      p      d    tot
    1  0.009  0.010  0.066  0.085
 
band     9 # energy   21.87357721 # occ.  0.00000000
 
ion      s      p      d    tot
    1  0.000  0.409  0.111  0.519
 
band    10 # energy   23.63264632 # occ.  0.00000000
 
ion      s      p      d    tot
    1  0.002  0.302  0.055  0.358
 
band    11 # energy   24.90548721 # occ.  0.00000000
 
ion      s      p      d    tot
    1  0.022  0.303  0.057  0.382
 
band    12 # energy   27.63968099 # occ.  0.00000000
 
ion      s      p      d    tot
    1  0.000  0.092  0.132  0.224
 

 k-point    10 :   -0.05000000 0.05000000 0.05000000     weight = 0.00600000

band     1 # energy   -4.37103337 # occ.  2.00000000
 
ion      s      p      d    tot
    1  0.599  0.013  0.001  0.613
 
band     2 # energy   -0.14618213 # occ.  2.00000000
 
ion      s      p      d    tot
    1  0.000  0.001  0.927  0.928
 
band     3 # energy    0.06514898 # occ.  2.00000000
 
ion      s      p      d    tot
    1  0.000  0.001  0.933  0.934
 
band     4 # energy    0.07036723 # occ.  2.00000000
 
ion      s      p      d    tot
    1  0.000  0.002  0.933  0.934
 
band     5 # energy    1.10417550 # occ.  2.00000000
 
ion      s      p      d    tot
    1  0.000  0.000  0.956  0.956
 
band     6 # energy    1.24811858 # occ.  2.00000000
 
ion      s      p      d    tot
    1  0.000  0.000  0.961  0.961
 
band     7 # energy   19.54594309 # occ.  0.00000000
 
ion      s      p      d    tot
    1  0.001  0.012  0.046  0.058
 
band     8 # energy   20.88756254 # occ.  0.00000000
 
ion      s      p      d    tot
    1  0.037  0.235  0.029  0.300
 
band     9 # energy   22.12303192 # occ.  0.00000000
 
ion      s      p      d    tot
    1  0.000  0.321  0.046  0.366
 
band    10 # energy   22.57152443 # occ.  0.00000000
 
ion      s      p      d    tot
    1  0.004  0.274  0.025  0.303
 
band    11 # energy   27.25086842 # occ.  0.00000000
 
ion      s      p      d    tot
    1  0.001  0.271  0.097  0.370
 
band    12 # energy   28.68395648 # occ.  0.00000000
 
ion      s      p      d    tot
    1  0.000  0.128  0.263  0.391
 

 k-point    11 :    0.15000000 0.15000000 0.05000000     weight = 0.00600000

band     1 # energy   -3.96669760 # occ.  2.00000000
 
ion      s      p      d    tot
    1  0.577  0.032  0.005  0.615
 
band     2 # energy   -0.31816626 # occ.  2.00000000
 
ion      s      p      d    tot
    1  0.000  0.001  0.919  0.920
 
band     3 # energy    0.23086133 # occ.  2.00000000
 
ion      s      p      d    tot
    1  0.000  0.004  0.930  0.934
 
band     4 # energy    0.23313438 # occ.  2.00000000
 
ion      s      p      d    tot
    1  0.000  0.004  0.931  0.935
 
band     5 # energy    0.93291859 # occ.  2.00000000
 
ion      s      p      d    tot
    1  0.003  0.001  0.943  0.947
 
band     6 # energy    1.33730407 # occ.  2.00000000
 
ion      s      p      d    tot
    1  0.000  0.000  0.962  0.962
 
band     7 # energy   19.56604829 # occ.  0.00000000
 
ion      s      p      d    tot
    1  0.024  0.154  0.109  0.287
 
band     8 # energy   20.18145831 # occ.  0.00000000
 
ion      s      p      d    tot
    1  0.035  0.104  0.048  0.187
 
band     9 # energy   21.29214910 # occ.  0.00000000
 
ion      s      p      d    tot
    1  0.000  0.380  0.095  0.475
 
band    10 # energy   22.09771133 # occ.  0.00000000
 
ion      s      p      d    tot
    1  0.011  0.262  0.061  0.334
 
band    11 # energy   26.02157884 # occ.  0.00000000
 
ion      s      p      d    tot
    1  0.050  0.474  0.061  0.585
 
band    12 # energy   28.30774372 # occ.  0.00000000
 
ion      s      p      d    tot
    1  0.000  0.092  0.145  0.237
 

 k-point    12 :    0.25000000 0.15000000 0.05000000     weight = 0.01200000

band     1 # energy   -3.22521594 # occ.  2.00000000
 
ion      s      p      d    tot
    1  0.528  0.062  0.033  0.623
 
band     2 # energy   -0.51342897 # occ.  2.00000000
 
ion      s      p      d    tot
    1  0.001  0.007  0.900  0.907
 
band     3 # energy    0.31674798 # occ.  2.00000000
 
ion      s      p      d    tot
    1  0.000  0.006  0.923  0.929
 
band     4 # energy    0.46158849 # occ.  2.00000000
 
ion      s      p      d    tot
    1  0.000  0.005  0.931  0.937
 
band     5 # energy    0.90015030 # occ.  2.00000000
 
ion      s      p      d    tot
    1  0.012  0.008  0.915  0.935
 
band     6 # energy    1.52052525 # occ.  2.00000000
 
ion      s      p      d    tot
    1  0.003  0.002  0.957  0.961
 
band     7 # energy   17.34687171 # occ.  0.00000000
 
ion      s      p      d    tot
    1  0.094  0.304  0.114  0.512
 
band     8 # energy   19.15594260 # occ.  0.00000000
 
ion      s      p      d    tot
    1  0.012  0.277  0.174  0.462
 
band     9 # energy   21.27616914 # occ.  0.00000000
 
ion      s      p      d    tot
    1  0.001  0.168  0.085  0.254
 
band    10 # energy   22.43396132 # occ.  0.00000000
 
ion      s      p      d    tot
    1  0.002  0.129  0.111  0.243
 
band    11 # energy   23.99513039 # occ.  0.00000000
 
ion      s      p      d    tot
    1  0.087  0.564  0.026  0.678
 
band    12 # energy   27.57871563 # occ.  0.00000000
 
ion      s      p      d    tot
    1  0.001  0.083  0.135  0.218
 

 k-point    13 :    0.35000000 0.15000000 0.05000000     weight = 0.01200000

band     1 # energy   -2.29651211 # occ.  2.00000000
 
ion      s      p      d    tot
    1  0.393  0.070  0.218  0.681
 
band     2 # energy   -0.42753613 # occ.  2.00000000
 
ion      s      p      d    tot
    1  0.036  0.045  0.782  0.863
 
band     3 # energy    0.07871891 # occ.  2.00000000
 
ion      s      p      d    tot
    1  0.000  0.005  0.911  0.917
 
band     4 # energy    0.47148547 # occ.  2.00000000
 
ion      s      p      d    tot
    1  0.001  0.005  0.927  0.934
 
band     5 # energy    1.44354020 # occ.  2.00000000
 
ion      s      p      d    tot
    1  0.024  0.020  0.888  0.932
 
band     6 # energy    2.00539692 # occ.  2.00000000
 
ion      s      p      d    tot
    1  0.030  0.018  0.899  0.947
 
band     7 # energy   13.45143668 # occ.  0.00000000
 
ion      s      p      d    tot
    1  0.164  0.320  0.147  0.630
 
band     8 # energy   18.55408243 # occ.  0.00000000
 
ion      s      p      d    tot
    1  0.016  0.355  0.156  0.526
 
band     9 # energy   20.28451251 # occ.  0.00000000
 
ion      s      p      d    tot
    1  0.009  0.147  0.090  0.246
 
band    10 # energy   21.78457434 # occ.  0.00000000
 
ion      s      p      d    tot
    1  0.047  0.354  0.135  0.536
 
band    11 # energy   25.37135228 # occ.  0.00000000
 
ion      s      p      d    tot
    1  0.011  0.318  0.025  0.354
 
band    12 # energy   27.32215621 # occ.  0.00000000
 
ion      s      p      d    tot
    1  0.010  0.016  0.215  0.242
 

 k-point    14 :    0.45000000 0.15000000 0.05000000     weight = 0.01200000

band     1 # energy   -1.92181382 # occ.  2.00000000
 
ion      s      p      d    tot
    1  0.207  0.028  0.550  0.786
 
band     2 # energy   -0.16288160 # occ.  2.00000000
 
ion      s      p      d    tot
    1  0.001  0.005  0.903  0.908
 
band     3 # energy    0.28756571 # occ.  2.00000000
 
ion      s      p      d    tot
    1  0.013  0.029  0.858  0.901
 
band     4 # energy    0.43790123 # occ.  2.00000000
 
ion      s      p      d    tot
    1  0.048  0.080  0.719  0.847
 
band     5 # energy    2.03139786 # occ.  2.00000000
 
ion      s      p      d    tot
    1  0.003  0.008  0.950  0.962
 
band     6 # energy    3.09973649 # occ.  2.00000000
 
ion      s      p      d    tot
    1  0.127  0.115  0.603  0.845
 
band     7 # energy    9.68290136 # occ.  0.00000000
 
ion      s      p      d    tot
    1  0.254  0.261  0.185  0.700
 
band     8 # energy   18.22351029 # occ.  0.00000000
 
ion      s      p      d    tot
    1  0.018  0.387  0.119  0.524
 
band     9 # energy   18.92155617 # occ.  0.00000000
 
ion      s      p      d    tot
    1  0.022  0.212  0.103  0.337
 
band    10 # energy   20.70147397 # occ.  0.00000000
 
ion      s      p      d    tot
    1  0.020  0.363  0.071  0.455
 
band    11 # energy   27.22177591 # occ.  0.00000000
 
ion      s      p      d    tot
    1  0.011  0.056  0.247  0.314
 
band    12 # energy   28.13109082 # occ.  0.00000000
 
ion      s      p      d    tot
    1  0.007  0.064  0.264  0.335
 

 k-point    15 :   -0.45000000 0.15000000 0.05000000     weight = 0.01200000

band     1 # energy   -1.89316644 # occ.  2.00000000
 
ion      s      p      d    tot
    1  0.155  0.015  0.646  0.816
 
band     2 # energy   -0.26694175 # occ.  2.00000000
 
ion      s      p      d    tot
    1  0.000  0.005  0.899  0.905
 
band     3 # energy    0.23181303 # occ.  2.00000000
 
ion      s      p      d    tot
    1  0.000  0.003  0.923  0.927
 
band     4 # energy    1.07413306 # occ.  2.00000000
 
ion      s      p      d    tot
    1  0.003  0.107  0.744  0.853
 
band     5 # energy    2.15860164 # occ.  2.00000000
 
ion      s      p      d    tot
    1  0.000  0.000  0.972  0.973
 
band     6 # energy    5.01728151 # occ. -0.00000000
 
ion      s      p      d    tot
    1  0.037  0.363  0.269  0.670
 
band     7 # energy    6.66908826 # occ. -0.00000000
 
ion      s      p      d    tot
    1  0.460  0.048  0.317  0.825
 
band     8 # energy   17.85859505 # occ.  0.00000000
 
ion      s      p      d    tot
    1  0.034  0.342  0.114  0.490
 
band     9 # energy   18.46299208 # occ.  0.00000000
 
ion      s      p      d    tot
    1  0.015  0.307  0.099  0.421
 
band    10 # energy   20.21051685 # occ.  0.00000000
 
ion      s      p      d    tot
    1  0.003  0.343  0.018  0.363
 
band    11 # energy   27.40331515 # occ.  0.00000000
 
ion      s      p      d    tot
    1  0.023  0.004  0.389  0.416
 
band    12 # energy   28.55976189 # occ.  0.00000000
 
ion      s      p      d    tot
    1  0.003  0.009  0.321  0.332
 

 k-point    16 :   -0.35000000 0.15000000 0.05000000     weight = 0.01200000

band     1 # energy   -1.88473197 # occ.  2.00000000
 
ion      s      p      d    tot
    1  0.181  0.022  0.598  0.801
 
band     2 # energy   -0.20353842 # occ.  2.00000000
 
ion      s      p      d    tot
    1  0.000  0.004  0.905  0.909
 
band     3 # energy    0.25287378 # occ.  2.00000000
 
ion      s      p      d    tot
    1  0.000  0.004  0.923  0.927
 
band     4 # energy    0.81481798 # occ.  2.00000000
 
ion      s      p      d    tot
    1  0.035  0.120  0.668  0.823
 
band     5 # energy    1.91310806 # occ.  2.00000000
 
ion      s      p      d    tot
    1  0.001  0.006  0.956  0.962
 
band     6 # energy    3.74606045 # occ.  2.07034805
 
ion      s      p      d    tot
    1  0.151  0.154  0.504  0.809
 
band     7 # energy    8.59138742 # occ. -0.00000000
 
ion      s      p      d    tot
    1  0.287  0.223  0.217  0.727
 
band     8 # energy   17.37264829 # occ.  0.00000000
 
ion      s      p      d    tot
    1  0.032  0.370  0.133  0.535
 
band     9 # energy   19.20816860 # occ.  0.00000000
 
ion      s      p      d    tot
    1  0.017  0.197  0.074  0.287
 
band    10 # energy   20.88561207 # occ.  0.00000000
 
ion      s      p      d    tot
    1  0.001  0.428  0.037  0.467
 
band    11 # energy   26.81974578 # occ.  0.00000000
 
ion      s      p      d    tot
    1  0.024  0.020  0.293  0.337
 
band    12 # energy   28.15346315 # occ.  0.00000000
 
ion      s      p      d    tot
    1  0.000  0.031  0.335  0.366
 

 k-point    17 :   -0.25000000 0.15000000 0.05000000     weight = 0.01200000

band     1 # energy   -2.07150154 # occ.  2.00000000
 
ion      s      p      d    tot
    1  0.327  0.058  0.333  0.718
 
band     2 # energy   -0.19551193 # occ.  2.00000000
 
ion      s      p      d    tot
    1  0.043  0.050  0.772  0.865
 
band     3 # energy    0.05767616 # occ.  2.00000000
 
ion      s      p      d    tot
    1  0.015  0.034  0.833  0.882
 
band     4 # energy    0.40539554 # occ.  2.00000000
 
ion      s      p      d    tot
    1  0.004  0.005  0.919  0.928
 
band     5 # energy    1.36266569 # occ.  2.00000000
 
ion      s      p      d    tot
    1  0.006  0.009  0.929  0.944
 
band     6 # energy    2.46860282 # occ.  2.00000000
 
ion      s      p      d    tot
    1  0.067  0.036  0.824  0.927
 
band     7 # energy   12.18269237 # occ.  0.00000000
 
ion      s      p      d    tot
    1  0.194  0.303  0.157  0.654
 
band     8 # energy   17.52910590 # occ.  0.00000000
 
ion      s      p      d    tot
    1  0.027  0.355  0.171  0.554
 
band     9 # energy   20.33375581 # occ.  0.00000000
 
ion      s      p      d    tot
    1  0.014  0.150  0.049  0.213
 
band    10 # energy   22.57393207 # occ.  0.00000000
 
ion      s      p      d    tot
    1  0.011  0.443  0.098  0.552
 
band    11 # energy   25.30924142 # occ.  0.00000000
 
ion      s      p      d    tot
    1  0.006  0.144  0.091  0.240
 
band    12 # energy   27.31639771 # occ.  0.00000000
 
ion      s      p      d    tot
    1  0.007  0.069  0.289  0.365
 

 k-point    18 :   -0.15000000 0.15000000 0.05000000     weight = 0.01200000

band     1 # energy   -2.90230738 # occ.  2.00000000
 
ion      s      p      d    tot
    1  0.501  0.071  0.061  0.632
 
band     2 # energy   -0.47394493 # occ.  2.00000000
 
ion      s      p      d    tot
    1  0.003  0.016  0.881  0.900
 
band     3 # energy    0.23500390 # occ.  2.00000000
 
ion      s      p      d    tot
    1  0.002  0.010  0.910  0.922
 
band     4 # energy    0.47995316 # occ.  2.00000000
 
ion      s      p      d    tot
    1  0.000  0.002  0.936  0.938
 
band     5 # energy    0.89324996 # occ.  2.00000000
 
ion      s      p      d    tot
    1  0.005  0.005  0.929  0.939
 
band     6 # energy    1.73874263 # occ.  2.00000000
 
ion      s      p      d    tot
    1  0.016  0.008  0.931  0.955
 
band     7 # energy   15.97581057 # occ.  0.00000000
 
ion      s      p      d    tot
    1  0.130  0.306  0.114  0.550
 
band     8 # energy   18.13433384 # occ.  0.00000000
 
ion      s      p      d    tot
    1  0.013  0.311  0.208  0.531
 
band     9 # energy   21.90208833 # occ.  0.00000000
 
ion      s      p      d    tot
    1  0.006  0.156  0.045  0.207
 
band    10 # energy   22.83244314 # occ.  0.00000000
 
ion      s      p      d    tot
    1  0.012  0.134  0.061  0.207
 
band    11 # energy   25.16106409 # occ.  0.00000000
 
ion      s      p      d    tot
    1  0.023  0.648  0.022  0.693
 
band    12 # energy   26.35627335 # occ.  0.00000000
 
ion      s      p      d    tot
    1  0.001  0.036  0.211  0.248
 

 k-point    19 :   -0.05000000 0.15000000 0.05000000     weight = 0.01200000

band     1 # energy   -3.77863100 # occ.  2.00000000
 
ion      s      p      d    tot
    1  0.566  0.039  0.011  0.617
 
band     2 # energy   -0.31201284 # occ.  2.00000000
 
ion      s      p      d    tot
    1  0.001  0.006  0.909  0.916
 
band     3 # energy    0.23386923 # occ.  2.00000000
 
ion      s      p      d    tot
    1  0.001  0.005  0.926  0.932
 
band     4 # energy    0.24066496 # occ.  2.00000000
 
ion      s      p      d    tot
    1  0.000  0.003  0.933  0.935
 
band     5 # energy    0.96600868 # occ.  2.00000000
 
ion      s      p      d    tot
    1  0.002  0.001  0.944  0.947
 
band     6 # energy    1.34798217 # occ.  2.00000000
 
ion      s      p      d    tot
    1  0.001  0.001  0.958  0.960
 
band     7 # energy   18.41004007 # occ.  0.00000000
 
ion      s      p      d    tot
    1  0.068  0.263  0.107  0.438
 
band     8 # energy   19.71384165 # occ.  0.00000000
 
ion      s      p      d    tot
    1  0.014  0.119  0.119  0.251
 
band     9 # energy   21.59908197 # occ.  0.00000000
 
ion      s      p      d    tot
    1  0.000  0.286  0.044  0.330
 
band    10 # energy   23.34008590 # occ.  0.00000000
 
ion      s      p      d    tot
    1  0.001  0.241  0.068  0.310
 
band    11 # energy   25.20494396 # occ.  0.00000000
 
ion      s      p      d    tot
    1  0.027  0.362  0.043  0.432
 
band    12 # energy   27.88245737 # occ.  0.00000000
 
ion      s      p      d    tot
    1  0.010  0.270  0.169  0.448
 

 k-point    20 :    0.25000000 0.25000000 0.05000000     weight = 0.00600000

band     1 # energy   -2.72307024 # occ.  2.00000000
 
ion      s      p      d    tot
    1  0.476  0.080  0.077  0.633
 
band     2 # energy   -0.80405523 # occ.  2.00000000
 
ion      s      p      d    tot
    1  0.000  0.001  0.901  0.902
 