<?xml version="1.0" encoding="ISO-8859-1"?>
<modeling>
 <generator>
  <i name="program" type="string">vasp </i>
  <i name="version" type="string">5.4.4.18Apr17-6-g9f103f2a35  </i>
  <i name="subversion" type="string">(build May 18 2018 14:42:58) complex            parallel </i>
  <i name="platform" type="string">LinuxIFC </i>
  <i name="date" type="string">2020 06 30 </i>
  <i name="time" type="string">13:41:08 </i>
 </generator>
 <incar>
  <i type="string" name="SYSTEM"> fcc Au</i>
  <i type="string" name="PREC">normal</i>
  <v name="RWIGS">      1.50300000</v>
  <v type="int" name="KPOINT_BSE">    -1     0     0     0</v>
 </incar>
 <structure name="primitive_cell" >
  <crystal>
   <varray name="basis" >
    <v>       0.00000000       2.12500000       2.12500000 </v>
    <v>       2.12500000       0.00000000       2.12500000 </v>
    <v>       2.12500000       2.12500000       0.00000000 </v>
   </varray>
   <i name="volume">     19.19140625 </i>
   <varray name="rec_basis" >
    <v>      -0.23529412       0.23529412       0.23529412 </v>
    <v>       0.23529412      -0.23529412       0.23529412 </v>
    <v>       0.23529412       0.23529412      -0.23529412 </v>
   </varray>
  </crystal>
  <varray name="positions" >
   <v>       0.00000000       0.00000000       0.00000000 </v>
  </varray>
 </structure>
 <varray name="primitive_index" >
  <v type="int" >        1 </v>
 </varray>
 <kpoints>
  <generation param="Monkhorst-Pack">
   <v type="int" name="divisions">      10       10       10 </v>
   <v name="usershift">      0.00000000       0.00000000       0.00000000 </v>
   <v name="genvec1">      0.10000000       0.00000000       0.00000000 </v>
   <v name="genvec2">      0.00000000       0.10000000       0.00000000 </v>
   <v name="genvec3">      0.00000000       0.00000000       0.10000000 </v>
   <v name="shift">      0.50000000       0.50000000       0.50000000 </v>
  </generation>
  <varray name="kpointlist" >
   <v>       0.05000000       0.05000000       0.05000000 </v>
   <v>       0.15000000       0.05000000       0.05000000 </v>
   <v>       0.25000000       0.05000000       0.05000000 </v>
   <v>       0.35000000       0.05000000       0.05000000 </v>
   <v>       0.45000000       0.05000000       0.05000000 </v>
   <v>      -0.45000000       0.05000000       0.05000000 </v>
   <v>      -0.35000000       0.05000000       0.05000000 </v>
   <v>      -0.25000000       0.05000000       0.05000000 </v>
   <v>      -0.15000000       0.05000000       0.05000000 </v>
   <v>      -0.05000000       0.05000000       0.05000000 </v>
   <v>       0.15000000       0.15000000       0.05000000 </v>
   <v>       0.25000000       0.15000000       0.05000000 </v>
   <v>       0.35000000       0.15000000       0.05000000 </v>
   <v>       0.45000000       0.15000000       0.05000000 </v>
   <v>      -0.45000000       0.15000000       0.05000000 </v>
   <v>      -0.35000000       0.15000000       0.05000000 </v>
   <v>      -0.25000000       0.15000000       0.05000000 </v>
   <v>      -0.15000000       0.15000000       0.05000000 </v>
   <v>      -0.05000000       0.15000000       0.05000000 </v>
   <v>       0.25000000       0.25000000       0.05000000 </v>
   <v>       0.35000000       0.25000000       0.05000000 </v>
   <v>       0.45000000       0.25000000       0.05000000 </v>
   <v>      -0.45000000       0.25000000       0.05000000 </v>
   <v>      -0.35000000       0.25000000       0.05000000 </v>
   <v>      -0.25000000       0.25000000       0.05000000 </v>
   <v>      -0.15000000       0.25000000       0.05000000 </v>
   <v>      -0.05000000       0.25000000       0.05000000 </v>
   <v>       0.35000000       0.35000000       0.05000000 </v>
   <v>       0.45000000       0.35000000       0.05000000 </v>
   <v>      -0.45000000       0.35000000       0.05000000 </v>
   <v>      -0.35000000       0.35000000       0.05000000 </v>
   <v>      -0.25000000       0.35000000       0.05000000 </v>
   <v>      -0.15000000       0.35000000       0.05000000 </v>
   <v>      -0.05000000       0.35000000       0.05000000 </v>
   <v>       0.45000000       0.45000000       0.05000000 </v>
   <v>      -0.45000000       0.45000000       0.05000000 </v>
   <v>      -0.35000000       0.45000000       0.05000000 </v>
   <v>      -0.25000000       0.45000000       0.05000000 </v>
   <v>      -0.15000000       0.45000000       0.05000000 </v>
   <v>      -0.05000000       0.45000000       0.05000000 </v>
   <v>      -0.45000000      -0.45000000       0.05000000 </v>
   <v>      -0.35000000      -0.45000000       0.05000000 </v>
   <v>      -0.25000000      -0.45000000       0.05000000 </v>
   <v>      -0.15000000      -0.45000000       0.05000000 </v>
   <v>      -0.35000000      -0.35000000       0.05000000 </v>
   <v>      -0.25000000      -0.35000000       0.05000000 </v>
   <v>      -0.15000000      -0.35000000       0.05000000 </v>
   <v>      -0.25000000      -0.25000000       0.05000000 </v>
   <v>      -0.15000000      -0.25000000       0.05000000 </v>
   <v>      -0.15000000      -0.15000000       0.05000000 </v>
   <v>       0.15000000       0.15000000       0.15000000 </v>
   <v>       0.25000000       0.15000000       0.15000000 </v>
   <v>       0.35000000       0.15000000       0.15000000 </v>
   <v>       0.45000000       0.15000000       0.15000000 </v>
   <v>      -0.45000000       0.15000000       0.15000000 </v>
   <v>      -0.35000000       0.15000000       0.15000000 </v>
   <v>      -0.25000000       0.15000000       0.15000000 </v>
   <v>      -0.15000000       0.15000000       0.15000000 </v>
   <v>       0.25000000       0.25000000       0.15000000 </v>
   <v>       0.35000000       0.25000000       0.15000000 </v>
   <v>       0.45000000       0.25000000       0.15000000 </v>
   <v>      -0.45000000       0.25000000       0.15000000 </v>
   <v>      -0.35000000       0.25000000       0.15000000 </v>
   <v>      -0.25000000       0.25000000       0.15000000 </v>
   <v>      -0.15000000       0.25000000       0.15000000 </v>
   <v>       0.35000000       0.35000000       0.15000000 </v>
   <v>       0.45000000       0.35000000       0.15000000 </v>
   <v>      -0.45000000       0.35000000       0.15000000 </v>
   <v>      -0.35000000       0.35000000       0.15000000 </v>
   <v>      -0.25000000       0.35000000       0.15000000 </v>
   <v>      -0.15000000       0.35000000       0.15000000 </v>
   <v>       0.45000000       0.45000000       0.15000000 </v>
   <v>      -0.45000000       0.45000000       0.15000000 </v>
   <v>      -0.35000000       0.45000000       0.15000000 </v>
   <v>      -0.25000000       0.45000000       0.15000000 </v>
   <v>      -0.15000000       0.45000000       0.15000000 </v>
   <v>      -0.45000000      -0.45000000       0.15000000 </v>
   <v>      -0.35000000      -0.45000000       0.15000000 </v>
   <v>      -0.25000000      -0.45000000       0.15000000 </v>
   <v>      -0.35000000      -0.35000000       0.15000000 </v>
   <v>      -0.25000000      -0.35000000       0.15000000 </v>
   <v>      -0.25000000      -0.25000000       0.15000000 </v>
   <v>       0.25000000       0.25000000       0.25000000 </v>
   <v>       0.35000000       0.25000000       0.25000000 </v>
   <v>       0.45000000       0.25000000       0.25000000 </v>
   <v>      -0.45000000       0.25000000       0.25000000 </v>
   <v>      -0.35000000       0.25000000       0.25000000 </v>
   <v>      -0.25000000       0.25000000       0.25000000 </v>
   <v>       0.35000000       0.35000000       0.25000000 </v>
   <v>       0.45000000       0.35000000       0.25000000 </v>
   <v>      -0.45000000       0.35000000       0.25000000 </v>
   <v>      -0.35000000       0.35000000       0.25000000 </v>
   <v>      -0.25000000       0.35000000       0.25000000 </v>
   <v>       0.45000000       0.45000000       0.25000000 </v>
   <v>      -0.45000000       0.45000000       0.25000000 </v>
   <v>      -0.35000000       0.45000000       0.25000000 </v>
   <v>      -0.25000000       0.45000000       0.25000000 </v>
   <v>      -0.45000000      -0.45000000       0.25000000 </v>
   <v>      -0.35000000      -0.45000000       0.25000000 </v>
   <v>      -0.35000000      -0.35000000       0.25000000 </v>
   <v>       0.35000000       0.35000000       0.35000000 </v>
   <v>       0.45000000       0.35000000       0.35000000 </v>
   <v>      -0.45000000       0.35000000       0.35000000 </v>
   <v>      -0.35000000       0.35000000       0.35000000 </v>
   <v>       0.45000000       0.45000000       0.35000000 </v>
   <v>      -0.45000000       0.45000000       0.35000000 </v>
   <v>      -0.35000000       0.45000000       0.35000000 </v>
   <v>      -0.45000000      -0.45000000       0.35000000 </v>
   <v>       0.45000000       0.45000000       0.45000000 </v>
   <v>      -0.45000000       0.45000000       0.45000000 </v>
  </varray>
  <varray name="weights" >
   <v>       0.00200000 </v>
   <v>       0.00600000 </v>
   <v>       0.00600000 </v>
   <v>       0.00600000 </v>
   <v>       0.00600000 </v>
   <v>       0.00600000 </v>
   <v>       0.00600000 </v>
   <v>       0.00600000 </v>
   <v>       0.00600000 </v>
   <v>       0.00600000 </v>
   <v>       0.00600000 </v>
   <v>       0.01200000 </v>
   <v>       0.01200000 </v>
   <v>       0.01200000 </v>
   <v>       0.01200000 </v>
   <v>       0.01200000 </v>
   <v>       0.01200000 </v>
   <v>       0.01200000 </v>
   <v>       0.01200000 </v>
   <v>       0.00600000 </v>
   <v>       0.01200000 </v>
   <v>       0.01200000 </v>
   <v>       0.01200000 </v>
   <v>       0.01200000 </v>
   <v>       0.01200000 </v>
   <v>       0.01200000 </v>
   <v>       0.01200000 </v>
   <v>       0.00600000 </v>
   <v>       0.01200000 </v>
   <v>       0.01200000 </v>
   <v>       0.01200000 </v>
   <v>       0.01200000 </v>
   <v>       0.01200000 </v>
   <v>       0.01200000 </v>
   <v>       0.00600000 </v>
   <v>       0.01200000 </v>
   <v>       0.01200000 </v>
   <v>       0.01200000 </v>
   <v>       0.01200000 </v>
   <v>       0.01200000 </v>
   <v>       0.00600000 </v>
   <v>       0.01200000 </v>
   <v>       0.01200000 </v>
   <v>       0.01200000 </v>
   <v>       0.00600000 </v>
   <v>       0.01200000 </v>
   <v>       0.01200000 </v>
   <v>       0.00600000 </v>
   <v>       0.01200000 </v>
   <v>       0.00600000 </v>
   <v>       0.00200000 </v>
   <v>       0.00600000 </v>
   <v>       0.00600000 </v>
   <v>       0.00600000 </v>
   <v>       0.00600000 </v>
   <v>       0.00600000 </v>
   <v>       0.00600000 </v>
   <v>       0.00600000 </v>
   <v>       0.00600000 </v>
   <v>       0.01200000 </v>
   <v>       0.01200000 </v>
   <v>       0.01200000 </v>
   <v>       0.01200000 </v>
   <v>       0.01200000 </v>
   <v>       0.01200000 </v>
   <v>       0.00600000 </v>
   <v>       0.01200000 </v>
   <v>       0.01200000 </v>
   <v>       0.01200000 </v>
   <v>       0.01200000 </v>
   <v>       0.01200000 </v>
   <v>       0.00600000 </v>
   <v>       0.01200000 </v>
   <v>       0.01200000 </v>
   <v>       0.01200000 </v>
   <v>       0.01200000 </v>
   <v>       0.00600000 </v>
   <v>       0.01200000 </v>
   <v>       0.01200000 </v>
   <v>       0.00600000 </v>
   <v>       0.01200000 </v>
   <v>       0.00600000 </v>
   <v>       0.00200000 </v>
   <v>       0.00600000 </v>
   <v>       0.00600000 </v>
   <v>       0.00600000 </v>
   <v>       0.00600000 </v>
   <v>       0.00600000 </v>
   <v>       0.00600000 </v>
   <v>       0.01200000 </v>
   <v>       0.01200000 </v>
   <v>       0.01200000 </v>
   <v>       0.01200000 </v>
   <v>       0.00600000 </v>
   <v>       0.01200000 </v>
   <v>       0.01200000 </v>
   <v>       0.01200000 </v>
   <v>       0.00600000 </v>
   <v>       0.01200000 </v>
   <v>       0.00600000 </v>
   <v>       0.00200000 </v>
   <v>       0.00600000 </v>
   <v>       0.00600000 </v>
   <v>       0.00600000 </v>
   <v>       0.00600000 </v>
   <v>       0.01200000 </v>
   <v>       0.01200000 </v>
   <v>       0.00600000 </v>
   <v>       0.00200000 </v>
   <v>       0.00600000 </v>
  </varray>
 </kpoints>
 <parameters>
  <separator name="general" >
   <i type="string" name="SYSTEM">fcc Au</i>
   <i type="logical" name="LCOMPAT"> F  </i>
  </separator>
  <separator name="electronic" >
   <i type="string" name="PREC">normal</i>
   <i name="ENMAX">    229.86900000</i>
   <i name="ENAUG">    356.67000000</i>
   <i name="EDIFF">      0.00010000</i>
   <i type="int" name="IALGO">    38</i>
   <i type="int" name="IWAVPR">    10</i>
   <i type="int" name="NBANDS">    12</i>
   <i name="NELECT">     11.00000000</i>
   <i type="int" name="TURBO">     0</i>
   <i type="int" name="IRESTART">     0</i>
   <i type="int" name="NREBOOT">     0</i>
   <i type="int" name="NMIN">     0</i>
   <i name="EREF">      0.00000000</i>
   <separator name="electronic smearing" >
    <i type="int" name="ISMEAR">     1</i>
    <i name="SIGMA">      0.20000000</i>
    <i name="KSPACING">      0.50000000</i>
    <i type="logical" name="KGAMMA"> T  </i>
   </separator>
   <separator name="electronic projectors" >
    <i type="logical" name="LREAL"> F  </i>
    <v name="ROPT">      0.00000000</v>
    <i type="int" name="LMAXPAW">  -100</i>
    <i type="int" name="LMAXMIX">     2</i>
    <i type="logical" name="NLSPLINE"> F  </i>
   </separator>
   <separator name="electronic startup" >
    <i type="int" name="ISTART">     0</i>
    <i type="int" name="ICHARG">     2</i>
    <i type="int" name="INIWAV">     1</i>
   </separator>
   <separator name="electronic spin" >
    <i type="int" name="ISPIN">     1</i>
    <i type="logical" name="LNONCOLLINEAR"> F  </i>
    <v name="MAGMOM">      1.00000000</v>
    <i name="NUPDOWN">     -1.00000000</i>
    <i type="logical" name="LSORBIT"> F  </i>
    <v name="SAXIS">      0.00000000      0.00000000      1.00000000</v>
    <i type="logical" name="LSPIRAL"> F  </i>
    <v name="QSPIRAL">      0.00000000      0.00000000      0.00000000</v>
    <i type="logical" name="LZEROZ"> F  </i>
   </separator>
   <separator name="electronic exchange-correlation" >
    <i type="logical" name="LASPH"> F  </i>
    <i type="logical" name="LMETAGGA"> F  </i>
   </separator>
   <separator name="electronic convergence" >
    <i type="int" name="NELM">    60</i>
    <i type="int" name="NELMDL">    -5</i>
    <i type="int" name="NELMIN">     2</i>
    <i name="ENINI">    229.86900000</i>
    <separator name="electronic convergence detail" >
     <i type="logical" name="LDIAG"> T  </i>
     <i type="logical" name="LSUBROT"> F  </i>
     <i name="WEIMIN">      0.00000000</i>
     <i name="EBREAK">      0.00000208</i>
     <i name="DEPER">      0.30000000</i>
     <i type="int" name="NRMM">     4</i>
     <i name="TIME">      0.40000000</i>
    </separator>
   </separator>
   <separator name="electronic mixer" >
    <i name="AMIX">      0.40000000</i>
    <i name="BMIX">      1.00000000</i>
    <i name="AMIN">      0.10000000</i>
    <i name="AMIX_MAG">      1.60000000</i>
    <i name="BMIX_MAG">      1.00000000</i>
    <separator name="electronic mixer details" >
     <i type="int" name="IMIX">     4</i>
     <i type="logical" name="MIXFIRST"> F  </i>
     <i type="int" name="MAXMIX">   -45</i>
     <i name="WC">    100.00000000</i>
     <i type="int" name="INIMIX">     1</i>
     <i type="int" name="MIXPRE">     1</i>
     <i type="int" name="MREMOVE">     5</i>
    </separator>
   </separator>
   <separator name="electronic dipolcorrection" >
    <i type="logical" name="LDIPOL"> F  </i>
    <i type="logical" name="LMONO"> F  </i>
    <i type="int" name="IDIPOL">     0</i>
    <i name="EPSILON">      1.00000000</i>
    <v name="DIPOL">   -100.00000000   -100.00000000   -100.00000000</v>
    <i name="EFIELD">      0.00000000</i>
   </separator>
  </separator>
  <separator name="grids" >
   <i type="int" name="NGX">    12</i>
   <i type="int" name="NGY">    12</i>
   <i type="int" name="NGZ">    12</i>
   <i type="int" name="NGXF">    24</i>
   <i type="int" name="NGYF">    24</i>
   <i type="int" name="NGZF">    24</i>
   <i type="logical" name="ADDGRID"> F  </i>
  </separator>
  <separator name="ionic" >
   <i type="int" name="NSW">     0</i>
   <i type="int" name="IBRION">    -1</i>
   <i type="int" name="MDALGO">     0</i>
   <i type="int" name="ISIF">     2</i>
   <i name="PSTRESS">      0.00000000</i>
   <i name="EDIFFG">      0.00100000</i>
   <i type="int" name="NFREE">     0</i>
   <i name="POTIM">      0.50000000</i>
   <i name="SMASS">     -3.00000000</i>
   <i name="SCALEE">      1.00000000</i>
  </separator>
  <separator name="ionic md" >
   <i name="TEBEG">      0.00010000</i>
   <i name="TEEND">      0.00010000</i>
   <i type="int" name="NBLOCK">     1</i>
   <i type="int" name="KBLOCK">     1</i>
   <i type="int" name="NPACO">   256</i>
   <i name="APACO">     16.00000000</i>
  </separator>
  <separator name="symmetry" >
   <i type="int" name="ISYM">     2</i>
   <i name="SYMPREC">      0.00001000</i>
  </separator>
  <separator name="dos" >
   <i type="int" name="LORBIT">     0</i>
   <v name="RWIGS">      1.50300000</v>
   <i type="int" name="NEDOS">   301</i>
   <i name="EMIN">     10.00000000</i>
   <i name="EMAX">    -10.00000000</i>
   <i name="EFERMI">      0.00000000</i>
  </separator>
  <separator name="writing" >
   <i type="int" name="NWRITE">     2</i>
   <i type="logical" name="LWAVE"> T  </i>
   <i type="logical" name="LDOWNSAMPLE"> F  </i>
   <i type="logical" name="LCHARG"> T  </i>
   <i type="logical" name="LPARD"> F  </i>
   <i type="logical" name="LVTOT"> F  </i>
   <i type="logical" name="LVHAR"> F  </i>
   <i type="logical" name="LELF"> F  </i>
   <i type="logical" name="LOPTICS"> F  </i>
   <v name="STM">      0.00000000      0.00000000      0.00000000      0.00000000      0.00000000      0.00000000      0.00000000</v>
  </separator>
  <separator name="performance" >
   <i type="int" name="NPAR">     4</i>
   <i type="int" name="NSIM">     4</i>
   <i type="int" name="NBLK">    -1</i>
   <i type="logical" name="LPLANE"> T  </i>
   <i type="logical" name="LSCALAPACK"> T  </i>
   <i type="logical" name="LSCAAWARE"> F  </i>
   <i type="logical" name="LSCALU"> F  </i>
   <i type="logical" name="LASYNC"> F  </i>
   <i type="logical" name="LORBITALREAL"> F  </i>
  </separator>
  <separator name="miscellaneous" >
   <i type="int" name="IDIOT">     3</i>
   <i type="int" name="ISPECIAL">     0</i>
   <i type="logical" name="LMUSIC"> F  </i>
   <v name="POMASS">    196.96600000</v>
   <v name="DARWINR">      0.00000000</v>
   <v name="DARWINV">      1.00000000</v>
   <i type="logical" name="LCORR"> T  </i>
  </separator>
  <i type="logical" name="GGA_COMPAT"> T  </i>
  <i type="logical" name="LBERRY"> F  </i>
  <i type="int" name="ICORELEVEL">     0</i>
  <i type="logical" name="LDAU"> F  </i>
  <i type="int" name="I_CONSTRAINED_M">     0</i>
  <separator name="electronic exchange-correlation" >
   <i type="string" name="GGA">--</i>
   <i type="int" name="VOSKOWN">     0</i>
   <i type="logical" name="LHFCALC"> F  </i>
   <i type="string" name="PRECFOCK"></i>
   <i type="logical" name="LSYMGRAD"> F  </i>
   <i type="logical" name="LHFONE"> F  </i>
   <i type="logical" name="LRHFCALC"> F  </i>
   <i type="logical" name="LTHOMAS"> F  </i>
   <i type="logical" name="LMODELHF"> F  </i>
   <i name="ENCUT4O">     -1.00000000</i>
   <i type="int" name="EXXOEP">     0</i>
   <i type="int" name="FOURORBIT">     0</i>
   <i name="AEXX">      0.00000000</i>
   <i name="HFALPHA">      0.00000000</i>
   <i name="MCALPHA">      0.00000000</i>
   <i name="ALDAX">      1.00000000</i>
   <i name="AGGAX">      1.00000000</i>
   <i name="ALDAC">      1.00000000</i>
   <i name="AGGAC">      1.00000000</i>
   <i type="int" name="NKREDX">     1</i>
   <i type="int" name="NKREDY">     1</i>
   <i type="int" name="NKREDZ">     1</i>
   <i type="logical" name="SHIFTRED"> F  </i>
   <i type="logical" name="ODDONLY"> F  </i>
   <i type="logical" name="EVENONLY"> F  </i>
   <i type="int" name="LMAXFOCK">     0</i>
   <i type="int" name="NMAXFOCKAE">     0</i>
   <i type="logical" name="LFOCKAEDFT"> F  </i>
   <i name="HFSCREEN">      0.00000000</i>
   <i name="HFSCREENC">      0.00000000</i>
   <i type="int" name="NBANDSGWLOW">     0</i>
  </separator>
  <separator name="vdW DFT" >
   <i type="logical" name="LUSE_VDW"> F  </i>
   <i name="Zab_VDW">     -0.84910000</i>
   <i name="PARAM1">      0.12340000</i>
   <i name="PARAM2">      1.00000000</i>
   <i name="PARAM3">      0.00000000</i>
  </separator>
  <separator name="model GW" >
   <i type="int" name="MODEL_GW">     0</i>
   <i name="MODEL_EPS0">     11.51484375</i>
   <i name="MODEL_ALPHA">      1.00000000</i>
  </separator>
  <separator name="linear response parameters" >
   <i type="logical" name="LEPSILON"> F  </i>
   <i type="logical" name="LRPA"> F  </i>
   <i type="logical" name="LNABLA"> F  </i>
   <i type="logical" name="LVEL"> F  </i>
   <i type="int" name="KINTER">     0</i>
   <i name="CSHIFT">      0.10000000</i>
   <i name="OMEGAMAX">     -1.00000000</i>
   <i name="DEG_THRESHOLD">      0.00200000</i>
   <i name="RTIME">     -0.10000000</i>
   <i name="WPLASMAI">      0.00000000</i>
   <v name="DFIELD">      0.00000000      0.00000000      0.00000000</v>
   <v name="WPLASMA">      0.00000000      0.00000000      0.00000000      0.00000000      0.00000000      0.00000000      0.00000000      0.00000000      0.00000000</v>
  </separator>
  <separator name="orbital magnetization" >
   <i type="logical" name="NUCIND"> F  </i>
   <v name="MAGPOS">      0.00000000      0.00000000      0.00000000</v>
   <i type="logical" name="LNICSALL"> T  </i>
   <i type="logical" name="ORBITALMAG"> F  </i>
   <i type="logical" name="LMAGBLOCH"> F  </i>
   <i type="logical" name="LCHIMAG"> F  </i>
   <i type="logical" name="LGAUGE"> T  </i>
   <i type="int" name="MAGATOM">     0</i>
   <v name="MAGDIPOL">      0.00000000      0.00000000      0.00000000</v>
   <v name="AVECCONST">      0.00000000      0.00000000      0.00000000</v>
  </separator>
  <separator name="response functions" >
   <i type="logical" name="LADDER"> F  </i>
   <i type="logical" name="LRPAFORCE"> F  </i>
   <i type="logical" name="LFXC"> F  </i>
   <i type="logical" name="LHARTREE"> T  </i>
   <i type="int" name="IBSE">     0</i>
   <v type="int" name="KPOINT">    -1     0     0     0</v>
   <i type="logical" name="LTCTE"> F  </i>
   <i type="logical" name="LTETE"> F  </i>
   <i type="logical" name="LTRIPLET"> F  </i>
   <i type="logical" name="LFXCEPS"> F  </i>
   <i type="logical" name="LFXHEG"> F  </i>
   <i type="int" name="NATURALO">     2</i>
   <i type="logical" name="L2ORDER"> F  </i>
   <i type="logical" name="LMP2LT"> F  </i>
   <i type="logical" name="LUSEW"> F  </i>
   <i name="ENCUTGW">     -2.00000000</i>
   <i name="ENCUTGWSOFT">     -2.00000000</i>
   <i name="ENCUTLF">     -1.00000000</i>
   <i type="int" name="LMAXMP2">    -1</i>
   <i name="SCISSOR">      0.00000000</i>
   <i type="int" name="NOMEGA">     0</i>
   <i type="int" name="NOMEGAR">     0</i>
   <i type="int" name="NBANDSGW">    -1</i>
   <i type="int" name="NBANDSO">    -1</i>
   <i type="int" name="NBANDSV">    -1</i>
   <i type="int" name="NELM">     1</i>
   <i type="int" name="NELMHF">     1</i>
   <i type="int" name="DIM">     3</i>
   <i type="int" name="ANTIRES">     0</i>
   <i name="OMEGAMAX">    -30.00000000</i>
   <i name="OMEGAMIN">    -30.00000000</i>
   <i name="OMEGATL">   -200.00000000</i>
   <i type="int" name="OMEGAGRID">   140</i>
   <i name="CSHIFT">     -0.10000000</i>
   <i type="logical" name="SELFENERGY"> F  </i>
   <i type="logical" name="LSPECTRAL"> F  </i>
   <i type="logical" name="LSPECTRALGW"> F  </i>
   <i type="logical" name="LSINGLES"> F  </i>
   <i type="logical" name="LFERMIGW"> F  </i>
   <i type="logical" name="ODDONLYGW"> F  </i>
   <i type="logical" name="EVENONLYGW"> F  </i>
   <i type="int" name="NKREDLFX">     1</i>
   <i type="int" name="NKREDLFY">     1</i>
   <i type="int" name="NKREDLFZ">     1</i>
   <i type="int" name="MAXMEM">  2800</i>
   <i type="int" name="TELESCOPE">     0</i>
   <i type="int" name="TAUPAR">     1</i>
   <i type="int" name="OMEGAPAR">    -1</i>
   <i name="LAMBDA">      1.00000000</i>
  </separator>
  <separator name="External order field" >
   <i name="OFIELD_KAPPA">      0.00000000</i>
   <v name="OFIELD_K">      0.00000000      0.00000000      0.00000000</v>
   <i name="OFIELD_Q6_NEAR">      0.00000000</i>
   <i name="OFIELD_Q6_FAR">      0.00000000</i>
   <i name="OFIELD_A">      0.00000000</i>
  </separator>
 </parameters>
 <atominfo>
  <atoms>       1 </atoms>
  <types>       1 </types>
  <array name="atoms" >
   <dimension dim="1">ion</dimension>
   <field type="string">element</field>
   <field type="int">atomtype</field>
   <set>
    <rc><c>Au</c><c>   1</c></rc>
   </set>
  </array>
  <array name="atomtypes" >
   <dimension dim="1">type</dimension>
   <field type="int">atomspertype</field>
   <field type="string">element</field>
   <field>mass</field>
   <field>valence</field>
   <field type="string">pseudopotential</field>
   <set>
    <rc><c>   1</c><c>Au</c><c>    196.96600000</c><c>     11.00000000</c><c> PAW Au 04Feb1998                       </c></rc>
   </set>
  </array>
 </atominfo>
 <structure name="initialpos" >
  <crystal>
   <varray name="basis" >
    <v>       0.00000000       2.12500000       2.12500000 </v>
    <v>       2.12500000       0.00000000       2.12500000 </v>
    <v>       2.12500000       2.12500000       0.00000000 </v>
   </varray>
   <i name="volume">     19.19140625 </i>
   <varray name="rec_basis" >
    <v>      -0.23529412       0.23529412       0.23529412 </v>
    <v>       0.23529412      -0.23529412       0.23529412 </v>
    <v>       0.23529412       0.23529412      -0.23529412 </v>
   </varray>
  </crystal>
  <varray name="positions" >
   <v>       0.00000000       0.00000000       0.00000000 </v>
  </varray>
 </structure>
 <calculation>
  <scstep>
   <time name="dav">    0.25    0.26</time>
   <time name="total">    0.26    0.27</time>
   <energy>
    <i name="alphaZ">     95.76574619 </i>
    <i name="ewald">   -939.82889455 </i>
    <i name="hartreedc">   -138.46134419 </i>
    <i name="XCdc">     15.97153156 </i>
    <i name="pawpsdc">    746.10209728 </i>
    <i name="pawaedc">   -725.46159323 </i>
    <i name="eentropy">     -0.00001664 </i>
    <i name="bandstr">     47.41090211 </i>
    <i name="atom">    929.39614979 </i>
    <i name="e_fr_energy">     30.89457832 </i>
    <i name="e_wo_entrp">     30.89459497 </i>
    <i name="e_0_energy">     30.89458387 </i>
   </energy>
  </scstep>
  <scstep>
   <time name="dav">    0.23    0.24</time>
   <time name="total">    0.23    0.24</time>
   <energy>
    <i name="e_fr_energy">     -4.19863511 </i>
    <i name="e_wo_entrp">     -4.19936739 </i>
    <i name="e_0_energy">     -4.19887920 </i>
   </energy>
  </scstep>
  <scstep>
   <time name="dav">    0.23    0.24</time>
   <time name="total">    0.23    0.24</time>
   <energy>
    <i name="e_fr_energy">     -4.55509552 </i>
    <i name="e_wo_entrp">     -4.55570728 </i>
    <i name="e_0_energy">     -4.55529944 </i>
   </energy>
  </scstep>
  <scstep>
   <time name="dav">    0.23    0.24</time>
   <time name="total">    0.24    0.24</time>
   <energy>
    <i name="e_fr_energy">     -4.55600527 </i>
    <i name="e_wo_entrp">     -4.55661585 </i>
    <i name="e_0_energy">     -4.55620880 </i>
   </energy>
  </scstep>
  <scstep>
   <time name="dav">    0.22    0.22</time>
   <time name="total">    0.22    0.23</time>
   <energy>
    <i name="e_fr_energy">     -4.55601180 </i>
    <i name="e_wo_entrp">     -4.55662237 </i>
    <i name="e_0_energy">     -4.55621532 </i>
   </energy>
  </scstep>
  <scstep>
   <time name="dav">    0.24    0.25</time>
   <time name="total">    0.25    0.26</time>
   <energy>
    <i name="e_fr_energy">     -4.25572180 </i>
    <i name="e_wo_entrp">     -4.25668010 </i>
    <i name="e_0_energy">     -4.25604123 </i>
   </energy>
  </scstep>
  <scstep>
   <time name="dav">    0.24    0.25</time>
   <time name="total">    0.25    0.26</time>
   <energy>
    <i name="e_fr_energy">     -4.24055578 </i>
    <i name="e_wo_entrp">     -4.24155315 </i>
    <i name="e_0_energy">     -4.24088823 </i>
   </energy>
  </scstep>
  <scstep>
   <time name="dav">    0.22    0.22</time>
   <time name="total">    0.22    0.23</time>
   <energy>
    <i name="e_fr_energy">     -4.23671673 </i>
    <i name="e_wo_entrp">     -4.23771021 </i>
    <i name="e_0_energy">     -4.23704789 </i>
   </energy>
  </scstep>
  <scstep>
   <time name="dav">    0.16    0.17</time>
   <time name="total">    0.17    0.17</time>
   <energy>
    <i name="alphaZ">     95.76574619 </i>
    <i name="ewald">   -939.82889455 </i>
    <i name="hartreedc">   -127.26591195 </i>
    <i name="XCdc">     15.39351358 </i>
    <i name="pawpsdc">    736.87236791 </i>
    <i name="pawaedc">   -718.36485433 </i>
    <i name="eentropy">      0.00099376 </i>
    <i name="bandstr">      3.79417108 </i>
    <i name="atom">    929.39614979 </i>
    <i name="e_fr_energy">     -4.23671852 </i>
    <i name="e_wo_entrp">     -4.23771228 </i>
    <i name="e_0_energy">     -4.23704978 </i>
   </energy>
  </scstep>
  <structure>
   <crystal>
    <varray name="basis" >
     <v>       0.00000000       2.12500000       2.12500000 </v>
     <v>       2.12500000       0.00000000       2.12500000 </v>
     <v>       2.12500000       2.12500000       0.00000000 </v>
    </varray>
    <i name="volume">     19.19140625 </i>
    <varray name="rec_basis" >
     <v>      -0.23529412       0.23529412       0.23529412 </v>
     <v>       0.23529412      -0.23529412       0.23529412 </v>
     <v>       0.23529412       0.23529412      -0.23529412 </v>
    </varray>
   </crystal>
   <varray name="positions" >
    <v>       0.00000000       0.00000000       0.00000000 </v>
   </varray>
  </structure>
  <varray name="forces" >
   <v>       0.00000000       0.00000000       0.00000000 </v>
  </varray>
  <varray name="stress" >
   <v>    -209.28311242      -0.00000000       0.00000000 </v>
   <v>      -0.00000000    -209.28311242      -0.00000000 </v>
   <v>      -0.00000000      -0.00000000    -209.28311242 </v>
  </varray>
  <energy>
   <i name="e_fr_energy">     -4.23671852 </i>
   <i name="e_wo_entrp">     -4.23704978 </i>
   <i name="e_0_energy">      0.00099376 </i>
  </energy>
  <time name="totalsc">    2.23    2.29</time>
  <eigenvalues>
   <array>
    <dimension dim="1">band</dimension>
    <dimension dim="2">kpoint</dimension>
    <dimension dim="3">spin</dimension>
    <field>eigene</field>
    <field>occ</field>
    <set>
     <set comment="spin 1">
      <set comment="kpoint 1">
       <r>   -4.5786    1.0000 </r>
       <r>   -0.0608    1.0000 </r>
       <r>   -0.0139    1.0000 </r>
       <r>   -0.0139    1.0000 </r>
       <r>    1.2000    1.0000 </r>
       <r>    1.2000    1.0000 </r>
       <r>   19.4061    0.0000 </r>
       <r>   21.7820    0.0000 </r>
       <r>   22.5089    0.0000 </r>
       <r>   22.5089    0.0000 </r>
       <r>   27.0752    0.0000 </r>
       <r>   29.2695    0.0000 </r>
      </set>
      <set comment="kpoint 2">
       <r>   -4.1699    1.0000 </r>
       <r>   -0.1803    1.0000 </r>
       <r>    0.1003    1.0000 </r>
       <r>    0.1278    1.0000 </r>
       <r>    1.0865    1.0000 </r>
       <r>    1.2430    1.0000 </r>
       <r>   19.3157    0.0000 </r>
       <r>   20.0364    0.0000 </r>
       <r>   21.9862    0.0000 </r>
       <r>   23.3036    0.0000 </r>
       <r>   26.1245    0.0000 </r>
       <r>   28.6564    0.0000 </r>
      </set>
      <set comment="kpoint 3">
       <r>   -3.2751    1.0000 </r>
       <r>   -0.2601    1.0000 </r>
       <r>    0.2302    1.0000 </r>
       <r>    0.2453    1.0000 </r>
       <r>    1.0997    1.0000 </r>
       <r>    1.4243    1.0000 </r>
       <r>   15.8432    0.0000 </r>
       <r>   19.9605    0.0000 </r>
       <r>   21.9137    0.0000 </r>
       <r>   24.0521    0.0000 </r>
       <r>   24.6069    0.0000 </r>
       <r>   26.5834    0.0000 </r>
      </set>
      <set comment="kpoint 4">
       <r>   -2.4464    1.0000 </r>
       <r>    0.0879    1.0000 </r>
       <r>    0.1534    1.0000 </r>
       <r>    0.3456    1.0000 </r>
       <r>    1.4941    1.0000 </r>
       <r>    1.8928    1.0000 </r>
       <r>   11.9381    0.0000 </r>
       <r>   19.4070    0.0000 </r>
       <r>   20.9175    0.0000 </r>
       <r>   22.8079    0.0000 </r>
       <r>   25.6525    0.0000 </r>
       <r>   26.5093    0.0000 </r>
      </set>
      <set comment="kpoint 5">
       <r>   -2.2199    1.0000 </r>
       <r>   -0.0369    1.0000 </r>
       <r>    0.0185    1.0000 </r>
       <r>    1.6370    1.0000 </r>
       <r>    1.9734    1.0000 </r>
       <r>    2.7906    1.0000 </r>
       <r>    8.3297   -0.0000 </r>
       <r>   18.8200    0.0000 </r>
       <r>   20.1114    0.0000 </r>
       <r>   21.1266    0.0000 </r>
       <r>   27.0205    0.0000 </r>
       <r>   27.1362    0.0000 </r>
      </set>
      <set comment="kpoint 6">
       <r>   -2.2097    1.0000 </r>
       <r>   -0.0907    1.0000 </r>
       <r>   -0.0134    1.0000 </r>
       <r>    1.8928    1.0000 </r>
       <r>    2.1942    1.0000 </r>
       <r>    3.8519    0.9729 </r>
       <r>    6.6300   -0.0000 </r>
       <r>   18.6695    0.0000 </r>
       <r>   20.1705    0.0000 </r>
       <r>   20.3079    0.0000 </r>
       <r>   27.3486    0.0000 </r>
       <r>   27.3960    0.0000 </r>
      </set>
      <set comment="kpoint 7">
       <r>   -2.2503    1.0000 </r>
       <r>   -0.0122    1.0000 </r>
       <r>    0.0756    1.0000 </r>
       <r>    1.1709    1.0000 </r>
       <r>    2.0373    1.0000 </r>
       <r>    2.2433    1.0000 </r>
       <r>    9.4589   -0.0000 </r>
       <r>   19.0573    0.0000 </r>
       <r>   20.4897    0.0000 </r>
       <r>   21.2270    0.0000 </r>
       <r>   26.9567    0.0000 </r>
       <r>   27.2269    0.0000 </r>
      </set>
      <set comment="kpoint 8">
       <r>   -2.6602    1.0000 </r>
       <r>   -0.0333    1.0000 </r>
       <r>    0.1747    1.0000 </r>
       <r>    0.2141    1.0000 </r>
       <r>    1.4303    1.0000 </r>
       <r>    1.6319    1.0000 </r>
       <r>   13.2311    0.0000 </r>
       <r>   19.8144    0.0000 </r>
       <r>   21.2602    0.0000 </r>
       <r>   22.9348    0.0000 </r>
       <r>   25.3187    0.0000 </r>
       <r>   27.1300    0.0000 </r>
      </set>
      <set comment="kpoint 9">
       <r>   -3.6062    1.0000 </r>
       <r>   -0.2767    1.0000 </r>
       <r>    0.2209    1.0000 </r>
       <r>    0.2304    1.0000 </r>
       <r>    1.0632    1.0000 </r>
       <r>    1.3204    1.0000 </r>
       <r>   17.1253    0.0000 </r>
       <r>   20.1937    0.0000 </r>
       <r>   21.8736    0.0000 </r>
       <r>   23.6326    0.0000 </r>
       <r>   24.9055    0.0000 </r>
       <r>   27.6397    0.0000 </r>
      </set>
      <set comment="kpoint 10">
       <r>   -4.3710    1.0000 </r>
       <r>   -0.1462    1.0000 </r>
       <r>    0.0651    1.0000 </r>
       <r>    0.0704    1.0000 </r>
       <r>    1.1042    1.0000 </r>
       <r>    1.2481    1.0000 </r>
       <r>   19.5459    0.0000 </r>
       <r>   20.8876    0.0000 </r>
       <r>   22.1230    0.0000 </r>
       <r>   22.5715    0.0000 </r>
       <r>   27.2509    0.0000 </r>
       <r>   28.6840    0.0000 </r>
      </set>
      <set comment="kpoint 11">
       <r>   -3.9667    1.0000 </r>
       <r>   -0.3182    1.0000 </r>
       <r>    0.2309    1.0000 </r>
       <r>    0.2331    1.0000 </r>
       <r>    0.9329    1.0000 </r>
       <r>    1.3373    1.0000 </r>
       <r>   19.5660    0.0000 </r>
       <r>   20.1815    0.0000 </r>
       <r>   21.2921    0.0000 </r>
       <r>   22.0977    0.0000 </r>
       <r>   26.0216    0.0000 </r>
       <r>   28.3077    0.0000 </r>
      </set>
      <set comment="kpoint 12">
       <r>   -3.2252    1.0000 </r>
       <r>   -0.5134    1.0000 </r>
       <r>    0.3167    1.0000 </r>
       <r>    0.4616    1.0000 </r>
       <r>    0.9002    1.0000 </r>
       <r>    1.5205    1.0000 </r>
       <r>   17.3469    0.0000 </r>
       <r>   19.1559    0.0000 </r>
       <r>   21.2762    0.0000 </r>
       <r>   22.4340    0.0000 </r>
       <r>   23.9951    0.0000 </r>
       <r>   27.5787    0.0000 </r>
      </set>
      <set comment="kpoint 13">
       <r>   -2.2965    1.0000 </r>
       <r>   -0.4275    1.0000 </r>
       <r>    0.0787    1.0000 </r>
       <r>    0.4715    1.0000 </r>
       <r>    1.4435    1.0000 </r>
       <r>    2.0054    1.0000 </r>
       <r>   13.4514    0.0000 </r>
       <r>   18.5541    0.0000 </r>
       <r>   20.2845    0.0000 </r>
       <r>   21.7846    0.0000 </r>
       <r>   25.3714    0.0000 </r>
       <r>   27.3222    0.0000 </r>
      </set>
      <set comment="kpoint 14">
       <r>   -1.9218    1.0000 </r>
       <r>   -0.1629    1.0000 </r>
       <r>    0.2876    1.0000 </r>
       <r>    0.4379    1.0000 </r>
       <r>    2.0314    1.0000 </r>
       <r>    3.0997    1.0000 </r>
       <r>    9.6829    0.0000 </r>
       <r>   18.2235    0.0000 </r>
       <r>   18.9216    0.0000 </r>
       <r>   20.7015    0.0000 </r>
       <r>   27.2218    0.0000 </r>
       <r>   28.1311    0.0000 </r>
      </set>
      <set comment="kpoint 15">
       <r>   -1.8932    1.0000 </r>
       <r>   -0.2669    1.0000 </r>
       <r>    0.2318    1.0000 </r>
       <r>    1.0741    1.0000 </r>
       <r>    2.1586    1.0000 </r>
       <r>    5.0173   -0.0000 </r>
       <r>    6.6691   -0.0000 </r>
       <r>   17.8586    0.0000 </r>
       <r>   18.4630    0.0000 </r>
       <r>   20.2105    0.0000 </r>
       <r>   27.4033    0.0000 </r>
       <r>   28.5598    0.0000 </r>
      </set>
      <set comment="kpoint 16">
       <r>   -1.8847    1.0000 </r>
       <r>   -0.2035    1.0000 </r>
       <r>    0.2529    1.0000 </r>
       <r>    0.8148    1.0000 </r>
       <r>    1.9131    1.0000 </r>
       <r>    3.7461    1.0352 </r>
       <r>    8.5914   -0.0000 </r>
       <r>   17.3726    0.0000 </r>
       <r>   19.2082    0.0000 </r>
       <r>   20.8856    0.0000 </r>
       <r>   26.8197    0.0000 </r>
       <r>   28.1535    0.0000 </r>
      </set>
      <set comment="kpoint 17">
       <r>   -2.0715    1.0000 </r>
       <r>   -0.1955    1.0000 </r>
       <r>    0.0577    1.0000 </r>
       <r>    0.4054    1.0000 </r>
       <r>    1.3627    1.0000 </r>
       <r>    2.4686    1.0000 </r>
       <r>   12.1827    0.0000 </r>
       <r>   17.5291    0.0000 </r>
       <r>   20.3338    0.0000 </r>
       <r>   22.5739    0.0000 </r>
       <r>   25.3092    0.0000 </r>
       <r>   27.3164    0.0000 </r>
      </set>
      <set comment="kpoint 18">
       <r>   -2.9023    1.0000 </r>
       <r>   -0.4739    1.0000 </r>
       <r>    0.2350    1.0000 </r>
       <r>    0.4800    1.0000 </r>
       <r>    0.8932    1.0000 </r>
       <r>    1.7387    1.0000 </r>
       <r>   15.9758    0.0000 </r>
       <r>   18.1343    0.0000 </r>
       <r>   21.9021    0.0000 </r>
       <r>   22.8324    0.0000 </r>
       <r>   25.1611    0.0000 </r>
       <r>   26.3563    0.0000 </r>
      </set>
      <set comment="kpoint 19">
       <r>   -3.7786    1.0000 </r>
       <r>   -0.3120    1.0000 </r>
       <r>    0.2339    1.0000 </r>
       <r>    0.2407    1.0000 </r>
       <r>    0.9660    1.0000 </r>
       <r>    1.3480    1.0000 </r>
       <r>   18.4100    0.0000 </r>
       <r>   19.7138    0.0000 </r>
       <r>   21.5991    0.0000 </r>
       <r>   23.3401    0.0000 </r>
       <r>   25.2049    0.0000 </r>
       <r>   27.8825    0.0000 </r>
      </set>
      <set comment="kpoint 20">
       <r>   -2.7231    1.0000 </r>
       <r>   -0.8041    1.0000 </r>
       <r>    0.4509    1.0000 </r>
       <r>    0.7751    1.0000 </r>
       <r>    0.9377    1.0000 </r>
       <r>    1.6151    1.0000 </r>
       <r>   17.7059    0.0000 </r>
       <r>   18.7473    0.0000 </r>
       <r>   20.2768    0.0000 </r>
       <r>   20.8216    0.0000 </r>
       <r>   21.3337    0.0000 </r>
       <r>   29.2656    0.0000 </r>
      </set>
      <set comment="kpoint 21">
       <r>   -1.9839    1.0000 </r>
       <r>   -0.9852    1.0000 </r>
       <r>    0.2493    1.0000 </r>
       <r>    1.0601    1.0000 </r>
       <r>    1.4834    1.0000 </r>
       <r>    2.0228    1.0000 </r>
       <r>   15.0769    0.0000 </r>
       <r>   16.9600    0.0000 </r>
       <r>   18.5581    0.0000 </r>
       <r>   21.0867    0.0000 </r>
       <r>   22.4976    0.0000 </r>
       <r>   29.2214    0.0000 </r>
      </set>
      <set comment="kpoint 22">
       <r>   -1.5489    1.0000 </r>
       <r>   -0.7536    1.0000 </r>
       <r>    0.0521    1.0000 </r>
       <r>    0.9548    1.0000 </r>
       <r>    2.0980    1.0000 </r>
       <r>    3.3246    1.0000 </r>
       <r>   11.2875    0.0000 </r>
       <r>   16.2586    0.0000 </r>
       <r>   16.9583    0.0000 </r>
       <r>   20.8786    0.0000 </r>
       <r>   25.4549    0.0000 </r>
       <r>   28.9533    0.0000 </r>
      </set>
      <set comment="kpoint 23">
       <r>   -1.4463    1.0000 </r>
       <r>   -0.5292    1.0000 </r>
       <r>    0.2380    1.0000 </r>
       <r>    0.7952    1.0000 </r>
       <r>    2.1878    1.0000 </r>
       <r>    5.5475   -0.0000 </r>
       <r>    7.9676   -0.0000 </r>
       <r>   15.0285    0.0000 </r>
       <r>   17.0213    0.0000 </r>
       <r>   20.6547    0.0000 </r>
       <r>   28.0512    0.0000 </r>
       <r>   29.1978    0.0000 </r>
      </set>
      <set comment="kpoint 24">
       <r>   -1.3079    1.0000 </r>
       <r>   -0.4828    1.0000 </r>
       <r>    0.2731    1.0000 </r>
       <r>    0.7101    1.0000 </r>
       <r>    1.8731    1.0000 </r>
       <r>    5.3982   -0.0000 </r>
       <r>    8.3991   -0.0000 </r>
       <r>   14.0363    0.0000 </r>
       <r>   18.1376    0.0000 </r>
       <r>   20.8498    0.0000 </r>
       <r>   27.3739    0.0000 </r>
       <r>   29.5879    0.0000 </r>
      </set>
      <set comment="kpoint 25">
       <r>   -1.2512    1.0000 </r>
       <r>   -0.4347    1.0000 </r>
       <r>   -0.1974    1.0000 </r>
       <r>    0.7789    1.0000 </r>
       <r>    1.3260    1.0000 </r>
       <r>    3.7024    1.0282 </r>
       <r>   11.5680    0.0000 </r>
       <r>   13.9359    0.0000 </r>
       <r>   19.5271    0.0000 </r>
       <r>   21.9157    0.0000 </r>
       <r>   25.5703    0.0000 </r>
       <r>   29.2740    0.0000 </r>
      </set>
      <set comment="kpoint 26">
       <r>   -1.9490    1.0000 </r>
       <r>   -0.5315    1.0000 </r>
       <r>    0.0280    1.0000 </r>
       <r>    0.6722    1.0000 </r>
       <r>    1.0072    1.0000 </r>
       <r>    2.5371    1.0000 </r>
       <r>   13.5811    0.0000 </r>
       <r>   16.0350    0.0000 </r>
       <r>   20.7135    0.0000 </r>
       <r>   23.3361    0.0000 </r>
       <r>   24.2411    0.0000 </r>
       <r>   27.7368    0.0000 </r>
      </set>
      <set comment="kpoint 27">
       <r>   -2.8179    1.0000 </r>
       <r>   -0.3183    1.0000 </r>
       <r>    0.2115    1.0000 </r>
       <r>    0.3246    1.0000 </r>
       <r>    1.1562    1.0000 </r>
       <r>    1.6780    1.0000 </r>
       <r>   14.6191    0.0000 </r>
       <r>   19.4075    0.0000 </r>
       <r>   21.1779    0.0000 </r>
       <r>   23.4076    0.0000 </r>
       <r>   24.8152    0.0000 </r>
       <r>   26.6011    0.0000 </r>
      </set>
      <set comment="kpoint 28">
       <r>   -1.8230    1.0000 </r>
       <r>   -1.2970    1.0000 </r>
       <r>    1.0182    1.0000 </r>
       <r>    1.4862    1.0000 </r>
       <r>    1.8918    1.0000 </r>
       <r>    1.9476    1.0000 </r>
       <r>   14.9312    0.0000 </r>
       <r>   16.1456    0.0000 </r>
       <r>   16.1758    0.0000 </r>
       <r>   20.0447    0.0000 </r>
       <r>   21.8561    0.0000 </r>
       <r>   31.6199    0.0000 </r>
      </set>
      <set comment="kpoint 29">
       <r>   -1.6753    1.0000 </r>
       <r>   -1.3854    1.0000 </r>
       <r>    1.0395    1.0000 </r>
       <r>    1.7326    1.0000 </r>
       <r>    2.1091    1.0000 </r>
       <r>    3.4273    1.0002 </r>
       <r>   12.3055    0.0000 </r>
       <r>   14.4776    0.0000 </r>
       <r>   15.1328    0.0000 </r>
       <r>   20.9209    0.0000 </r>
       <r>   22.7330    0.0000 </r>
       <r>   31.0749    0.0000 </r>
      </set>
      <set comment="kpoint 30">
       <r>   -1.5321    1.0000 </r>
       <r>   -1.1131    1.0000 </r>
       <r>    0.7444    1.0000 </r>
       <r>    1.4878    1.0000 </r>
       <r>    2.2672    1.0000 </r>
       <r>    5.7725   -0.0000 </r>
       <r>    9.4529   -0.0000 </r>
       <r>   12.7044    0.0000 </r>
       <r>   15.2679    0.0000 </r>
       <r>   21.1806    0.0000 </r>
       <r>   25.3016    0.0000 </r>
       <r>   30.0904    0.0000 </r>
      </set>
      <set comment="kpoint 31">
       <r>   -1.2938    1.0000 </r>
       <r>   -0.6783    1.0000 </r>
       <r>    0.2947    1.0000 </r>
       <r>    1.2223    1.0000 </r>
       <r>    2.0117    1.0000 </r>
       <r>    6.8420   -0.0000 </r>
       <r>    8.9404   -0.0000 </r>
       <r>   11.1261    0.0000 </r>
       <r>   16.4250    0.0000 </r>
       <r>   21.1110    0.0000 </r>
       <r>   28.4949    0.0000 </r>
       <r>   28.9564    0.0000 </r>
      </set>
      <set comment="kpoint 32">
       <r>   -1.0731    1.0000 </r>
       <r>   -0.4336    1.0000 </r>
       <r>   -0.1089    1.0000 </r>
       <r>    0.9342    1.0000 </r>
       <r>    1.6842    1.0000 </r>
       <r>    5.2073   -0.0000 </r>
       <r>   10.1317    0.0000 </r>
       <r>   12.1061    0.0000 </r>
       <r>   18.0810    0.0000 </r>
       <r>   21.1371    0.0000 </r>
       <r>   27.2688    0.0000 </r>
       <r>   29.9050    0.0000 </r>
      </set>
      <set comment="kpoint 33">
       <r>   -1.5801    1.0000 </r>
       <r>   -0.2813    1.0000 </r>
       <r>    0.1727    1.0000 </r>
       <r>    0.5317    1.0000 </r>
       <r>    1.6187    1.0000 </r>
       <r>    3.7171    1.0313 </r>
       <r>   10.0558    0.0000 </r>
       <r>   15.6153    0.0000 </r>
       <r>   19.3998    0.0000 </r>
       <r>   21.4451    0.0000 </r>
       <r>   26.1453    0.0000 </r>
       <r>   28.6571    0.0000 </r>
      </set>
      <set comment="kpoint 34">
       <r>   -2.1938    1.0000 </r>
       <r>   -0.0087    1.0000 </r>
       <r>    0.1918    1.0000 </r>
       <r>    0.4813    1.0000 </r>
       <r>    1.7299    1.0000 </r>
       <r>    2.3378    1.0000 </r>
       <r>   10.7546    0.0000 </r>
       <r>   18.9045    0.0000 </r>
       <r>   20.0172    0.0000 </r>
       <r>   21.8166    0.0000 </r>
       <r>   26.3964    0.0000 </r>
       <r>   27.0716    0.0000 </r>
      </set>
      <set comment="kpoint 35">
       <r>   -1.8863    1.0000 </r>
       <r>   -1.6262    1.0000 </r>
       <r>    2.0214    1.0000 </r>
       <r>    2.0678    1.0000 </r>
       <r>    2.2913    1.0000 </r>
       <r>    4.0607    0.2553 </r>
       <r>   10.8045    0.0000 </r>
       <r>   14.0023    0.0000 </r>
       <r>   14.3502    0.0000 </r>
       <r>   20.2100    0.0000 </r>
       <r>   22.3372    0.0000 </r>
       <r>   32.4476    0.0000 </r>
      </set>
      <set comment="kpoint 36">
       <r>   -1.8199    1.0000 </r>
       <r>   -1.5835    1.0000 </r>
       <r>    1.7724    1.0000 </r>
       <r>    1.9913    1.0000 </r>
       <r>    2.4083    1.0000 </r>
       <r>    5.9388   -0.0000 </r>
       <r>    9.0267   -0.0000 </r>
       <r>   12.9981    0.0000 </r>
       <r>   13.9477    0.0000 </r>
       <r>   21.0572    0.0000 </r>
       <r>   22.9199    0.0000 </r>
       <r>   31.6182    0.0000 </r>
      </set>
      <set comment="kpoint 37">
       <r>   -1.5727    1.0000 </r>
       <r>   -1.1902    1.0000 </r>
       <r>    0.9836    1.0000 </r>
       <r>    1.6216    1.0000 </r>
       <r>    2.2652    1.0000 </r>
       <r>    7.1660   -0.0000 </r>
       <r>    8.5155   -0.0000 </r>
       <r>   11.5513    0.0000 </r>
       <r>   14.9585    0.0000 </r>
       <r>   21.3009    0.0000 </r>
       <r>   25.2793    0.0000 </r>
       <r>   30.3339    0.0000 </r>
      </set>
      <set comment="kpoint 38">
       <r>   -1.3277    1.0000 </r>
       <r>   -0.6400    1.0000 </r>
       <r>    0.2585    1.0000 </r>
       <r>    1.0441    1.0000 </r>
       <r>    2.1095    1.0000 </r>
       <r>    6.7941   -0.0000 </r>
       <r>    7.6798   -0.0000 </r>
       <r>   13.0025    0.0000 </r>
       <r>   16.6238    0.0000 </r>
       <r>   20.9267    0.0000 </r>
       <r>   28.3095    0.0000 </r>
       <r>   29.0540    0.0000 </r>
      </set>
      <set comment="kpoint 39">
       <r>   -1.6167    1.0000 </r>
       <r>   -0.3979    1.0000 </r>
       <r>    0.4498    1.0000 </r>
       <r>    0.6825    1.0000 </r>
       <r>    2.0586    1.0000 </r>
       <r>    5.6737   -0.0000 </r>
       <r>    6.8946   -0.0000 </r>
       <r>   16.0019    0.0000 </r>
       <r>   18.2642    0.0000 </r>
       <r>   20.4568    0.0000 </r>
       <r>   27.4502    0.0000 </r>
       <r>   29.1286    0.0000 </r>
      </set>
      <set comment="kpoint 40">
       <r>   -2.0993    1.0000 </r>
       <r>   -0.1357    1.0000 </r>
       <r>    0.0820    1.0000 </r>
       <r>    1.4279    1.0000 </r>
       <r>    2.1271    1.0000 </r>
       <r>    3.7948    1.0276 </r>
       <r>    7.3814   -0.0000 </r>
       <r>   18.6236    0.0000 </r>
       <r>   19.3507    0.0000 </r>
       <r>   20.4582    0.0000 </r>
       <r>   27.2504    0.0000 </r>
       <r>   27.7777    0.0000 </r>
      </set>
      <set comment="kpoint 41">
       <r>   -1.9457    1.0000 </r>
       <r>   -1.6966    1.0000 </r>
       <r>    2.1105    1.0000 </r>
       <r>    2.2793    1.0000 </r>
       <r>    2.4174    1.0000 </r>
       <r>    5.3178   -0.0000 </r>
       <r>    9.1654   -0.0000 </r>
       <r>   13.5808    0.0000 </r>
       <r>   13.9493    0.0000 </r>
       <r>   20.2878    0.0000 </r>
       <r>   22.4388    0.0000 </r>
       <r>   32.2943    0.0000 </r>
      </set>
      <set comment="kpoint 42">
       <r>   -1.7582    1.0000 </r>
       <r>   -1.5160    1.0000 </r>
       <r>    1.4861    1.0000 </r>
       <r>    1.9462    1.0000 </r>
       <r>    2.2865    1.0000 </r>
       <r>    4.6666   -0.0000 </r>
       <r>   10.5808    0.0000 </r>
       <r>   13.4868    0.0000 </r>
       <r>   14.3409    0.0000 </r>
       <r>   20.9937    0.0000 </r>
       <r>   22.8528    0.0000 </r>
       <r>   31.5084    0.0000 </r>
      </set>
      <set comment="kpoint 43">
       <r>   -1.4928    1.0000 </r>
       <r>   -0.9594    1.0000 </r>
       <r>    0.3823    1.0000 </r>
       <r>    1.2423    1.0000 </r>
       <r>    2.2282    1.0000 </r>
       <r>    4.4460   -0.0035 </r>
       <r>   10.3276    0.0000 </r>
       <r>   14.4653    0.0000 </r>
       <r>   15.8873    0.0000 </r>
       <r>   21.0056    0.0000 </r>
       <r>   25.3605    0.0000 </r>
       <r>   29.6128    0.0000 </r>
      </set>
      <set comment="kpoint 44">
       <r>   -1.6583    1.0000 </r>
       <r>   -0.3528    1.0000 </r>
       <r>    0.2690    1.0000 </r>
       <r>    0.5591    1.0000 </r>
       <r>    2.1775    1.0000 </r>
       <r>    4.2110   -0.0300 </r>
       <r>    8.7375   -0.0000 </r>
       <r>   17.0116    0.0000 </r>
       <r>   17.6464    0.0000 </r>
       <r>   20.4703    0.0000 </r>
       <r>   27.7070    0.0000 </r>
       <r>   29.1505    0.0000 </r>
      </set>
      <set comment="kpoint 45">
       <r>   -1.8084    1.0000 </r>
       <r>   -1.4898    1.0000 </r>
       <r>    1.6436    1.0000 </r>
       <r>    1.8089    1.0000 </r>
       <r>    2.1185    1.0000 </r>
       <r>    2.7788    1.0000 </r>
       <r>   12.8898    0.0000 </r>
       <r>   14.8278    0.0000 </r>
       <r>   15.1062    0.0000 </r>
       <r>   20.1038    0.0000 </r>
       <r>   22.1401    0.0000 </r>
       <r>   32.4851    0.0000 </r>
      </set>
      <set comment="kpoint 46">
       <r>   -1.6843    1.0000 </r>
       <r>   -1.2034    1.0000 </r>
       <r>    0.5405    1.0000 </r>
       <r>    1.4072    1.0000 </r>
       <r>    1.8649    1.0000 </r>
       <r>    2.5259    1.0000 </r>
       <r>   13.8002    0.0000 </r>
       <r>   15.7453    0.0000 </r>
       <r>   16.5356    0.0000 </r>
       <r>   20.9289    0.0000 </r>
       <r>   22.5867    0.0000 </r>
       <r>   30.2363    0.0000 </r>
      </set>
      <set comment="kpoint 47">
       <r>   -1.8235    1.0000 </r>
       <r>   -0.5628    1.0000 </r>
       <r>   -0.0509    1.0000 </r>
       <r>    0.6862    1.0000 </r>
       <r>    1.8344    1.0000 </r>
       <r>    2.5001    1.0000 </r>
       <r>   12.3372    0.0000 </r>
       <r>   17.4922    0.0000 </r>
       <r>   18.7603    0.0000 </r>
       <r>   20.9753    0.0000 </r>
       <r>   25.5246    0.0000 </r>
       <r>   28.1692    0.0000 </r>
      </set>
      <set comment="kpoint 48">
       <r>   -2.1217    1.0000 </r>
       <r>   -1.0623    1.0000 </r>
       <r>    0.5407    1.0000 </r>
       <r>    1.1228    1.0000 </r>
       <r>    1.3384    1.0000 </r>
       <r>    1.7799    1.0000 </r>
       <r>   16.4615    0.0000 </r>
       <r>   17.3885    0.0000 </r>
       <r>   18.3158    0.0000 </r>
       <r>   20.1161    0.0000 </r>
       <r>   21.5192    0.0000 </r>
       <r>   30.3433    0.0000 </r>
      </set>
      <set comment="kpoint 49">
       <r>   -2.5754    1.0000 </r>
       <r>   -0.7477    1.0000 </r>
       <r>    0.2566    1.0000 </r>
       <r>    0.7383    1.0000 </r>
       <r>    1.0966    1.0000 </r>
       <r>    1.7378    1.0000 </r>
       <r>   16.2445    0.0000 </r>
       <r>   18.1511    0.0000 </r>
       <r>   20.5532    0.0000 </r>
       <r>   21.4331    0.0000 </r>
       <r>   22.7787    0.0000 </r>
       <r>   28.2517    0.0000 </r>
      </set>
      <set comment="kpoint 50">
       <r>   -3.3940    1.0000 </r>
       <r>   -0.5470    1.0000 </r>
       <r>    0.4303    1.0000 </r>
       <r>    0.4709    1.0000 </r>
       <r>    0.7777    1.0000 </r>
       <r>    1.4625    1.0000 </r>
       <r>   18.7725    0.0000 </r>
       <r>   20.1008    0.0000 </r>
       <r>   20.3008    0.0000 </r>
       <r>   21.4201    0.0000 </r>
       <r>   23.5792    0.0000 </r>
       <r>   28.5126    0.0000 </r>
      </set>
      <set comment="kpoint 51">
       <r>   -3.9781    1.0000 </r>
       <r>   -0.1890    1.0000 </r>
       <r>    0.1426    1.0000 </r>
       <r>    0.1426    1.0000 </r>
       <r>    1.1690    1.0000 </r>
       <r>    1.1690    1.0000 </r>
       <r>   18.2843    0.0000 </r>
       <r>   20.1478    0.0000 </r>
       <r>   22.8423    0.0000 </r>
       <r>   22.8423    0.0000 </r>
       <r>   25.8827    0.0000 </r>
       <r>   27.9355    0.0000 </r>
      </set>
      <set comment="kpoint 52">
       <r>   -3.4144    1.0000 </r>
       <r>   -0.3532    1.0000 </r>
       <r>    0.2527    1.0000 </r>
       <r>    0.3112    1.0000 </r>
       <r>    0.9223    1.0000 </r>
       <r>    1.4830    1.0000 </r>
       <r>   17.1636    0.0000 </r>
       <r>   19.0108    0.0000 </r>
       <r>   21.9412    0.0000 </r>
       <r>   23.8301    0.0000 </r>
       <r>   24.7938    0.0000 </r>
       <r>   26.9905    0.0000 </r>
      </set>
      <set comment="kpoint 53">
       <r>   -2.4581    1.0000 </r>
       <r>   -0.4737    1.0000 </r>
       <r>    0.1780    1.0000 </r>
       <r>    0.5447    1.0000 </r>
       <r>    0.8533    1.0000 </r>
       <r>    2.0946    1.0000 </r>
       <r>   14.7195    0.0000 </r>
       <r>   17.0933    0.0000 </r>
       <r>   21.6682    0.0000 </r>
       <r>   23.4211    0.0000 </r>
       <r>   24.6104    0.0000 </r>
       <r>   26.8490    0.0000 </r>
      </set>
      <set comment="kpoint 54">
       <r>   -1.8283    1.0000 </r>
       <r>   -0.1663    1.0000 </r>
       <r>    0.1963    1.0000 </r>
       <r>    0.3834    1.0000 </r>
       <r>    1.3977    1.0000 </r>
       <r>    3.0204    1.0000 </r>
       <r>   11.0508    0.0000 </r>
       <r>   16.5352    0.0000 </r>
       <r>   20.2733    0.0000 </r>
       <r>   22.0138    0.0000 </r>
       <r>   25.5205    0.0000 </r>
       <r>   27.8911    0.0000 </r>
      </set>
      <set comment="kpoint 55">
       <r>   -1.7833    1.0000 </r>
       <r>   -0.2761    1.0000 </r>
       <r>    0.2938    1.0000 </r>
       <r>    0.8968    1.0000 </r>
       <r>    1.9444    1.0000 </r>
       <r>    4.5875   -0.0001 </r>
       <r>    7.6643   -0.0000 </r>
       <r>   16.6236    0.0000 </r>
       <r>   19.6199    0.0000 </r>
       <r>   19.9794    0.0000 </r>
       <r>   27.3690    0.0000 </r>
       <r>   28.1670    0.0000 </r>
      </set>
      <set comment="kpoint 56">
       <r>   -1.8148    1.0000 </r>
       <r>   -0.2951    1.0000 </r>
       <r>    0.3335    1.0000 </r>
       <r>    0.7419    1.0000 </r>
       <r>    2.2198    1.0000 </r>
       <r>    4.5954   -0.0001 </r>
       <r>    7.5196   -0.0000 </r>
       <r>   17.4394    0.0000 </r>
       <r>   18.8391    0.0000 </r>
       <r>   19.6218    0.0000 </r>
       <r>   28.3052    0.0000 </r>
       <r>   28.3126    0.0000 </r>
      </set>
      <set comment="kpoint 57">
       <r>   -1.8979    1.0000 </r>
       <r>   -0.1909    1.0000 </r>
       <r>   -0.0263    1.0000 </r>
       <r>    0.4641    1.0000 </r>
       <r>    2.1029    1.0000 </r>
       <r>    2.6267    1.0000 </r>
       <r>   10.9400    0.0000 </r>
       <r>   18.6550    0.0000 </r>
       <r>   18.7942    0.0000 </r>
       <r>   20.1382    0.0000 </r>
       <r>   27.2147    0.0000 </r>
       <r>   28.4345    0.0000 </r>
      </set>
      <set comment="kpoint 58">
       <r>   -2.4754    1.0000 </r>
       <r>   -0.6373    1.0000 </r>
       <r>    0.1783    1.0000 </r>
       <r>    0.5711    1.0000 </r>
       <r>    1.3923    1.0000 </r>
       <r>    1.7372    1.0000 </r>
       <r>   14.8415    0.0000 </r>
       <r>   19.1847    0.0000 </r>
       <r>   20.0936    0.0000 </r>
       <r>   21.1164    0.0000 </r>
       <r>   24.1348    0.0000 </r>
       <r>   28.5225    0.0000 </r>
      </set>
      <set comment="kpoint 59">
       <r>   -3.0836    1.0000 </r>
       <r>   -0.4400    1.0000 </r>
       <r>    0.2696    1.0000 </r>
       <r>    0.3728    1.0000 </r>
       <r>    1.0818    1.0000 </r>
       <r>    1.5187    1.0000 </r>
       <r>   15.9773    0.0000 </r>
       <r>   20.2002    0.0000 </r>
       <r>   20.5745    0.0000 </r>
       <r>   23.0536    0.0000 </r>
       <r>   24.1947    0.0000 </r>
       <r>   27.9214    0.0000 </r>
      </set>
      <set comment="kpoint 60">
       <r>   -2.3019    1.0000 </r>
       <r>   -0.6468    1.0000 </r>
       <r>    0.0999    1.0000 </r>
       <r>    0.7147    1.0000 </r>
       <r>    1.0714    1.0000 </r>
       <r>    2.0767    1.0000 </r>
       <r>   14.8364    0.0000 </r>
       <r>   17.1180    0.0000 </r>
       <r>   20.6245    0.0000 </r>
       <r>   22.5455    0.0000 </r>
       <r>   24.2463    0.0000 </r>
       <r>   27.1640    0.0000 </r>
      </set>
      <set comment="kpoint 61">
       <r>   -1.4614    1.0000 </r>
       <r>   -0.6211    1.0000 </r>
       <r>   -0.2095    1.0000 </r>
       <r>    0.9090    1.0000 </r>
       <r>    1.3201    1.0000 </r>
       <r>    3.0944    1.0000 </r>
       <r>   12.5469    0.0000 </r>
       <r>   14.9906    0.0000 </r>
       <r>   19.0639    0.0000 </r>
       <r>   22.9760    0.0000 </r>
       <r>   24.6124    0.0000 </r>
       <r>   28.2004    0.0000 </r>
      </set>
      <set comment="kpoint 62">
       <r>   -1.3313    1.0000 </r>
       <r>   -0.4710    1.0000 </r>
       <r>    0.0732    1.0000 </r>
       <r>    0.7511    1.0000 </r>
       <r>    1.8688    1.0000 </r>
       <r>    4.6430   -0.0000 </r>
       <r>    9.2059   -0.0000 </r>
       <r>   14.7810    0.0000 </r>
       <r>   17.6423    0.0000 </r>
       <r>   21.7941    0.0000 </r>
       <r>   26.4420    0.0000 </r>
       <r>   29.8005    0.0000 </r>
      </set>
      <set comment="kpoint 63">
       <r>   -1.3868    1.0000 </r>
       <r>   -0.5402    1.0000 </r>
       <r>    0.3508    1.0000 </r>
       <r>    0.6938    1.0000 </r>
       <r>    2.0995    1.0000 </r>
       <r>    6.2406   -0.0000 </r>
       <r>    7.0327   -0.0000 </r>
       <r>   15.3088    0.0000 </r>
       <r>   16.6915    0.0000 </r>
       <r>   21.3811    0.0000 </r>
       <r>   27.1308    0.0000 </r>
       <r>   30.4075    0.0000 </r>
      </set>
      <set comment="kpoint 64">
       <r>   -1.4288    1.0000 </r>
       <r>   -0.4571    1.0000 </r>
       <r>   -0.1492    1.0000 </r>
       <r>    0.8527    1.0000 </r>
       <r>    1.9709    1.0000 </r>
       <r>    3.9634    0.6515 </r>
       <r>   10.1630    0.0000 </r>
       <r>   15.5922    0.0000 </r>
       <r>   17.2224    0.0000 </r>
       <r>   21.6880    0.0000 </r>
       <r>   26.3813    0.0000 </r>
       <r>   28.5837    0.0000 </r>
      </set>
      <set comment="kpoint 65">
       <r>   -1.7394    1.0000 </r>
       <r>   -0.8336    1.0000 </r>
       <r>   -0.0364    1.0000 </r>
       <r>    1.0060    1.0000 </r>
       <r>    1.4077    1.0000 </r>
       <r>    2.5240    1.0000 </r>
       <r>   13.7262    0.0000 </r>
       <r>   16.0356    0.0000 </r>
       <r>   18.7620    0.0000 </r>
       <r>   22.3112    0.0000 </r>
       <r>   23.8442    0.0000 </r>
       <r>   28.0256    0.0000 </r>
      </set>
      <set comment="kpoint 66">
       <r>   -1.9246    1.0000 </r>
       <r>   -0.8412    1.0000 </r>
       <r>    0.1263    1.0000 </r>
       <r>    0.8195    1.0000 </r>
       <r>    1.9516    1.0000 </r>
       <r>    1.9619    1.0000 </r>
       <r>   13.6988    0.0000 </r>
       <r>   17.8538    0.0000 </r>
       <r>   18.5990    0.0000 </r>
       <r>   20.4053    0.0000 </r>
       <r>   23.9965    0.0000 </r>
       <r>   29.4194    0.0000 </r>
      </set>
      <set comment="kpoint 67">
       <r>   -1.4355    1.0000 </r>
       <r>   -1.0124    1.0000 </r>
       <r>    0.0596    1.0000 </r>
       <r>    1.3339    1.0000 </r>
       <r>    1.7545    1.0000 </r>
       <r>    3.1870    1.0000 </r>
       <r>   12.6290    0.0000 </r>
       <r>   14.9613    0.0000 </r>
       <r>   16.8096    0.0000 </r>
       <r>   22.1583    0.0000 </r>
       <r>   23.7804    0.0000 </r>
       <r>   28.8056    0.0000 </r>
      </set>
      <set comment="kpoint 68">
       <r>   -1.1205    1.0000 </r>
       <r>   -0.8761    1.0000 </r>
       <r>   -0.1169    1.0000 </r>
       <r>    1.4020    1.0000 </r>
       <r>    1.9757    1.0000 </r>
       <r>    4.8829   -0.0000 </r>
       <r>   10.7697    0.0000 </r>
       <r>   13.0762    0.0000 </r>
       <r>   15.3374    0.0000 </r>
       <r>   23.3007    0.0000 </r>
       <r>   24.9869    0.0000 </r>
       <r>   28.5043    0.0000 </r>
      </set>
      <set comment="kpoint 69">
       <r>   -0.9829    1.0000 </r>
       <r>   -0.7341    1.0000 </r>
       <r>   -0.0839    1.0000 </r>
       <r>    1.1029    1.0000 </r>
       <r>    2.1572    1.0000 </r>
       <r>    6.9201   -0.0000 </r>
       <r>    8.3206   -0.0000 </r>
       <r>   12.6680    0.0000 </r>
       <r>   14.7875    0.0000 </r>
       <r>   23.1341    0.0000 </r>
       <r>   26.7678    0.0000 </r>
       <r>   29.4087    0.0000 </r>
      </set>
      <set comment="kpoint 70">
       <r>   -0.7899    1.0000 </r>
       <r>   -0.7122    1.0000 </r>
       <r>   -0.3931    1.0000 </r>
       <r>    1.1715    1.0000 </r>
       <r>    1.9544    1.0000 </r>
       <r>    5.5521   -0.0000 </r>
       <r>   10.1698    0.0000 </r>
       <r>   12.1900    0.0000 </r>
       <r>   15.6960    0.0000 </r>
       <r>   23.3946    0.0000 </r>
       <r>   25.8818    0.0000 </r>
       <r>   29.3663    0.0000 </r>
      </set>
      <set comment="kpoint 71">
       <r>   -1.1449    1.0000 </r>
       <r>   -0.7230    1.0000 </r>
       <r>   -0.3322    1.0000 </r>
       <r>    1.1941    1.0000 </r>
       <r>    1.6633    1.0000 </r>
       <r>    3.8522    0.9725 </r>
       <r>   11.6142    0.0000 </r>
       <r>   13.9964    0.0000 </r>
       <r>   17.1499    0.0000 </r>
       <r>   23.0350    0.0000 </r>
       <r>   24.8337    0.0000 </r>
       <r>   28.3905    0.0000 </r>
      </set>
      <set comment="kpoint 72">
       <r>   -1.6203    1.0000 </r>
       <r>   -1.2270    1.0000 </r>
       <r>    0.8116    1.0000 </r>
       <r>    1.3994    1.0000 </r>
       <r>    2.2629    1.0000 </r>
       <r>    3.8292    1.0024 </r>
       <r>   11.3943    0.0000 </r>
       <r>   14.4530    0.0000 </r>
       <r>   15.7250    0.0000 </r>
       <r>   20.6250    0.0000 </r>
       <r>   23.8809    0.0000 </r>
       <r>   30.9526    0.0000 </r>
      </set>
      <set comment="kpoint 73">
       <r>   -1.5229    1.0000 </r>
       <r>   -1.2977    1.0000 </r>
       <r>    0.8268    1.0000 </r>
       <r>    1.7432    1.0000 </r>
       <r>    2.2575    1.0000 </r>
       <r>    5.4297   -0.0000 </r>
       <r>   10.2406    0.0000 </r>
       <r>   12.9112    0.0000 </r>
       <r>   14.1087    0.0000 </r>
       <r>   22.2584    0.0000 </r>
       <r>   23.8397    0.0000 </r>
       <r>   29.9648    0.0000 </r>
      </set>
      <set comment="kpoint 74">
       <r>   -1.2968    1.0000 </r>
       <r>   -1.0426    1.0000 </r>
       <r>    0.4528    1.0000 </r>
       <r>    1.4120    1.0000 </r>
       <r>    2.4036    1.0000 </r>
       <r>    7.5608   -0.0000 </r>
       <r>    8.9000   -0.0000 </r>
       <r>   11.5454    0.0000 </r>
       <r>   13.3423    0.0000 </r>
       <r>   23.7483    0.0000 </r>
       <r>   25.3104    0.0000 </r>
       <r>   28.6327    0.0000 </r>
      </set>
      <set comment="kpoint 75">
       <r>   -1.0174    1.0000 </r>
       <r>   -0.6556    1.0000 </r>
       <r>   -0.1215    1.0000 </r>
       <r>    1.1540    1.0000 </r>
       <r>    2.2328    1.0000 </r>
       <r>    7.2227   -0.0000 </r>
       <r>    9.2936   -0.0000 </r>
       <r>   11.0407    0.0000 </r>
       <r>   14.3804    0.0000 </r>
       <r>   23.6023    0.0000 </r>
       <r>   27.0589    0.0000 </r>
       <r>   28.8525    0.0000 </r>
      </set>
      <set comment="kpoint 76">
       <r>   -1.1005    1.0000 </r>
       <r>   -0.6638    1.0000 </r>
       <r>   -0.0166    1.0000 </r>
       <r>    0.9639    1.0000 </r>
       <r>    2.0428    1.0000 </r>
       <r>    5.7967   -0.0000 </r>
       <r>    8.5452   -0.0000 </r>
       <r>   13.9237    0.0000 </r>
       <r>   15.9081    0.0000 </r>
       <r>   22.4423    0.0000 </r>
       <r>   26.5819    0.0000 </r>
       <r>   29.8964    0.0000 </r>
      </set>
      <set comment="kpoint 77">
       <r>   -1.7410    1.0000 </r>
       <r>   -1.4405    1.0000 </r>
       <r>    1.5044    1.0000 </r>
       <r>    1.8385    1.0000 </r>
       <r>    2.3217    1.0000 </r>
       <r>    6.4436   -0.0000 </r>
       <r>    8.8128   -0.0000 </r>
       <r>   12.1708    0.0000 </r>
       <r>   14.6994    0.0000 </r>
       <r>   20.8947    0.0000 </r>
       <r>   23.8961    0.0000 </r>
       <r>   31.4036    0.0000 </r>
      </set>
      <set comment="kpoint 78">
       <r>   -1.5891    1.0000 </r>
       <r>   -1.3608    1.0000 </r>
       <r>    1.1110    1.0000 </r>
       <r>    1.7309    1.0000 </r>
       <r>    2.4041    1.0000 </r>
       <r>    6.8024   -0.0000 </r>
       <r>    8.8517   -0.0000 </r>
       <r>   12.3251    0.0000 </r>
       <r>   13.6605    0.0000 </r>
       <r>   22.3356    0.0000 </r>
       <r>   23.8650    0.0000 </r>
       <r>   30.2251    0.0000 </r>
      </set>
      <set comment="kpoint 79">
       <r>   -1.2204    1.0000 </r>
       <r>   -0.9909    1.0000 </r>
       <r>    0.2107    1.0000 </r>
       <r>    1.4550    1.0000 </r>
       <r>    2.2416    1.0000 </r>
       <r>    6.1539   -0.0000 </r>
       <r>    9.9370    0.0000 </r>
       <r>   12.1991    0.0000 </r>
       <r>   13.9795    0.0000 </r>
       <r>   23.5839    0.0000 </r>
       <r>   25.1570    0.0000 </r>
       <r>   28.5800    0.0000 </r>
      </set>
      <set comment="kpoint 80">
       <r>   -1.6880    1.0000 </r>
       <r>   -1.3674    1.0000 </r>
       <r>    1.2498    1.0000 </r>
       <r>    1.6644    1.0000 </r>
       <r>    2.3209    1.0000 </r>
       <r>    5.1193   -0.0000 </r>
       <r>   10.1340    0.0000 </r>
       <r>   12.9435    0.0000 </r>
       <r>   15.0501    0.0000 </r>
       <r>   20.7877    0.0000 </r>
       <r>   23.8860    0.0000 </r>
       <r>   31.2974    0.0000 </r>
      </set>
      <set comment="kpoint 81">
       <r>   -1.4317    1.0000 </r>
       <r>   -1.1751    1.0000 </r>
       <r>    0.4219    1.0000 </r>
       <r>    1.6136    1.0000 </r>
       <r>    2.0310    1.0000 </r>
       <r>    4.1665    0.0019 </r>
       <r>   11.5052    0.0000 </r>
       <r>   13.9050    0.0000 </r>
       <r>   15.1417    0.0000 </r>
       <r>   22.1670    0.0000 </r>
       <r>   23.8033    0.0000 </r>
       <r>   29.4721    0.0000 </r>
      </set>
      <set comment="kpoint 82">
       <r>   -1.6401    1.0000 </r>
       <r>   -1.0410    1.0000 </r>
       <r>    0.3529    1.0000 </r>
       <r>    1.1036    1.0000 </r>
       <r>    2.1379    1.0000 </r>
       <r>    2.7704    1.0000 </r>
       <r>   12.5544    0.0000 </r>
       <r>   16.4352    0.0000 </r>
       <r>   16.6782    0.0000 </r>
       <r>   20.4712    0.0000 </r>
       <r>   23.9112    0.0000 </r>
       <r>   30.2752    0.0000 </r>
      </set>
      <set comment="kpoint 83">
       <r>   -3.0128    1.0000 </r>
       <r>   -0.1147    1.0000 </r>
       <r>    0.1989    1.0000 </r>
       <r>    0.1989    1.0000 </r>
       <r>    1.3561    1.0000 </r>
       <r>    1.3561    1.0000 </r>
       <r>   14.5002    0.0000 </r>
       <r>   20.0585    0.0000 </r>
       <r>   22.7192    0.0000 </r>
       <r>   22.7192    0.0000 </r>
       <r>   25.3681    0.0000 </r>
       <r>   26.7001    0.0000 </r>
      </set>
      <set comment="kpoint 84">
       <r>   -2.4635    1.0000 </r>
       <r>   -0.2182    1.0000 </r>
       <r>    0.1809    1.0000 </r>
       <r>    0.3167    1.0000 </r>
       <r>    1.1699    1.0000 </r>
       <r>    2.0227    1.0000 </r>
       <r>   13.3507    0.0000 </r>
       <r>   18.4854    0.0000 </r>
       <r>   20.9946    0.0000 </r>
       <r>   23.9441    0.0000 </r>
       <r>   24.4673    0.0000 </r>
       <r>   26.4865    0.0000 </r>
      </set>
      <set comment="kpoint 85">
       <r>   -1.5819    1.0000 </r>
       <r>   -0.4500    1.0000 </r>
       <r>   -0.0235    1.0000 </r>
       <r>    0.6370    1.0000 </r>
       <r>    1.0905    1.0000 </r>
       <r>    3.0694    1.0000 </r>
       <r>   12.4925    0.0000 </r>
       <r>   14.9632    0.0000 </r>
       <r>   20.7104    0.0000 </r>
       <r>   22.2348    0.0000 </r>
       <r>   24.9009    0.0000 </r>
       <r>   28.7373    0.0000 </r>
      </set>
      <set comment="kpoint 86">
       <r>   -1.1408    1.0000 </r>
       <r>   -0.3678    1.0000 </r>
       <r>   -0.1120    1.0000 </r>
       <r>    0.7712    1.0000 </r>
       <r>    1.4545    1.0000 </r>
       <r>    4.3844   -0.0102 </r>
       <r>   10.7758    0.0000 </r>
       <r>   12.9498    0.0000 </r>
       <r>   19.9504    0.0000 </r>
       <r>   20.3388    0.0000 </r>
       <r>   26.7125    0.0000 </r>
       <r>   29.1831    0.0000 </r>
      </set>
      <set comment="kpoint 87">
       <r>   -1.3264    1.0000 </r>
       <r>   -0.5036    1.0000 </r>
       <r>    0.2794    1.0000 </r>
       <r>    0.8274    1.0000 </r>
       <r>    1.9818    1.0000 </r>
       <r>    6.2626   -0.0000 </r>
       <r>    7.7343   -0.0000 </r>
       <r>   13.4407    0.0000 </r>
       <r>   18.0082    0.0000 </r>
       <r>   20.2092    0.0000 </r>
       <r>   28.7026    0.0000 </r>
       <r>   29.3446    0.0000 </r>
      </set>
      <set comment="kpoint 88">
       <r>   -1.4958    1.0000 </r>
       <r>   -0.6965    1.0000 </r>
       <r>    0.2879    1.0000 </r>
       <r>    0.9533    1.0000 </r>
       <r>    2.2648    1.0000 </r>
       <r>    4.9373   -0.0000 </r>
       <r>    9.0766   -0.0000 </r>
       <r>   14.7485    0.0000 </r>
       <r>   16.8518    0.0000 </r>
       <r>   20.3310    0.0000 </r>
       <r>   27.0596    0.0000 </r>
       <r>   29.7453    0.0000 </r>
      </set>
      <set comment="kpoint 89">
       <r>   -2.2668    1.0000 </r>
       <r>   -0.0415    1.0000 </r>
       <r>    0.0549    1.0000 </r>
       <r>    0.3034    1.0000 </r>
       <r>    1.8521    1.0000 </r>
       <r>    1.8918    1.0000 </r>
       <r>   12.0444    0.0000 </r>
       <r>   19.5861    0.0000 </r>
       <r>   19.8797    0.0000 </r>
       <r>   21.3989    0.0000 </r>
       <r>   26.3493    0.0000 </r>
       <r>   27.7389    0.0000 </r>
      </set>
      <set comment="kpoint 90">
       <r>   -1.7037    1.0000 </r>
       <r>   -0.2001    1.0000 </r>
       <r>   -0.1855    1.0000 </r>
       <r>    0.5991    1.0000 </r>
       <r>    1.6958    1.0000 </r>
       <r>    3.0800    1.0000 </r>
       <r>   11.1158    0.0000 </r>
       <r>   16.5680    0.0000 </r>
       <r>   18.9989    0.0000 </r>
       <r>   21.7767    0.0000 </r>
       <r>   25.9918    0.0000 </r>
       <r>   28.1845    0.0000 </r>
      </set>
      <set comment="kpoint 91">
       <r>   -0.9676    1.0000 </r>
       <r>   -0.5260    1.0000 </r>
       <r>   -0.3819    1.0000 </r>
       <r>    1.0123    1.0000 </r>
       <r>    1.6371    1.0000 </r>
       <r>    4.5153   -0.0008 </r>
       <r>   10.7962    0.0000 </r>
       <r>   13.0026    0.0000 </r>
       <r>   17.6063    0.0000 </r>
       <r>   22.5077    0.0000 </r>
       <r>   25.8330    0.0000 </r>
       <r>   29.7904    0.0000 </r>
      </set>
      <set comment="kpoint 92">
       <r>   -1.0198    1.0000 </r>
       <r>   -0.5814    1.0000 </r>
       <r>   -0.1082    1.0000 </r>
       <r>    1.0868    1.0000 </r>
       <r>    1.9630    1.0000 </r>
       <r>    6.1959   -0.0000 </r>
       <r>    9.6073    0.0000 </r>
       <r>   11.4728    0.0000 </r>
       <r>   16.1373    0.0000 </r>
       <r>   22.2671    0.0000 </r>
       <r>   27.2363    0.0000 </r>
       <r>   30.3623    0.0000 </r>
      </set>
      <set comment="kpoint 93">
       <r>   -1.2895    1.0000 </r>
       <r>   -0.8317    1.0000 </r>
       <r>    0.2324    1.0000 </r>
       <r>    1.2872    1.0000 </r>
       <r>    2.1963    1.0000 </r>
       <r>    6.4298   -0.0000 </r>
       <r>    8.7916   -0.0000 </r>
       <r>   12.6479    0.0000 </r>
       <r>   15.0479    0.0000 </r>
       <r>   22.1479    0.0000 </r>
       <r>   26.7842    0.0000 </r>
       <r>   28.7041    0.0000 </r>
      </set>
      <set comment="kpoint 94">
       <r>   -1.6279    1.0000 </r>
       <r>   -0.4617    1.0000 </r>
       <r>    0.0763    1.0000 </r>
       <r>    0.6876    1.0000 </r>
       <r>    2.2317    1.0000 </r>
       <r>    3.6742    1.0218 </r>
       <r>    9.9349    0.0000 </r>
       <r>   16.8409    0.0000 </r>
       <r>   17.6350    0.0000 </r>
       <r>   20.1069    0.0000 </r>
       <r>   27.2581    0.0000 </r>
       <r>   29.1343    0.0000 </r>
      </set>
      <set comment="kpoint 95">
       <r>   -1.2987    1.0000 </r>
       <r>   -0.6857    1.0000 </r>
       <r>    0.0089    1.0000 </r>
       <r>    1.1090    1.0000 </r>
       <r>    2.1234    1.0000 </r>
       <r>    5.1184   -0.0000 </r>
       <r>    9.3625   -0.0000 </r>
       <r>   14.3394    0.0000 </r>
       <r>   15.7699    0.0000 </r>
       <r>   21.8877    0.0000 </r>
       <r>   26.6090    0.0000 </r>
       <r>   28.6652    0.0000 </r>
      </set>
      <set comment="kpoint 96">
       <r>   -0.9525    1.0000 </r>
       <r>   -0.6520    1.0000 </r>
       <r>   -0.2722    1.0000 </r>
       <r>    1.2010    1.0000 </r>
       <r>    2.2336    1.0000 </r>
       <r>    6.7581   -0.0000 </r>
       <r>    9.7079    0.0000 </r>
       <r>   11.4500    0.0000 </r>
       <r>   14.0840    0.0000 </r>
       <r>   24.3984    0.0000 </r>
       <r>   25.9767    0.0000 </r>
       <r>   28.6924    0.0000 </r>
      </set>
      <set comment="kpoint 97">
       <r>   -1.0533    1.0000 </r>
       <r>   -0.6458    1.0000 </r>
       <r>   -0.1398    1.0000 </r>
       <r>    1.1642    1.0000 </r>
       <r>    2.4020    1.0000 </r>
       <r>    7.8352   -0.0000 </r>
       <r>    9.4743    0.0000 </r>
       <r>   10.6983    0.0000 </r>
       <r>   13.1645    0.0000 </r>
       <r>   25.0695    0.0000 </r>
       <r>   26.5283    0.0000 </r>
       <r>   27.6459    0.0000 </r>
      </set>
      <set comment="kpoint 98">
       <r>   -1.4694    1.0000 </r>
       <r>   -0.8581    1.0000 </r>
       <r>    0.5329    1.0000 </r>
       <r>    1.2272    1.0000 </r>
       <r>    2.2070    1.0000 </r>
       <r>    6.3101   -0.0000 </r>
       <r>    8.4592   -0.0000 </r>
       <r>   12.7591    0.0000 </r>
       <r>   16.3243    0.0000 </r>
       <r>   20.5720    0.0000 </r>
       <r>   26.9123    0.0000 </r>
       <r>   30.1846    0.0000 </r>
      </set>
      <set comment="kpoint 99">
       <r>   -1.3164    1.0000 </r>
       <r>   -0.8946    1.0000 </r>
       <r>    0.4060    1.0000 </r>
       <r>    1.3521    1.0000 </r>
       <r>    2.2392    1.0000 </r>
       <r>    7.5105   -0.0000 </r>
       <r>    8.6420   -0.0000 </r>
       <r>   11.1494    0.0000 </r>
       <r>   14.7506    0.0000 </r>
       <r>   22.3211    0.0000 </r>
       <r>   26.9106    0.0000 </r>
       <r>   28.7376    0.0000 </r>
      </set>
      <set comment="kpoint 100">
       <r>   -1.4782    1.0000 </r>
       <r>   -0.9352    1.0000 </r>
       <r>    0.6970    1.0000 </r>
       <r>    1.4350    1.0000 </r>
       <r>    2.1134    1.0000 </r>
       <r>    7.3743   -0.0000 </r>
       <r>    8.3422   -0.0000 </r>
       <r>   11.1635    0.0000 </r>
       <r>   16.0600    0.0000 </r>
       <r>   20.7363    0.0000 </r>
       <r>   26.8500    0.0000 </r>
       <r>   30.3996    0.0000 </r>
      </set>
      <set comment="kpoint 101">
       <r>   -2.3798    1.0000 </r>
       <r>    0.0713    1.0000 </r>
       <r>    0.0713    1.0000 </r>
       <r>    0.9357    1.0000 </r>
       <r>    1.7934    1.0000 </r>
       <r>    1.7934    1.0000 </r>
       <r>   10.6336    0.0000 </r>
       <r>   19.2743    0.0000 </r>
       <r>   21.5957    0.0000 </r>
       <r>   21.5957    0.0000 </r>
       <r>   26.7474    0.0000 </r>
       <r>   26.7949    0.0000 </r>
      </set>
      <set comment="kpoint 102">
       <r>   -2.0671    1.0000 </r>
       <r>   -0.0713    1.0000 </r>
       <r>    0.1646    1.0000 </r>
       <r>    0.8372    1.0000 </r>
       <r>    1.7094    1.0000 </r>
       <r>    2.9208    1.0000 </r>
       <r>    9.6033    0.0000 </r>
       <r>   18.1212    0.0000 </r>
       <r>   19.8136    0.0000 </r>
       <r>   21.6119    0.0000 </r>
       <r>   26.3488    0.0000 </r>
       <r>   27.3614    0.0000 </r>
      </set>
      <set comment="kpoint 103">
       <r>   -1.4525    1.0000 </r>
       <r>   -0.3582    1.0000 </r>
       <r>    0.3518    1.0000 </r>
       <r>    0.5393    1.0000 </r>
       <r>    1.6923    1.0000 </r>
       <r>    4.4646   -0.0025 </r>
       <r>    9.1517   -0.0000 </r>
       <r>   14.7600    0.0000 </r>
       <r>   19.9500    0.0000 </r>
       <r>   20.0361    0.0000 </r>
       <r>   27.0018    0.0000 </r>
       <r>   28.7179    0.0000 </r>
      </set>
      <set comment="kpoint 104">
       <r>   -1.2117    1.0000 </r>
[...]
      <set comment="kpoint 93">
       <set comment="band 1">
        <r>  0.0403  0.0146  0.7951 </r>
       </set>
       <set comment="band 2">
        <r>  0.0000  0.0492  0.7982 </r>
       </set>
       <set comment="band 3">
        <r>  0.0281  0.0654  0.7758 </r>
       </set>
       <set comment="band 4">
        <r>  0.0009  0.0150  0.9214 </r>
       </set>
       <set comment="band 5">
        <r>  0.0025  0.0011  0.9676 </r>
       </set>
       <set comment="band 6">
        <r>  0.3369  0.1599  0.2803 </r>
       </set>
       <set comment="band 7">
        <r>  0.2165  0.3273  0.1182 </r>
       </set>
       <set comment="band 8">
        <r>  0.0992  0.3724  0.1965 </r>
       </set>
       <set comment="band 9">
        <r>  0.0032  0.3906  0.1738 </r>
       </set>
       <set comment="band 10">
        <r>  0.0276  0.1394  0.1916 </r>
       </set>
       <set comment="band 11">
        <r>  0.0327  0.1203  0.1766 </r>
       </set>
       <set comment="band 12">
        <r>  0.0430  0.0093  0.1983 </r>
       </set>
      </set>
      <set comment="kpoint 94">
       <set comment="band 1">
        <r>  0.1456  0.0293  0.6323 </r>
       </set>
       <set comment="band 2">
        <r>  0.0067  0.0443  0.8025 </r>
       </set>
       <set comment="band 3">
        <r>  0.0686  0.0557  0.7353 </r>
       </set>
       <set comment="band 4">
        <r>  0.0000  0.0064  0.9281 </r>
       </set>
       <set comment="band 5">
        <r>  0.0000  0.0004  0.9757 </r>
       </set>
       <set comment="band 6">
        <r>  0.1681  0.1377  0.5175 </r>
       </set>
       <set comment="band 7">
        <r>  0.2470  0.2910  0.1390 </r>
       </set>
       <set comment="band 8">
        <r>  0.0654  0.3236  0.1798 </r>
       </set>
       <set comment="band 9">
        <r>  0.0000  0.4974  0.0794 </r>
       </set>
       <set comment="band 10">
        <r>  0.0412  0.0990  0.1761 </r>
       </set>
       <set comment="band 11">
        <r>  0.0362  0.1779  0.1357 </r>
       </set>
       <set comment="band 12">
        <r>  0.0000  0.0160  0.1782 </r>
       </set>
      </set>
      <set comment="kpoint 95">
       <set comment="band 1">
        <r>  0.0720  0.0259  0.7404 </r>
       </set>
       <set comment="band 2">
        <r>  0.0009  0.0435  0.8056 </r>
       </set>
       <set comment="band 3">
        <r>  0.0520  0.0568  0.7537 </r>
       </set>
       <set comment="band 4">
        <r>  0.0014  0.0182  0.9127 </r>
       </set>
       <set comment="band 5">
        <r>  0.0007  0.0035  0.9645 </r>
       </set>
       <set comment="band 6">
        <r>  0.2531  0.1542  0.3900 </r>
       </set>
       <set comment="band 7">
        <r>  0.2468  0.3004  0.1240 </r>
       </set>
       <set comment="band 8">
        <r>  0.0968  0.4142  0.1483 </r>
       </set>
       <set comment="band 9">
        <r>  0.0015  0.3356  0.2034 </r>
       </set>
       <set comment="band 10">
        <r>  0.0217  0.1730  0.1340 </r>
       </set>
       <set comment="band 11">
        <r>  0.0109  0.1253  0.1726 </r>
       </set>
       <set comment="band 12">
        <r>  0.0748  0.0128  0.2448 </r>
       </set>
      </set>
      <set comment="kpoint 96">
       <set comment="band 1">
        <r>  0.0054  0.0338  0.7986 </r>
       </set>
       <set comment="band 2">
        <r>  0.0086  0.0456  0.8153 </r>
       </set>
       <set comment="band 3">
        <r>  0.0285  0.0582  0.7758 </r>
       </set>
       <set comment="band 4">
        <r>  0.0119  0.0103  0.9088 </r>
       </set>
       <set comment="band 5">
        <r>  0.0008  0.0028  0.9680 </r>
       </set>
       <set comment="band 6">
        <r>  0.4228  0.1277  0.2168 </r>
       </set>
       <set comment="band 7">
        <r>  0.1700  0.3481  0.1552 </r>
       </set>
       <set comment="band 8">
        <r>  0.0815  0.4263  0.1584 </r>
       </set>
       <set comment="band 9">
        <r>  0.0062  0.3165  0.2634 </r>
       </set>
       <set comment="band 10">
        <r>  0.0028  0.2045  0.0966 </r>
       </set>
       <set comment="band 11">
        <r>  0.0000  0.0509  0.2173 </r>
       </set>
       <set comment="band 12">
        <r>  0.0629  0.1040  0.2216 </r>
       </set>
      </set>
      <set comment="kpoint 97">
       <set comment="band 1">
        <r>  0.0038  0.0327  0.7983 </r>
       </set>
       <set comment="band 2">
        <r>  0.0024  0.0474  0.8210 </r>
       </set>
       <set comment="band 3">
        <r>  0.0042  0.0608  0.8078 </r>
       </set>
       <set comment="band 4">
        <r>  0.0282  0.0026  0.8969 </r>
       </set>
       <set comment="band 5">
        <r>  0.0001  0.0008  0.9769 </r>
       </set>
       <set comment="band 6">
        <r>  0.6007  0.0550  0.1186 </r>
       </set>
       <set comment="band 7">
        <r>  0.0522  0.4336  0.1776 </r>
       </set>
       <set comment="band 8">
        <r>  0.0456  0.4416  0.1716 </r>
       </set>
       <set comment="band 9">
        <r>  0.0002  0.3098  0.2849 </r>
       </set>
       <set comment="band 10">
        <r>  0.0054  0.1290  0.1810 </r>
       </set>
       <set comment="band 11">
        <r>  0.0036  0.1186  0.1621 </r>
       </set>
       <set comment="band 12">
        <r>  0.0215  0.1389  0.1645 </r>
       </set>
      </set>
      <set comment="kpoint 98">
       <set comment="band 1">
        <r>  0.0507  0.0058  0.7948 </r>
       </set>
       <set comment="band 2">
        <r>  0.0008  0.0507  0.7914 </r>
       </set>
       <set comment="band 3">
        <r>  0.0272  0.0779  0.7629 </r>
       </set>
       <set comment="band 4">
        <r>  0.0000  0.0075  0.9351 </r>
       </set>
       <set comment="band 5">
        <r>  0.0000  0.0001  0.9737 </r>
       </set>
       <set comment="band 6">
        <r>  0.2985  0.1763  0.3050 </r>
       </set>
       <set comment="band 7">
        <r>  0.2424  0.3150  0.0988 </r>
       </set>
       <set comment="band 8">
        <r>  0.0935  0.3393  0.2307 </r>
       </set>
       <set comment="band 9">
        <r>  0.0000  0.5036  0.0699 </r>
       </set>
       <set comment="band 10">
        <r>  0.0483  0.0555  0.2701 </r>
       </set>
       <set comment="band 11">
        <r>  0.0606  0.0991  0.1945 </r>
       </set>
       <set comment="band 12">
        <r>  0.0000  0.0050  0.1331 </r>
       </set>
      </set>
      <set comment="kpoint 99">
       <set comment="band 1">
        <r>  0.0289  0.0097  0.8129 </r>
       </set>
       <set comment="band 2">
        <r>  0.0000  0.0516  0.7965 </r>
       </set>
       <set comment="band 3">
        <r>  0.0041  0.0738  0.7981 </r>
       </set>
       <set comment="band 4">
        <r>  0.0086  0.0076  0.9232 </r>
       </set>
       <set comment="band 5">
        <r>  0.0006  0.0017  0.9703 </r>
       </set>
       <set comment="band 6">
        <r>  0.5467  0.0818  0.1381 </r>
       </set>
       <set comment="band 7">
        <r>  0.0505  0.4304  0.1808 </r>
       </set>
       <set comment="band 8">
        <r>  0.0819  0.3512  0.2359 </r>
       </set>
       <set comment="band 9">
        <r>  0.0074  0.4081  0.1620 </r>
       </set>
       <set comment="band 10">
        <r>  0.0309  0.1221  0.2300 </r>
       </set>
       <set comment="band 11">
        <r>  0.0555  0.1135  0.1889 </r>
       </set>
       <set comment="band 12">
        <r>  0.0064  0.0180  0.1377 </r>
       </set>
      </set>
      <set comment="kpoint 100">
       <set comment="band 1">
        <r>  0.0388  0.0006  0.8154 </r>
       </set>
       <set comment="band 2">
        <r>  0.0003  0.0529  0.7889 </r>
       </set>
       <set comment="band 3">
        <r>  0.0035  0.0836  0.7890 </r>
       </set>
       <set comment="band 4">
        <r>  0.0000  0.0078  0.9389 </r>
       </set>
       <set comment="band 5">
        <r>  0.0000  0.0000  0.9705 </r>
       </set>
       <set comment="band 6">
        <r>  0.5353  0.0876  0.1387 </r>
       </set>
       <set comment="band 7">
        <r>  0.0457  0.4311  0.1832 </r>
       </set>
       <set comment="band 8">
        <r>  0.0909  0.3225  0.2605 </r>
       </set>
       <set comment="band 9">
        <r>  0.0000  0.5046  0.0689 </r>
       </set>
       <set comment="band 10">
        <r>  0.0512  0.0485  0.2987 </r>
       </set>
       <set comment="band 11">
        <r>  0.0671  0.0861  0.2041 </r>
       </set>
       <set comment="band 12">
        <r>  0.0000  0.0006  0.1103 </r>
       </set>
      </set>
      <set comment="kpoint 101">
       <set comment="band 1">
        <r>  0.2920  0.0244  0.4340 </r>
       </set>
       <set comment="band 2">
        <r>  0.0000  0.0004  0.9283 </r>
       </set>
       <set comment="band 3">
        <r>  0.0000  0.0004  0.9283 </r>
       </set>
       <set comment="band 4">
        <r>  0.1467  0.1909  0.3889 </r>
       </set>
       <set comment="band 5">
        <r>  0.0000  0.0015  0.9619 </r>
       </set>
       <set comment="band 6">
        <r>  0.0000  0.0015  0.9619 </r>
       </set>
       <set comment="band 7">
        <r>  0.2290  0.2672  0.1943 </r>
       </set>
       <set comment="band 8">
        <r>  0.0004  0.0187  0.0216 </r>
       </set>
       <set comment="band 9">
        <r>  0.0000  0.5314  0.0556 </r>
       </set>
       <set comment="band 10">
        <r>  0.0000  0.5314  0.0556 </r>
       </set>
       <set comment="band 11">
        <r>  0.0802  0.0671  0.1598 </r>
       </set>
       <set comment="band 12">
        <r>  0.0000  0.0017  0.3362 </r>
       </set>
      </set>
      <set comment="kpoint 102">
       <set comment="band 1">
        <r>  0.2262  0.0239  0.5303 </r>
       </set>
       <set comment="band 2">
        <r>  0.0005  0.0030  0.9155 </r>
       </set>
       <set comment="band 3">
        <r>  0.0000  0.0006  0.9272 </r>
       </set>
       <set comment="band 4">
        <r>  0.0721  0.1433  0.5745 </r>
       </set>
       <set comment="band 5">
        <r>  0.0000  0.0015  0.9586 </r>
       </set>
       <set comment="band 6">
        <r>  0.1044  0.0918  0.6737 </r>
       </set>
       <set comment="band 7">
        <r>  0.2582  0.2494  0.2011 </r>
       </set>
       <set comment="band 8">
        <r>  0.0194  0.3015  0.1301 </r>
       </set>
       <set comment="band 9">
        <r>  0.0126  0.1996  0.0075 </r>
       </set>
       <set comment="band 10">
        <r>  0.0000  0.5214  0.0620 </r>
       </set>
       <set comment="band 11">
        <r>  0.0298  0.0325  0.2183 </r>
       </set>
       <set comment="band 12">
        <r>  0.0000  0.0225  0.4117 </r>
       </set>
      </set>
      <set comment="kpoint 103">
       <set comment="band 1">
        <r>  0.1446  0.0345  0.6363 </r>
       </set>
       <set comment="band 2">
        <r>  0.0005  0.0165  0.8721 </r>
       </set>
       <set comment="band 3">
        <r>  0.0230  0.1127  0.6892 </r>
       </set>
       <set comment="band 4">
        <r>  0.0000  0.0040  0.9258 </r>
       </set>
       <set comment="band 5">
        <r>  0.0000  0.0011  0.9584 </r>
       </set>
       <set comment="band 6">
        <r>  0.2350  0.1223  0.4555 </r>
       </set>
       <set comment="band 7">
        <r>  0.2377  0.2661  0.2025 </r>
       </set>
       <set comment="band 8">
        <r>  0.0617  0.3886  0.1719 </r>
       </set>
       <set comment="band 9">
        <r>  0.0000  0.4975  0.1114 </r>
       </set>
       <set comment="band 10">
        <r>  0.0186  0.0782  0.1010 </r>
       </set>
       <set comment="band 11">
        <r>  0.0125  0.0400  0.1304 </r>
       </set>
       <set comment="band 12">
        <r>  0.0000  0.0167  0.3055 </r>
       </set>
      </set>
      <set comment="kpoint 104">
       <set comment="band 1">
        <r>  0.0575  0.0070  0.7977 </r>
       </set>
       <set comment="band 2">
        <r>  0.0095  0.0780  0.7377 </r>
       </set>
       <set comment="band 3">
        <r>  0.0001  0.0749  0.7946 </r>
       </set>
       <set comment="band 4">
        <r>  0.0000  0.0078  0.9283 </r>
       </set>
       <set comment="band 5">
        <r>  0.0000  0.0002  0.9628 </r>
       </set>
       <set comment="band 6">
        <r>  0.4190  0.1088  0.2318 </r>
       </set>
       <set comment="band 7">
        <r>  0.1073  0.3517  0.2354 </r>
       </set>
       <set comment="band 8">
        <r>  0.1183  0.3491  0.2078 </r>
       </set>
       <set comment="band 9">
        <r>  0.0000  0.4982  0.1042 </r>
       </set>
       <set comment="band 10">
        <r>  0.0320  0.0562  0.2204 </r>
       </set>
       <set comment="band 11">
        <r>  0.0008  0.0469  0.0503 </r>
       </set>
       <set comment="band 12">
        <r>  0.0000  0.0010  0.1764 </r>
       </set>
      </set>
      <set comment="kpoint 105">
       <set comment="band 1">
        <r>  0.1932  0.0152  0.5899 </r>
       </set>
       <set comment="band 2">
        <r>  0.0003  0.0025  0.9113 </r>
       </set>
       <set comment="band 3">
        <r>  0.0000  0.0024  0.9251 </r>
       </set>
       <set comment="band 4">
        <r>  0.0391  0.1115  0.6820 </r>
       </set>
       <set comment="band 5">
        <r>  0.0000  0.0003  0.9742 </r>
       </set>
       <set comment="band 6">
        <r>  0.1226  0.1863  0.4739 </r>
       </set>
       <set comment="band 7">
        <r>  0.3060  0.2057  0.2246 </r>
       </set>
       <set comment="band 8">
        <r>  0.0033  0.0787  0.0698 </r>
       </set>
       <set comment="band 9">
        <r>  0.0000  0.5092  0.0568 </r>
       </set>
       <set comment="band 10">
        <r>  0.0386  0.4052  0.0815 </r>
       </set>
       <set comment="band 11">
        <r>  0.0000  0.0105  0.3207 </r>
       </set>
       <set comment="band 12">
        <r>  0.0107  0.0038  0.3987 </r>
       </set>
      </set>
      <set comment="kpoint 106">
       <set comment="band 1">
        <r>  0.1410  0.0254  0.6515 </r>
       </set>
       <set comment="band 2">
        <r>  0.0001  0.0087  0.8851 </r>
       </set>
       <set comment="band 3">
        <r>  0.0012  0.0178  0.8978 </r>
       </set>
       <set comment="band 4">
        <r>  0.0132  0.0930  0.7468 </r>
       </set>
       <set comment="band 5">
        <r>  0.0005  0.0026  0.9651 </r>
       </set>
       <set comment="band 6">
        <r>  0.1817  0.2052  0.3779 </r>
       </set>
       <set comment="band 7">
        <r>  0.3075  0.2027  0.2276 </r>
       </set>
       <set comment="band 8">
        <r>  0.0579  0.4277  0.1249 </r>
       </set>
       <set comment="band 9">
        <r>  0.0128  0.2627  0.1584 </r>
       </set>
       <set comment="band 10">
        <r>  0.0013  0.2858  0.0204 </r>
       </set>
       <set comment="band 11">
        <r>  0.0203  0.0132  0.3397 </r>
       </set>
       <set comment="band 12">
        <r>  0.0012  0.0206  0.2398 </r>
       </set>
      </set>
      <set comment="kpoint 107">
       <set comment="band 1">
        <r>  0.0715  0.0271  0.7503 </r>
       </set>
       <set comment="band 2">
        <r>  0.0058  0.0373  0.8096 </r>
       </set>
       <set comment="band 3">
        <r>  0.0001  0.0821  0.7775 </r>
       </set>
       <set comment="band 4">
        <r>  0.0012  0.0103  0.9202 </r>
       </set>
       <set comment="band 5">
        <r>  0.0037  0.0007  0.9623 </r>
       </set>
       <set comment="band 6">
        <r>  0.4317  0.1042  0.2359 </r>
       </set>
       <set comment="band 7">
        <r>  0.1028  0.3432  0.2473 </r>
       </set>
       <set comment="band 8">
        <r>  0.0993  0.3889  0.1688 </r>
       </set>
       <set comment="band 9">
        <r>  0.0116  0.3571  0.1845 </r>
       </set>
       <set comment="band 10">
        <r>  0.0066  0.1936  0.0983 </r>
       </set>
       <set comment="band 11">
        <r>  0.0078  0.0231  0.2405 </r>
       </set>
       <set comment="band 12">
        <r>  0.1126  0.0743  0.1083 </r>
       </set>
      </set>
      <set comment="kpoint 108">
       <set comment="band 1">
        <r>  0.1136  0.0217  0.6957 </r>
       </set>
       <set comment="band 2">
        <r>  0.0019  0.0241  0.8488 </r>
       </set>
       <set comment="band 3">
        <r>  0.0081  0.0942  0.7513 </r>
       </set>
       <set comment="band 4">
        <r>  0.0000  0.0052  0.9255 </r>
       </set>
       <set comment="band 5">
        <r>  0.0000  0.0002  0.9721 </r>
       </set>
       <set comment="band 6">
        <r>  0.1262  0.2899  0.3072 </r>
       </set>
       <set comment="band 7">
        <r>  0.3866  0.1368  0.2365 </r>
       </set>
       <set comment="band 8">
        <r>  0.0680  0.3661  0.1689 </r>
       </set>
       <set comment="band 9">
        <r>  0.0000  0.5013  0.0810 </r>
       </set>
       <set comment="band 10">
        <r>  0.0257  0.0827  0.1368 </r>
       </set>
       <set comment="band 11">
        <r>  0.0189  0.0224  0.2496 </r>
       </set>
       <set comment="band 12">
        <r>  0.0000  0.0119  0.2584 </r>
       </set>
      </set>
      <set comment="kpoint 109">
       <set comment="band 1">
        <r>  0.1946  0.0022  0.6066 </r>
       </set>
       <set comment="band 2">
        <r>  0.0000  0.0000  0.9252 </r>
       </set>
       <set comment="band 3">
        <r>  0.0000  0.0000  0.9252 </r>
       </set>
       <set comment="band 4">
        <r>  0.0000  0.0003  0.9727 </r>
       </set>
       <set comment="band 5">
        <r>  0.0000  0.0003  0.9727 </r>
       </set>
       <set comment="band 6">
        <r>  0.0883  0.4009  0.0988 </r>
       </set>
       <set comment="band 7">
        <r>  0.3884  0.1107  0.2989 </r>
       </set>
       <set comment="band 8">
        <r>  0.0000  0.0198  0.0022 </r>
       </set>
       <set comment="band 9">
        <r>  0.0000  0.5278  0.0067 </r>
       </set>
       <set comment="band 10">
        <r>  0.0000  0.5278  0.0067 </r>
       </set>
       <set comment="band 11">
        <r>  0.0000  0.0000  0.4656 </r>
       </set>
       <set comment="band 12">
        <r>  0.0000  0.0000  0.4656 </r>
       </set>
      </set>
      <set comment="kpoint 110">
       <set comment="band 1">
        <r>  0.1685  0.0094  0.6343 </r>
       </set>
       <set comment="band 2">
        <r>  0.0000  0.0031  0.9102 </r>
       </set>
       <set comment="band 3">
        <r>  0.0000  0.0014  0.9245 </r>
       </set>
       <set comment="band 4">
        <r>  0.0008  0.1047  0.7579 </r>
       </set>
       <set comment="band 5">
        <r>  0.0000  0.0003  0.9718 </r>
       </set>
       <set comment="band 6">
        <r>  0.0317  0.3752  0.2454 </r>
       </set>
       <set comment="band 7">
        <r>  0.4612  0.0371  0.3395 </r>
       </set>
       <set comment="band 8">
        <r>  0.0150  0.2371  0.0938 </r>
       </set>
       <set comment="band 9">
        <r>  0.0199  0.2619  0.0259 </r>
       </set>
       <set comment="band 10">
        <r>  0.0000  0.5139  0.0409 </r>
       </set>
       <set comment="band 11">
        <r>  0.0275  0.0030  0.3702 </r>
       </set>
       <set comment="band 12">
        <r>  0.0000  0.0105  0.4175 </r>
       </set>
      </set>
     </set>
    </set>
   </array>
  </projected>
 </calculation>
 <structure name="finalpos" >
  <crystal>
   <varray name="basis" >
    <v>       0.00000000       2.12500000       2.12500000 </v>
    <v>       2.12500000       0.00000000       2.12500000 </v>
    <v>       2.12500000       2.12500000       0.00000000 </v>
   </varray>
   <i name="volume">     19.19140625 </i>
   <varray name="rec_basis" >
    <v>      -0.23529412       0.23529412       0.23529412 </v>
    <v>       0.23529412      -0.23529412       0.23529412 </v>
    <v>       0.23529412       0.23529412      -0.23529412 </v>
   </varray>
  </crystal>
  <varray name="positions" >
   <v>       0.00000000       0.00000000       0.00000000 </v>
  </varray>
 </structure>
</modeling>
