bcc W                                   
   3.13000000000000     
    -0.495597    0.495597    0.495597
     0.495597   -0.495597    0.495597
     0.495597    0.495597   -0.495597
   W 
     1
Direct
  0.000000  0.000000  0.000000
 
   24   24   24
  13.491      13.038      12.022      11.137      10.784      10.755      10.530      9.7918      8.6714      7.5501    
  6.7150      6.2083      6.0299      6.2083      6.7150      7.5501      8.6714      9.7918      10.530      10.755    
  10.784      11.137      12.022      13.038      13.038      12.872      12.011      11.069      10.573      10.507    
  10.410      9.8727      8.8840      7.7696      6.8632      6.2750      5.9916      6.0500      6.4407      7.1350    
  8.1407      9.2660      10.144      10.528      10.572      10.753      11.420      12.389      12.022      12.011    
  11.328      10.428      9.8515      9.7325      9.7359      9.4294      8.6796      7.7076      6.8356      6.2255    
  5.8777      5.8300      6.0922      6.6302      7.4487      8.4711      9.4177      9.9947      10.178      10.289    
  10.698      11.420      11.137      11.069      10.428      9.5283      8.8544      8.6338      8.6655      8.5555    
  8.0839      7.3496      6.6127      6.0514      5.6926      5.5755      5.7213      6.1180      6.7403      7.5905    
  8.5228      9.2848      9.7328      9.9813      10.289      10.753      10.784      10.573      9.8515      8.8544    
  8.0081      7.5919      7.5295      7.5040      7.2566      6.7742      6.2259      5.7689      5.4492      5.3085    
  5.3713      5.6433      6.1081      6.7659      7.5972      8.4590      9.1864      9.7328      10.178      10.572    
  10.755      10.507      9.7325      8.6338      7.5919      6.9181      6.6467      6.5625      6.4175      6.1217    
  5.7517      5.4184      5.1700      5.0464      5.0671      5.2429      5.5828      6.0794      6.7522      7.5793    
  8.4590      9.2848      9.9947      10.528      10.530      10.410      9.7359      8.6655      7.5295      6.6467    
  6.1386      5.8997      5.7352      5.5261      5.2792      5.0530      4.8846      4.8030      4.8170      4.9338    
  5.1709      5.5464      6.0643      6.7522      7.5972      8.5228      9.4177      10.144      9.7918      9.8727    
  9.4294      8.5555      7.5040      6.5625      5.8997      5.5052      5.2598      5.0588      4.8737      4.7213    
  4.6223      4.5883      4.6170      4.7082      4.8760      5.1473      5.5464      6.0794      6.7659      7.5905    
  8.4711      9.2660      8.6714      8.8840      8.6796      8.0839      7.2566      6.4175      5.7352      5.2598    
  4.9450      4.7238      4.5621      4.4540      4.4039      4.4084      4.4577      4.5452      4.6773      4.8760    
  5.1709      5.5828      6.1081      6.7403      7.4487      8.1407      7.5501      7.7696      7.7076      7.3496    
  6.7742      6.1217      5.5261      5.0588      4.7238      4.4938      4.3438      4.2615      4.2389      4.2658    
  4.3303      4.4233      4.5452      4.7082      4.9338      5.2429      5.6433      6.1180      6.6302      7.1350    
  6.7150      6.8632      6.8356      6.6127      6.2259      5.7517      5.2792      4.8737      4.5621      4.3438    
  4.2074      4.1392      4.1271      4.1606      4.2306      4.3303      4.4577      4.6170      4.8170      5.0671    
  5.3713      5.7213      6.0922      6.4407      6.2083      6.2750      6.2255      6.0514      5.7689      5.4184    
  5.0530      4.7213      4.4540      4.2615      4.1392      4.0766      4.0635      4.0928      4.1606      4.2658    
  4.4084      4.5883      4.8030      5.0464      5.3085      5.5755      5.8300      6.0500      6.0299      5.9916    
  5.8777      5.6926      5.4492      5.1700      4.8846      4.6223      4.4039      4.2389      4.1271      4.0635    
  4.0430      4.0635      4.1271      4.2389      4.4039      4.6223      4.8846      5.1700      5.4492      5.6926    
  5.8777      5.9916      6.2083      6.0500      5.8300      5.5755      5.3085      5.0464      4.8030      4.5883    
  4.4084      4.2658      4.1606      4.0928      4.0635      4.0766      4.1392      4.2615      4.4540      4.7213    
  5.0530      5.4184      5.7689      6.0514      6.2255      6.2750      6.7150      6.4407      6.0922      5.7213    
  5.3713      5.0671      4.8170      4.6170      4.4577      4.3303      4.2306      4.1606      4.1271      4.1392    
  4.2074      4.3438      4.5621      4.8737      5.2792      5.7517      6.2259      6.6127      6.8356      6.8632    
  7.5501      7.1350      6.6302      6.1180      5.6433      5.2429      4.9338      4.7082      4.5452      4.4233    
  4.3303      4.2658      4.2389      4.2615      4.3438      4.4938      4.7238      5.0588      5.5261      6.1217    
  6.7742      7.3496      7.7076      7.7696      8.6714      8.1407      7.4487      6.7403      6.1081      5.5828    
  5.1709      4.8760      4.6773      4.5452      4.4577      4.4084      4.4039      4.4540      4.5621      4.7238    
  4.9450      5.2598      5.7352      6.4175      7.2566      8.0839      8.6796      8.8840      9.7918      9.2660    
  8.4711      7.5905      6.7659      6.0794      5.5464      5.1473      4.8760      4.7082      4.6170      4.5883    
  4.6223      4.7213      4.8737      5.0588      5.2598      5.5052      5.8997      6.5625      7.5040      8.5555    
  9.4294      9.8727      10.530      10.144      9.4177      8.5228      7.5972      6.7522      6.0643      5.5464    
  5.1709      4.9338      4.8170      4.8030      4.8846      5.0530      5.2792      5.5261      5.7352      5.8997    
  6.1386      6.6467      7.5295      8.6655      9.7359      10.410      10.755      10.528      9.9947      9.2848    
  8.4590      7.5793      6.7522      6.0794      5.5828      5.2429      5.0671      5.0464      5.1700      5.4184    
  5.7517      6.1217      6.4175      6.5625      6.6467      6.9181      7.5919      8.6338      9.7325      10.507    
  10.784      10.572      10.178      9.7328      9.1864      8.4590      7.5972      6.7659      6.1081      5.6433    
  5.3713      5.3085      5.4492      5.7689      6.2259      6.7742      7.2566      7.5040      7.5295      7.5919    
  8.0081      8.8544      9.8515      10.573      11.137      10.753      10.289      9.9813      9.7328      9.2848    
  8.5228      7.5905      6.7403      6.1180      5.7213      5.5755      5.6926      6.0514      6.6127      7.3496    
  8.0839      8.5555      8.6655      8.6338      8.8544      9.5283      10.428      11.069      12.022      11.420    
  10.698      10.289      10.178      9.9947      9.4177      8.4711      7.4487      6.6302      6.0922      5.8300    
  5.8777      6.2255      6.8356      7.7076      8.6796      9.4294      9.7359      9.7325      9.8515      10.428    
  11.328      12.011      13.038      12.389      11.420      10.753      10.572      10.528      10.144      9.2660    
  8.1407      7.1350      6.4407      6.0500      5.9916      6.2750      6.8632      7.7696      8.8840      9.8727    
  10.410      10.507      10.573      11.069      12.011      12.872      13.038      12.872      12.011      11.069    
  10.573      10.507      10.410      9.8727      8.8840      7.7696      6.8632      6.2750      5.9916      6.0500    
  6.4407      7.1350      8.1407      9.2660      10.144      10.528      10.572      10.753      11.420      12.389    
  12.872      13.038      12.389      11.420      10.752      10.572      10.528      10.144      9.2661      8.1408    
  7.1350      6.4407      6.0500      5.9916      6.2750      6.8632      7.7696      8.8840      9.8727      10.410    
  10.507      10.573      11.069      12.011      12.011      12.389      12.010      11.165      10.439      10.158    
  10.130      9.9042      9.2230      8.2168      7.2230      6.4826      6.0243      5.8630      6.0243      6.4826    
  7.2230      8.2168      9.2230      9.9042      10.130      10.158      10.439      11.165      11.069      11.420    
  11.165      10.428      9.6833      9.3092      9.2601      9.1685      8.7260      7.9433      7.0783      6.3766    
  5.9053      5.6788      5.7313      6.0583      6.6249      7.4354      8.3743      9.1713      9.6149      9.7739    
  9.9661      10.439      10.573      10.752      10.439      9.6833      8.8544      8.3316      8.1807      8.1404    
  7.9011      7.3741      6.7128      6.1245      5.6967      5.4534      5.4315      5.6396      6.0612      6.6802    
  7.4848      8.3273      9.0055      9.4460      9.7739      10.158      10.507      10.572      10.158      9.3092    
  8.3316      7.5919      7.2395      7.1261      6.9822      6.6578      6.2042      5.7639      5.4190      5.2030    
  5.1492      5.2694      5.5687      6.0339      6.6717      7.4588      8.2765      9.0055      9.6149      10.130    
  10.410      10.528      10.130      9.2601      8.1807      7.2395      6.6467      6.3628      6.1904      5.9648    
  5.6628      5.3577      5.1076      4.9468      4.8979      4.9686      5.1705      5.5168      6.0056      6.6583    
  7.4588      8.3273      9.1713      9.9042      9.8727      10.144      9.9042      9.1685      8.1404      7.1261    
  6.3628      5.8997      5.6266      5.4063      5.1808      4.9699      4.8030      4.7046      4.6829      4.7374    
  4.8767      5.1225      5.4969      6.0056      6.6717      7.4848      8.3743      9.2230      8.8840      9.2661    
  9.2230      8.7260      7.9011      6.9822      6.1904      5.6266      5.2598      5.0041      4.8021      4.6441    
  4.5383      4.4930      4.5039      4.5630      4.6720      4.8489      5.1225      5.5168      6.0339      6.6802    
  7.4354      8.2168      7.7696      8.1408      8.2168      7.9433      7.3741      6.6578      5.9648      5.4063    
  5.0041      4.7239      4.5283      4.3991      4.3321      4.3221      4.3583      4.4290      4.5303      4.6720    
  4.8767      5.1705      5.5687      6.0612      6.6249      7.2230      6.8632      7.1350      7.2230      7.0783    
  6.7128      6.2042      5.6628      5.1808      4.8021      4.5283      4.3438      4.2343      4.1884      4.1953    
  4.2438      4.3235      4.4290      4.5630      4.7374      4.9686      5.2694      5.6396      6.0583      6.4826    
  6.2750      6.4407      6.4826      6.3766      6.1245      5.7639      5.3577      4.9699      4.6441      4.3991    
  4.2343      4.1392      4.1016      4.1113      4.1605      4.2438      4.3583      4.5039      4.6829      4.8979    
  5.1492      5.4315      5.7313      6.0243      5.9916      6.0500      6.0243      5.9053      5.6967      5.4190    
  5.1076      4.8030      4.5383      4.3321      4.1884      4.1016      4.0635      4.0676      4.1113      4.1953    
  4.3221      4.4930      4.7046      4.9468      5.2030      5.4534      5.6788      5.8630      6.0500      5.9916    
  5.8630      5.6788      5.4534      5.2030      4.9468      4.7046      4.4930      4.3221      4.1953      4.1113    
  4.0676      4.0635      4.1016      4.1884      4.3321      4.5383      4.8030      5.1076      5.4190      5.6967    
  5.9053      6.0243      6.4407      6.2750      6.0243      5.7313      5.4315      5.1492      4.8979      4.6829    
  4.5039      4.3583      4.2438      4.1605      4.1113      4.1016      4.1392      4.2343      4.3991      4.6441    
  4.9699      5.3577      5.7639      6.1245      6.3766      6.4826      7.1350      6.8632      6.4826      6.0583    
  5.6396      5.2694      4.9686      4.7374      4.5630      4.4290      4.3235      4.2438      4.1953      4.1884    
  4.2343      4.3438      4.5283      4.8021      5.1808      5.6628      6.2043      6.7128      7.0783      7.2230    
  8.1407      7.7696      7.2230      6.6249      6.0612      5.5687      5.1705      4.8767      4.6720      4.5303    
  4.4290      4.3583      4.3221      4.3321      4.3991      4.5283      4.7239      5.0041      5.4063      5.9648    
  6.6578      7.3741      7.9433      8.2168      9.2660      8.8840      8.2168      7.4354      6.6802      6.0339    
  5.5168      5.1225      4.8489      4.6720      4.5630      4.5039      4.4930      4.5383      4.6441      4.8021    
  5.0041      5.2598      5.6267      6.1904      6.9822      7.9011      8.7260      9.2230      10.144      9.8727    
  9.2230      8.3743      7.4848      6.6717      6.0056      5.4969      5.1225      4.8767      4.7374      4.6829    
  4.7046      4.8030      4.9699      5.1808      5.4063      5.6267      5.8997      6.3628      7.1261      8.1404    
  9.1685      9.9042      10.528      10.410      9.9042      9.1713      8.3273      7.4588      6.6583      6.0056    
  5.5168      5.1705      4.9686      4.8979      4.9468      5.1076      5.3577      5.6628      5.9648      6.1904    
  6.3628      6.6467      7.2395      8.1807      9.2602      10.130      10.572      10.507      10.130      9.6149    
  9.0055      8.2765      7.4588      6.6717      6.0339      5.5687      5.2694      5.1492      5.2030      5.4190    
  5.7639      6.2043      6.6578      6.9822      7.1261      7.2395      7.5919      8.3317      9.3092      10.158    
  10.753      10.573      10.158      9.7739      9.4460      9.0055      8.3273      7.4848      6.6802      6.0612    
  5.6396      5.4315      5.4534      5.6967      6.1245      6.7128      7.3741      7.9011      8.1404      8.1807    
  8.3317      8.8545      9.6834      10.439      11.420      11.069      10.439      9.9661      9.7739      9.6149    
  9.1713      8.3743      7.4354      6.6249      6.0583      5.7313      5.6788      5.9053      6.3766      7.0783    
  7.9433      8.7260      9.1685      9.2602      9.3092      9.6834      10.428      11.165      12.389      12.011    
  11.165      10.439      10.158      10.130      9.9042      9.2230      8.2168      7.2230      6.4826      6.0243    
  5.8630      6.0243      6.4826      7.2230      8.2168      9.2230      9.9042      10.130      10.158      10.439    
  11.165      12.011      12.022      12.011      11.328      10.428      9.8515      9.7325      9.7359      9.4294    
  8.6796      7.7076      6.8356      6.2255      5.8777      5.8300      6.0922      6.6302      7.4487      8.4711    
  9.4177      9.9947      10.178      10.289      10.698      11.420      12.011      12.389      12.010      11.165    
  10.439      10.158      10.130      9.9042      9.2230      8.2168      7.2230      6.4826      6.0243      5.8630    
  6.0243      6.4826      7.2230      8.2168      9.2230      9.9042      10.130      10.158      10.439      11.165    
  11.328      12.010      12.021      11.420      10.698      10.289      10.178      9.9947      9.4178      8.4711    
  7.4487      6.6301      6.0922      5.8300      5.8777      6.2255      6.8356      7.7076      8.6796      9.4294    
  9.7359      9.7325      9.8516      10.428      10.428      11.165      11.420      11.068      10.439      9.9661    
  9.7739      9.6149      9.1714      8.3743      7.4354      6.6249      6.0583      5.7313      5.6788      5.9053    
  6.3766      7.0783      7.9433      8.7260      9.1685      9.2602      9.3093      9.6834      9.8515      10.439    
  10.698      10.439      9.8515      9.3092      9.0156      8.8463      8.5282      7.9288      7.1617      6.4470    
  5.9132      5.5699      5.4512      5.5699      5.9132      6.4470      7.1617      7.9288      8.5281      8.8463    
  9.0156      9.3092      9.7325      10.158      10.289      9.9661      9.3092      8.6338      8.1807      7.9294    
  7.6739      7.2517      6.6848      6.1195      5.6689      5.3558      5.2135      5.2562      5.4856      5.8858    
  6.4420      7.1325      7.8327      8.4082      8.8463      9.2602      9.7359      10.130      10.178      9.7739    
  9.0156      8.1807      7.5296      7.1262      6.8428      6.5217      6.1190      5.7056      5.3595      5.1081    
  4.9803      4.9854      5.1288      5.4179      5.8443      6.4124      7.1029      7.8327      8.5281      9.1685    
  9.4294      9.9042      9.9947      9.6149      8.8463      7.9294      7.1262      6.5625      6.1904      5.8871    
  5.5798      5.2819      5.0320      4.8531      4.7635      4.7638      4.8561      5.0547      5.3770      5.8245    
  6.4124      7.1325      7.9288      8.7260      8.6796      9.2230      9.4178      9.1714      8.5282      7.6739    
  6.8428      6.1904      5.7352      5.4063      5.1363      4.9081      4.7305      4.6171      4.5721      4.5874    
  4.6593      4.7986      5.0300      5.3770      5.8443      6.4421      7.1617      7.9433      7.7076      8.2168    
  8.4711      8.3743      7.9288      7.2517      6.5217      5.8871      5.4063      5.0588      4.8022      4.6124    
  4.4843      4.4197      4.4118      4.4478      4.5187      4.6291      4.7986      5.0547      5.4179      5.8858    
  6.4470      7.0783      6.8356      7.2230      7.4487      7.4354      7.1617      6.6848      6.1190      5.5798    
  5.1363      4.8022      4.5621      4.3991      4.3045      4.2702      4.2853      4.3368      4.4148      4.5187    
  4.6593      4.8561      5.1288      5.4856      5.9132      6.3766      6.2255      6.4826      6.6301      6.6249    
  6.4470      6.1195      5.7056      5.2819      4.9081      4.6124      4.3991      4.2615      4.1884      4.1689    
  4.1928      4.2510      4.3368      4.4478      4.5874      4.7638      4.9854      5.2562      5.5699      5.9053    
  5.8777      6.0243      6.0922      6.0583      5.9132      5.6689      5.3595      5.0320      4.7305      4.4843    
  4.3045      4.1884      4.1271      4.1113      4.1344      4.1928      4.2853      4.4118      4.5721      4.7635    
  4.9803      5.2135      5.4512      5.6788      5.8300      5.8630      5.8300      5.7313      5.5699      5.3558    
  5.1081      4.8531      4.6171      4.4197      4.2702      4.1689      4.1113      4.0928      4.1113      4.1689    
  4.2702      4.4197      4.6171      4.8531      5.1081      5.3557      5.5699      5.7313      6.0922      6.0243    
  5.8777      5.6788      5.4512      5.2135      4.9803      4.7635      4.5721      4.4118      4.2853      4.1928    
  4.1344      4.1113      4.1271      4.1884      4.3045      4.4843      4.7305      5.0320      5.3595      5.6689    
  5.9132      6.0583      6.6302      6.4826      6.2255      5.9053      5.5699      5.2562      4.9854      4.7638    
  4.5874      4.4478      4.3368      4.2510      4.1928      4.1689      4.1884      4.2615      4.3991      4.6124    
  4.9081      5.2819      5.7056      6.1195      6.4470      6.6249      7.4487      7.2230      6.8356      6.3766    
  5.9132      5.4856      5.1288      4.8561      4.6593      4.5187      4.4148      4.3368      4.2853      4.2702    
  4.3045      4.3991      4.5621      4.8022      5.1363      5.5799      6.1190      6.6848      7.1617      7.4354    
  8.4711      8.2168      7.7076      7.0783      6.4470      5.8858      5.4179      5.0547      4.7986      4.6291    
  4.5187      4.4478      4.4118      4.4197      4.4843      4.6124      4.8022      5.0588      5.4063      5.8871    
  6.5217      7.2517      7.9288      8.3743      9.4177      9.2230      8.6796      7.9433      7.1617      6.4420    
  5.8443      5.3770      5.0300      4.7986      4.6593      4.5874      4.5721      4.6171      4.7305      4.9081    
  5.1363      5.4063      5.7352      6.1904      6.8428      7.6739      8.5281      9.1713      9.9947      9.9042    
  9.4294      8.7260      7.9288      7.1325      6.4124      5.8245      5.3770      5.0547      4.8561      4.7638    
  4.7635      4.8531      5.0320      5.2819      5.5799      5.8871      6.1904      6.5625      7.1262      7.9294    
  8.8463      9.6149      10.178      10.130      9.7359      9.1685      8.5281      7.8327      7.1029      6.4124    
  5.8443      5.4179      5.1288      4.9854      4.9803      5.1081      5.3595      5.7056      6.1190      6.5217    
  6.8428      7.1262      7.5295      8.1807      9.0156      9.7739      10.289      10.158      9.7325      9.2602    
  8.8463      8.4082      7.8327      7.1325      6.4421      5.8858      5.4856      5.2562      5.2135      5.3557    
  5.6689      6.1195      6.6848      7.2517      7.6739      7.9294      8.1807      8.6339      9.3093      9.9661    
  10.698      10.439      9.8516      9.3093      9.0156      8.8463      8.5281      7.9288      7.1617      6.4470    
  5.9132      5.5699      5.4512      5.5699      5.9132      6.4470      7.1617      7.9288      8.5281      8.8463    
  9.0156      9.3093      9.8516      10.439      11.420      11.165      10.428      9.6834      9.3092      9.2602    
  9.1685      8.7260      7.9433      7.0783      6.3766      5.9053      5.6788      5.7313      6.0583      6.6249    
  7.4354      8.3743      9.1713      9.6149      9.7739      9.9661      10.439      11.069      11.137      11.069    
  10.428      9.5283      8.8544      8.6338      8.6655      8.5555      8.0839      7.3496      6.6127      6.0514    
  5.6926      5.5755      5.7213      6.1180      6.7403      7.5905      8.5228      9.2848      9.7328      9.9813    
  10.289      10.753      11.069      11.420      11.165      10.428      9.6833      9.3092      9.2601      9.1685    
  8.7260      7.9433      7.0783      6.3766      5.9053      5.6788      5.7313      6.0583      6.6249      7.4354    
  8.3743      9.1713      9.6149      9.7739      9.9661      10.439      10.428      11.165      11.420      11.068    
  10.439      9.9661      9.7739      9.6149      9.1714      8.3743      7.4354      6.6249      6.0583      5.7313    
  5.6788      5.9053      6.3766      7.0783      7.9433      8.7260      9.1685      9.2602      9.3093      9.6834    
  9.5283      10.428      11.068      11.137      10.752      10.289      9.9813      9.7328      9.2848      8.5228    
  7.5905      6.7403      6.1180      5.7213      5.5755      5.6927      6.0514      6.6127      7.3496      8.0839    
  8.5555      8.6655      8.6339      8.8545      8.8544      9.6833      10.439      10.752      10.573      10.158    
  9.7739      9.4460      9.0056      8.3273      7.4848      6.6802      6.0612      5.6396      5.4315      5.4534    
  5.6967      6.1245      6.7128      7.3741      7.9011      8.1404      8.1807      8.3317      8.6338      9.3092    
  9.9661      10.289      10.158      9.7325      9.2602      8.8463      8.4083      7.8327      7.1325      6.4420    
  5.8858      5.4856      5.2562      5.2135      5.3558      5.6689      6.1195      6.6848      7.2517      7.6739    
  7.9294      8.1807      8.6655      9.2601      9.7739      9.9813      9.7739      9.2602      8.6656      8.1405    
  7.6739      7.1777      6.6220      6.0730      5.6158      5.2727      5.0605      4.9901      5.0605      5.2727    
  5.6158      6.0730      6.6220      7.1777      7.6739      8.1404      8.5555      9.1685      9.6149      9.7328    
  9.4460      8.8463      8.1405      7.5040      6.9823      6.5217      6.0732      5.6506      5.2967      5.0272    
  4.8583      4.7923      4.8247      4.9603      5.2104      5.5731      6.0470      6.6220      7.2517      7.9011    
  8.0839      8.7260      9.1714      9.2848      9.0056      8.4083      7.6739      6.9823      6.4175      5.9648    
  5.5799      5.2478      4.9789      4.7815      4.6654      4.6237      4.6466      4.7361      4.9092      5.1866    
  5.5731      6.0730      6.6848      7.3741      7.3496      7.9433      8.3743      8.5228      8.3273      7.8327    
  7.1777      6.5217      5.9648      5.5261      5.1808      4.9081      4.7012      4.5640      4.4959      4.4840    
  4.5146      4.5849      4.7082      4.9092      5.2104      5.6158      6.1195      6.7128      6.6127      7.0783    
  7.4354      7.5905      7.4848      7.1325      6.6220      6.0732      5.5799      5.1808      4.8737      4.6441    
  4.4843      4.3919      4.3590      4.3715      4.4153      4.4842      4.5849      4.7361      4.9603      5.2727    
  5.6689      6.1245      6.0514      6.3766      6.6249      6.7403      6.6802      6.4420      6.0730      5.6506    
  5.2478      4.9081      4.6441      4.4541      4.3321      4.2702      4.2582      4.2848      4.3392      4.4153    
  4.5146      4.6466      4.8247      5.0605      5.3557      5.6967      5.6926      5.9053      6.0583      6.1180    
  6.0612      5.8858      5.6158      5.2967      4.9789      4.7012      4.4843      4.3321      4.2389      4.1953    
  4.1928      4.2243      4.2848      4.3715      4.4840      4.6237      4.7923      4.9901      5.2135      5.4534    
  5.5755      5.6788      5.7313      5.7213      5.6396      5.4856      5.2727      5.0272      4.7815      4.5640    
  4.3919      4.2702      4.1953      4.1606      4.1605      4.1928      4.2582      4.3590      4.4959      4.6654    
  4.8583      5.0605      5.2562      5.4315      5.7213      5.7313      5.6788      5.5755      5.4315      5.2562    
  5.0605      4.8583      4.6654      4.4959      4.3590      4.2582      4.1928      4.1605      4.1606      4.1953    
  4.2702      4.3919      4.5640      4.7815      5.0272      5.2727      5.4856      5.6396      6.1180      6.0583    
  5.9053      5.6927      5.4534      5.2135      4.9901      4.7923      4.6237      4.4840      4.3715      4.2848    
  4.2243      4.1928      4.1953      4.2389      4.3321      4.4843      4.7012      4.9789      5.2967      5.6158    
  5.8858      6.0612      6.7403      6.6249      6.3766      6.0514      5.6967      5.3558      5.0605      4.8247    
  4.6466      4.5146      4.4153      4.3392      4.2848      4.2582      4.2702      4.3321      4.4541      4.6441    
  4.9081      5.2478      5.6506      6.0730      6.4421      6.6802      7.5905      7.4354      7.0783      6.6127    
  6.1245      5.6689      5.2727      4.9603      4.7361      4.5849      4.4842      4.4153      4.3715      4.3590    
  4.3919      4.4843      4.6441      4.8737      5.1808      5.5799      6.0732      6.6220      7.1325      7.4848    
  8.5228      8.3743      7.9433      7.3496      6.7128      6.1195      5.6158      5.2104      4.9092      4.7082    
  4.5849      4.5146      4.4840      4.4959      4.5640      4.7012      4.9081      5.1808      5.5261      5.9648    
  6.5217      7.1777      7.8327      8.3273      9.2848      9.1713      8.7260      8.0839      7.3741      6.6848    
  6.0730      5.5731      5.1866      4.9092      4.7361      4.6466      4.6237      4.6654      4.7815      4.9789    
  5.2478      5.5799      5.9648      6.4175      6.9822      7.6739      8.4082      9.0055      9.7328      9.6149    
  9.1685      8.5555      7.9011      7.2517      6.6220      6.0470      5.5731      5.2104      4.9603      4.8247    
  4.7923      4.8583      5.0272      5.2967      5.6506      6.0732      6.5217      6.9822      7.5040      8.1404    
  8.8463      9.4460      9.9813      9.7739      9.2602      8.6655      8.1404      7.6739      7.1777      6.6220    
  6.0730      5.6158      5.2727      5.0605      4.9901      5.0605      5.2727      5.6158      6.0730      6.6220    
  7.1777      7.6739      8.1404      8.6655      9.2602      9.7739      10.289      9.9661      9.3093      8.6339    
  8.1807      7.9294      7.6739      7.2517      6.6848      6.1195      5.6689      5.3557      5.2135      5.2562    
  5.4856      5.8858      6.4421      7.1325      7.8327      8.4082      8.8463      9.2602      9.7325      10.158    
  10.753      10.439      9.6834      8.8545      8.3317      8.1807      8.1404      7.9011      7.3741      6.7128    
  6.1245      5.6967      5.4534      5.4315      5.6396      6.0612      6.6802      7.4848      8.3273      9.0055    
  9.4460      9.7739      10.158      10.573      10.784      10.573      9.8515      8.8544      8.0081      7.5919    
  7.5295      7.5040      7.2566      6.7742      6.2259      5.7689      5.4492      5.3085      5.3713      5.6433    
  6.1081      6.7659      7.5972      8.4590      9.1864      9.7328      10.178      10.572      10.573      10.752    
  10.439      9.6833      8.8544      8.3316      8.1807      8.1404      7.9011      7.3741      6.7128      6.1245    
  5.6967      5.4534      5.4315      5.6396      6.0612      6.6802      7.4848      8.3273      9.0055      9.4460    
  9.7739      10.158      9.8515      10.439      10.698      10.439      9.8515      9.3092      9.0156      8.8463    
  8.5282      7.9288      7.1617      6.4470      5.9132      5.5699      5.4512      5.5699      5.9132      6.4470    
  7.1617      7.9288      8.5281      8.8463      9.0156      9.3092      8.8544      9.6833      10.439      10.752    
  10.573      10.158      9.7739      9.4460      9.0056      8.3273      7.4848      6.6802      6.0612      5.6396    
  5.4315      5.4534      5.6967      6.1245      6.7128      7.3741      7.9011      8.1404      8.1807      8.3317    
  8.0081      8.8544      9.8515      10.573      10.784      10.572      10.178      9.7329      9.1864      8.4590    
  7.5972      6.7659      6.1081      5.6433      5.3713      5.3085      5.4492      5.7689      6.2259      6.7742    
  7.2566      7.5040      7.5295      7.5919      7.5919      8.3316      9.3092      10.158      10.572      10.507    
  10.130      9.6149      9.0056      8.2766      7.4588      6.6717      6.0339      5.5687      5.2694      5.1492    
  5.2030      5.4190      5.7639      6.2042      6.6578      6.9822      7.1262      7.2395      7.5295      8.1807    