bcc W                                   
   3.13000000000000     
    -0.499095    0.499095    0.499095
     0.499095   -0.499095    0.499095
     0.499095    0.499095   -0.499095
   W 
     1
Direct
  0.000000  0.000000  0.000000
 
   24   24   24
 0.13436962336E+02 0.12987100966E+02 0.11976322790E+02 0.11093346592E+02 0.10736654373E+02
 0.10707426718E+02 0.10489487473E+02 0.97660511005E+01 0.86599722885E+01 0.75473516868E+01
 0.67160791746E+01 0.62119293044E+01 0.60342677147E+01 0.62119293044E+01 0.67160791746E+01
 0.75473516868E+01 0.86599722885E+01 0.97660511005E+01 0.10489487473E+02 0.10707426718E+02
 0.10736654373E+02 0.11093346592E+02 0.11976322790E+02 0.12987100966E+02 0.12987100966E+02
 0.12822881737E+02 0.11966327865E+02 0.11027277664E+02 0.10529813987E+02 0.10460976531E+02
 0.10369182292E+02 0.98438122815E+01 0.88695006385E+01 0.77652448306E+01 0.68635786881E+01
 0.62781849088E+01 0.59960884914E+01 0.60543053129E+01 0.64429670005E+01 0.71342096978E+01
 0.81336848695E+01 0.92469181120E+01 0.10110047468E+02 0.10484073786E+02 0.10526046952E+02
 0.10709245691E+02 0.11377037104E+02 0.12342562006E+02 0.11976322790E+02 0.11966327865E+02
 0.11288721762E+02 0.10393426412E+02 0.98163468243E+01 0.96947424851E+01 0.96997024174E+01
 0.94020087401E+01 0.86646019756E+01 0.77027105889E+01 0.68359580172E+01 0.62286470278E+01
 0.58824260680E+01 0.58349520871E+01 0.60960950473E+01 0.66315033591E+01 0.74460601081E+01
 0.84597287762E+01 0.93934101652E+01 0.99583082045E+01 0.10136233063E+02 0.10246656075E+02
 0.10656843746E+02 0.11377037104E+02 0.11093346592E+02 0.11027277664E+02 0.10393426412E+02
 0.95000308816E+01 0.88285249867E+01 0.86066278275E+01 0.86383175232E+01 0.85334672334E+01
 0.80711601583E+01 0.73454536944E+01 0.66136118207E+01 0.60550049129E+01 0.56979478961E+01
 0.55811159571E+01 0.57266497135E+01 0.61216227412E+01 0.67412304724E+01 0.75860879335E+01
 0.85085638227E+01 0.92585752331E+01 0.96970478153E+01 0.99408014892E+01 0.10246656075E+02
 0.10709245691E+02 0.10736654373E+02 0.10529813987E+02 0.98163468243E+01 0.88285249867E+01
 0.79882231056E+01 0.75736388656E+01 0.75115767242E+01 0.74889057095E+01 0.72476125698E+01
 0.67717868112E+01 0.62279040742E+01 0.57734304347E+01 0.54552862550E+01 0.53149227205E+01
 0.53777465143E+01 0.56491850809E+01 0.61119344413E+01 0.67667146809E+01 0.75917505627E+01
 0.84436633681E+01 0.91599487230E+01 0.96970478153E+01 0.10136233063E+02 0.10526046952E+02
 0.10707426718E+02 0.10460976531E+02 0.96947424851E+01 0.86066278275E+01 0.75736388656E+01
 0.69046786531E+01 0.66353634025E+01 0.65534104862E+01 0.64124819356E+01 0.61215123738E+01
 0.57551651311E+01 0.54241573775E+01 0.51770653929E+01 0.50537856176E+01 0.50745785340E+01
 0.52503512470E+01 0.55893744994E+01 0.60836855100E+01 0.67528908139E+01 0.75735573894E+01
 0.84436633681E+01 0.92585752331E+01 0.99583082045E+01 0.10484073786E+02 0.10489487473E+02
 0.10369182292E+02 0.96997024174E+01 0.86383175232E+01 0.75115767242E+01 0.66353634025E+01
 0.61310174052E+01 0.58947965178E+01 0.57335091993E+01 0.55279952232E+01 0.52841235645E+01
 0.50600566724E+01 0.48927481896E+01 0.48113315777E+01 0.48253665025E+01 0.49423008957E+01
 0.51791334555E+01 0.55533859148E+01 0.60687245333E+01 0.67528908139E+01 0.75917505627E+01
 0.85085638227E+01 0.93934101652E+01 0.10110047468E+02 0.97660511005E+01 0.98438122815E+01
 0.94020087401E+01 0.85334672334E+01 0.74889057095E+01 0.65534104862E+01 0.58947965178E+01
 0.55032220546E+01 0.52607356551E+01 0.50625846042E+01 0.48798955347E+01 0.47293291937E+01
 0.46312061278E+01 0.45974896719E+01 0.46262132990E+01 0.47174444818E+01 0.48851202407E+01
 0.51558494990E+01 0.55533859148E+01 0.60836855100E+01 0.67667146809E+01 0.75860879335E+01
 0.84597287762E+01 0.92469181120E+01 0.86599722885E+01 0.88695006385E+01 0.86646019756E+01
 0.80711601583E+01 0.72476125698E+01 0.64124819356E+01 0.57335091993E+01 0.52607356551E+01
 0.49482528104E+01 0.47293214496E+01 0.45694200262E+01 0.44626862510E+01 0.44132666030E+01
 0.44181855489E+01 0.44675706887E+01 0.45549348559E+01 0.46868295709E+01 0.48851202407E+01
 0.51791334555E+01 0.55893744994E+01 0.61119344413E+01 0.67412304724E+01 0.74460601081E+01
 0.81336848695E+01 0.75473516868E+01 0.77652448306E+01 0.77027105889E+01 0.73454536944E+01
 0.67717868112E+01 0.61215123738E+01 0.55279952232E+01 0.50625846042E+01 0.47293214496E+01
 0.45006895914E+01 0.43518459024E+01 0.42704096072E+01 0.42483974762E+01 0.42757613206E+01
 0.43404457762E+01 0.44334191411E+01 0.45549348559E+01 0.47174444818E+01 0.49423008957E+01
 0.52503512470E+01 0.56491850809E+01 0.61216227412E+01 0.66315033591E+01 0.71342096978E+01
 0.67160791746E+01 0.68635786881E+01 0.68359580172E+01 0.66136118207E+01 0.62279040742E+01
 0.57551651311E+01 0.52841235645E+01 0.48798955347E+01 0.45694200262E+01 0.43518459024E+01
 0.42159436065E+01 0.41481825671E+01 0.41365177081E+01 0.41704605507E+01 0.42407193318E+01
 0.43404457762E+01 0.44675706887E+01 0.46262132990E+01 0.48253665025E+01 0.50745785340E+01
 0.53777465143E+01 0.57266497135E+01 0.60960950473E+01 0.64429670005E+01 0.62119293044E+01
 0.62781849088E+01 0.62286470278E+01 0.60550049129E+01 0.57734304347E+01 0.54241573775E+01
 0.50600566724E+01 0.47293291937E+01 0.44626862510E+01 0.42704096072E+01 0.41481825671E+01
 0.40856577925E+01 0.40727484010E+01 0.41023198094E+01 0.41704605507E+01 0.42757613206E+01
 0.44181855489E+01 0.45974896719E+01 0.48113315777E+01 0.50537856176E+01 0.53149227205E+01
 0.55811159571E+01 0.58349520871E+01 0.60543053129E+01 0.60342677147E+01 0.59960884914E+01
 0.58824260680E+01 0.56979478961E+01 0.54552862550E+01 0.51770653929E+01 0.48927481896E+01
 0.46312061278E+01 0.44132666030E+01 0.42483974762E+01 0.41365177081E+01 0.40727484010E+01
 0.40521502088E+01 0.40727484010E+01 0.41365177081E+01 0.42483974762E+01 0.44132666030E+01
 0.46312061278E+01 0.48927481896E+01 0.51770653929E+01 0.54552862550E+01 0.56979478961E+01
 0.58824260680E+01 0.59960884914E+01 0.62119293044E+01 0.60543053129E+01 0.58349520871E+01
 0.55811159571E+01 0.53149227205E+01 0.50537856176E+01 0.48113315777E+01 0.45974896719E+01
 0.44181855489E+01 0.42757613206E+01 0.41704605507E+01 0.41023198094E+01 0.40727484010E+01
 0.40856577925E+01 0.41481825671E+01 0.42704096072E+01 0.44626862510E+01 0.47293291937E+01
 0.50600566724E+01 0.54241573775E+01 0.57734304347E+01 0.60550049129E+01 0.62286470278E+01
 0.62781849088E+01 0.67160791746E+01 0.64429670005E+01 0.60960950473E+01 0.57266497135E+01
 0.53777465143E+01 0.50745785340E+01 0.48253665025E+01 0.46262132990E+01 0.44675706887E+01
 0.43404457762E+01 0.42407193318E+01 0.41704605507E+01 0.41365177081E+01 0.41481825671E+01
 0.42159436065E+01 0.43518459024E+01 0.45694200262E+01 0.48798955347E+01 0.52841235645E+01
 0.57551651311E+01 0.62279040742E+01 0.66136118207E+01 0.68359580172E+01 0.68635786881E+01
 0.75473516868E+01 0.71342096978E+01 0.66315033591E+01 0.61216227412E+01 0.56491850809E+01
 0.52503512470E+01 0.49423008957E+01 0.47174444818E+01 0.45549348559E+01 0.44334191411E+01
 0.43404457762E+01 0.42757613206E+01 0.42483974762E+01 0.42704096072E+01 0.43518459024E+01
 0.45006895914E+01 0.47293214496E+01 0.50625846042E+01 0.55279952232E+01 0.61215123738E+01
 0.67717868112E+01 0.73454536944E+01 0.77027105889E+01 0.77652448306E+01 0.86599722885E+01
 0.81336848695E+01 0.74460601081E+01 0.67412304724E+01 0.61119344413E+01 0.55893744994E+01
 0.51791334555E+01 0.48851202407E+01 0.46868295709E+01 0.45549348559E+01 0.44675706887E+01
 0.44181855489E+01 0.44132666030E+01 0.44626862510E+01 0.45694200262E+01 0.47293214496E+01
 0.49482528104E+01 0.52607356551E+01 0.57335091993E+01 0.64124819356E+01 0.72476125698E+01
 0.80711601583E+01 0.86646019756E+01 0.88695006385E+01 0.97660511005E+01 0.92469181120E+01
 0.84597287762E+01 0.75860879335E+01 0.67667146809E+01 0.60836855100E+01 0.55533859148E+01
 0.51558494990E+01 0.48851202407E+01 0.47174444818E+01 0.46262132990E+01 0.45974896719E+01
 0.46312061278E+01 0.47293291937E+01 0.48798955347E+01 0.50625846042E+01 0.52607356551E+01
 0.55032220546E+01 0.58947965178E+01 0.65534104862E+01 0.74889057095E+01 0.85334672334E+01
 0.94020087401E+01 0.98438122815E+01 0.10489487473E+02 0.10110047468E+02 0.93934101652E+01
 0.85085638227E+01 0.75917505627E+01 0.67528908139E+01 0.60687245333E+01 0.55533859148E+01
 0.51791334555E+01 0.49423008957E+01 0.48253665025E+01 0.48113315777E+01 0.48927481896E+01
 0.50600566724E+01 0.52841235645E+01 0.55279952232E+01 0.57335091993E+01 0.58947965178E+01
 0.61310174052E+01 0.66353634025E+01 0.75115767242E+01 0.86383175232E+01 0.96997024174E+01
 0.10369182292E+02 0.10707426718E+02 0.10484073786E+02 0.99583082045E+01 0.92585752331E+01
 0.84436633681E+01 0.75735573894E+01 0.67528908139E+01 0.60836855100E+01 0.55893744994E+01
 0.52503512470E+01 0.50745785340E+01 0.50537856176E+01 0.51770653929E+01 0.54241573775E+01
 0.57551651311E+01 0.61215123738E+01 0.64124819356E+01 0.65534104862E+01 0.66353634025E+01
 0.69046786531E+01 0.75736388656E+01 0.86066278275E+01 0.96947424851E+01 0.10460976531E+02
 0.10736654373E+02 0.10526046952E+02 0.10136233063E+02 0.96970478153E+01 0.91599487230E+01
 0.84436633681E+01 0.75917505627E+01 0.67667146809E+01 0.61119344413E+01 0.56491850809E+01
 0.53777465143E+01 0.53149227205E+01 0.54552862550E+01 0.57734304347E+01 0.62279040742E+01
 0.67717868112E+01 0.72476125698E+01 0.74889057095E+01 0.75115767242E+01 0.75736388656E+01
 0.79882231056E+01 0.88285249867E+01 0.98163468243E+01 0.10529813987E+02 0.11093346592E+02
 0.10709245691E+02 0.10246656075E+02 0.99408014892E+01 0.96970478153E+01 0.92585752331E+01
 0.85085638227E+01 0.75860879335E+01 0.67412304724E+01 0.61216227412E+01 0.57266497135E+01
 0.55811159571E+01 0.56979478961E+01 0.60550049129E+01 0.66136118207E+01 0.73454536944E+01
 0.80711601583E+01 0.85334672334E+01 0.86383175232E+01 0.86066278275E+01 0.88285249867E+01
 0.95000308816E+01 0.10393426412E+02 0.11027277664E+02 0.11976322790E+02 0.11377037104E+02
 0.10656843746E+02 0.10246656075E+02 0.10136233063E+02 0.99583082045E+01 0.93934101652E+01
 0.84597287762E+01 0.74460601081E+01 0.66315033591E+01 0.60960950473E+01 0.58349520871E+01
 0.58824260680E+01 0.62286470278E+01 0.68359580172E+01 0.77027105889E+01 0.86646019756E+01
 0.94020087401E+01 0.96997024174E+01 0.96947424851E+01 0.98163468243E+01 0.10393426412E+02
 0.11288721762E+02 0.11966327865E+02 0.12987100966E+02 0.12342562006E+02 0.11377037104E+02
 0.10709245691E+02 0.10526046952E+02 0.10484073786E+02 0.10110047468E+02 0.92469181120E+01
 0.81336848695E+01 0.71342096978E+01 0.64429670005E+01 0.60543053129E+01 0.59960884914E+01
 0.62781849088E+01 0.68635786881E+01 0.77652448306E+01 0.88695006385E+01 0.98438122815E+01
 0.10369182292E+02 0.10460976531E+02 0.10529813987E+02 0.11027277664E+02 0.11966327865E+02
 0.12822881737E+02 0.12987100966E+02 0.12822881737E+02 0.11966327865E+02 0.11027277664E+02
 0.10529813987E+02 0.10460976531E+02 0.10369182292E+02 0.98438122815E+01 0.88695006385E+01
 0.77652448306E+01 0.68635786881E+01 0.62781849088E+01 0.59960884914E+01 0.60543053129E+01
 0.64429670005E+01 0.71342096978E+01 0.81336848695E+01 0.92469181120E+01 0.10110047468E+02
 0.10484073786E+02 0.10526046952E+02 0.10709245691E+02 0.11377037104E+02 0.12342562006E+02
 0.12822881737E+02 0.12987196798E+02 0.12342732304E+02 0.11377238796E+02 0.10709431844E+02
 0.10526184923E+02 0.10484155022E+02 0.10110085086E+02 0.92469350033E+01 0.81336997366E+01
 0.71342287103E+01 0.64429846988E+01 0.60543125776E+01 0.59960813441E+01 0.62781679424E+01
 0.68635608816E+01 0.77652308356E+01 0.88694839586E+01 0.98437759619E+01 0.10369108171E+02
 0.10460858489E+02 0.10529667416E+02 0.11027138674E+02 0.11966241056E+02 0.11966327865E+02
 0.12342732304E+02 0.11966464088E+02 0.11125382345E+02 0.10400528737E+02 0.10117153128E+02
 0.10089119897E+02 0.98704657235E+01 0.92021067981E+01 0.82082071865E+01 0.72216231601E+01
 0.64845570228E+01 0.60285385419E+01 0.58678763707E+01 0.60285177472E+01 0.64845277445E+01
 0.72215991347E+01 0.82081894140E+01 0.92020765167E+01 0.98703910402E+01 0.10088974188E+02
 0.10116935428E+02 0.10400273855E+02 0.11125153139E+02 0.11027277664E+02 0.11377238796E+02
 0.11125382345E+02 0.10393527315E+02 0.96515668509E+01 0.92766572261E+01 0.92269276913E+01
 0.91396545707E+01 0.87069092362E+01 0.79348913101E+01 0.70771451078E+01 0.63788138136E+01
 0.59099155233E+01 0.56841639875E+01 0.57365223976E+01 0.60622833513E+01 0.66262123860E+01
 0.74322706282E+01 0.83621962166E+01 0.91472516187E+01 0.95808313337E+01 0.97354583498E+01
 0.99274675115E+01 0.10400337283E+02 0.10529813987E+02 0.10709431844E+02 0.10400528737E+02
 0.96515668509E+01 0.88285517498E+01 0.83078477699E+01 0.81570450082E+01 0.81192323450E+01
 0.78864011983E+01 0.73675955053E+01 0.67125800373E+01 0.61275901646E+01 0.57019535220E+01
 0.54594091880E+01 0.54376295590E+01 0.56452974736E+01 0.60651169425E+01 0.66812622340E+01
 0.74803430006E+01 0.83133831249E+01 0.89807944236E+01 0.94126577205E+01 0.97354931547E+01
 0.10117024479E+02 0.10460976531E+02 0.10526184923E+02 0.10117153128E+02 0.92766572261E+01
 0.83078477699E+01 0.75736077018E+01 0.72235449180E+01 0.71123364010E+01 0.69726928987E+01
 0.66540403663E+01 0.62054522103E+01 0.57681292022E+01 0.54252300162E+01 0.52099237226E+01
 0.51562315673E+01 0.52763824833E+01 0.55750260501E+01 0.60381371723E+01 0.66727647968E+01
 0.74536583338E+01 0.82621615580E+01 0.89808051997E+01 0.95808704970E+01 0.10089053799E+02
 0.10369182292E+02 0.10484155022E+02 0.10089119897E+02 0.92269276913E+01 0.81570450082E+01
 0.72235449180E+01 0.66353171991E+01 0.63543348911E+01 0.61852593694E+01 0.59638330939E+01
 0.56656651420E+01 0.53632019398E+01 0.51149614721E+01 0.49547085715E+01 0.49059197331E+01
 0.49766511461E+01 0.51784609922E+01 0.55237761366E+01 0.60101970555E+01 0.66592916259E+01
 0.74536555251E+01 0.83133876679E+01 0.91472758854E+01 0.98704422097E+01 0.98438122815E+01
 0.10110085086E+02 0.98704657235E+01 0.91396545707E+01 0.81192323450E+01 0.71123364010E+01
 0.63543348911E+01 0.58947663555E+01 0.56247657912E+01 0.54077467438E+01 0.51852783515E+01
 0.49766510393E+01 0.48112665521E+01 0.47134293806E+01 0.46918180590E+01 0.47463516756E+01
 0.48856307695E+01 0.51310937981E+01 0.55040808033E+01 0.60101910086E+01 0.66727551028E+01
 0.74803370377E+01 0.83622026139E+01 0.92020997268E+01 0.88695006385E+01 0.92469350033E+01
 0.92021067981E+01 0.87069092362E+01 0.78864011983E+01 0.69726928987E+01 0.61852593694E+01
 0.56247657912E+01 0.52607265363E+01 0.50076012027E+01 0.48080599897E+01 0.46519370606E+01
 0.45472379852E+01 0.45025011292E+01 0.45135636508E+01 0.45726404567E+01 0.46815582561E+01
 0.48581475835E+01 0.51310904675E+01 0.55237675117E+01 0.60381250580E+01 0.66812519404E+01
 0.74322682104E+01 0.82081978726E+01 0.77652448306E+01 0.81336997366E+01 0.82082071865E+01
 0.79348913101E+01 0.73675955053E+01 0.66540403663E+01 0.59638330939E+01 0.54077467438E+01
 0.50076012027E+01 0.47293231679E+01 0.45354590424E+01 0.44075685617E+01 0.43414196806E+01
 0.43319697964E+01 0.43683994839E+01 0.44390992452E+01 0.45402081371E+01 0.46815585509E+01
 0.48856288762E+01 0.51784556743E+01 0.55750186841E+01 0.60651112423E+01 0.66262124838E+01
 0.72216070516E+01 0.68635786881E+01 0.71342287103E+01 0.72216231601E+01 0.70771451078E+01
 0.67125800373E+01 0.62054522103E+01 0.56656651420E+01 0.51852783515E+01 0.48080599897E+01
 0.45354590424E+01 0.43518486501E+01 0.42430744610E+01 0.41977392455E+01 0.42051610938E+01
 0.42540248951E+01 0.43338748996E+01 0.44391012493E+01 0.45726434136E+01 0.47463540754E+01
 0.49766522976E+01 0.52763833314E+01 0.56453003741E+01 0.60622908452E+01 0.64845409954E+01
 0.62781849088E+01 0.64429846988E+01 0.64845570228E+01 0.63788138136E+01 0.61275901646E+01
 0.57681292022E+01 0.53632019398E+01 0.49766510393E+01 0.46519370606E+01 0.44075685617E+01
 0.42430744610E+01 0.41481831599E+01 0.41108770108E+01 0.41209434974E+01 0.41705284401E+01
 0.42540265880E+01 0.43684031015E+01 0.45135686322E+01 0.46918235599E+01 0.49059253271E+01
 0.51562376904E+01 0.54376373893E+01 0.57365331967E+01 0.60285320212E+01 0.59960884914E+01
 0.60543125776E+01 0.60285385419E+01 0.59099155233E+01 0.57019535220E+01 0.54252300162E+01
 0.51149614721E+01 0.48112665521E+01 0.45472379852E+01 0.43414196806E+01 0.41977392455E+01
 0.41108770108E+01 0.40727479920E+01 0.40770165787E+01 0.41209441666E+01 0.42051628555E+01
 0.43319727752E+01 0.45025050898E+01 0.47134338730E+01 0.49547132008E+01 0.52099283800E+01
 0.54594140978E+01 0.56841695336E+01 0.58678827950E+01 0.60543053129E+01 0.59960813441E+01
 0.58678763707E+01 0.56841639875E+01 0.54594091880E+01 0.52099237226E+01 0.49547085715E+01
 0.47134293806E+01 0.45025011292E+01 0.43319697964E+01 0.42051610938E+01 0.41209434974E+01
 0.40770165787E+01 0.40727481667E+01 0.41108770434E+01 0.41977391135E+01 0.43414195677E+01
 0.45472380413E+01 0.48112666549E+01 0.51149611457E+01 0.54252285774E+01 0.57019503877E+01
 0.59099105164E+01 0.60285320212E+01 0.64429670005E+01 0.62781679424E+01 0.60285177472E+01
 0.57365223976E+01 0.54376295590E+01 0.51562315673E+01 0.49059197331E+01 0.46918180590E+01
 0.45135636508E+01 0.43683994839E+01 0.42540248951E+01 0.41705284401E+01 0.41209441666E+01
 0.41108770434E+01 0.41481816665E+01 0.42430714180E+01 0.44075647180E+01 0.46519333398E+01
 0.49766477911E+01 0.53631985033E+01 0.57681240798E+01 0.61275817530E+01 0.63788013092E+01
 0.64845409954E+01 0.71342096978E+01 0.68635608816E+01 0.64845277445E+01 0.60622833513E+01
 0.56452974736E+01 0.52763824833E+01 0.49766511461E+01 0.47463516756E+01 0.45726404567E+01
 0.44390992452E+01 0.43338748996E+01 0.42540265880E+01 0.42051628555E+01 0.41977391135E+01
 0.42430714180E+01 0.43518433861E+01 0.45354536649E+01 0.48080567833E+01 0.51852782839E+01
 0.56656670101E+01 0.62054529911E+01 0.67125763292E+01 0.70771349158E+01 0.72216070516E+01
 0.81336848695E+01 0.77652308356E+01 0.72215991347E+01 0.66262123860E+01 0.60651169425E+01
 0.55750260501E+01 0.51784609922E+01 0.48856307695E+01 0.46815582561E+01 0.45402081371E+01
 0.44391012493E+01 0.43684031015E+01 0.43319727752E+01 0.43414195677E+01 0.44075647180E+01
 0.45354536649E+01 0.47293205318E+01 0.50076054059E+01 0.54077591871E+01 0.59638511817E+01
 0.66540582948E+01 0.73676068536E+01 0.79348921149E+01 0.82081978726E+01 0.92469181120E+01
 0.88694839586E+01 0.82081894140E+01 0.74322706282E+01 0.66812622340E+01 0.60381371723E+01
 0.55237761366E+01 0.51310937981E+01 0.48581475835E+01 0.46815585509E+01 0.45726434136E+01
 0.45135686322E+01 0.45025050898E+01 0.45472380413E+01 0.46519333398E+01 0.48080567833E+01
 0.50076054059E+01 0.52607440028E+01 0.56247975882E+01 0.61853001538E+01 0.69727325692E+01
 0.78864291830E+01 0.87069192735E+01 0.92020997268E+01 0.10110047468E+02 0.98437759619E+01
 0.92020765167E+01 0.83621962166E+01 0.74803430006E+01 0.66727647968E+01 0.60101970555E+01
 0.55040808033E+01 0.51310904675E+01 0.48856288762E+01 0.47463540754E+01 0.46918235599E+01
 0.47134338730E+01 0.48112666549E+01 0.49766477911E+01 0.51852782839E+01 0.54077591871E+01
 0.56247975882E+01 0.58948169122E+01 0.63543945860E+01 0.71123896679E+01 0.81192641813E+01
 0.91396572428E+01 0.98704422097E+01 0.10484073786E+02 0.10369108171E+02 0.98703910402E+01
 0.91472516187E+01 0.83133831249E+01 0.74536583338E+01 0.66592916259E+01 0.60101910086E+01
 0.55237675117E+01 0.51784556743E+01 0.49766522976E+01 0.49059253271E+01 0.49547132008E+01
 0.51149611457E+01 0.53631985033E+01 0.56656670101E+01 0.59638511817E+01 0.61853001538E+01
 0.63543945860E+01 0.66353807818E+01 0.72235912372E+01 0.81570558132E+01 0.92268960835E+01
 0.10089053799E+02 0.10526046952E+02 0.10460858489E+02 0.10088974188E+02 0.95808313337E+01
 0.89807944236E+01 0.82621615580E+01 0.74536555251E+01 0.66727551028E+01 0.60381250580E+01
 0.55750186841E+01 0.52763833314E+01 0.51562376904E+01 0.52099283800E+01 0.54252285774E+01
 0.57681240798E+01 0.62054529911E+01 0.66540582948E+01 0.69727325692E+01 0.71123896679E+01
 0.72235912372E+01 0.75736216940E+01 0.83078106628E+01 0.92765663696E+01 0.10117024479E+02
 0.10709245691E+02 0.10529667416E+02 0.10116935428E+02 0.97354583498E+01 0.94126577205E+01
 0.89808051997E+01 0.83133876679E+01 0.74803370377E+01 0.66812519404E+01 0.60651112423E+01
 0.56453003741E+01 0.54376373893E+01 0.54594140978E+01 0.57019503877E+01 0.61275817530E+01
 0.67125763292E+01 0.73676068536E+01 0.78864291830E+01 0.81192641813E+01 0.81570558132E+01
 0.83078106628E+01 0.88284510996E+01 0.96514077387E+01 0.10400337283E+02 0.11377037104E+02
 0.11027138674E+02 0.10400273855E+02 0.99274675115E+01 0.97354931547E+01 0.95808704970E+01
 0.91472758854E+01 0.83622026139E+01 0.74322682104E+01 0.66262124838E+01 0.60622908452E+01
 0.57365331967E+01 0.56841695336E+01 0.59099105164E+01 0.63788013092E+01 0.70771349158E+01
 0.79348921149E+01 0.87069192735E+01 0.91396572428E+01 0.92268960835E+01 0.92765663696E+01
 0.96514077387E+01 0.10393315005E+02 0.11125153139E+02 0.12342562006E+02 0.11966241056E+02
 0.11125153139E+02 0.10400337283E+02 0.10117024479E+02 0.10089053799E+02 0.98704422097E+01
 0.92020997268E+01 0.82081978726E+01 0.72216070516E+01 0.64845409954E+01 0.60285320212E+01
 0.58678827950E+01 0.60285320212E+01 0.64845409954E+01 0.72216070516E+01 0.82081978726E+01
 0.92020997268E+01 0.98704422097E+01 0.10089053799E+02 0.10117024479E+02 0.10400337283E+02
 0.11125153139E+02 0.11966241056E+02 0.11976322790E+02 0.11966327865E+02 0.11288721762E+02
 0.10393426412E+02 0.98163468243E+01 0.96947424851E+01 0.96997024174E+01 0.94020087401E+01
 0.86646019756E+01 0.77027105889E+01 0.68359580172E+01 0.62286470278E+01 0.58824260680E+01
 0.58349520871E+01 0.60960950473E+01 0.66315033591E+01 0.74460601081E+01 0.84597287762E+01
 0.93934101652E+01 0.99583082045E+01 0.10136233063E+02 0.10246656075E+02 0.10656843746E+02
 0.11377037104E+02 0.11966327865E+02 0.12342732304E+02 0.11966464088E+02 0.11125382345E+02
 0.10400528737E+02 0.10117153128E+02 0.10089119897E+02 0.98704657235E+01 0.92021067981E+01
 0.82082071865E+01 0.72216231601E+01 0.64845570228E+01 0.60285385419E+01 0.58678763707E+01
 0.60285177472E+01 0.64845277445E+01 0.72215991347E+01 0.82081894140E+01 0.92020765167E+01
 0.98703910402E+01 0.10088974188E+02 0.10116935428E+02 0.10400273855E+02 0.11125153139E+02
 0.11288721762E+02 0.11966464088E+02 0.11976575894E+02 0.11377350015E+02 0.10657144985E+02
 0.10246888403E+02 0.10136373437E+02 0.99583700997E+01 0.93934289551E+01 0.84597396106E+01
 0.74460807720E+01 0.66315305128E+01 0.60961137339E+01 0.58349506010E+01 0.58824057669E+01
 0.62286207225E+01 0.68359385092E+01 0.77026977455E+01 0.86645781462E+01 0.94019473390E+01
 0.96995860562E+01 0.96945802758E+01 0.98161796602E+01 0.10393315005E+02 0.10393426412E+02
 0.11125382345E+02 0.11377350015E+02 0.11027472259E+02 0.10400561089E+02 0.99276635228E+01
 0.97355898850E+01 0.95808935327E+01 0.91472665896E+01 0.83621960734E+01 0.74322787595E+01
 0.66262332806E+01 0.60623054548E+01 0.57365304412E+01 0.56841518099E+01 0.59098907418E+01
 0.63787914016E+01 0.70771344189E+01 0.79348856790E+01 0.87068860982E+01 0.91395876620E+01
 0.92268051256E+01 0.92764948051E+01 0.96514077387E+01 0.98163468243E+01 0.10400528737E+02
 0.10657144985E+02 0.10400561089E+02 0.98163974480E+01 0.92766142813E+01 0.89843970500E+01
 0.88184775743E+01 0.85077787526E+01 0.79181512673E+01 0.71591026893E+01 0.64488693538E+01
 0.59176268741E+01 0.55756773416E+01 0.54572352805E+01 0.55756682946E+01 0.59176166156E+01
 0.64488680520E+01 0.71591153236E+01 0.79181729443E+01 0.85077961197E+01 0.88184759464E+01
 0.89843693191E+01 0.92765663696E+01 0.96947424851E+01 0.10117153128E+02 0.10246888403E+02
 0.99276635228E+01 0.92766142813E+01 0.86065559334E+01 0.81569731481E+01 0.79091424365E+01
 0.76590615164E+01 0.72440569641E+01 0.66836493813E+01 0.61224066626E+01 0.56741454122E+01
 0.53623304382E+01 0.52203135311E+01 0.52630337457E+01 0.54919836855E+01 0.58903554741E+01
 0.64438456257E+01 0.71290667285E+01 0.78211948150E+01 0.83878810678E+01 0.88185072388E+01
 0.92268960835E+01 0.96997024174E+01 0.10089119897E+02 0.10136373437E+02 0.97355898850E+01
 0.89843970500E+01 0.81569731481E+01 0.75114676699E+01 0.71122813054E+01 0.68333288249E+01
 0.65173805112E+01 0.61196417443E+01 0.57096905767E+01 0.53659358329E+01 0.51156532947E+01
 0.49880500117E+01 0.49931577705E+01 0.51365768289E+01 0.54249467347E+01 0.58491698026E+01
 0.64141618569E+01 0.70991867399E+01 0.78211976485E+01 0.85078228945E+01 0.91396572428E+01
 0.94020087401E+01 0.98704657235E+01 0.99583700997E+01 0.95808935327E+01 0.88184775743E+01
 0.79091424365E+01 0.71122813054E+01 0.65533350970E+01 0.61852373208E+01 0.58859078300E+01
 0.55824007086E+01 0.52873084424E+01 0.50395312724E+01 0.48616094005E+01 0.47721869901E+01
 0.47724789494E+01 0.48648969889E+01 0.50633082857E+01 0.53844406829E+01 0.58295583867E+01
 0.64141526732E+01 0.71290573473E+01 0.79181785780E+01 0.87069192735E+01 0.86646019756E+01
 0.92021067981E+01 0.93934289551E+01 0.91472665896E+01 0.85077787526E+01 0.76590615164E+01
 0.68333288249E+01 0.61852373208E+01 0.57334845992E+01 0.54077479415E+01 0.51406213403E+01
 0.49147406489E+01 0.47388871569E+01 0.46263857769E+01 0.45816216094E+01 0.45970083049E+01
 0.46688306084E+01 0.48080425432E+01 0.50388657106E+01 0.53844324352E+01 0.58491525211E+01
 0.64438259729E+01 0.71591043458E+01 0.79348921149E+01 0.77027105889E+01 0.82082071865E+01
 0.84597396106E+01 0.83621960734E+01 0.79181512673E+01 0.72440569641E+01 0.65173805112E+01
 0.58859078300E+01 0.54077479415E+01 0.50625897641E+01 0.48080677362E+01 0.46200933583E+01
 0.44932561711E+01 0.44294395188E+01 0.44219495019E+01 0.44579755006E+01 0.45288275885E+01
 0.46389851766E+01 0.48080405283E+01 0.50632996277E+01 0.54249309922E+01 0.58903376661E+01
 0.64488562543E+01 0.70771349158E+01 0.68359580172E+01 0.72216231601E+01 0.74460807720E+01
 0.74322787595E+01 0.71591026893E+01 0.66836493813E+01 0.61196417443E+01 0.55824007086E+01
 0.51406213403E+01 0.48080677362E+01 0.45694297186E+01 0.44075729975E+01 0.43137286315E+01
 0.42800674959E+01 0.42956034434E+01 0.43473118824E+01 0.44253137701E+01 0.45288304947E+01
 0.46688329125E+01 0.48648955760E+01 0.51365716265E+01 0.54919783719E+01 0.59176168091E+01
 0.63788013092E+01 0.62286470278E+01 0.64845570228E+01 0.66315305128E+01 0.66262332806E+01
 0.64488693538E+01 0.61224066626E+01 0.57096905767E+01 0.52873084424E+01 0.49147406489E+01
 0.46200933583E+01 0.44075729975E+01 0.42704128671E+01 0.41977393226E+01 0.41786699184E+01
 0.42030244873E+01 0.42615445259E+01 0.43473158525E+01 0.44579826574E+01 0.45970163979E+01
 0.47724861128E+01 0.49931641026E+01 0.52630415910E+01 0.55756809879E+01 0.59099105164E+01
 0.58824260680E+01 0.60285385419E+01 0.60961137339E+01 0.60623054548E+01 0.59176268741E+01
 0.56741454122E+01 0.53659358329E+01 0.50395312724E+01 0.47388871569E+01 0.44932561711E+01
 0.43137286315E+01 0.41977393226E+01 0.41365162112E+01 0.41209421129E+01 0.41443498653E+01
 0.42030268308E+01 0.42956088237E+01 0.44219574106E+01 0.45816308838E+01 0.47721967156E+01
 0.49880602077E+01 0.52203251811E+01 0.54572496653E+01 0.56841695336E+01 0.58349520871E+01
 0.58678763707E+01 0.58349506010E+01 0.57365304412E+01 0.55756773416E+01 0.53623304382E+01
 0.51156532947E+01 0.48616094005E+01 0.46263857769E+01 0.44294395188E+01 0.42800674959E+01
 0.41786699184E+01 0.41209421129E+01 0.41023179794E+01 0.41209427263E+01 0.41786711623E+01
 0.42800693968E+01 0.44294420932E+01 0.46263890004E+01 0.48616131688E+01 0.51156573909E+01
 0.53623345241E+01 0.55756809879E+01 0.57365331967E+01 0.60960950473E+01 0.60285177472E+01
 0.58824057669E+01 0.56841518099E+01 0.54572352805E+01 0.52203135311E+01 0.49880500117E+01
 0.47721869901E+01 0.45816216094E+01 0.44219495019E+01 0.42956034434E+01 0.42030244873E+01
 0.41443498653E+01 0.41209427263E+01 0.41365154755E+01 0.41977360226E+01 0.43137228706E+01
 0.44932491831E+01 0.47388804484E+01 0.50395255882E+01 0.53659305529E+01 0.56741387535E+01
 0.59176168091E+01 0.60622908452E+01 0.66315033591E+01 0.64845277445E+01 0.62286207225E+01
 0.59098907418E+01 0.55756682946E+01 0.52630337457E+01 0.49931577705E+01 0.47724789494E+01
 0.45970083049E+01 0.44579755006E+01 0.43473118824E+01 0.42615445259E+01 0.42030268308E+01
 0.41786711623E+01 0.41977360226E+01 0.42704035395E+01 0.44075590308E+01 0.46200782710E+01
 0.49147280618E+01 0.52872999107E+01 0.57096845456E+01 0.61223991923E+01 0.64488562543E+01
 0.66262124838E+01 0.74460601081E+01 0.72215991347E+01 0.68359385092E+01 0.63787914016E+01
 0.59176166156E+01 0.54919836855E+01 0.51365768289E+01 0.48648969889E+01 0.46688306084E+01
 0.45288275885E+01 0.44253137701E+01 0.43473158525E+01 0.42956088237E+01 0.42800693968E+01
 0.43137228706E+01 0.44075590308E+01 0.45694115979E+01 0.48080523440E+01 0.51406147638E+01
 0.55824047625E+01 0.61196526596E+01 0.66836595042E+01 0.71591043458E+01 0.74322682104E+01
 0.84597287762E+01 0.82081894140E+01 0.77026977455E+01 0.70771344189E+01 0.64488680520E+01
 0.58903554741E+01 0.54249467347E+01 0.50633082857E+01 0.48080425432E+01 0.46389851766E+01
 0.45288304947E+01 0.44579826574E+01 0.44219574106E+01 0.44294420932E+01 0.44932491831E+01
 0.46200782710E+01 0.48080523440E+01 0.50625848813E+01 0.54077617472E+01 0.58859409927E+01
 0.65174249502E+01 0.72440991708E+01 0.79181785780E+01 0.83622026139E+01 0.93934101652E+01
 0.92020765167E+01 0.86645781462E+01 0.79348856790E+01 0.71591153236E+01 0.64438456257E+01
 0.58491698026E+01 0.53844406829E+01 0.50388657106E+01 0.48080405283E+01 0.46688329125E+01
 0.45970163979E+01 0.45816308838E+01 0.46263890004E+01 0.47388804484E+01 0.49147280618E+01
 0.51406147638E+01 0.54077617472E+01 0.57335276805E+01 0.61853069784E+01 0.68334102101E+01
 0.76591334017E+01 0.85078228945E+01 0.91472758854E+01 0.99583082045E+01 0.98703910402E+01
 0.94019473390E+01 0.87068860982E+01 0.79181729443E+01 0.71290667285E+01 0.64141618569E+01
 0.58295583867E+01 0.53844324352E+01 0.50632996277E+01 0.48648955760E+01 0.47724861128E+01
 0.47721967156E+01 0.48616131688E+01 0.50395255882E+01 0.52872999107E+01 0.55824047625E+01
 0.58859409927E+01 0.61853069784E+01 0.65534326836E+01 0.71123833100E+01 0.79092194730E+01