   1   1   0   0
  0.1533215E+02  0.2710660E-09  0.2710660E-09  0.2710660E-09  0.5000000E-15
  1.000000000000000E-004
  CAR 
 bcc W                                   
     30.68893769     -3.25326546  301      8.12540829      1.00000000
     -3.253  0.0000E+00  0.0000E+00
     -3.140  0.0000E+00  0.0000E+00
     -3.027  0.0000E+00  0.0000E+00
     -2.914 -0.5713E-32 -0.6463E-33
     -2.801 -0.4644E-28 -0.5255E-29
     -2.688 -0.1980E-24 -0.2241E-25
     -2.574 -0.4423E-21 -0.5006E-22
     -2.461 -0.5170E-18 -0.5855E-19
     -2.348 -0.3054E-15 -0.3461E-16
     -2.235 -0.9643E-13 -0.1094E-13
     -2.122 -0.1576E-10 -0.1795E-11
     -2.009 -0.1325E-08 -0.1517E-09
     -1.896 -0.5647E-07 -0.6541E-08
     -1.782 -0.1191E-05 -0.1413E-06
     -1.669 -0.1173E-04 -0.1468E-05
     -1.556 -0.4430E-04 -0.6481E-05
     -1.443  0.1702E-04 -0.4555E-05
     -1.330  0.4649E-03  0.4805E-04
     -1.217  0.9454E-03  0.1550E-03
     -1.104  0.6351E-03  0.2269E-03
     -0.990  0.1072E-03  0.2390E-03
     -0.877  0.4370E-03  0.2884E-03
     -0.764  0.1166E-02  0.4204E-03
     -0.651  0.8777E-03  0.5197E-03
     -0.538  0.2190E-03  0.5445E-03
     -0.425  0.1451E-02  0.7087E-03
     -0.312  0.3656E-02  0.1122E-02
     -0.198  0.3072E-02  0.1470E-02
     -0.085  0.7409E-03  0.1554E-02
      0.028 -0.2145E-03  0.1529E-02
      0.141 -0.2775E-03  0.1498E-02
      0.254 -0.1079E-03  0.1486E-02
      0.367  0.1529E-02  0.1659E-02
      0.480  0.4138E-02  0.2127E-02
      0.594  0.3848E-02  0.2562E-02
      0.707  0.1739E-02  0.2759E-02
      0.820  0.2436E-02  0.3035E-02
      0.933  0.4428E-02  0.3536E-02
      1.046  0.4950E-02  0.4096E-02
      1.159  0.3771E-02  0.4522E-02
      1.272  0.1309E-02  0.4670E-02
      1.386 -0.2591E-03  0.4641E-02
      1.499 -0.7308E-03  0.4558E-02
      1.612  0.1211E-04  0.4560E-02
      1.725  0.5380E-02  0.5168E-02
      1.838  0.1467E-01  0.6828E-02
      1.951  0.1871E-01  0.8944E-02
      2.064  0.1639E-01  0.1080E-01
      2.177  0.1274E-01  0.1224E-01
      2.291  0.8314E-02  0.1318E-01
      2.404  0.8650E-02  0.1416E-01
      2.517  0.1206E-01  0.1552E-01
      2.630  0.1471E-01  0.1719E-01
      2.743  0.2094E-01  0.1956E-01
      2.856  0.2347E-01  0.2221E-01
      2.969  0.1673E-01  0.2410E-01
      3.083  0.1213E-01  0.2548E-01
      3.196  0.1469E-01  0.2714E-01
      3.309  0.2218E-01  0.2965E-01
      3.422  0.2759E-01  0.3277E-01
      3.535  0.2632E-01  0.3575E-01
      3.648  0.2147E-01  0.3818E-01
      3.761  0.1524E-01  0.3990E-01
      3.875  0.9137E-02  0.4094E-01
      3.988  0.4348E-02  0.4143E-01
      4.101  0.2551E-02  0.4172E-01
      4.214  0.8664E-02  0.4270E-01
      4.327  0.1670E-01  0.4459E-01
      4.440  0.1640E-01  0.4644E-01
      4.553  0.1655E-01  0.4832E-01
      4.667  0.2121E-01  0.5072E-01
      4.780  0.2677E-01  0.5375E-01
      4.893  0.3710E-01  0.5794E-01
      5.006  0.4238E-01  0.6274E-01
      5.119  0.3396E-01  0.6658E-01
      5.232  0.2078E-01  0.6893E-01
      5.345  0.1734E-01  0.7089E-01
      5.459  0.1867E-01  0.7301E-01
      5.572  0.1655E-01  0.7488E-01
      5.685  0.1942E-01  0.7708E-01
      5.798  0.2586E-01  0.8000E-01
      5.911  0.2818E-01  0.8319E-01
      6.024  0.3108E-01  0.8671E-01
      6.137  0.3910E-01  0.9113E-01
      6.251  0.3907E-01  0.9555E-01
      6.364  0.2826E-01  0.9875E-01
      6.477  0.1817E-01  0.1008E+00
      6.590  0.1328E-01  0.1023E+00
      6.703  0.1598E-01  0.1041E+00
      6.816  0.2020E-01  0.1064E+00
      6.929  0.1597E-01  0.1082E+00
      7.043  0.6640E-02  0.1090E+00
      7.156  0.2842E-02  0.1093E+00
      7.269  0.7519E-02  0.1101E+00
      7.382  0.1275E-01  0.1116E+00
      7.495  0.1345E-01  0.1131E+00
      7.608  0.1325E-01  0.1146E+00
      7.721  0.1335E-01  0.1161E+00
      7.835  0.1245E-01  0.1175E+00
      7.948  0.1119E-01  0.1188E+00
      8.061  0.8048E-02  0.1197E+00
      8.174  0.4639E-02  0.1202E+00
      8.287  0.6784E-02  0.1210E+00
      8.400  0.1024E-01  0.1221E+00
      8.513  0.9326E-02  0.1232E+00
      8.627  0.4979E-02  0.1238E+00
      8.740  0.4240E-02  0.1242E+00
      8.853  0.1004E-01  0.1254E+00
      8.966  0.1652E-01  0.1272E+00
      9.079  0.1961E-01  0.1295E+00
      9.192  0.1724E-01  0.1314E+00
      9.305  0.1425E-01  0.1330E+00
      9.418  0.1645E-01  0.1349E+00
      9.532  0.1635E-01  0.1367E+00
      9.645  0.1230E-01  0.1381E+00
      9.758  0.1500E-01  0.1398E+00
      9.871  0.2123E-01  0.1422E+00
      9.984  0.2317E-01  0.1448E+00
     10.097  0.2444E-01  0.1476E+00
     10.210  0.2478E-01  0.1504E+00
     10.324  0.2349E-01  0.1531E+00
     10.437  0.2188E-01  0.1556E+00
     10.550  0.2241E-01  0.1581E+00
     10.663  0.2196E-01  0.1606E+00
     10.776  0.1644E-01  0.1624E+00
     10.889  0.1695E-01  0.1643E+00
     11.002  0.2253E-01  0.1669E+00
     11.116  0.2087E-01  0.1693E+00
     11.229  0.2177E-01  0.1717E+00
     11.342  0.3339E-01  0.1755E+00
     11.455  0.4256E-01  0.1803E+00
     11.568  0.4270E-01  0.1851E+00
     11.681  0.3846E-01  0.1895E+00
     11.794  0.3865E-01  0.1939E+00
     11.908  0.3715E-01  0.1981E+00
     12.021  0.2504E-01  0.2009E+00
     12.134  0.1624E-01  0.2027E+00
     12.247  0.1449E-01  0.2044E+00
     12.360  0.9764E-02  0.2055E+00
     12.473  0.6701E-02  0.2062E+00
     12.586  0.7571E-02  0.2071E+00
     12.700  0.6328E-02  0.2078E+00
     12.813  0.4032E-02  0.2083E+00
     12.926  0.3674E-02  0.2087E+00
     13.039  0.5756E-02  0.2093E+00
     13.152  0.6524E-02  0.2101E+00
     13.265  0.4318E-02  0.2106E+00
     13.378  0.3363E-02  0.2109E+00
     13.492  0.4180E-02  0.2114E+00
     13.605  0.3514E-02  0.2118E+00
     13.718  0.4800E-02  0.2124E+00
     13.831  0.6734E-02  0.2131E+00
     13.944  0.5477E-02  0.2137E+00
     14.057  0.9933E-02  0.2149E+00
     14.170  0.1995E-01  0.2171E+00
     14.284  0.2180E-01  0.2196E+00
     14.397  0.1455E-01  0.2212E+00
     14.510  0.8466E-02  0.2222E+00
     14.623  0.7483E-02  0.2230E+00
     14.736  0.6232E-02  0.2237E+00
     14.849  0.4646E-02  0.2243E+00
     14.962  0.4708E-02  0.2248E+00
     15.076  0.4420E-02  0.2253E+00
     15.189  0.2871E-02  0.2256E+00
     15.302  0.2082E-02  0.2259E+00
     15.415  0.3898E-02  0.2263E+00
     15.528  0.7176E-02  0.2271E+00
     15.641  0.6698E-02  0.2279E+00
     15.754  0.2299E-02  0.2281E+00
     15.868 -0.2691E-03  0.2281E+00
     15.981 -0.6654E-03  0.2280E+00
     16.094 -0.3029E-03  0.2280E+00
     16.207  0.3457E-02  0.2284E+00
     16.320  0.1029E-01  0.2296E+00
     16.433  0.1093E-01  0.2308E+00
     16.546  0.5359E-02  0.2314E+00
     16.659  0.2756E-02  0.2317E+00
     16.773  0.3280E-02  0.2321E+00
     16.886  0.8860E-02  0.2331E+00
     16.999  0.1734E-01  0.2350E+00
     17.112  0.1620E-01  0.2369E+00
     17.225  0.6920E-02  0.2377E+00
     17.338  0.9422E-03  0.2378E+00
     17.451 -0.1378E-03  0.2377E+00
     17.565  0.1998E-02  0.2380E+00
     17.678  0.5769E-02  0.2386E+00
     17.791  0.6318E-02  0.2393E+00
     17.904  0.2760E-02  0.2397E+00
     18.017  0.4342E-03  0.2397E+00
     18.130  0.2409E-02  0.2400E+00
     18.243  0.5946E-02  0.2407E+00
     18.357  0.7244E-02  0.2415E+00
     18.470  0.7991E-02  0.2424E+00
     18.583  0.1293E-01  0.2438E+00
     18.696  0.2028E-01  0.2461E+00
     18.809  0.2281E-01  0.2487E+00
     18.922  0.1625E-01  0.2506E+00
     19.035  0.5785E-02  0.2512E+00
     19.149  0.2078E-02  0.2514E+00
     19.262  0.5878E-02  0.2521E+00
     19.375  0.7210E-02  0.2529E+00
     19.488  0.3884E-02  0.2534E+00
     19.601  0.1943E-02  0.2536E+00
     19.714  0.2719E-02  0.2539E+00
     19.827  0.3278E-02  0.2543E+00
     19.941  0.2814E-02  0.2546E+00
     20.054  0.6390E-02  0.2553E+00
     20.167  0.1156E-01  0.2566E+00
     20.280  0.9734E-02  0.2577E+00
     20.393  0.3094E-02  0.2581E+00
     20.506  0.1047E-02  0.2582E+00
     20.619  0.5775E-02  0.2588E+00
     20.733  0.9565E-02  0.2599E+00
     20.846  0.1260E-01  0.2613E+00
     20.959  0.1925E-01  0.2635E+00
     21.072  0.1975E-01  0.2658E+00
     21.185  0.1360E-01  0.2673E+00
     21.298  0.1081E-01  0.2685E+00
     21.411  0.1436E-01  0.2701E+00
     21.525  0.1586E-01  0.2719E+00
     21.638  0.9413E-02  0.2730E+00
     21.751  0.6781E-02  0.2738E+00
     21.864  0.1278E-01  0.2752E+00
     21.977  0.1598E-01  0.2770E+00
     22.090  0.1275E-01  0.2785E+00
     22.203  0.6636E-02  0.2792E+00
     22.317  0.8831E-03  0.2793E+00
     22.430 -0.7719E-03  0.2792E+00
     22.543  0.6913E-02  0.2800E+00
     22.656  0.2144E-01  0.2824E+00
     22.769  0.2374E-01  0.2851E+00
     22.882  0.1056E-01  0.2863E+00
     22.995  0.5692E-02  0.2870E+00
     23.109  0.1694E-01  0.2889E+00
     23.222  0.2582E-01  0.2918E+00
     23.335  0.2264E-01  0.2944E+00
     23.448  0.1517E-01  0.2961E+00
     23.561  0.8193E-02  0.2970E+00
     23.674  0.4789E-02  0.2975E+00
     23.787  0.5720E-02  0.2982E+00
     23.900  0.7341E-02  0.2990E+00
     24.014  0.7576E-02  0.2999E+00
     24.127  0.8631E-02  0.3009E+00
     24.240  0.8444E-02  0.3018E+00
     24.353  0.5114E-02  0.3024E+00
     24.466  0.1305E-02  0.3025E+00
     24.579  0.2870E-02  0.3029E+00
     24.692  0.1233E-01  0.3043E+00
     24.806  0.1783E-01  0.3063E+00
     24.919  0.1193E-01  0.3076E+00
     25.032  0.5500E-02  0.3082E+00
     25.145  0.2695E-02  0.3086E+00
     25.258  0.2157E-02  0.3088E+00
     25.371  0.7299E-02  0.3096E+00
     25.484  0.1334E-01  0.3111E+00
     25.598  0.1174E-01  0.3125E+00
     25.711  0.8960E-02  0.3135E+00
     25.824  0.9838E-02  0.3146E+00
     25.937  0.8041E-02  0.3155E+00
     26.050  0.4868E-02  0.3160E+00
     26.163  0.3694E-02  0.3165E+00
     26.276  0.4392E-02  0.3170E+00
     26.390  0.4300E-02  0.3174E+00
     26.503  0.2178E-02  0.3177E+00
     26.616  0.8876E-03  0.3178E+00
     26.729  0.4244E-03  0.3178E+00
     26.842 -0.5438E-04  0.3178E+00
     26.955 -0.3438E-03  0.3178E+00
     27.068  0.3016E-03  0.3178E+00
     27.182  0.3406E-02  0.3182E+00
     27.295  0.6784E-02  0.3190E+00
     27.408  0.5602E-02  0.3196E+00
     27.521  0.1702E-02  0.3198E+00
     27.634 -0.1812E-03  0.3198E+00
     27.747 -0.2122E-03  0.3198E+00
     27.860 -0.4412E-04  0.3198E+00
     27.974 -0.3946E-05  0.3198E+00
     28.087 -0.3508E-06  0.3198E+00
     28.200 -0.2941E-05  0.3198E+00
     28.313 -0.2140E-04  0.3198E+00
     28.426 -0.4839E-04  0.3198E+00
     28.539  0.1246E-03  0.3198E+00
     28.652  0.6870E-03  0.3198E+00
     28.766  0.9568E-03  0.3200E+00
     28.879  0.4660E-03  0.3200E+00
     28.992  0.1706E-04  0.3200E+00
     29.105 -0.4430E-04  0.3200E+00
     29.218 -0.1173E-04  0.3200E+00
     29.331 -0.1191E-05  0.3200E+00
     29.444 -0.5647E-07  0.3200E+00
     29.558 -0.1325E-08  0.3200E+00
     29.671 -0.1576E-10  0.3200E+00
     29.784 -0.9643E-13  0.3200E+00
     29.897 -0.3052E-15  0.3200E+00
     30.010 -0.4710E-18  0.3200E+00
     30.123  0.0000E+00  0.3200E+00
     30.236  0.0000E+00  0.3200E+00
     30.350  0.0000E+00  0.3200E+00
     30.463  0.0000E+00  0.3200E+00
     30.576  0.0000E+00  0.3200E+00
     30.689  0.0000E+00  0.3200E+00
