    1    1   50    1
  0.1533215E+02  0.2710660E-09  0.2710660E-09  0.2710660E-09  0.5000000E-15
  1.000000000000000E-004
  CAR 
 bcc W                                   
      6     44      8
 
  0.5000000E-01  0.5000000E-01  0.5000000E-01  0.8000000E-02
    1       -0.782294   1.000000
    2        6.565141   1.000000
    3        6.565141   1.000000
    4        7.807734   1.023604
    5       10.278910  -0.000000
    6       10.278910  -0.000000
    7       24.105738   0.000000
    8       25.096966   0.000000
 
  0.1500000E+00  0.5000000E-01  0.5000000E-01  0.2400000E-01
    1        0.460760   1.000000
    2        5.843386   1.000000
    3        6.129213   1.000000
    4        9.370449  -0.000000
    5        9.928777  -0.000000
    6       10.568962  -0.000000
    7       24.680176   0.000000
    8       26.300478   0.000000
 
  0.2500000E+00  0.5000000E-01  0.5000000E-01  0.2400000E-01
    1        1.743954   1.000000
    2        5.131552   1.000000
    3        6.124533   1.000000
    4       10.163460  -0.000000
    5       10.920533  -0.000000
    6       11.639761  -0.000000
    7       23.185884   0.000000
    8       24.139202   0.000000
 
  0.3500000E+00  0.5000000E-01  0.5000000E-01  0.2400000E-01
    1        2.066863   1.000000
    2        4.641123   1.000000
    3        7.554044   1.000203
    4       10.558284  -0.000000
    5       11.294410  -0.000000
    6       14.048118   0.000000
    7       20.987035   0.000000
    8       21.374620   0.000000
 
  0.4500000E+00  0.5000000E-01  0.5000000E-01  0.1200000E-01
    1        2.009961   1.000000
    2        4.468467   1.000000
    3        8.787388  -0.000015
    4       10.548860  -0.000000
    5       11.477331  -0.000000
    6       15.285700   0.000000
    7       19.501871   0.000000
    8       20.646399   0.000000
 
 -0.5000000E-01  0.5000000E-01  0.5000000E-01  0.6000000E-02
    1       -1.253265   1.000000
    2        6.902673   1.000000
    3        6.902673   1.000000
    4        7.043168   1.000000
    5       10.134558  -0.000000
    6       10.659715  -0.000000
    7       24.077756   0.000000
    8       24.077788   0.000000
 
  0.1500000E+00  0.1500000E+00  0.5000000E-01  0.2400000E-01
    1        1.822032   1.000000
    2        5.357290   1.000000
    3        5.410923   1.000000
    4       10.006823  -0.000000
    5       10.959752  -0.000000
    6       11.602309  -0.000000
    7       24.296743   0.000000
    8       25.355311   0.000000
 
  0.2500000E+00  0.1500000E+00  0.5000000E-01  0.4800000E-01
    1        2.800294   1.000000
    2        4.834129   1.000000
    3        5.844735   1.000000
    4       10.340172  -0.000000
    5       11.331241  -0.000000
    6       14.212124   0.000000
    7       21.484149   0.000000
    8       23.380139   0.000000
 
  0.3500000E+00  0.1500000E+00  0.5000000E-01  0.4800000E-01
    1        2.817614   1.000000
    2        4.588368   1.000000
    3        7.273412   1.000000
    4       10.650469  -0.000000
    5       11.570390  -0.000000
    6       16.348745   0.000000
    7       18.767029   0.000000
    8       21.836215   0.000000
 
 -0.1500000E+00  0.1500000E+00  0.5000000E-01  0.2400000E-01
    1       -0.331803   1.000000
    2        6.416368   1.000000
    3        6.723416   1.000000
    4        7.976681   0.974190
    5        9.403888  -0.000000
    6       10.862914  -0.000000
    7       24.679353   0.000000
    8       25.697618   0.000000
 
  0.2500000E+00  0.2500000E+00  0.5000000E-01  0.2400000E-01
    1        3.511046   1.000000
    2        4.917562   1.000000
    3        5.969430   1.000000
    4       10.685871  -0.000000
    5       11.475580  -0.000000
    6       16.922590   0.000000
    7       18.586085   0.000000
    8       22.741817   0.000000
 
  0.3500000E+00  0.2500000E+00  0.5000000E-01  0.2400000E-01
    1        3.589908   1.000000
    2        5.040584   1.000000
    3        6.296235   1.000000
    4       10.968882  -0.000000
    5       11.522145  -0.000000
    6       16.981874   0.000000
    7       18.699928   0.000000
    8       21.377284   0.000000
 
 -0.2500000E+00  0.2500000E+00  0.5000000E-01  0.2400000E-01
    1        1.066286   1.000000
    2        5.670987   1.000000
    3        6.308062   1.000000
    4        9.431656  -0.000000
    5        9.813627  -0.000000
    6       11.080831  -0.000000
    7       23.883288   0.000000
    8       25.787859   0.000000
 
 -0.1500000E+00  0.2500000E+00  0.5000000E-01  0.2400000E-01
    1        0.858298   1.000000
    2        6.161654   1.000000
    3        6.196407   1.000000
    4        8.795778  -0.000011
    5        9.279172  -0.000000
    6       11.299829  -0.000000
    7       24.993830   0.000000
    8       25.822592   0.000000
 
 -0.3500000E+00  0.3500000E+00  0.5000000E-01  0.2400000E-01
    1        1.875742   1.000000
    2        5.022525   1.000000
    3        6.857689   1.000000
    4       10.080190  -0.000000
    5       11.350290  -0.000000
    6       12.212846  -0.000000
    7       21.801822   0.000000
    8       23.183903   0.000000
 
 -0.2500000E+00  0.3500000E+00  0.5000000E-01  0.4800000E-01
    1        2.125407   1.000000
    2        5.418579   1.000000
    3        6.025183   1.000000
    4        9.150513  -0.000000
    5       11.297412  -0.000000
    6       11.768884  -0.000000
    7       22.652898   0.000000
    8       25.466142   0.000000
 
 -0.4500000E+00  0.4500000E+00  0.5000000E-01  0.2400000E-01
    1        1.885678   1.000000
    2        4.658999   1.000000
    3        8.294284  -0.000546
    4       10.269320  -0.000000
    5       11.908721  -0.000000
    6       14.334755   0.000000
    7       20.219410   0.000000
    8       21.074175   0.000000
 
 -0.3500000E+00  0.4500000E+00  0.5000000E-01  0.4800000E-01
    1        2.469747   1.000000
    2        5.034555   1.000000
    3        6.713707   1.000000
    4        9.803283  -0.000000
    5       11.821773  -0.000000
    6       14.148027   0.000000
    7       20.654896   0.000000
    8       23.063291   0.000000
 
 -0.2500000E+00  0.4500000E+00  0.5000000E-01  0.2400000E-01
    1        3.122561   1.000000
    2        4.865616   1.000000
    3        6.136579   1.000000
    4        9.490585  -0.000000
    5       11.446681  -0.000000
    6       14.344445   0.000000
    7       20.901403   0.000000
    8       24.777806   0.000000
 
 -0.4500000E+00 -0.4500000E+00  0.5000000E-01  0.2400000E-01
    1        2.402275   1.000000
    2        4.904166   1.000000
    3        7.374037   1.000001
    4        9.746586  -0.000000
    5       12.535100  -0.000000
    6       15.558011   0.000000
    7       19.277627   0.000000
    8       22.132659   0.000000
 
 -0.3500000E+00 -0.4500000E+00  0.5000000E-01  0.4800000E-01
    1        3.368699   1.000000
    2        4.936034   1.000000
    3        6.157080   1.000000
    4       10.046576  -0.000000
    5       11.779322  -0.000000
    6       17.055952   0.000000
    7       18.602940   0.000000
    8       22.722673   0.000000
 
 -0.3500000E+00 -0.3500000E+00  0.5000000E-01  0.8000000E-02
    1        3.947858   1.000000
    2        5.238379   1.000000
    3        5.238380   1.000000
    4       11.126272  -0.000000
    5       11.126273  -0.000000
    6       17.252077   0.000000
    7       20.207049   0.000000
    8       20.207049   0.000000
 
  0.1500000E+00  0.1500000E+00  0.1500000E+00  0.8000000E-02
    1        3.321591   1.000000
    2        4.851456   1.000000
    3        4.851456   1.000000
    4       10.911797  -0.000000
    5       10.911797  -0.000000
    6       14.354241   0.000000
    7       22.659037   0.000000
    8       24.059853   0.000000
 
  0.2500000E+00  0.1500000E+00  0.1500000E+00  0.2400000E-01
    1        3.884309   1.000000
    2        4.601323   1.000000
    3        5.755294   1.000000
    4       11.098219  -0.000000
    5       11.417047  -0.000000
    6       16.912134   0.000000
    7       18.782342   0.000000
    8       22.611218   0.000000
 
  0.3500000E+00  0.1500000E+00  0.1500000E+00  0.1200000E-01
    1        3.763423   1.000000
    2        4.529848   1.000000
    3        6.799224   1.000000
    4       11.186797  -0.000000
    5       11.575518  -0.000000
    6       16.994252   0.000000
    7       18.142775   0.000000
    8       22.052808   0.000000
 
 -0.1500000E+00  0.1500000E+00  0.1500000E+00  0.6000000E-02
    1        0.544293   1.000000
    2        6.937657   1.000000
    3        6.937657   1.000000
    4        7.844992   1.031696
    5        7.963371   0.992608
    6       11.516659  -0.000000
    7       26.251125   0.000000
    8       26.568062   0.000000
 
  0.2500000E+00  0.2500000E+00  0.1500000E+00  0.2400000E-01
    1        4.303830   1.000000
    2        5.110716   1.000000
    3        5.794075   1.000000
    4       11.425393  -0.000000
    5       11.565172  -0.000000
    6       16.299169   0.000000
    7       19.261192   0.000000
    8       21.518062   0.000000
 
 -0.2500000E+00  0.2500000E+00  0.1500000E+00  0.2400000E-01
    1        1.884411   1.000000
    2        6.100370   1.000000
    3        6.550042   1.000000
    4        7.950674   1.006569
    5        9.527795  -0.000000
    6       11.802811  -0.000000
    7       23.613419   0.000000
    8       27.320913   0.000000
 
 -0.3500000E+00  0.3500000E+00  0.1500000E+00  0.2400000E-01
    1        2.705866   1.000000
    2        5.649221   1.000000
    3        5.989906   1.000000
    4        8.923762  -0.000000
    5       11.928165  -0.000000
    6       12.158975  -0.000000
    7       21.972384   0.000000
    8       25.487149   0.000000
 
 -0.2500000E+00  0.3500000E+00  0.1500000E+00  0.2400000E-01
    1        3.020997   1.000000
    2        5.053363   1.000000
    3        6.814029   1.000000
    4        8.279623   0.017728
    5       10.955002  -0.000000
    6       12.233671  -0.000000
    7       22.605239   0.000000
    8       27.217582   0.000000
 
 -0.4500000E+00  0.4500000E+00  0.1500000E+00  0.2400000E-01
    1        2.647381   1.000000
    2        5.660304   1.000000
    3        6.244781   1.000000
    4        8.887697  -0.000000
    5       13.780076   0.000000
    6       14.111185   0.000000
    7       20.092671   0.000000
    8       23.809420   0.000000
 
 -0.3500000E+00  0.4500000E+00  0.1500000E+00  0.4800000E-01
    1        3.415428   1.000000
    2        4.804285   1.000000
    3        6.397059   1.000000
    4        9.030894  -0.000000
    5       11.989422  -0.000000
    6       14.589244   0.000000
    7       20.936348   0.000000
    8       24.765739   0.000000
 
 -0.4500000E+00 -0.4500000E+00  0.1500000E+00  0.2400000E-01
    1        3.261970   1.000000
    2        5.344582   1.000000
    3        5.855338   1.000000
    4        9.060491  -0.000000
    5       13.154939  -0.000000
    6       16.640112   0.000000
    7       18.847328   0.000000
    8       23.165931   0.000000
 
 -0.3500000E+00 -0.4500000E+00  0.1500000E+00  0.2400000E-01
    1        4.212182   1.000000
    2        4.292710   1.000000
    3        5.593854   1.000000
    4       10.454443  -0.000000
    5       11.830111  -0.000000
    6       17.632773   0.000000
    7       18.913378   0.000000
    8       21.979848   0.000000
 
  0.2500000E+00  0.2500000E+00  0.2500000E+00  0.2000000E-02
    1        5.217799   1.000000
    2        5.217799   1.000000
    3        5.217800   1.000000
    4       11.637737  -0.000000
    5       11.637737  -0.000000
    6       15.373664   0.000000
    7       21.137321   0.000000
    8       21.137321   0.000000
 
 -0.2500000E+00  0.2500000E+00  0.2500000E+00  0.6000000E-02
    1        3.002606   1.000000
    2        5.239856   1.000000
    3        7.705447   1.005715
    4        7.705447   1.005715
    5        9.666506  -0.000000
    6       11.912454  -0.000000
    7       23.435523   0.000000
    8       28.688938   0.000000
 
 -0.3500000E+00  0.3500000E+00  0.2500000E+00  0.2400000E-01
    1        3.591704   1.000000
    2        4.288838   1.000000
    3        7.765809   1.014509
    4        8.486456  -0.014231
    5       11.570222  -0.000000
    6       12.475145  -0.000000
    7       23.203403   0.000000
    8       26.029386   0.000000
 
 -0.4500000E+00  0.4500000E+00  0.2500000E+00  0.2400000E-01
    1        3.251868   1.000000
    2        4.360672   1.000000
    3        7.565592   1.000275
    4        8.460499  -0.019629
    5       13.767929   0.000000
    6       15.032124   0.000000
    7       20.080306   0.000000
    8       23.310800   0.000000
 
 -0.3500000E+00  0.4500000E+00  0.2500000E+00  0.2400000E-01
    1        3.511056   1.000000
    2        3.711314   1.000000
    3        7.687625   1.004144
    4        9.877145  -0.000000
    5       12.173846  -0.000000
    6       14.834539   0.000000
    7       21.229042   0.000000
    8       23.118415   0.000000
 
 -0.4500000E+00 -0.4500000E+00  0.2500000E+00  0.2400000E-01
    1        3.262370   1.000000
    2        3.675739   1.000000
    3        7.432045   1.000005
    4       10.489940  -0.000000
    5       13.013554  -0.000000
    6       17.748805   0.000000
    7       18.415600   0.000000
    8       21.131176   0.000000
 
 -0.3500000E+00  0.3500000E+00  0.3500000E+00  0.6000000E-02
    1        3.264878   1.000000
    2        3.459119   1.000000
    3        9.656631  -0.000000
    4        9.656632  -0.000000
    5       11.771988  -0.000000
    6       12.982383  -0.000000
    7       23.431539   0.000000
    8       23.431540   0.000000
 
 -0.4500000E+00  0.4500000E+00  0.3500000E+00  0.2400000E-01
    1        2.760341   1.000000
    2        3.023633   1.000000
    3       10.145059  -0.000000
    4       10.314163  -0.000000
    5       13.452802  -0.000000
    6       15.502685   0.000000
    7       19.761838   0.000000
    8       20.894717   0.000000
 
 -0.4500000E+00 -0.4500000E+00  0.3500000E+00  0.8000000E-02
    1        2.599395   1.000000
    2        2.599395   1.000000
    3       10.178572  -0.000000
    4       12.766958  -0.000000
    5       12.766959  -0.000000
    6       18.228739   0.000000
    7       18.233565   0.000000
    8       18.233565   0.000000
 
 -0.4500000E+00  0.4500000E+00  0.4500000E+00  0.6000000E-02
    1        2.229403   1.000000
    2        2.305474   1.000000
    3       12.663523  -0.000000
    4       12.663523  -0.000000
    5       13.419431  -0.000000
    6       16.231216   0.000000
    7       18.332707   0.000000
    8       18.332708   0.000000
