       N       E                     dE             d eps       ncg     rms          rms(c)
DAV:   1    -0.705475987327E+01   -0.70548E+01   -0.21316E+03   792   0.363E+02
DAV:   2    -0.148554312245E+02   -0.78007E+01   -0.75261E+01   872   0.774E+01
DAV:   3    -0.149055731444E+02   -0.50142E-01   -0.49944E-01   880   0.617E+00
DAV:   4    -0.149056057480E+02   -0.32604E-04   -0.32602E-04   976   0.125E-01
DAV:   5    -0.149056057534E+02   -0.53984E-08   -0.61802E-08   784   0.132E-03    0.409E+00
DAV:   6    -0.143997161412E+02    0.50589E+00   -0.40606E-01   776   0.407E+00    0.211E+00
DAV:   7    -0.142149703480E+02    0.18475E+00   -0.44442E-01   824   0.417E+00    0.254E-01
DAV:   8    -0.142133555090E+02    0.16148E-02   -0.10257E-02   848   0.712E-01    0.137E-01
DAV:   9    -0.142125552428E+02    0.80027E-03   -0.24597E-03   784   0.326E-01    0.575E-03
DAV:  10    -0.142125579233E+02   -0.26805E-05   -0.15602E-05   384   0.350E-02
   1 F= -.14212558E+02 E0= -.14213283E+02  d E =-.142126E+02
       N       E                     dE             d eps       ncg     rms          rms(c)
DAV:   1    -0.142101845440E+02    0.23707E-02   -0.25720E-01   744   0.395E+00    0.269E-01
DAV:   2    -0.142068688129E+02    0.33157E-02   -0.31114E-03   800   0.390E-01    0.128E-01
DAV:   3    -0.142057754301E+02    0.10934E-02   -0.27995E-03   792   0.333E-01    0.785E-03
DAV:   4    -0.142057799718E+02   -0.45417E-05   -0.18548E-05   360   0.314E-02
   2 F= -.14205780E+02 E0= -.14206647E+02  d E =0.677795E-02
       N       E                     dE             d eps       ncg     rms          rms(c)
DAV:   1    -0.142158818838E+02   -0.10106E-01   -0.16032E-01   752   0.308E+00    0.214E-01
DAV:   2    -0.142137638747E+02    0.21180E-02   -0.20629E-03   784   0.318E-01    0.102E-01
DAV:   3    -0.142130766479E+02    0.68723E-03   -0.18319E-03   832   0.265E-01    0.671E-03
DAV:   4    -0.142130813307E+02   -0.46828E-05   -0.13229E-05   360   0.263E-02
   3 F= -.14213081E+02 E0= -.14213852E+02  d E =-.523407E-03
