<?xml version="1.0" encoding="ISO-8859-1"?>
<modeling>
 <generator>
  <i name="program" type="string">vasp </i>
  <i name="version" type="string">5.4.4.18Apr17-6-g9f103f2a35  </i>
  <i name="subversion" type="string">(build Jul 01 2019 03:25:34) complex            parallel </i>
  <i name="platform" type="string">LinuxIFC </i>
  <i name="date" type="string">2020 07 08 </i>
  <i name="time" type="string">19:33:15 </i>
 </generator>
 <incar>
  <i type="string" name="SYSTEM"> bcc W</i>
  <i type="string" name="PREC">high</i>
  <i type="int" name="IBRION">     2</i>
  <i name="EDIFF">      0.00010000</i>
  <i name="EDIFFG">      0.00100000</i>
  <i type="int" name="NSW">    50</i>
  <i type="int" name="ISIF">     3</i>
  <v type="int" name="KPOINT_BSE">    -1     0     0     0</v>
 </incar>
 <structure name="primitive_cell" >
  <crystal>
   <varray name="basis" >
    <v>      -1.56500000       1.56500000       1.56500000 </v>
    <v>       1.56500000      -1.56500000       1.56500000 </v>
    <v>       1.56500000       1.56500000      -1.56500000 </v>
   </varray>
   <i name="volume">     15.33214850 </i>
   <varray name="rec_basis" >
    <v>       0.00000000       0.31948882       0.31948882 </v>
    <v>       0.31948882       0.00000000       0.31948882 </v>
    <v>       0.31948882       0.31948882       0.00000000 </v>
   </varray>
  </crystal>
  <varray name="positions" >
   <v>       0.00000000       0.00000000       0.00000000 </v>
  </varray>
 </structure>
 <varray name="primitive_index" >
  <v type="int" >        1 </v>
 </varray>
 <kpoints>
  <generation param="Monkhorst-Pack">
   <v type="int" name="divisions">      10       10       10 </v>
   <v name="usershift">      0.00000000       0.00000000       0.00000000 </v>
   <v name="genvec1">      0.10000000       0.00000000       0.00000000 </v>
   <v name="genvec2">      0.00000000       0.10000000       0.00000000 </v>
   <v name="genvec3">      0.00000000       0.00000000       0.10000000 </v>
   <v name="shift">      0.50000000       0.50000000       0.50000000 </v>
  </generation>
  <varray name="kpointlist" >
   <v>       0.05000000       0.05000000       0.05000000 </v>
   <v>       0.15000000       0.05000000       0.05000000 </v>
   <v>       0.25000000       0.05000000       0.05000000 </v>
   <v>       0.35000000       0.05000000       0.05000000 </v>
   <v>       0.45000000       0.05000000       0.05000000 </v>
   <v>      -0.05000000       0.05000000       0.05000000 </v>
   <v>       0.15000000       0.15000000       0.05000000 </v>
   <v>       0.25000000       0.15000000       0.05000000 </v>
   <v>       0.35000000       0.15000000       0.05000000 </v>
   <v>      -0.15000000       0.15000000       0.05000000 </v>
   <v>       0.25000000       0.25000000       0.05000000 </v>
   <v>       0.35000000       0.25000000       0.05000000 </v>
   <v>      -0.25000000       0.25000000       0.05000000 </v>
   <v>      -0.15000000       0.25000000       0.05000000 </v>
   <v>      -0.35000000       0.35000000       0.05000000 </v>
   <v>      -0.25000000       0.35000000       0.05000000 </v>
   <v>      -0.45000000       0.45000000       0.05000000 </v>
   <v>      -0.35000000       0.45000000       0.05000000 </v>
   <v>      -0.25000000       0.45000000       0.05000000 </v>
   <v>      -0.45000000      -0.45000000       0.05000000 </v>
   <v>      -0.35000000      -0.45000000       0.05000000 </v>
   <v>      -0.35000000      -0.35000000       0.05000000 </v>
   <v>       0.15000000       0.15000000       0.15000000 </v>
   <v>       0.25000000       0.15000000       0.15000000 </v>
   <v>       0.35000000       0.15000000       0.15000000 </v>
   <v>      -0.15000000       0.15000000       0.15000000 </v>
   <v>       0.25000000       0.25000000       0.15000000 </v>
   <v>      -0.25000000       0.25000000       0.15000000 </v>
   <v>      -0.35000000       0.35000000       0.15000000 </v>
   <v>      -0.25000000       0.35000000       0.15000000 </v>
   <v>      -0.45000000       0.45000000       0.15000000 </v>
   <v>      -0.35000000       0.45000000       0.15000000 </v>
   <v>      -0.45000000      -0.45000000       0.15000000 </v>
   <v>      -0.35000000      -0.45000000       0.15000000 </v>
   <v>       0.25000000       0.25000000       0.25000000 </v>
   <v>      -0.25000000       0.25000000       0.25000000 </v>
   <v>      -0.35000000       0.35000000       0.25000000 </v>
   <v>      -0.45000000       0.45000000       0.25000000 </v>
   <v>      -0.35000000       0.45000000       0.25000000 </v>
   <v>      -0.45000000      -0.45000000       0.25000000 </v>
   <v>      -0.35000000       0.35000000       0.35000000 </v>
   <v>      -0.45000000       0.45000000       0.35000000 </v>
   <v>      -0.45000000      -0.45000000       0.35000000 </v>
   <v>      -0.45000000       0.45000000       0.45000000 </v>
  </varray>
  <varray name="weights" >
   <v>       0.00800000 </v>
   <v>       0.02400000 </v>
   <v>       0.02400000 </v>
   <v>       0.02400000 </v>
   <v>       0.01200000 </v>
   <v>       0.00600000 </v>
   <v>       0.02400000 </v>
   <v>       0.04800000 </v>
   <v>       0.04800000 </v>
   <v>       0.02400000 </v>
   <v>       0.02400000 </v>
   <v>       0.02400000 </v>
   <v>       0.02400000 </v>
   <v>       0.02400000 </v>
   <v>       0.02400000 </v>
   <v>       0.04800000 </v>
   <v>       0.02400000 </v>
   <v>       0.04800000 </v>
   <v>       0.02400000 </v>
   <v>       0.02400000 </v>
   <v>       0.04800000 </v>
   <v>       0.00800000 </v>
   <v>       0.00800000 </v>
   <v>       0.02400000 </v>
   <v>       0.01200000 </v>
   <v>       0.00600000 </v>
   <v>       0.02400000 </v>
   <v>       0.02400000 </v>
   <v>       0.02400000 </v>
   <v>       0.02400000 </v>
   <v>       0.02400000 </v>
   <v>       0.04800000 </v>
   <v>       0.02400000 </v>
   <v>       0.02400000 </v>
   <v>       0.00200000 </v>
   <v>       0.00600000 </v>
   <v>       0.02400000 </v>
   <v>       0.02400000 </v>
   <v>       0.02400000 </v>
   <v>       0.02400000 </v>
   <v>       0.00600000 </v>
   <v>       0.02400000 </v>
   <v>       0.00800000 </v>
   <v>       0.00600000 </v>
  </varray>
 </kpoints>
 <parameters>
  <separator name="general" >
   <i type="string" name="SYSTEM">bcc W</i>
   <i type="logical" name="LCOMPAT"> F  </i>
  </separator>
  <separator name="electronic" >
   <i type="string" name="PREC">high</i>
   <i name="ENMAX">    278.90750000</i>
   <i name="ENAUG">    373.43800000</i>
   <i name="EDIFF">      0.00010000</i>
   <i type="int" name="IALGO">    38</i>
   <i type="int" name="IWAVPR">    11</i>
   <i type="int" name="NBANDS">     8</i>
   <i name="NELECT">      6.00000000</i>
   <i type="int" name="TURBO">     0</i>
   <i type="int" name="IRESTART">     0</i>
   <i type="int" name="NREBOOT">     0</i>
   <i type="int" name="NMIN">     0</i>
   <i name="EREF">      0.00000000</i>
   <separator name="electronic smearing" >
    <i type="int" name="ISMEAR">     1</i>
    <i name="SIGMA">      0.20000000</i>
    <i name="KSPACING">      0.50000000</i>
    <i type="logical" name="KGAMMA"> T  </i>
   </separator>
   <separator name="electronic projectors" >
    <i type="logical" name="LREAL"> F  </i>
    <v name="ROPT">      0.00000000</v>
    <i type="int" name="LMAXPAW">  -100</i>
    <i type="int" name="LMAXMIX">     2</i>
    <i type="logical" name="NLSPLINE"> F  </i>
   </separator>
   <separator name="electronic startup" >
    <i type="int" name="ISTART">     0</i>
    <i type="int" name="ICHARG">     2</i>
    <i type="int" name="INIWAV">     1</i>
   </separator>
   <separator name="electronic spin" >
    <i type="int" name="ISPIN">     1</i>
    <i type="logical" name="LNONCOLLINEAR"> F  </i>
    <v name="MAGMOM">      1.00000000</v>
    <i name="NUPDOWN">     -1.00000000</i>
    <i type="logical" name="LSORBIT"> F  </i>
    <v name="SAXIS">      0.00000000      0.00000000      1.00000000</v>
    <i type="logical" name="LSPIRAL"> F  </i>
    <v name="QSPIRAL">      0.00000000      0.00000000      0.00000000</v>
    <i type="logical" name="LZEROZ"> F  </i>
   </separator>
   <separator name="electronic exchange-correlation" >
    <i type="logical" name="LASPH"> F  </i>
    <i type="logical" name="LMETAGGA"> F  </i>
   </separator>
   <separator name="electronic convergence" >
    <i type="int" name="NELM">    60</i>
    <i type="int" name="NELMDL">    -5</i>
    <i type="int" name="NELMIN">     2</i>
    <i name="ENINI">    278.90750000</i>
    <separator name="electronic convergence detail" >
     <i type="logical" name="LDIAG"> T  </i>
     <i type="logical" name="LSUBROT"> F  </i>
     <i name="WEIMIN">      0.00100000</i>
     <i name="EBREAK">      0.00000313</i>
     <i name="DEPER">      0.30000000</i>
     <i type="int" name="NRMM">     4</i>
     <i name="TIME">      0.40000000</i>
    </separator>
   </separator>
   <separator name="electronic mixer" >
    <i name="AMIX">      0.40000000</i>
    <i name="BMIX">      1.00000000</i>
    <i name="AMIN">      0.10000000</i>
    <i name="AMIX_MAG">      1.60000000</i>
    <i name="BMIX_MAG">      1.00000000</i>
    <separator name="electronic mixer details" >
     <i type="int" name="IMIX">     4</i>
     <i type="logical" name="MIXFIRST"> F  </i>
     <i type="int" name="MAXMIX">   -45</i>
     <i name="WC">    100.00000000</i>
     <i type="int" name="INIMIX">     1</i>
     <i type="int" name="MIXPRE">     1</i>
     <i type="int" name="MREMOVE">     5</i>
    </separator>
   </separator>
   <separator name="electronic dipolcorrection" >
    <i type="logical" name="LDIPOL"> F  </i>
    <i type="logical" name="LMONO"> F  </i>
    <i type="int" name="IDIPOL">     0</i>
    <i name="EPSILON">      1.00000000</i>
    <v name="DIPOL">   -100.00000000   -100.00000000   -100.00000000</v>
    <i name="EFIELD">      0.00000000</i>
   </separator>
  </separator>
  <separator name="grids" >
   <i type="int" name="NGX">    16</i>
   <i type="int" name="NGY">    16</i>
   <i type="int" name="NGZ">    16</i>
   <i type="int" name="NGXF">    24</i>
   <i type="int" name="NGYF">    24</i>
   <i type="int" name="NGZF">    24</i>
   <i type="logical" name="ADDGRID"> F  </i>
  </separator>
  <separator name="ionic" >
   <i type="int" name="NSW">    50</i>
   <i type="int" name="IBRION">     2</i>
   <i type="int" name="MDALGO">     0</i>
   <i type="int" name="ISIF">     3</i>
   <i name="PSTRESS">      0.00000000</i>
   <i name="EDIFFG">      0.00100000</i>
   <i type="int" name="NFREE">     1</i>
   <i name="POTIM">      0.50000000</i>
   <i name="SMASS">     -3.00000000</i>
   <i name="SCALEE">      1.00000000</i>
  </separator>
  <separator name="ionic md" >
   <i name="TEBEG">      0.00010000</i>
   <i name="TEEND">      0.00010000</i>
   <i type="int" name="NBLOCK">     1</i>
   <i type="int" name="KBLOCK">    50</i>
   <i type="int" name="NPACO">   256</i>
   <i name="APACO">     16.00000000</i>
  </separator>
  <separator name="symmetry" >
   <i type="int" name="ISYM">     2</i>
   <i name="SYMPREC">      0.00001000</i>
  </separator>
  <separator name="dos" >
   <i type="int" name="LORBIT">     0</i>
   <v name="RWIGS">     -1.00000000</v>
   <i type="int" name="NEDOS">   301</i>
   <i name="EMIN">     10.00000000</i>
   <i name="EMAX">    -10.00000000</i>
   <i name="EFERMI">      0.00000000</i>
  </separator>
  <separator name="writing" >
   <i type="int" name="NWRITE">     2</i>
   <i type="logical" name="LWAVE"> T  </i>
   <i type="logical" name="LDOWNSAMPLE"> F  </i>
   <i type="logical" name="LCHARG"> T  </i>
   <i type="logical" name="LPARD"> F  </i>
   <i type="logical" name="LVTOT"> F  </i>
   <i type="logical" name="LVHAR"> F  </i>
   <i type="logical" name="LELF"> F  </i>
   <i type="logical" name="LOPTICS"> F  </i>
   <v name="STM">      0.00000000      0.00000000      0.00000000      0.00000000      0.00000000      0.00000000      0.00000000</v>
  </separator>
  <separator name="performance" >
   <i type="int" name="NPAR">     4</i>
   <i type="int" name="NSIM">     4</i>
   <i type="int" name="NBLK">    -1</i>
   <i type="logical" name="LPLANE"> T  </i>
   <i type="logical" name="LSCALAPACK"> T  </i>
   <i type="logical" name="LSCAAWARE"> F  </i>
   <i type="logical" name="LSCALU"> F  </i>
   <i type="logical" name="LASYNC"> F  </i>
   <i type="logical" name="LORBITALREAL"> F  </i>
  </separator>
  <separator name="miscellaneous" >
   <i type="int" name="IDIOT">     3</i>
   <i type="int" name="ISPECIAL">     0</i>
   <i type="logical" name="LMUSIC"> F  </i>
   <v name="POMASS">    183.85000000</v>
   <v name="DARWINR">      0.00000000</v>
   <v name="DARWINV">      1.00000000</v>
   <i type="logical" name="LCORR"> T  </i>
  </separator>
  <i type="logical" name="GGA_COMPAT"> T  </i>
  <i type="logical" name="LBERRY"> F  </i>
  <i type="int" name="ICORELEVEL">     0</i>
  <i type="logical" name="LDAU"> F  </i>
  <i type="int" name="I_CONSTRAINED_M">     0</i>
  <separator name="electronic exchange-correlation" >
   <i type="string" name="GGA">--</i>
   <i type="int" name="VOSKOWN">     0</i>
   <i type="logical" name="LHFCALC"> F  </i>
   <i type="string" name="PRECFOCK"></i>
   <i type="logical" name="LSYMGRAD"> F  </i>
   <i type="logical" name="LHFONE"> F  </i>
   <i type="logical" name="LRHFCALC"> F  </i>
   <i type="logical" name="LTHOMAS"> F  </i>
   <i type="logical" name="LMODELHF"> F  </i>
   <i name="ENCUT4O">     -1.00000000</i>
   <i type="int" name="EXXOEP">     0</i>
   <i type="int" name="FOURORBIT">     0</i>
   <i name="AEXX">      0.00000000</i>
   <i name="HFALPHA">      0.00000000</i>
   <i name="MCALPHA">      0.00000000</i>
   <i name="ALDAX">      1.00000000</i>
   <i name="AGGAX">      1.00000000</i>
   <i name="ALDAC">      1.00000000</i>
   <i name="AGGAC">      1.00000000</i>
   <i type="int" name="NKREDX">     1</i>
   <i type="int" name="NKREDY">     1</i>
   <i type="int" name="NKREDZ">     1</i>
   <i type="logical" name="SHIFTRED"> F  </i>
   <i type="logical" name="ODDONLY"> F  </i>
   <i type="logical" name="EVENONLY"> F  </i>
   <i type="int" name="LMAXFOCK">     0</i>
   <i type="int" name="NMAXFOCKAE">     0</i>
   <i type="logical" name="LFOCKAEDFT"> F  </i>
   <i name="HFSCREEN">      0.00000000</i>
   <i name="HFSCREENC">      0.00000000</i>
   <i type="int" name="NBANDSGWLOW">     0</i>
  </separator>
  <separator name="vdW DFT" >
   <i type="logical" name="LUSE_VDW"> F  </i>
   <i name="Zab_VDW">     -0.84910000</i>
   <i name="PARAM1">      0.12340000</i>
   <i name="PARAM2">      1.00000000</i>
   <i name="PARAM3">      0.00000000</i>
  </separator>
  <separator name="model GW" >
   <i type="int" name="MODEL_GW">     0</i>
   <i name="MODEL_EPS0">      9.19928910</i>
   <i name="MODEL_ALPHA">      1.00000000</i>
  </separator>
  <separator name="linear response parameters" >
   <i type="logical" name="LEPSILON"> F  </i>
   <i type="logical" name="LRPA"> F  </i>
   <i type="logical" name="LNABLA"> F  </i>
   <i type="logical" name="LVEL"> F  </i>
   <i type="int" name="KINTER">     0</i>
   <i name="CSHIFT">      0.10000000</i>
   <i name="OMEGAMAX">     -1.00000000</i>
   <i name="DEG_THRESHOLD">      0.00200000</i>
   <i name="RTIME">     -0.10000000</i>
   <i name="WPLASMAI">      0.00000000</i>
   <v name="DFIELD">      0.00000000      0.00000000      0.00000000</v>
   <v name="WPLASMA">      0.00000000      0.00000000      0.00000000      0.00000000      0.00000000      0.00000000      0.00000000      0.00000000      0.00000000</v>
  </separator>
  <separator name="orbital magnetization" >
   <i type="logical" name="NUCIND"> F  </i>
   <v name="MAGPOS">      0.00000000      0.00000000      0.00000000</v>
   <i type="logical" name="LNICSALL"> T  </i>
   <i type="logical" name="ORBITALMAG"> F  </i>
   <i type="logical" name="LMAGBLOCH"> F  </i>
   <i type="logical" name="LCHIMAG"> F  </i>
   <i type="logical" name="LGAUGE"> T  </i>
   <i type="int" name="MAGATOM">     0</i>
   <v name="MAGDIPOL">      0.00000000      0.00000000      0.00000000</v>
   <v name="AVECCONST">      0.00000000      0.00000000      0.00000000</v>
  </separator>
  <separator name="response functions" >
   <i type="logical" name="LADDER"> F  </i>
   <i type="logical" name="LRPAFORCE"> F  </i>
   <i type="logical" name="LFXC"> F  </i>
   <i type="logical" name="LHARTREE"> T  </i>
   <i type="int" name="IBSE">     0</i>
   <v type="int" name="KPOINT">    -1     0     0     0</v>
   <i type="logical" name="LTCTE"> F  </i>
   <i type="logical" name="LTETE"> F  </i>
   <i type="logical" name="LTRIPLET"> F  </i>
   <i type="logical" name="LFXCEPS"> F  </i>
   <i type="logical" name="LFXHEG"> F  </i>
   <i type="int" name="NATURALO">     2</i>
   <i type="logical" name="L2ORDER"> F  </i>
   <i type="logical" name="LMP2LT"> F  </i>
   <i type="logical" name="LUSEW"> F  </i>
   <i name="ENCUTGW">     -2.00000000</i>
   <i name="ENCUTGWSOFT">     -2.00000000</i>
   <i name="ENCUTLF">     -1.00000000</i>
   <i type="int" name="LMAXMP2">    -1</i>
   <i name="SCISSOR">      0.00000000</i>
   <i type="int" name="NOMEGA">     0</i>
   <i type="int" name="NOMEGAR">     0</i>
   <i type="int" name="NBANDSGW">    -1</i>
   <i type="int" name="NBANDSO">    -1</i>
   <i type="int" name="NBANDSV">    -1</i>
   <i type="int" name="NELM">     1</i>
   <i type="int" name="NELMHF">     1</i>
   <i type="int" name="DIM">     3</i>
   <i type="int" name="ANTIRES">     0</i>
   <i name="OMEGAMAX">    -30.00000000</i>
   <i name="OMEGAMIN">    -30.00000000</i>
   <i name="OMEGATL">   -200.00000000</i>
   <i type="int" name="OMEGAGRID">   140</i>
   <i name="CSHIFT">     -0.10000000</i>
   <i type="logical" name="SELFENERGY"> F  </i>
   <i type="logical" name="LSPECTRAL"> F  </i>
   <i type="logical" name="LSPECTRALGW"> F  </i>
   <i type="logical" name="LSINGLES"> F  </i>
   <i type="logical" name="LFERMIGW"> F  </i>
   <i type="logical" name="ODDONLYGW"> F  </i>
   <i type="logical" name="EVENONLYGW"> F  </i>
   <i type="int" name="NKREDLFX">     1</i>
   <i type="int" name="NKREDLFY">     1</i>
   <i type="int" name="NKREDLFZ">     1</i>
   <i type="int" name="MAXMEM">  2800</i>
   <i type="int" name="TELESCOPE">     0</i>
   <i type="int" name="TAUPAR">     1</i>
   <i type="int" name="OMEGAPAR">    -1</i>
   <i name="LAMBDA">      1.00000000</i>
  </separator>
  <separator name="External order field" >
   <i name="OFIELD_KAPPA">      0.00000000</i>
   <v name="OFIELD_K">      0.00000000      0.00000000      0.00000000</v>
   <i name="OFIELD_Q6_NEAR">      0.00000000</i>
   <i name="OFIELD_Q6_FAR">      0.00000000</i>
   <i name="OFIELD_A">      0.00000000</i>
  </separator>
 </parameters>
 <atominfo>
  <atoms>       1 </atoms>
  <types>       1 </types>
  <array name="atoms" >
   <dimension dim="1">ion</dimension>
   <field type="string">element</field>
   <field type="int">atomtype</field>
   <set>
    <rc><c>W </c><c>   1</c></rc>
   </set>
  </array>
  <array name="atomtypes" >
   <dimension dim="1">type</dimension>
   <field type="int">atomspertype</field>
   <field type="string">element</field>
   <field>mass</field>
   <field>valence</field>
   <field type="string">pseudopotential</field>
   <set>
    <rc><c>   1</c><c>W </c><c>    183.85000000</c><c>      6.00000000</c><c> PAW W 19Jan2001                        </c></rc>
   </set>
  </array>
 </atominfo>
 <structure name="initialpos" >
  <crystal>
   <varray name="basis" >
    <v>      -1.56500000       1.56500000       1.56500000 </v>
    <v>       1.56500000      -1.56500000       1.56500000 </v>
    <v>       1.56500000       1.56500000      -1.56500000 </v>
   </varray>
   <i name="volume">     15.33214850 </i>
   <varray name="rec_basis" >
    <v>       0.00000000       0.31948882       0.31948882 </v>
    <v>       0.31948882       0.00000000       0.31948882 </v>
    <v>       0.31948882       0.31948882       0.00000000 </v>
   </varray>
  </crystal>
  <varray name="positions" >
   <v>       0.00000000       0.00000000       0.00000000 </v>
  </varray>
 </structure>
 <calculation>
  <scstep>
   <time name="dav">    0.04    0.05</time>
   <time name="total">    0.04    0.06</time>
   <energy>
    <i name="alphaZ">     45.52730624 </i>
    <i name="ewald">   -301.36593230 </i>
    <i name="hartreedc">     -5.48154004 </i>
    <i name="XCdc">    -47.27347266 </i>
    <i name="pawpsdc">    183.53490256 </i>
    <i name="pawaedc">   -125.80866524 </i>
    <i name="eentropy">      0.00056766 </i>
    <i name="bandstr">     37.29575426 </i>
    <i name="atom">    206.51631966 </i>
    <i name="e_fr_energy">     -7.05475987 </i>
    <i name="e_wo_entrp">     -7.05532753 </i>
    <i name="e_0_energy">     -7.05494909 </i>
   </energy>
  </scstep>
  <scstep>
   <time name="dav">    0.04    0.04</time>
   <time name="total">    0.04    0.04</time>
   <energy>
    <i name="e_fr_energy">    -14.85543122 </i>
    <i name="e_wo_entrp">    -14.85485559 </i>
    <i name="e_0_energy">    -14.85523935 </i>
   </energy>
  </scstep>
  <scstep>
   <time name="dav">    0.04    0.04</time>
   <time name="total">    0.04    0.04</time>
   <energy>
    <i name="e_fr_energy">    -14.90557314 </i>
    <i name="e_wo_entrp">    -14.90555012 </i>
    <i name="e_0_energy">    -14.90556547 </i>
   </energy>
  </scstep>
  <scstep>
   <time name="dav">    0.04    0.04</time>
   <time name="total">    0.04    0.04</time>
   <energy>
    <i name="e_fr_energy">    -14.90560575 </i>
    <i name="e_wo_entrp">    -14.90558420 </i>
    <i name="e_0_energy">    -14.90559856 </i>
   </energy>
  </scstep>
  <scstep>
   <time name="dav">    0.03    0.03</time>
   <time name="total">    0.04    0.04</time>
   <energy>
    <i name="e_fr_energy">    -14.90560575 </i>
    <i name="e_wo_entrp">    -14.90558420 </i>
    <i name="e_0_energy">    -14.90559857 </i>
   </energy>
  </scstep>
  <scstep>
   <time name="dav">    0.03    0.03</time>
   <time name="total">    0.04    0.04</time>
   <energy>
    <i name="e_fr_energy">    -14.39971614 </i>
    <i name="e_wo_entrp">    -14.39892239 </i>
    <i name="e_0_energy">    -14.39945156 </i>
   </energy>
  </scstep>
  <scstep>
   <time name="dav">    0.03    0.03</time>
   <time name="total">    0.04    0.04</time>
   <energy>
    <i name="e_fr_energy">    -14.21497035 </i>
    <i name="e_wo_entrp">    -14.21718048 </i>
    <i name="e_0_energy">    -14.21570706 </i>
   </energy>
  </scstep>
  <scstep>
   <time name="dav">    0.04    0.04</time>
   <time name="total">    0.04    0.04</time>
   <energy>
    <i name="e_fr_energy">    -14.21335551 </i>
    <i name="e_wo_entrp">    -14.21527158 </i>
    <i name="e_0_energy">    -14.21399420 </i>
   </energy>
  </scstep>
  <scstep>
   <time name="dav">    0.03    0.03</time>
   <time name="total">    0.04    0.04</time>
   <energy>
    <i name="e_fr_energy">    -14.21255524 </i>
    <i name="e_wo_entrp">    -14.21472797 </i>
    <i name="e_0_energy">    -14.21327949 </i>
   </energy>
  </scstep>
  <scstep>
   <time name="dav">    0.02    0.02</time>
   <time name="total">    0.02    0.02</time>
   <energy>
    <i name="alphaZ">     45.52730624 </i>
    <i name="ewald">   -301.36593230 </i>
    <i name="hartreedc">     -2.14682713 </i>
    <i name="XCdc">    -46.82102959 </i>
    <i name="pawpsdc">    248.24565038 </i>
    <i name="pawaedc">   -192.16198510 </i>
    <i name="eentropy">      0.00217597 </i>
    <i name="bandstr">     27.99176396 </i>
    <i name="atom">    206.51631966 </i>
    <i name="e_fr_energy">    -14.21255792 </i>
    <i name="e_wo_entrp">    -14.21473389 </i>
    <i name="e_0_energy">    -14.21328325 </i>
   </energy>
  </scstep>
  <structure>
   <crystal>
    <varray name="basis" >
     <v>      -1.56500000       1.56500000       1.56500000 </v>
     <v>       1.56500000      -1.56500000       1.56500000 </v>
     <v>       1.56500000       1.56500000      -1.56500000 </v>
    </varray>
    <i name="volume">     15.33214850 </i>
    <varray name="rec_basis" >
     <v>       0.00000000       0.31948882       0.31948882 </v>
     <v>       0.31948882       0.00000000       0.31948882 </v>
     <v>       0.31948882       0.31948882       0.00000000 </v>
    </varray>
   </crystal>
   <varray name="positions" >
    <v>       0.00000000       0.00000000       0.00000000 </v>
   </varray>
  </structure>
  <varray name="forces" >
   <v>       0.00000000       0.00000000       0.00000000 </v>
  </varray>
  <varray name="stress" >
   <v>     -19.07562988      -0.00000000       0.00000000 </v>
   <v>      -0.00000000     -19.07562988      -0.00000000 </v>
   <v>       0.00000000      -0.00000000     -19.07562988 </v>
  </varray>
  <energy>
   <i name="e_fr_energy">    -14.21255792 </i>
   <i name="e_wo_entrp">    -14.21328325 </i>
   <i name="e_0_energy">      0.00217597 </i>
  </energy>
  <time name="totalsc">    0.43    0.46</time>
 </calculation>
 <calculation>
  <scstep>
   <time name="dav">    0.03    0.03</time>
   <time name="total">    0.04    0.04</time>
   <energy>
    <i name="alphaZ">     46.75161271 </i>
    <i name="ewald">   -304.04348618 </i>
    <i name="hartreedc">     -2.16824452 </i>
    <i name="XCdc">    -46.80210391 </i>
    <i name="pawpsdc">    248.41430032 </i>
    <i name="pawaedc">   -192.32827231 </i>
    <i name="eentropy">      0.00210405 </i>
    <i name="bandstr">     29.44758563 </i>
    <i name="atom">    206.51631966 </i>
    <i name="e_fr_energy">    -14.21018454 </i>
    <i name="e_wo_entrp">    -14.21228860 </i>
    <i name="e_0_energy">    -14.21088589 </i>
   </energy>
  </scstep>
  <scstep>
   <time name="dav">    0.03    0.03</time>
   <time name="total">    0.04    0.04</time>
   <energy>
    <i name="e_fr_energy">    -14.20686881 </i>
    <i name="e_wo_entrp">    -14.20927065 </i>
    <i name="e_0_energy">    -14.20766942 </i>
   </energy>
  </scstep>
  <scstep>
   <time name="dav">    0.03    0.03</time>
   <time name="total">    0.04    0.04</time>
   <energy>
    <i name="e_fr_energy">    -14.20577543 </i>
    <i name="e_wo_entrp">    -14.20837126 </i>
    <i name="e_0_energy">    -14.20664071 </i>
   </energy>
  </scstep>
  <scstep>
   <time name="dav">    0.02    0.02</time>
   <time name="total">    0.02    0.02</time>
   <energy>
    <i name="alphaZ">     46.75161271 </i>
    <i name="ewald">   -304.04348618 </i>
    <i name="hartreedc">     -2.00200138 </i>
    <i name="XCdc">    -46.76961155 </i>
    <i name="pawpsdc">    254.03407720 </i>
    <i name="pawaedc">   -198.01878014 </i>
    <i name="eentropy">      0.00260111 </i>
    <i name="bandstr">     29.32348860 </i>
    <i name="atom">    206.51631966 </i>
    <i name="e_fr_energy">    -14.20577997 </i>
    <i name="e_wo_entrp">    -14.20838108 </i>
    <i name="e_0_energy">    -14.20664701 </i>
   </energy>
  </scstep>
  <structure>
   <crystal>
    <varray name="basis" >
     <v>      -1.55121785       1.55121785       1.55121785 </v>
     <v>       1.55121785      -1.55121785       1.55121785 </v>
     <v>       1.55121785       1.55121785      -1.55121785 </v>
    </varray>
    <i name="volume">     14.93063832 </i>
    <varray name="rec_basis" >
     <v>       0.00000000       0.32232739       0.32232739 </v>
     <v>       0.32232739       0.00000000       0.32232739 </v>
     <v>       0.32232739       0.32232739       0.00000000 </v>
    </varray>
   </crystal>
   <varray name="positions" >
    <v>       0.00000000       0.00000000       0.00000000 </v>
   </varray>
  </structure>
  <varray name="forces" >
   <v>       0.00000000       0.00000000       0.00000000 </v>
  </varray>
  <varray name="stress" >
   <v>      75.67905263       0.00000000      -0.00000000 </v>
   <v>       0.00000000      75.67905263       0.00000000 </v>
   <v>      -0.00000000       0.00000000      75.67905263 </v>
  </varray>
  <energy>
   <i name="e_fr_energy">    -14.20577997 </i>
   <i name="e_wo_entrp">    -14.20664701 </i>
   <i name="e_0_energy">      0.00260111 </i>
  </energy>
  <time name="totalsc">    0.18    0.18</time>
 </calculation>
 <calculation>
  <scstep>
   <time name="dav">    0.03    0.03</time>
   <time name="total">    0.04    0.04</time>
   <energy>
    <i name="alphaZ">     45.77552149 </i>
    <i name="ewald">   -301.91262318 </i>
    <i name="hartreedc">     -1.98873292 </i>
    <i name="XCdc">    -46.78501370 </i>
    <i name="pawpsdc">    254.56586716 </i>
    <i name="pawaedc">   -198.55138130 </i>
    <i name="eentropy">      0.00268347 </i>
    <i name="bandstr">     28.16147743 </i>
    <i name="atom">    206.51631966 </i>
    <i name="e_fr_energy">    -14.21588188 </i>
    <i name="e_wo_entrp">    -14.21856536 </i>
    <i name="e_0_energy">    -14.21677637 </i>
   </energy>
  </scstep>
  <scstep>
   <time name="dav">    0.03    0.03</time>
   <time name="total">    0.04    0.04</time>
   <energy>
    <i name="e_fr_energy">    -14.21376387 </i>
    <i name="e_wo_entrp">    -14.21629453 </i>
    <i name="e_0_energy">    -14.21460743 </i>
   </energy>
  </scstep>
  <scstep>
   <time name="dav">    0.03    0.03</time>
   <time name="total">    0.04    0.04</time>
   <energy>
    <i name="e_fr_energy">    -14.21307665 </i>
    <i name="e_wo_entrp">    -14.21539540 </i>
    <i name="e_0_energy">    -14.21384956 </i>
   </energy>
  </scstep>
  <scstep>
   <time name="dav">    0.02    0.02</time>
   <time name="total">    0.02    0.02</time>
   <energy>
    <i name="alphaZ">     45.77552149 </i>
    <i name="ewald">   -301.91262318 </i>
    <i name="hartreedc">     -2.11875348 </i>
    <i name="XCdc">    -46.81087657 </i>
    <i name="pawpsdc">    250.05819449 </i>
    <i name="pawaedc">   -193.98735505 </i>
    <i name="eentropy">      0.00231116 </i>
    <i name="bandstr">     28.26418015 </i>
    <i name="atom">    206.51631966 </i>
    <i name="e_fr_energy">    -14.21308133 </i>
    <i name="e_wo_entrp">    -14.21539249 </i>
    <i name="e_0_energy">    -14.21385172 </i>
   </energy>
  </scstep>
  <structure>
   <crystal>
    <varray name="basis" >
     <v>      -1.56216616       1.56216616       1.56216616 </v>
     <v>       1.56216616      -1.56216616       1.56216616 </v>
     <v>       1.56216616       1.56216616      -1.56216616 </v>
    </varray>
    <i name="volume">     15.24901077 </i>
    <varray name="rec_basis" >
     <v>       0.00000000       0.32006838       0.32006838 </v>
     <v>       0.32006838       0.00000000       0.32006838 </v>
     <v>       0.32006838       0.32006838       0.00000000 </v>
    </varray>
   </crystal>
   <varray name="positions" >
    <v>       0.00000000       0.00000000       0.00000000 </v>
   </varray>
  </structure>
  <varray name="forces" >
   <v>       0.00000000       0.00000000       0.00000000 </v>
  </varray>
  <varray name="stress" >
   <v>      -0.64195504       0.00000000      -0.00000000 </v>
   <v>      -0.00000000      -0.64195504      -0.00000000 </v>
   <v>       0.00000000       0.00000000      -0.64195504 </v>
  </varray>
  <energy>
   <i name="e_fr_energy">    -14.21308133 </i>
   <i name="e_wo_entrp">    -14.21385172 </i>
   <i name="e_0_energy">      0.00231116 </i>
  </energy>
  <time name="totalsc">    0.18    0.18</time>
  <eigenvalues>
   <array>
    <dimension dim="1">band</dimension>
    <dimension dim="2">kpoint</dimension>
    <dimension dim="3">spin</dimension>
    <field>eigene</field>
    <field>occ</field>
    <set>
     <set comment="spin 1">
      <set comment="kpoint 1">
       <r>   -0.7823    1.0000 </r>
       <r>    6.5651    1.0000 </r>
       <r>    6.5651    1.0000 </r>
       <r>    7.8077    1.0236 </r>
       <r>   10.2789   -0.0000 </r>
       <r>   10.2789   -0.0000 </r>
       <r>   24.1057    0.0000 </r>
       <r>   25.0970    0.0000 </r>
      </set>
      <set comment="kpoint 2">
       <r>    0.4608    1.0000 </r>
       <r>    5.8434    1.0000 </r>
       <r>    6.1292    1.0000 </r>
       <r>    9.3704   -0.0000 </r>
       <r>    9.9288   -0.0000 </r>
       <r>   10.5690   -0.0000 </r>
       <r>   24.6802    0.0000 </r>
       <r>   26.3005    0.0000 </r>
      </set>
      <set comment="kpoint 3">
       <r>    1.7440    1.0000 </r>
       <r>    5.1316    1.0000 </r>
       <r>    6.1245    1.0000 </r>
       <r>   10.1635   -0.0000 </r>
       <r>   10.9205   -0.0000 </r>
       <r>   11.6398   -0.0000 </r>
       <r>   23.1859    0.0000 </r>
       <r>   24.1392    0.0000 </r>
      </set>
      <set comment="kpoint 4">
       <r>    2.0669    1.0000 </r>
       <r>    4.6411    1.0000 </r>
       <r>    7.5540    1.0002 </r>
       <r>   10.5583   -0.0000 </r>
       <r>   11.2944   -0.0000 </r>
       <r>   14.0481    0.0000 </r>
       <r>   20.9870    0.0000 </r>
       <r>   21.3746    0.0000 </r>
      </set>
      <set comment="kpoint 5">
       <r>    2.0100    1.0000 </r>
       <r>    4.4685    1.0000 </r>
       <r>    8.7874   -0.0000 </r>
       <r>   10.5489   -0.0000 </r>
       <r>   11.4773   -0.0000 </r>
       <r>   15.2857    0.0000 </r>
       <r>   19.5019    0.0000 </r>
       <r>   20.6464    0.0000 </r>
      </set>
      <set comment="kpoint 6">
       <r>   -1.2533    1.0000 </r>
       <r>    6.9027    1.0000 </r>
       <r>    6.9027    1.0000 </r>
       <r>    7.0432    1.0000 </r>
       <r>   10.1346   -0.0000 </r>
       <r>   10.6597   -0.0000 </r>
       <r>   24.0778    0.0000 </r>
       <r>   24.0778    0.0000 </r>
      </set>
      <set comment="kpoint 7">
       <r>    1.8220    1.0000 </r>
       <r>    5.3573    1.0000 </r>
       <r>    5.4109    1.0000 </r>
       <r>   10.0068   -0.0000 </r>
       <r>   10.9598   -0.0000 </r>
       <r>   11.6023   -0.0000 </r>
       <r>   24.2967    0.0000 </r>
       <r>   25.3553    0.0000 </r>
      </set>
      <set comment="kpoint 8">
       <r>    2.8003    1.0000 </r>
       <r>    4.8341    1.0000 </r>
       <r>    5.8447    1.0000 </r>
       <r>   10.3402   -0.0000 </r>
       <r>   11.3312   -0.0000 </r>
       <r>   14.2121    0.0000 </r>
       <r>   21.4841    0.0000 </r>
       <r>   23.3801    0.0000 </r>
      </set>
      <set comment="kpoint 9">
       <r>    2.8176    1.0000 </r>
       <r>    4.5884    1.0000 </r>
       <r>    7.2734    1.0000 </r>
       <r>   10.6505   -0.0000 </r>
       <r>   11.5704   -0.0000 </r>
       <r>   16.3487    0.0000 </r>
       <r>   18.7670    0.0000 </r>
       <r>   21.8362    0.0000 </r>
      </set>
      <set comment="kpoint 10">
       <r>   -0.3318    1.0000 </r>
       <r>    6.4164    1.0000 </r>
       <r>    6.7234    1.0000 </r>
       <r>    7.9767    0.9742 </r>
       <r>    9.4039   -0.0000 </r>
       <r>   10.8629   -0.0000 </r>
       <r>   24.6794    0.0000 </r>
       <r>   25.6976    0.0000 </r>
      </set>
      <set comment="kpoint 11">
       <r>    3.5110    1.0000 </r>
       <r>    4.9176    1.0000 </r>
       <r>    5.9694    1.0000 </r>
       <r>   10.6859   -0.0000 </r>
       <r>   11.4756   -0.0000 </r>
       <r>   16.9226    0.0000 </r>
       <r>   18.5861    0.0000 </r>
       <r>   22.7418    0.0000 </r>
      </set>
      <set comment="kpoint 12">
       <r>    3.5899    1.0000 </r>
       <r>    5.0406    1.0000 </r>
       <r>    6.2962    1.0000 </r>
       <r>   10.9689   -0.0000 </r>
       <r>   11.5221   -0.0000 </r>
       <r>   16.9819    0.0000 </r>
       <r>   18.6999    0.0000 </r>
       <r>   21.3773    0.0000 </r>
      </set>
      <set comment="kpoint 13">
       <r>    1.0663    1.0000 </r>
       <r>    5.6710    1.0000 </r>
       <r>    6.3081    1.0000 </r>
       <r>    9.4317   -0.0000 </r>
       <r>    9.8136   -0.0000 </r>
       <r>   11.0808   -0.0000 </r>
       <r>   23.8833    0.0000 </r>
       <r>   25.7879    0.0000 </r>
      </set>
      <set comment="kpoint 14">
       <r>    0.8583    1.0000 </r>
       <r>    6.1617    1.0000 </r>
       <r>    6.1964    1.0000 </r>
       <r>    8.7958   -0.0000 </r>
       <r>    9.2792   -0.0000 </r>
       <r>   11.2998   -0.0000 </r>
       <r>   24.9938    0.0000 </r>
       <r>   25.8226    0.0000 </r>
      </set>
      <set comment="kpoint 15">
       <r>    1.8757    1.0000 </r>
       <r>    5.0225    1.0000 </r>
       <r>    6.8577    1.0000 </r>
       <r>   10.0802   -0.0000 </r>
       <r>   11.3503   -0.0000 </r>
       <r>   12.2128   -0.0000 </r>
       <r>   21.8018    0.0000 </r>
       <r>   23.1839    0.0000 </r>
      </set>
      <set comment="kpoint 16">
       <r>    2.1254    1.0000 </r>
       <r>    5.4186    1.0000 </r>
       <r>    6.0252    1.0000 </r>
       <r>    9.1505   -0.0000 </r>
       <r>   11.2974   -0.0000 </r>
       <r>   11.7689   -0.0000 </r>
       <r>   22.6529    0.0000 </r>
       <r>   25.4661    0.0000 </r>
      </set>
      <set comment="kpoint 17">
       <r>    1.8857    1.0000 </r>
       <r>    4.6590    1.0000 </r>
       <r>    8.2943   -0.0005 </r>
       <r>   10.2693   -0.0000 </r>
       <r>   11.9087   -0.0000 </r>
       <r>   14.3348    0.0000 </r>
       <r>   20.2194    0.0000 </r>
       <r>   21.0742    0.0000 </r>
      </set>
      <set comment="kpoint 18">
       <r>    2.4697    1.0000 </r>
       <r>    5.0346    1.0000 </r>
       <r>    6.7137    1.0000 </r>
       <r>    9.8033   -0.0000 </r>
       <r>   11.8218   -0.0000 </r>
       <r>   14.1480    0.0000 </r>
       <r>   20.6549    0.0000 </r>
       <r>   23.0633    0.0000 </r>
      </set>
      <set comment="kpoint 19">
       <r>    3.1226    1.0000 </r>
       <r>    4.8656    1.0000 </r>
       <r>    6.1366    1.0000 </r>
       <r>    9.4906   -0.0000 </r>
       <r>   11.4467   -0.0000 </r>
       <r>   14.3444    0.0000 </r>
       <r>   20.9014    0.0000 </r>
       <r>   24.7778    0.0000 </r>
      </set>
      <set comment="kpoint 20">
       <r>    2.4023    1.0000 </r>
       <r>    4.9042    1.0000 </r>
       <r>    7.3740    1.0000 </r>
       <r>    9.7466   -0.0000 </r>
       <r>   12.5351   -0.0000 </r>
       <r>   15.5580    0.0000 </r>
       <r>   19.2776    0.0000 </r>
       <r>   22.1327    0.0000 </r>
      </set>
      <set comment="kpoint 21">
       <r>    3.3687    1.0000 </r>
       <r>    4.9360    1.0000 </r>
       <r>    6.1571    1.0000 </r>
       <r>   10.0466   -0.0000 </r>
       <r>   11.7793   -0.0000 </r>
       <r>   17.0560    0.0000 </r>
       <r>   18.6029    0.0000 </r>
       <r>   22.7227    0.0000 </r>
      </set>
      <set comment="kpoint 22">
       <r>    3.9479    1.0000 </r>
       <r>    5.2384    1.0000 </r>
       <r>    5.2384    1.0000 </r>
       <r>   11.1263   -0.0000 </r>
       <r>   11.1263   -0.0000 </r>
       <r>   17.2521    0.0000 </r>
       <r>   20.2070    0.0000 </r>
       <r>   20.2070    0.0000 </r>
      </set>
      <set comment="kpoint 23">
       <r>    3.3216    1.0000 </r>
       <r>    4.8515    1.0000 </r>
       <r>    4.8515    1.0000 </r>
       <r>   10.9118   -0.0000 </r>
       <r>   10.9118   -0.0000 </r>
       <r>   14.3542    0.0000 </r>
       <r>   22.6590    0.0000 </r>
       <r>   24.0599    0.0000 </r>
      </set>
      <set comment="kpoint 24">
       <r>    3.8843    1.0000 </r>
       <r>    4.6013    1.0000 </r>
       <r>    5.7553    1.0000 </r>
       <r>   11.0982   -0.0000 </r>
       <r>   11.4170   -0.0000 </r>
       <r>   16.9121    0.0000 </r>
       <r>   18.7823    0.0000 </r>
       <r>   22.6112    0.0000 </r>
      </set>
      <set comment="kpoint 25">
       <r>    3.7634    1.0000 </r>
       <r>    4.5298    1.0000 </r>
       <r>    6.7992    1.0000 </r>
       <r>   11.1868   -0.0000 </r>
       <r>   11.5755   -0.0000 </r>
       <r>   16.9943    0.0000 </r>
       <r>   18.1428    0.0000 </r>
       <r>   22.0528    0.0000 </r>
      </set>
      <set comment="kpoint 26">
       <r>    0.5443    1.0000 </r>
       <r>    6.9377    1.0000 </r>
       <r>    6.9377    1.0000 </r>
       <r>    7.8450    1.0317 </r>
       <r>    7.9634    0.9926 </r>
       <r>   11.5167   -0.0000 </r>
       <r>   26.2511    0.0000 </r>
       <r>   26.5681    0.0000 </r>
      </set>
      <set comment="kpoint 27">
       <r>    4.3038    1.0000 </r>
       <r>    5.1107    1.0000 </r>
       <r>    5.7941    1.0000 </r>
       <r>   11.4254   -0.0000 </r>
       <r>   11.5652   -0.0000 </r>
       <r>   16.2992    0.0000 </r>
       <r>   19.2612    0.0000 </r>
       <r>   21.5181    0.0000 </r>
      </set>
      <set comment="kpoint 28">
       <r>    1.8844    1.0000 </r>
       <r>    6.1004    1.0000 </r>
       <r>    6.5500    1.0000 </r>
       <r>    7.9507    1.0066 </r>
       <r>    9.5278   -0.0000 </r>
       <r>   11.8028   -0.0000 </r>
       <r>   23.6134    0.0000 </r>
       <r>   27.3209    0.0000 </r>
      </set>
      <set comment="kpoint 29">
       <r>    2.7059    1.0000 </r>
       <r>    5.6492    1.0000 </r>
       <r>    5.9899    1.0000 </r>
       <r>    8.9238   -0.0000 </r>
       <r>   11.9282   -0.0000 </r>
       <r>   12.1590   -0.0000 </r>
       <r>   21.9724    0.0000 </r>
       <r>   25.4871    0.0000 </r>
      </set>
      <set comment="kpoint 30">
       <r>    3.0210    1.0000 </r>
       <r>    5.0534    1.0000 </r>
       <r>    6.8140    1.0000 </r>
       <r>    8.2796    0.0177 </r>
       <r>   10.9550   -0.0000 </r>
       <r>   12.2337   -0.0000 </r>
       <r>   22.6052    0.0000 </r>
       <r>   27.2176    0.0000 </r>
      </set>
      <set comment="kpoint 31">
       <r>    2.6474    1.0000 </r>
       <r>    5.6603    1.0000 </r>
       <r>    6.2448    1.0000 </r>
       <r>    8.8877   -0.0000 </r>
       <r>   13.7801    0.0000 </r>
       <r>   14.1112    0.0000 </r>
       <r>   20.0927    0.0000 </r>
       <r>   23.8094    0.0000 </r>
      </set>
      <set comment="kpoint 32">
       <r>    3.4154    1.0000 </r>
       <r>    4.8043    1.0000 </r>
       <r>    6.3971    1.0000 </r>
       <r>    9.0309   -0.0000 </r>
       <r>   11.9894   -0.0000 </r>
       <r>   14.5892    0.0000 </r>
       <r>   20.9363    0.0000 </r>
       <r>   24.7657    0.0000 </r>
      </set>
      <set comment="kpoint 33">
       <r>    3.2620    1.0000 </r>
       <r>    5.3446    1.0000 </r>
       <r>    5.8553    1.0000 </r>
       <r>    9.0605   -0.0000 </r>
       <r>   13.1549   -0.0000 </r>
       <r>   16.6401    0.0000 </r>
       <r>   18.8473    0.0000 </r>
       <r>   23.1659    0.0000 </r>
      </set>
      <set comment="kpoint 34">
       <r>    4.2122    1.0000 </r>
       <r>    4.2927    1.0000 </r>
       <r>    5.5939    1.0000 </r>
       <r>   10.4544   -0.0000 </r>
       <r>   11.8301   -0.0000 </r>
       <r>   17.6328    0.0000 </r>
       <r>   18.9134    0.0000 </r>
       <r>   21.9798    0.0000 </r>
      </set>
      <set comment="kpoint 35">
       <r>    5.2178    1.0000 </r>
       <r>    5.2178    1.0000 </r>
       <r>    5.2178    1.0000 </r>
       <r>   11.6377   -0.0000 </r>
       <r>   11.6377   -0.0000 </r>
       <r>   15.3737    0.0000 </r>
       <r>   21.1373    0.0000 </r>
       <r>   21.1373    0.0000 </r>
      </set>
      <set comment="kpoint 36">
       <r>    3.0026    1.0000 </r>
       <r>    5.2399    1.0000 </r>
       <r>    7.7054    1.0057 </r>
       <r>    7.7054    1.0057 </r>
       <r>    9.6665   -0.0000 </r>
       <r>   11.9125   -0.0000 </r>
       <r>   23.4355    0.0000 </r>
       <r>   28.6889    0.0000 </r>
      </set>
      <set comment="kpoint 37">
       <r>    3.5917    1.0000 </r>
       <r>    4.2888    1.0000 </r>
       <r>    7.7658    1.0145 </r>
       <r>    8.4865   -0.0142 </r>
       <r>   11.5702   -0.0000 </r>
       <r>   12.4751   -0.0000 </r>
       <r>   23.2034    0.0000 </r>
       <r>   26.0294    0.0000 </r>
      </set>
      <set comment="kpoint 38">
       <r>    3.2519    1.0000 </r>
       <r>    4.3607    1.0000 </r>
       <r>    7.5656    1.0003 </r>
       <r>    8.4605   -0.0196 </r>
       <r>   13.7679    0.0000 </r>
       <r>   15.0321    0.0000 </r>
       <r>   20.0803    0.0000 </r>
       <r>   23.3108    0.0000 </r>
      </set>
      <set comment="kpoint 39">
       <r>    3.5111    1.0000 </r>
       <r>    3.7113    1.0000 </r>
       <r>    7.6876    1.0041 </r>
       <r>    9.8771   -0.0000 </r>
       <r>   12.1738   -0.0000 </r>
       <r>   14.8345    0.0000 </r>
       <r>   21.2290    0.0000 </r>
       <r>   23.1184    0.0000 </r>
      </set>
      <set comment="kpoint 40">
       <r>    3.2624    1.0000 </r>
       <r>    3.6757    1.0000 </r>
       <r>    7.4320    1.0000 </r>
       <r>   10.4899   -0.0000 </r>
       <r>   13.0136   -0.0000 </r>
       <r>   17.7488    0.0000 </r>
       <r>   18.4156    0.0000 </r>
       <r>   21.1312    0.0000 </r>
      </set>
      <set comment="kpoint 41">
       <r>    3.2649    1.0000 </r>
       <r>    3.4591    1.0000 </r>
       <r>    9.6566   -0.0000 </r>
       <r>    9.6566   -0.0000 </r>
       <r>   11.7720   -0.0000 </r>
       <r>   12.9824   -0.0000 </r>
       <r>   23.4315    0.0000 </r>
       <r>   23.4315    0.0000 </r>
      </set>
      <set comment="kpoint 42">
       <r>    2.7603    1.0000 </r>
       <r>    3.0236    1.0000 </r>
       <r>   10.1451   -0.0000 </r>
       <r>   10.3142   -0.0000 </r>
       <r>   13.4528   -0.0000 </r>
       <r>   15.5027    0.0000 </r>
       <r>   19.7618    0.0000 </r>
       <r>   20.8947    0.0000 </r>
      </set>
      <set comment="kpoint 43">
       <r>    2.5994    1.0000 </r>
       <r>    2.5994    1.0000 </r>
       <r>   10.1786   -0.0000 </r>
       <r>   12.7670   -0.0000 </r>
       <r>   12.7670   -0.0000 </r>
       <r>   18.2287    0.0000 </r>
       <r>   18.2336    0.0000 </r>
       <r>   18.2336    0.0000 </r>
      </set>
      <set comment="kpoint 44">
       <r>    2.2294    1.0000 </r>
       <r>    2.3055    1.0000 </r>
       <r>   12.6635   -0.0000 </r>
       <r>   12.6635   -0.0000 </r>
       <r>   13.4194   -0.0000 </r>
       <r>   16.2312    0.0000 </r>
       <r>   18.3327    0.0000 </r>
       <r>   18.3327    0.0000 </r>
      </set>
     </set>
    </set>
   </array>
  </eigenvalues>
  <separator name="orbital magnetization" >
   <v name="MAGDIPOLOUT">      0.00000000      0.00000000      0.00000000</v>
  </separator>
  <dos>
   <i name="efermi">      8.12540829 </i>
   <total>
    <array>
     <dimension dim="1">gridpoints</dimension>
     <dimension dim="2">spin</dimension>
     <field>energy</field>
     <field>total</field>
     <field>integrated</field>
     <set>
      <set comment="spin 1">
       <r>    -3.2533     0.0000     0.0000 </r>
       <r>    -3.1401     0.0000     0.0000 </r>
       <r>    -3.0270     0.0000     0.0000 </r>
       <r>    -2.9138    -0.0000    -0.0000 </r>
       <r>    -2.8007    -0.0000    -0.0000 </r>
       <r>    -2.6876    -0.0000    -0.0000 </r>
       <r>    -2.5744    -0.0000    -0.0000 </r>
       <r>    -2.4613    -0.0000    -0.0000 </r>
       <r>    -2.3481    -0.0000    -0.0000 </r>
       <r>    -2.2350    -0.0000    -0.0000 </r>
       <r>    -2.1219    -0.0000    -0.0000 </r>
       <r>    -2.0087    -0.0000    -0.0000 </r>
       <r>    -1.8956    -0.0000    -0.0000 </r>
       <r>    -1.7824    -0.0001    -0.0000 </r>
       <r>    -1.6693    -0.0006    -0.0001 </r>
       <r>    -1.5562    -0.0022    -0.0003 </r>
       <r>    -1.4430     0.0009    -0.0002 </r>
       <r>    -1.3299     0.0232     0.0024 </r>
       <r>    -1.2167     0.0473     0.0078 </r>
       <r>    -1.1036     0.0318     0.0113 </r>
       <r>    -0.9905     0.0054     0.0119 </r>
       <r>    -0.8773     0.0218     0.0144 </r>
       <r>    -0.7642     0.0583     0.0210 </r>
       <r>    -0.6510     0.0439     0.0260 </r>
       <r>    -0.5379     0.0109     0.0272 </r>
       <r>    -0.4247     0.0726     0.0354 </r>
       <r>    -0.3116     0.1828     0.0561 </r>
       <r>    -0.1985     0.1536     0.0735 </r>
       <r>    -0.0853     0.0370     0.0777 </r>
       <r>     0.0278    -0.0107     0.0765 </r>
       <r>     0.1410    -0.0139     0.0749 </r>
       <r>     0.2541    -0.0054     0.0743 </r>
       <r>     0.3672     0.0765     0.0829 </r>
       <r>     0.4804     0.2069     0.1063 </r>
       <r>     0.5935     0.1924     0.1281 </r>
       <r>     0.7067     0.0869     0.1380 </r>
       <r>     0.8198     0.1218     0.1517 </r>
       <r>     0.9329     0.2214     0.1768 </r>
       <r>     1.0461     0.2475     0.2048 </r>
       <r>     1.1592     0.1885     0.2261 </r>
       <r>     1.2724     0.0654     0.2335 </r>
       <r>     1.3855    -0.0130     0.2321 </r>
       <r>     1.4986    -0.0365     0.2279 </r>
       <r>     1.6118     0.0006     0.2280 </r>
       <r>     1.7249     0.2690     0.2584 </r>
       <r>     1.8381     0.7334     0.3414 </r>
       <r>     1.9512     0.9353     0.4472 </r>
       <r>     2.0643     0.8194     0.5399 </r>
       <r>     2.1775     0.6370     0.6120 </r>
       <r>     2.2906     0.4157     0.6590 </r>
       <r>     2.4038     0.4325     0.7079 </r>
       <r>     2.5169     0.6032     0.7762 </r>
       <r>     2.6300     0.7353     0.8594 </r>
       <r>     2.7432     1.0469     0.9778 </r>
       <r>     2.8563     1.1733     1.1106 </r>
       <r>     2.9695     0.8366     1.2052 </r>
       <r>     3.0826     0.6066     1.2739 </r>
       <r>     3.1958     0.7346     1.3570 </r>
       <r>     3.3089     1.1089     1.4824 </r>
       <r>     3.4220     1.3796     1.6385 </r>
       <r>     3.5352     1.3161     1.7874 </r>
       <r>     3.6483     1.0737     1.9089 </r>
       <r>     3.7615     0.7622     1.9951 </r>
       <r>     3.8746     0.4569     2.0468 </r>
       <r>     3.9877     0.2174     2.0714 </r>
       <r>     4.1009     0.1275     2.0859 </r>
       <r>     4.2140     0.4332     2.1349 </r>
       <r>     4.3272     0.8352     2.2294 </r>
       <r>     4.4403     0.8202     2.3222 </r>
       <r>     4.5534     0.8275     2.4158 </r>
       <r>     4.6666     1.0607     2.5358 </r>
       <r>     4.7797     1.3387     2.6873 </r>
       <r>     4.8929     1.8549     2.8971 </r>
       <r>     5.0060     2.1192     3.1369 </r>
       <r>     5.1191     1.6982     3.3290 </r>
       <r>     5.2323     1.0389     3.4466 </r>
       <r>     5.3454     0.8671     3.5447 </r>
       <r>     5.4586     0.9336     3.6503 </r>
       <r>     5.5717     0.8276     3.7439 </r>
       <r>     5.6848     0.9708     3.8538 </r>
       <r>     5.7980     1.2929     4.0001 </r>
       <r>     5.9111     1.4092     4.1595 </r>
       <r>     6.0243     1.5541     4.3353 </r>
       <r>     6.1374     1.9550     4.5565 </r>
       <r>     6.2506     1.9536     4.7776 </r>
       <r>     6.3637     1.4129     4.9374 </r>
       <r>     6.4768     0.9084     5.0402 </r>
       <r>     6.5900     0.6639     5.1153 </r>
       <r>     6.7031     0.7989     5.2057 </r>
       <r>     6.8163     1.0099     5.3199 </r>
       <r>     6.9294     0.7986     5.4103 </r>
       <r>     7.0425     0.3320     5.4479 </r>
       <r>     7.1557     0.1421     5.4639 </r>
       <r>     7.2688     0.3760     5.5065 </r>
       <r>     7.3820     0.6373     5.5786 </r>
       <r>     7.4951     0.6726     5.6547 </r>
       <r>     7.6082     0.6624     5.7296 </r>
       <r>     7.7214     0.6676     5.8052 </r>
       <r>     7.8345     0.6227     5.8756 </r>
       <r>     7.9477     0.5595     5.9389 </r>
       <r>     8.0608     0.4024     5.9844 </r>
       <r>     8.1739     0.2320     6.0107 </r>
       <r>     8.2871     0.3392     6.0491 </r>
       <r>     8.4002     0.5120     6.1070 </r>
       <r>     8.5134     0.4663     6.1597 </r>
       <r>     8.6265     0.2489     6.1879 </r>
       <r>     8.7396     0.2120     6.2119 </r>
       <r>     8.8528     0.5020     6.2687 </r>
       <r>     8.9659     0.8262     6.3622 </r>
       <r>     9.0791     0.9806     6.4731 </r>
       <r>     9.1922     0.8618     6.5706 </r>
       <r>     9.3053     0.7126     6.6512 </r>
       <r>     9.4185     0.8225     6.7443 </r>
       <r>     9.5316     0.8177     6.8368 </r>
       <r>     9.6448     0.6152     6.9064 </r>
       <r>     9.7579     0.7500     6.9913 </r>
       <r>     9.8711     1.0615     7.1114 </r>
       <r>     9.9842     1.1585     7.2424 </r>
       <r>    10.0973     1.2218     7.3807 </r>
       <r>    10.2105     1.2388     7.5208 </r>
       <r>    10.3236     1.1747     7.6537 </r>
       <r>    10.4368     1.0941     7.7775 </r>
       <r>    10.5499     1.1207     7.9043 </r>
       <r>    10.6630     1.0982     8.0286 </r>
       <r>    10.7762     0.8219     8.1216 </r>
       <r>    10.8893     0.8473     8.2174 </r>
       <r>    11.0025     1.1267     8.3449 </r>
       <r>    11.1156     1.0433     8.4630 </r>
       <r>    11.2287     1.0886     8.5861 </r>
       <r>    11.3419     1.6695     8.7750 </r>
       <r>    11.4550     2.1278     9.0157 </r>
       <r>    11.5682     2.1350     9.2573 </r>
       <r>    11.6813     1.9231     9.4749 </r>
       <r>    11.7944     1.9324     9.6935 </r>
       <r>    11.9076     1.8577     9.9037 </r>
       <r>    12.0207     1.2522    10.0454 </r>
       <r>    12.1339     0.8121    10.1373 </r>
       <r>    12.2470     0.7243    10.2192 </r>
       <r>    12.3601     0.4882    10.2744 </r>
       <r>    12.4733     0.3351    10.3123 </r>
       <r>    12.5864     0.3786    10.3552 </r>
       <r>    12.6996     0.3164    10.3910 </r>
       <r>    12.8127     0.2016    10.4138 </r>
       <r>    12.9259     0.1837    10.4346 </r>
       <r>    13.0390     0.2878    10.4671 </r>
       <r>    13.1521     0.3262    10.5040 </r>
       <r>    13.2653     0.2159    10.5285 </r>
       <r>    13.3784     0.1681    10.5475 </r>
       <r>    13.4916     0.2090    10.5711 </r>
       <r>    13.6047     0.1757    10.5910 </r>
       <r>    13.7178     0.2400    10.6182 </r>
       <r>    13.8310     0.3367    10.6563 </r>
       <r>    13.9441     0.2738    10.6872 </r>
       <r>    14.0573     0.4967    10.7434 </r>
       <r>    14.1704     0.9976    10.8563 </r>
       <r>    14.2835     1.0898    10.9796 </r>
       <r>    14.3967     0.7273    11.0619 </r>
       <r>    14.5098     0.4233    11.1098 </r>
       <r>    14.6230     0.3741    11.1521 </r>
       <r>    14.7361     0.3116    11.1874 </r>
       <r>    14.8492     0.2323    11.2137 </r>
       <r>    14.9624     0.2354    11.2403 </r>
       <r>    15.0755     0.2210    11.2653 </r>
       <r>    15.1887     0.1435    11.2815 </r>
       <r>    15.3018     0.1041    11.2933 </r>
       <r>    15.4149     0.1949    11.3154 </r>
       <r>    15.5281     0.3588    11.3560 </r>
       <r>    15.6412     0.3349    11.3938 </r>
       <r>    15.7544     0.1150    11.4068 </r>
       <r>    15.8675    -0.0135    11.4053 </r>
       <r>    15.9806    -0.0333    11.4016 </r>
       <r>    16.0938    -0.0151    11.3998 </r>
       <r>    16.2069     0.1729    11.4194 </r>
       <r>    16.3201     0.5147    11.4776 </r>
       <r>    16.4332     0.5465    11.5395 </r>
       <r>    16.5464     0.2679    11.5698 </r>
       <r>    16.6595     0.1378    11.5854 </r>
       <r>    16.7726     0.1640    11.6039 </r>
       <r>    16.8858     0.4430    11.6541 </r>
       <r>    16.9989     0.8670    11.7521 </r>
       <r>    17.1121     0.8100    11.8438 </r>
       <r>    17.2252     0.3460    11.8829 </r>
       <r>    17.3383     0.0471    11.8883 </r>
       <r>    17.4515    -0.0069    11.8875 </r>
       <r>    17.5646     0.0999    11.8988 </r>
       <r>    17.6778     0.2885    11.9314 </r>
       <r>    17.7909     0.3159    11.9672 </r>
       <r>    17.9040     0.1380    11.9828 </r>
       <r>    18.0172     0.0217    11.9852 </r>
       <r>    18.1303     0.1204    11.9989 </r>
       <r>    18.2435     0.2973    12.0325 </r>
       <r>    18.3566     0.3622    12.0735 </r>
       <r>    18.4697     0.3995    12.1187 </r>
       <r>    18.5829     0.6465    12.1918 </r>
       <r>    18.6960     1.0142    12.3066 </r>
       <r>    18.8092     1.1407    12.4356 </r>
       <r>    18.9223     0.8127    12.5276 </r>
       <r>    19.0354     0.2892    12.5603 </r>
       <r>    19.1486     0.1039    12.5721 </r>
       <r>    19.2617     0.2939    12.6053 </r>
       <r>    19.3749     0.3605    12.6461 </r>
       <r>    19.4880     0.1942    12.6681 </r>
       <r>    19.6012     0.0971    12.6791 </r>
       <r>    19.7143     0.1360    12.6945 </r>
       <r>    19.8274     0.1639    12.7130 </r>
       <r>    19.9406     0.1407    12.7289 </r>
       <r>    20.0537     0.3195    12.7651 </r>
       <r>    20.1669     0.5778    12.8304 </r>
       <r>    20.2800     0.4867    12.8855 </r>
       <r>    20.3931     0.1547    12.9030 </r>
       <r>    20.5063     0.0524    12.9089 </r>
       <r>    20.6194     0.2887    12.9416 </r>
       <r>    20.7326     0.4782    12.9957 </r>
       <r>    20.8457     0.6298    13.0670 </r>
       <r>    20.9588     0.9625    13.1759 </r>
       <r>    21.0720     0.9876    13.2876 </r>
       <r>    21.1851     0.6802    13.3646 </r>
       <r>    21.2983     0.5403    13.4257 </r>
       <r>    21.4114     0.7182    13.5069 </r>
       <r>    21.5245     0.7930    13.5967 </r>
       <r>    21.6377     0.4706    13.6499 </r>
       <r>    21.7508     0.3391    13.6883 </r>
       <r>    21.8640     0.6389    13.7606 </r>
       <r>    21.9771     0.7990    13.8510 </r>
       <r>    22.0902     0.6373    13.9231 </r>
       <r>    22.2034     0.3318    13.9606 </r>
       <r>    22.3165     0.0442    13.9656 </r>
       <r>    22.4297    -0.0386    13.9612 </r>
       <r>    22.5428     0.3456    14.0003 </r>
       <r>    22.6559     1.0721    14.1216 </r>
       <r>    22.7691     1.1872    14.2559 </r>
       <r>    22.8822     0.5278    14.3157 </r>
       <r>    22.9954     0.2846    14.3479 </r>
       <r>    23.1085     0.8472    14.4437 </r>
       <r>    23.2217     1.2912    14.5898 </r>
       <r>    23.3348     1.1322    14.7179 </r>
       <r>    23.4479     0.7587    14.8037 </r>
       <r>    23.5611     0.4096    14.8501 </r>
       <r>    23.6742     0.2394    14.8772 </r>
       <r>    23.7874     0.2860    14.9095 </r>
       <r>    23.9005     0.3670    14.9511 </r>
       <r>    24.0136     0.3788    14.9939 </r>
       <r>    24.1268     0.4316    15.0427 </r>
       <r>    24.2399     0.4222    15.0905 </r>
       <r>    24.3531     0.2557    15.1194 </r>
       <r>    24.4662     0.0653    15.1268 </r>
       <r>    24.5793     0.1435    15.1431 </r>
       <r>    24.6925     0.6164    15.2128 </r>
       <r>    24.8056     0.8917    15.3137 </r>
       <r>    24.9188     0.5964    15.3812 </r>
       <r>    25.0319     0.2750    15.4123 </r>
       <r>    25.1450     0.1347    15.4275 </r>
       <r>    25.2582     0.1078    15.4397 </r>
       <r>    25.3713     0.3650    15.4810 </r>
       <r>    25.4845     0.6672    15.5565 </r>
       <r>    25.5976     0.5869    15.6229 </r>
       <r>    25.7107     0.4480    15.6736 </r>
       <r>    25.8239     0.4919    15.7292 </r>
       <r>    25.9370     0.4021    15.7747 </r>
       <r>    26.0502     0.2434    15.8023 </r>
       <r>    26.1633     0.1847    15.8232 </r>
       <r>    26.2765     0.2196    15.8480 </r>
       <r>    26.3896     0.2150    15.8723 </r>
       <r>    26.5027     0.1089    15.8847 </r>
       <r>    26.6159     0.0444    15.8897 </r>
       <r>    26.7290     0.0212    15.8921 </r>
       <r>    26.8422    -0.0027    15.8918 </r>
       <r>    26.9553    -0.0172    15.8898 </r>
       <r>    27.0684     0.0151    15.8915 </r>
       <r>    27.1816     0.1703    15.9108 </r>
       <r>    27.2947     0.3392    15.9492 </r>
       <r>    27.4079     0.2801    15.9809 </r>
       <r>    27.5210     0.0851    15.9905 </r>
       <r>    27.6341    -0.0091    15.9895 </r>
       <r>    27.7473    -0.0106    15.9883 </r>
       <r>    27.8604    -0.0022    15.9880 </r>
       <r>    27.9736    -0.0002    15.9880 </r>
       <r>    28.0867    -0.0000    15.9880 </r>
       <r>    28.1998    -0.0001    15.9880 </r>
       <r>    28.3130    -0.0011    15.9879 </r>
       <r>    28.4261    -0.0024    15.9876 </r>
       <r>    28.5393     0.0062    15.9883 </r>
       <r>    28.6524     0.0344    15.9922 </r>
       <r>    28.7655     0.0478    15.9976 </r>
       <r>    28.8787     0.0233    16.0002 </r>
       <r>    28.9918     0.0009    16.0003 </r>
       <r>    29.1050    -0.0022    16.0001 </r>
       <r>    29.2181    -0.0006    16.0000 </r>
       <r>    29.3312    -0.0001    16.0000 </r>
       <r>    29.4444    -0.0000    16.0000 </r>
       <r>    29.5575    -0.0000    16.0000 </r>
       <r>    29.6707    -0.0000    16.0000 </r>
       <r>    29.7838    -0.0000    16.0000 </r>
       <r>    29.8970    -0.0000    16.0000 </r>
       <r>    30.0101    -0.0000    16.0000 </r>
       <r>    30.1232     0.0000    16.0000 </r>
       <r>    30.2364     0.0000    16.0000 </r>
       <r>    30.3495     0.0000    16.0000 </r>
       <r>    30.4627     0.0000    16.0000 </r>
       <r>    30.5758     0.0000    16.0000 </r>
       <r>    30.6889     0.0000    16.0000 </r>
      </set>
     </set>
    </array>
   </total>
  </dos>
 </calculation>
 <structure name="finalpos" >
  <crystal>
   <varray name="basis" >
    <v>      -1.56216616       1.56216616       1.56216616 </v>
    <v>       1.56216616      -1.56216616       1.56216616 </v>
    <v>       1.56216616       1.56216616      -1.56216616 </v>
   </varray>
   <i name="volume">     15.24901077 </i>
   <varray name="rec_basis" >
    <v>       0.00000000       0.32006838       0.32006838 </v>
    <v>       0.32006838       0.00000000       0.32006838 </v>
    <v>       0.32006838       0.32006838       0.00000000 </v>
   </varray>
  </crystal>
  <varray name="positions" >
   <v>       0.00000000       0.00000000       0.00000000 </v>
  </varray>
 </structure>
</modeling>
