bcc W                                   
           1
    -1.565000    1.565000    1.565000
     1.565000   -1.565000    1.565000
     1.565000    1.565000   -1.565000
   W 
   1
Direct configuration=     1
   0.00000000  0.00000000  0.00000000
bcc W                                   
           1
    -1.551218    1.551218    1.551218
     1.551218   -1.551218    1.551218
     1.551218    1.551218   -1.551218
   W 
   1
Direct configuration=     2
   0.00000000  0.00000000  0.00000000
bcc W                                   
           1
    -1.562166    1.562166    1.562166
     1.562166   -1.562166    1.562166
     1.562166    1.562166   -1.562166
   W 
   1
Direct configuration=     3
   0.00000000  0.00000000  0.00000000
