FCC Au                                  
   4.25000000000000     
     0.000000    0.500000    0.500000
     0.500000    0.000000    0.500000
     0.500000    0.500000    0.000000
   Au
     1
Direct
  0.000000  0.000000  0.000000
 
   24   24   24
  93.294      89.469      79.682      67.417      55.112      43.207      31.601      21.139      13.243      8.4815    
  5.9789      4.6727      4.2661      4.6727      5.9789      8.4815      13.243      21.139      31.601      43.207    
  55.112      67.417      79.682      89.469      89.469      82.704      71.854      59.902      48.130      36.538    
  25.524      16.400      10.276      6.9230      5.1290      4.3167      4.3163      5.1284      6.9229      10.276    
  16.401      25.528      36.545      48.134      59.894      71.831      82.677      89.458      79.682      71.854    
  61.636      50.768      39.732      28.845      19.192      12.088      7.8781      5.6257      4.4485      4.0846    
  4.4483      5.6256      7.8777      12.087      19.193      28.851      39.741      50.770      61.622      71.828    
  79.661      82.677      67.417      59.902      50.768      40.835      30.621      21.099      13.576      8.7475    
  6.0898      4.6160      3.9611      3.9613      4.6164      6.0899      8.7465      13.574      21.098      30.623    
  40.840      50.771      59.899      67.412      71.828      71.831      55.112      48.130      39.732      30.621    
  21.774      14.416      9.3700      6.4487      4.7705      3.9080      3.6450      3.9080      4.7710      6.4495    
  9.3700      14.414      21.770      30.617      39.732      48.134      55.119      59.899      61.622      59.894    
  43.207      36.538      28.845      21.099      14.416      9.5973      6.6446      4.8750      3.8877      3.4568    
  3.4565      3.8872      4.8757      6.6470      9.6003      14.417      21.095      28.838      36.531      43.204    
  48.134      50.771      50.770      48.134      31.601      25.524      19.192      13.576      9.3700      6.6446    
  4.9113      3.8795      3.3572      3.1990      3.3568      3.8787      4.9113      6.6473      9.3761      13.582    
  19.193      25.517      31.588      36.531      39.732      40.840      39.741      36.545      21.139      16.400    
  12.088      8.7475      6.4487      4.8750      3.8795      3.3256      3.0833      3.0834      3.3252      3.8774    
  4.8720      6.4484      8.7531      12.098      16.409      21.138      25.517      28.838      30.617      30.623    
  28.851      25.528      13.243      10.276      7.8781      6.0898      4.7705      3.8877      3.3572      3.0833    
  2.9998      3.0839      3.3572      3.8849      4.7645      6.0840      7.8781      10.284      13.255      16.409    
  19.193      21.095      21.770      21.098      19.193      16.401      8.4815      6.9230      5.6257      4.6160    
  3.9080      3.4568      3.1990      3.0834      3.0839      3.2009      3.4594      3.9082      4.6106      5.6159    
  6.9150      8.4814      10.284      12.098      13.582      14.417      14.414      13.574      12.087      10.276    
  5.9789      5.1290      4.4485      3.9611      3.6450      3.4565      3.3568      3.3252      3.3572      3.4594    
  3.6511      3.9668      4.4483      5.1209      5.9672      6.9150      7.8781      8.7531      9.3761      9.6003    
  9.3700      8.7465      7.8777      6.9229      4.6727      4.3167      4.0846      3.9613      3.9080      3.8872    
  3.8787      3.8774      3.8849      3.9082      3.9668      4.0940      4.3243      4.6729      5.1209      5.6159    
  6.0840      6.4484      6.6473      6.6470      6.4495      6.0899      5.6256      5.1284      4.2661      4.3163    
  4.4483      4.6164      4.7710      4.8757      4.9113      4.8720      4.7645      4.6106      4.4483      4.3243    
  4.2778      4.3243      4.4483      4.6106      4.7645      4.8720      4.9113      4.8757      4.7710      4.6164    
  4.4483      4.3163      4.6727      5.1284      5.6256      6.0899      6.4495      6.6470      6.6473      6.4484    
  6.0840      5.6159      5.1209      4.6729      4.3243      4.0940      3.9668      3.9082      3.8849      3.8774    
  3.8787      3.8872      3.9080      3.9613      4.0846      4.3167      5.9789      6.9229      7.8777      8.7465    
  9.3700      9.6003      9.3761      8.7531      7.8781      6.9150      5.9672      5.1209      4.4483      3.9668    
  3.6511      3.4594      3.3572      3.3252      3.3568      3.4565      3.6450      3.9611      4.4485      5.1290    
  8.4815      10.276      12.087      13.574      14.414      14.417      13.582      12.098      10.284      8.4814    
  6.9150      5.6159      4.6106      3.9082      3.4594      3.2009      3.0839      3.0834      3.1990      3.4568    
  3.9080      4.6160      5.6257      6.9230      13.243      16.401      19.193      21.098      21.770      21.095    
  19.193      16.409      13.255      10.284      7.8781      6.0840      4.7645      3.8849      3.3572      3.0839    
  2.9998      3.0833      3.3572      3.8877      4.7705      6.0898      7.8781      10.276      21.139      25.528    
  28.851      30.623      30.617      28.838      25.517      21.138      16.409      12.098      8.7531      6.4484    
  4.8720      3.8774      3.3252      3.0834      3.0833      3.3256      3.8795      4.8750      6.4487      8.7475    
  12.088      16.400      31.601      36.545      39.741      40.840      39.732      36.531      31.588      25.517    
  19.193      13.582      9.3761      6.6473      4.9113      3.8787      3.3568      3.1990      3.3572      3.8795    
  4.9113      6.6446      9.3700      13.576      19.192      25.524      43.207      48.134      50.770      50.771    
  48.134      43.204      36.531      28.838      21.095      14.417      9.6003      6.6470      4.8757      3.8872    
  3.4565      3.4568      3.8877      4.8750      6.6446      9.5973      14.416      21.099      28.845      36.538    
  55.112      59.894      61.622      59.899      55.119      48.134      39.732      30.617      21.770      14.414    
  9.3700      6.4495      4.7710      3.9080      3.6450      3.9080      4.7705      6.4487      9.3700      14.416    
  21.774      30.621      39.732      48.130      67.417      71.831      71.828      67.412      59.899      50.771    
  40.840      30.623      21.098      13.574      8.7465      6.0899      4.6164      3.9613      3.9611      4.6160    
  6.0898      8.7475      13.576      21.099      30.621      40.835      50.768      59.902      79.682      82.677    
  79.661      71.828      61.622      50.770      39.741      28.851      19.193      12.087      7.8777      5.6256    
  4.4483      4.0846      4.4485      5.6257      7.8781      12.088      19.192      28.845      39.732      50.768    
  61.636      71.854      89.469      89.458      82.677      71.831      59.894      48.134      36.545      25.528    
  16.401      10.276      6.9229      5.1284      4.3163      4.3167      5.1290      6.9230      10.276      16.400    
  25.524      36.538      48.130      59.902      71.854      82.704      89.469      82.704      71.854      59.902    
  48.130      36.538      25.524      16.400      10.276      6.9230      5.1290      4.3167      4.3163      5.1284    
  6.9229      10.276      16.401      25.528      36.545      48.134      59.894      71.831      82.677      89.458    
  82.704      74.249      63.377      52.060      40.769      29.681      19.793      12.451      8.0725      5.7434    
  4.5257      4.1485      4.5256      5.7433      8.0718      12.450      19.796      29.691      40.781      52.061    
  63.354      74.209      82.672      85.958      71.854      63.377      53.439      42.988      32.383      22.424    
  14.426      9.2133      6.3554      4.7836      4.0811      4.0812      4.7839      6.3551      9.2116      14.424    
  22.428      32.393      42.998      53.437      63.359      71.830      76.934      76.945      59.902      52.060    
  42.988      33.316      23.851      15.805      10.157      6.8778      5.0357      4.0812      3.7890      4.0811    
  5.0360      6.8779      10.155      15.801      23.850      33.319      42.994      52.067      59.905      65.489    
  67.551      65.488      48.130      40.769      32.383      23.851      16.299      10.696      7.2368      5.2313    
  4.1067      3.6140      3.6138      4.1066      5.2323      7.2381      10.696      16.295      23.845      32.380    
  40.773      48.140      53.743      56.824      56.819      53.732      36.538      29.681      22.424      15.805    
  10.696      7.3665      5.3375      4.1287      3.5162      3.3307      3.5160      4.1287      5.3386      7.3693    
  10.699      15.805      22.420      29.674      36.533      42.120      45.773      47.045      45.771      42.120    
  25.524      19.793      14.426      10.157      7.2368      5.3375      4.1368      3.4715      3.1814      3.1814    
  3.4710      4.1355      5.3373      7.2402      10.164      14.432      19.794      25.517      30.710      34.606    
  36.684      36.688      34.616      30.721      16.400      12.451      9.2133      6.8778      5.2313      4.1287    
  3.4715      3.1350      3.0327      3.1351      3.4705      4.1257      5.2279      6.8774      9.2189      12.461    
  16.408      20.496      24.030      26.407      27.245      26.413      24.036      20.496      10.276      8.0725    
  6.3554      5.0357      4.1067      3.5162      3.1814      3.0327      3.0332      3.1825      3.5163      4.1033    
  5.0286      6.3487      8.0722      10.284      12.860      15.420      17.481      18.627      18.627      17.478    
  15.412      12.849      6.9230      5.7434      4.7836      4.0812      3.6140      3.3307      3.1814      3.1351    
  3.1825      3.3336      3.6175      4.0813      4.7775      5.7332      6.9151      8.2699      9.7302      11.082    
  12.045      12.393      12.038      11.072      9.7228      8.2702      5.1290      4.5257      4.0811      3.7890    
  3.6138      3.5160      3.4710      3.4705      3.5163      3.6175      3.7962      4.0874      4.5256      5.1210    
  5.8413      6.6111      7.3357      7.9213      8.2524      8.2498      7.9166      7.3354      6.6183      5.8525    
  4.3167      4.1485      4.0812      4.0811      4.1066      4.1287      4.1355      4.1257      4.1033      4.0813    
  4.0874      4.1585      4.3244      4.5896      4.9270      5.2845      5.5993      5.8140      5.8901      5.8155    
  5.6043      5.2928      4.9339      4.5895      4.3163      4.5256      4.7839      5.0360      5.2323      5.3386    
  5.3373      5.2279      5.0286      4.7775      4.5256      4.3244      4.2084      4.1841      4.2292      4.3052    
  4.3754      4.4164      4.4183      4.3803      4.3099      4.2292      4.1771      4.1973      5.1284      5.7433    
  6.3551      6.8779      7.2381      7.3693      7.2402      6.8774      6.3487      5.7332      5.1210      4.5896    
  4.1841      3.9107      3.7444      3.6503      3.6022      3.5880      3.6036      3.6501      3.7399      3.9027    
  4.1774      4.5895      6.9229      8.0718      9.2116      10.155      10.696      10.699      10.164      9.2189    
  8.0722      6.9151      5.8413      4.9270      4.2292      3.7444      3.4332      3.2514      3.1679      3.1677    
  3.2496      3.4287      3.7397      4.2293      4.9344      5.8525      10.276      12.450      14.424      15.801    
  16.295      15.805      14.432      12.461      10.284      8.2699      6.6111      5.2845      4.3052      3.6503    
  3.2514      3.0412      2.9758      3.0402      3.2498      3.6502      4.3094      5.2927      6.6183      8.2702    
  16.401      19.796      22.428      23.850      23.845      22.420      19.794      16.408      12.860      9.7302    
  7.3357      5.5993      4.3754      3.6022      3.1679      2.9758      2.9754      3.1678      3.6042      4.3800    
  5.6040      7.3355      9.7226      12.849      25.528      29.691      32.393      33.319      32.380      29.674    
  25.517      20.496      15.420      11.082      7.9213      5.8140      4.4164      3.5880      3.1677      3.0402    
  3.1678      3.5891      4.4183      5.8143      7.9170      11.073      15.412      20.496      36.545      40.781    
  42.998      42.994      40.773      36.533      30.710      24.030      17.481      12.045      8.2524      5.8901    
  4.4183      3.6036      3.2496      3.2498      3.6042      4.4183      5.8881      8.2479      12.040      17.479    
  24.035      30.721      48.134      52.061      53.437      52.067      48.140      42.120      34.606      26.407    
  18.627      12.393      8.2498      5.8155      4.3803      3.6501      3.4287      3.6502      4.3800      5.8143    
  8.2479      12.392      18.631      26.414      34.612      42.120      59.894      63.354      63.359      59.905    
  53.743      45.773      36.684      27.245      18.627      12.038      7.9166      5.6043      4.3099      3.7399    
  3.7397      4.3094      5.6040      7.9170      12.040      18.631      27.249      36.685      45.767      53.732    
  71.831      74.209      71.830      65.489      56.824      47.045      36.688      26.413      17.478      11.072    
  7.3354      5.2928      4.2292      3.9027      4.2293      5.2927      7.3355      11.073      17.479      26.414    
  36.685      47.040      56.820      65.488      82.677      82.672      76.934      67.551      56.819      45.771    
  34.616      24.036      15.412      9.7228      6.6183      4.9339      4.1771      4.1774      4.9344      6.6183    
  9.7226      15.412      24.035      34.612      45.767      56.820      67.559      76.945      89.458      85.958    
  76.945      65.488      53.732      42.120      30.721      20.496      12.849      8.2702      5.8525      4.5895    
  4.1973      4.5895      5.8525      8.2702      12.849      20.496      30.721      42.120      53.732      65.488    
  76.945      85.958      79.682      71.854      61.636      50.768      39.732      28.845      19.192      12.088    
  7.8781      5.6257      4.4485      4.0846      4.4483      5.6256      7.8777      12.087      19.193      28.851    
  39.741      50.770      61.622      71.828      79.661      82.677      71.854      63.377      53.439      42.988    
  32.383      22.424      14.426      9.2133      6.3554      4.7836      4.0811      4.0812      4.7839      6.3551    
  9.2116      14.424      22.428      32.393      42.998      53.437      63.359      71.830      76.934      76.945    
  61.636      53.439      44.103      34.237      24.572      16.296      10.440      7.0307      5.1300      4.1424    
  3.8395      4.1422      5.1300      7.0301      10.438      16.293      24.572      34.244      44.113      53.445    
  61.636      67.556      69.763      67.559      50.768      42.988      34.237      25.322      17.332      11.313    
  7.5668      5.4277      4.2271      3.6995      3.6991      4.2269      5.4283      7.5669      11.310      17.326    
  25.315      34.239      43.000      50.788      56.838      60.226      60.219      56.820      39.732      32.383    
  24.572      17.332      11.630      7.8703      5.6284      4.2985      3.6232      3.4184      3.6232      4.2990    
  5.6297      7.8714      11.629      17.326      24.564      32.380      39.741      45.785      49.795      51.202    
  49.780      45.767      28.845      22.424      16.296      11.313      7.8703      5.6997      4.3380      3.5843    
  3.2559      3.2560      3.5842      4.3379      5.7008      7.8735      11.316      16.295      22.419      28.839    
  34.610      38.935      41.247      41.245      38.933      34.612      19.192      14.426      10.440      7.5668    
  5.6284      4.3380      3.5722      3.1819      3.0632      3.1816      3.5710      4.3363      5.6285      7.5706    
  10.447      14.431      19.192      24.029      28.152      30.901      31.866      30.907      28.160      24.035    
  12.088      9.2133      7.0307      5.4277      4.2985      3.5843      3.1819      3.0039      3.0040      3.1819    
  3.5827      4.2950      5.4238      7.0300      9.2184      12.096      15.419      18.664      21.237      22.656    
  22.658      21.241      18.663      15.412      7.8781      6.3554      5.1300      4.2271      3.6232      3.2559    
  3.0632      3.0040      3.0645      3.2577      3.6232      4.2230      5.1223      6.3488      7.8777      9.7293    
  11.756      13.622      14.940      15.415      14.936      13.614      11.746      9.7226      5.6257      4.7836    
  4.1424      3.6995      3.4184      3.2560      3.1816      3.1819      3.2577      3.4221      3.7033      4.1424    
  4.7775      5.6161      6.6111      7.6807      8.7416      9.6226      10.126      10.123      9.6153      8.7356    
  7.6810      6.6183      4.4485      4.0811      3.8395      3.6991      3.6232      3.5842      3.5710      3.5827    
  3.6232      3.7033      3.8471      4.0874      4.4484      4.9272      5.4853      6.0536      6.5467      6.8844    
  7.0045      6.8822      6.5466      6.0593      5.4948      4.9344      4.0846      4.0812      4.1422      4.2269    
  4.2990      4.3379      4.3363      4.2950      4.2230      4.1424      4.0874      4.0942      4.1843      4.3536    
  4.5722      4.7945      4.9733      5.0725      5.0735      4.9770      4.8006      4.5776      4.3536      4.1774    
  4.4483      4.7839      5.1300      5.4283      5.6297      5.7008      5.6285      5.4238      5.1223      4.7775    
  4.4484      4.1843      4.0112      3.9259      3.9027      3.9093      3.9214      3.9275      3.9242      3.9126    
  3.9027      3.9202      4.0017      4.1771      5.6256      6.3551      7.0301      7.5669      7.8714      7.8735    
  7.5706      7.0300      6.3488      5.6161      4.9272      4.3536      3.9259      3.6354      3.4515      3.3436    
  3.2935      3.2939      3.3435      3.4484      3.6293      3.9205      4.3536      4.9339      7.8777      9.2116    
  10.438      11.310      11.629      11.316      10.447      9.2184      7.8777      6.6111      5.4853      4.5722    
  3.9027      3.4515      3.1707      3.0188      2.9706      3.0177      3.1680      3.4483      3.9027      4.5780    
  5.4948      6.6183      12.087      14.424      16.293      17.326      17.326      16.295      14.431      12.096    
  9.7293      7.6807      6.0536      4.7945      3.9093      3.3436      3.0188      2.8724      2.8719      3.0179    
  3.3436      3.9123      4.8005      6.0593      7.6810      9.7228      19.193      22.428      24.572      25.315    
  24.564      22.419      19.192      15.419      11.756      8.7416      6.5467      4.9733      3.9214      3.2935    
  2.9706      2.8719      2.9706      3.2945      3.9242      4.9765      6.5466      8.7358      11.746      15.412    
  28.851      32.393      34.244      34.239      32.380      28.839      24.029      18.664      13.622      9.6226    
  6.8844      5.0725      3.9275      3.2939      3.0177      3.0179      3.2945      3.9286      5.0725      6.8814    
  9.6165      13.616      18.663      24.036      39.741      42.998      44.113      43.000      39.741      34.610    
  28.152      21.237      14.940      10.126      7.0045      5.0735      3.9242      3.3435      3.1680      3.3436    
  3.9242      5.0725      7.0017      10.122      14.940      21.243      28.160      34.616      50.770      53.437    
  53.445      50.788      45.785      38.935      30.901      22.656      15.415      10.123      6.8822      4.9770    
  3.9126      3.4484      3.4483      3.9123      4.9765      6.8814      10.122      15.418      22.663      30.908    
  38.933      45.771      61.622      63.359      61.636      56.838      49.795      41.247      31.866      22.658    
  14.936      9.6153      6.5466      4.8006      3.9027      3.6293      3.9027      4.8005      6.5466      9.6165    
  14.940      22.663      31.869      41.242      49.780      56.819      71.828      71.830      67.556      60.226    
  51.202      41.245      30.907      21.241      13.614      8.7356      6.0593      4.5776      3.9202      3.9205    
  4.5780      6.0593      8.7358      13.616      21.243      30.908      41.242      51.196      60.219      67.551    
  79.661      76.934      69.763      60.219      49.780      38.933      28.160      18.663      11.746      7.6810    
  5.4948      4.3536      4.0017      4.3536      5.4948      7.6810      11.746      18.663      28.160      38.933    
  49.780      60.219      69.763      76.934      82.677      76.945      67.559      56.820      45.767      34.612    
  24.035      15.412      9.7226      6.6183      4.9344      4.1774      4.1771      4.9339      6.6183      9.7228    
  15.412      24.036      34.616      45.771      56.819      67.551      76.934      82.672      67.417      59.902    
  50.768      40.835      30.621      21.099      13.576      8.7475      6.0898      4.6160      3.9611      3.9613    
  4.6164      6.0899      8.7465      13.574      21.098      30.623      40.840      50.771      59.899      67.412    
  71.828      71.831      59.902      52.060      42.988      33.316      23.851      15.805      10.157      6.8778    
  5.0357      4.0812      3.7890      4.0811      5.0360      6.8779      10.155      15.801      23.850      33.319    
  42.994      52.067      59.905      65.489      67.551      65.488      50.768      42.988      34.237      25.322    
  17.332      11.313      7.5668      5.4277      4.2271      3.6995      3.6991      4.2269      5.4283      7.5669    
  11.310      17.326      25.315      34.239      43.000      50.788      56.838      60.226      60.219      56.820    
  40.835      33.316      25.322      17.874      11.967      8.0519      5.7319      4.3591      3.6612      3.4493    
  3.6611      4.3596      5.7332      8.0524      11.963      17.865      25.311      33.315      40.850      47.067    
  51.216      52.677      51.196      47.040      30.621      23.851      17.332      11.967      8.2282      5.8988    
  4.4489      3.6461      3.2965      3.2966      3.6463      4.4496      5.9008      8.2304      11.965      17.324    
  23.841      30.617      36.694      41.257      43.703      43.696      41.242      36.685      21.099      15.805    
  11.313      8.0519      5.8988      4.4806      3.6405      3.2137      3.0840      3.2136      3.6400      4.4806    
  5.9012      8.0564      11.316      15.802      21.091      26.406      30.904      33.894      34.940      33.895    
  30.908      26.414      13.576      10.157      7.5668      5.7319      4.4489      3.6405      3.1874      2.9872    
  2.9871      3.1867      3.6388      4.4473      5.7327      7.5711      10.163      13.579      17.477      21.236    
  24.185      25.802      25.805      24.193      21.243      17.479      8.7475      6.8778      5.4277      4.3591    
  3.6461      3.2137      2.9872      2.9176      2.9877      3.2137      3.6442      4.3553      5.4241      6.8777    
  8.7522      11.080      13.620      15.933      17.552      18.134      17.554      15.933      13.616      11.073    
  6.0898      5.0357      4.2271      3.6612      3.2965      3.0840      2.9871      2.9877      3.0858      3.2984    
  3.6610      4.2229      5.0288      6.0843      7.3354      8.7409      10.167      11.354      12.031      12.030    
  11.349      10.160      8.7358      7.3355      4.6160      4.0812      3.6995      3.4493      3.2966      3.2136    
  3.1867      3.2137      3.2984      3.4533      3.7033      4.0812      4.6107      5.2848      6.0537      6.8286    
  7.5163      8.0043      8.1807      8.0006      7.5126      6.8289      6.0593      5.2927      3.9611      3.7890    
  3.6991      3.6611      3.6463      3.6400      3.6388      3.6442      3.6610      3.7033      3.7961      3.9668    
  4.2293      4.5723      4.9584      5.3307      5.6257      5.7885      5.7881      5.6262      5.3348      4.9655    
  4.5780      4.2293      3.9613      4.0811      4.2269      4.3596      4.4496      4.4806      4.4473      4.3553    
  4.2229      4.0812      3.9668      3.9108      3.9259      4.0024      4.1123      4.2209      4.2986      4.3271    
  4.3007      4.2249      4.1160      4.0023      3.9205      3.9027      4.6164      5.0360      5.4283      5.7332    
  5.9008      5.9012      5.7327      5.4241      5.0288      4.6107      4.2293      3.9259      3.7153      3.5865    
  3.5148      3.4771      3.4609      3.4620      3.4791      3.5147      3.5823      3.7081      3.9202      4.2292    
  6.0899      6.8779      7.5669      8.0524      8.2304      8.0564      7.5711      6.8777      6.0843      5.2848    
  4.5723      4.0024      3.5865      3.3039      3.1240      3.0235      2.9912      3.0235      3.1223      3.2999    
  3.5826      4.0023      4.5776      5.2928      8.7465      10.155      11.310      11.963      11.965      11.316    
  10.163      8.7522      7.3354      6.0537      4.9584      4.1123      3.5148      3.1240      2.8920      2.7842    
  2.7838      2.8905      3.1221      3.5148      4.1164      4.9655      6.0593      7.3354      13.574      15.801    
  17.326      17.865      17.324      15.802      13.579      11.080      8.7409      6.8286      5.3307      4.2209    
  3.4771      3.0235      2.7842      2.7098      2.7838      3.0235      3.4787      4.2247      5.3347      6.8289    
  8.7356      11.072      21.098      23.850      25.315      25.311      23.841      21.091      17.477      13.620    
  10.167      7.5163      5.6257      4.2986      3.4609      2.9912      2.7838      2.7838      2.9918      3.4624    
  4.3003      5.6256      7.5124      10.160      13.614      17.478      30.623      33.319      34.239      33.315    
  30.617      26.406      21.236      15.933      11.354      8.0043      5.7885      4.3271      3.4620      3.0235    
  2.8905      3.0235      3.4624      4.3273      5.7868      8.0002      11.350      15.933      21.241      26.413    
  40.840      42.994      43.000      40.850      36.694      30.904      24.185      17.552      12.031      8.1807    
  5.7881      4.3007      3.4791      3.1223      3.1221      3.4787      4.3003      5.7868      8.1788      12.032    
  17.557      24.193      30.907      36.688      50.771      52.067      50.788      47.067      41.257      33.894    
  25.802      18.134      12.030      8.0006      5.6262      4.2249      3.5147      3.2999      3.5148      4.2247    
  5.6256      8.0002      12.032      18.140      25.809      33.895      41.245      47.045      59.899      59.905    
  56.838      51.216      43.703      34.940      25.805      17.554      11.349      7.5126      5.3348      4.1160    
  3.5823      3.5826      4.1164      5.3347      7.5124      11.350      17.557      25.809      34.941      43.696    
  51.202      56.824      67.412      65.489      60.226      52.677      43.696      33.895      24.193      15.933    
  10.160      6.8289      4.9655      4.0023      3.7081      4.0023      4.9655      6.8289      10.160      15.933    
  24.193      33.895      43.696      52.677      60.226      65.489      71.828      67.551      60.219      51.196    
  41.242      30.908      21.243      13.616      8.7358      6.0593      4.5780      3.9205      3.9202      4.5776    
  6.0593      8.7356      13.614      21.241      30.907      41.245      51.202      60.226      67.556      71.830    
  71.831      65.488      56.820      47.040      36.685      26.414      17.479      11.073      7.3355      5.2927    
  4.2293      3.9027      4.2292      5.2928      7.3354      11.072      17.478      26.413      36.688      47.045    
  56.824      65.489      71.830      74.209      55.112      48.130      39.732      30.621      21.774      14.416    
  9.3700      6.4487      4.7705      3.9080      3.6450      3.9080      4.7710      6.4495      9.3700      14.414    
  21.770      30.617      39.732      48.134      55.119      59.899      61.622      59.894      48.130      40.769    
  32.383      23.851      16.299      10.696      7.2368      5.2313      4.1067      3.6140      3.6138      4.1066    
  5.2323      7.2381      10.696      16.295      23.845      32.380      40.773      48.140      53.743      56.824    
  56.819      53.732      39.732      32.383      24.572      17.332      11.630      7.8703      5.6284      4.2985    
  3.6232      3.4184      3.6232      4.2990      5.6297      7.8714      11.629      17.326      24.564      32.380    
  39.741      45.785      49.795      51.202      49.780      45.767      30.621      23.851      17.332      11.967    
  8.2282      5.8988      4.4489      3.6461      3.2965      3.2966      3.6463      4.4496      5.9008      8.2304    
  11.965      17.324      23.841      30.617      36.694      41.257      43.703      43.696      41.242      36.685    
  21.774      16.299      11.630      8.2282      5.9946      4.5309      3.6646      3.2249      3.0915      3.2249    
  3.6646      4.5320      5.9981      8.2323      11.630      16.292      21.763      27.241      31.869      34.944    
  36.018      34.941      31.869      27.249      14.416      10.696      7.8703      5.8988      4.5309      3.6710    
  3.1908      2.9790      2.9791      3.1904      3.6703      4.5314      5.9023      7.8759      10.700      14.414    
  18.622      22.653      25.801      27.521      27.524      25.809      22.663      18.631      9.3700      7.2368    