FCC Au                                  
   4.25000000000000     
     0.000000    0.500000    0.500000
     0.500000    0.000000    0.500000
     0.500000    0.500000    0.000000
   Au
     1
Direct
  0.000000  0.000000  0.000000
 
   24   24   24
 0.93293786342E+02 0.89469389745E+02 0.79682255332E+02 0.67417421298E+02 0.55112118278E+02
 0.43206909469E+02 0.31601164764E+02 0.21138668605E+02 0.13243405079E+02 0.84814982695E+01
 0.59788996393E+01 0.46726848857E+01 0.42661373532E+01 0.46726848857E+01 0.59788996393E+01
 0.84814982695E+01 0.13243405079E+02 0.21138668605E+02 0.31601164764E+02 0.43206909469E+02
 0.55112118278E+02 0.67417421298E+02 0.79682255332E+02 0.89469389745E+02 0.89469389745E+02
 0.82703963483E+02 0.71853622428E+02 0.59901798679E+02 0.48129539056E+02 0.36538039185E+02
 0.25523653589E+02 0.16399953564E+02 0.10275784353E+02 0.69230075250E+01 0.51289582150E+01
 0.43166973528E+01 0.43163480735E+01 0.51284297921E+01 0.69229124955E+01 0.10276029629E+02
 0.16401134282E+02 0.25527846323E+02 0.36545406654E+02 0.48134034170E+02 0.59893891642E+02
 0.71830733644E+02 0.82677466571E+02 0.89457573758E+02 0.79682255332E+02 0.71853622428E+02
 0.61635511985E+02 0.50768190009E+02 0.39731611072E+02 0.28844921034E+02 0.19191774775E+02
 0.12087573045E+02 0.78780586745E+01 0.56256695666E+01 0.44484566581E+01 0.40846009432E+01
 0.44482817274E+01 0.56255794199E+01 0.78777385771E+01 0.12087057582E+02 0.19193351528E+02
 0.28851413855E+02 0.39740663272E+02 0.50770237498E+02 0.61621770699E+02 0.71827723151E+02
 0.79661183767E+02 0.82677466571E+02 0.67417421298E+02 0.59901798679E+02 0.50768190009E+02
 0.40834782317E+02 0.30620743056E+02 0.21098646006E+02 0.13575846140E+02 0.87474912246E+01
 0.60897540419E+01 0.46159669220E+01 0.39611434852E+01 0.39613095848E+01 0.46164035030E+01
 0.60899462459E+01 0.87465467845E+01 0.13573927285E+02 0.21097905642E+02 0.30623366457E+02
 0.40839659501E+02 0.50770865015E+02 0.59899069972E+02 0.67411573204E+02 0.71827723151E+02
 0.71830733644E+02 0.55112118278E+02 0.48129539056E+02 0.39731611072E+02 0.30620743056E+02
 0.21774057102E+02 0.14416344101E+02 0.93700140452E+01 0.64486742623E+01 0.47705249243E+01
 0.39079622039E+01 0.36450103432E+01 0.39079803395E+01 0.47710155018E+01 0.64495176966E+01
 0.93699707203E+01 0.14414076384E+02 0.21769886017E+02 0.30617169144E+02 0.39731672213E+02
 0.48134236490E+02 0.55119179713E+02 0.59899069972E+02 0.61621770699E+02 0.59893891642E+02
 0.43206909469E+02 0.36538039185E+02 0.28844921034E+02 0.21098646006E+02 0.14416344101E+02
 0.95973491207E+01 0.66445531978E+01 0.48750267170E+01 0.38876639886E+01 0.34568029525E+01
 0.34564726746E+01 0.38872278181E+01 0.48757055151E+01 0.66469921836E+01 0.96003369477E+01
 0.14417035278E+02 0.21094890288E+02 0.28837737970E+02 0.36531265075E+02 0.43203779862E+02
 0.48134236490E+02 0.50770865015E+02 0.50770237498E+02 0.48134034170E+02 0.31601164764E+02
 0.25523653589E+02 0.19191774775E+02 0.13575846140E+02 0.93700140452E+01 0.66445531978E+01
 0.49112814655E+01 0.38795172287E+01 0.33572169054E+01 0.31990454859E+01 0.33567972866E+01
 0.38787258968E+01 0.49112651333E+01 0.66473291436E+01 0.93760940246E+01 0.13582249993E+02
 0.19193370251E+02 0.25517166224E+02 0.31588092489E+02 0.36531265075E+02 0.39731672213E+02
 0.40839659501E+02 0.39740663272E+02 0.36545406654E+02 0.21138668605E+02 0.16399953564E+02
 0.12087573045E+02 0.87474912246E+01 0.64486742623E+01 0.48750267170E+01 0.38795172287E+01
 0.33255548628E+01 0.30832544479E+01 0.30834302047E+01 0.33252134729E+01 0.38774059677E+01
 0.48720314113E+01 0.64483590323E+01 0.87531359920E+01 0.12097983469E+02 0.16408581292E+02
 0.21138243188E+02 0.25517166224E+02 0.28837737970E+02 0.30617169144E+02 0.30623366457E+02
 0.28851413855E+02 0.25527846323E+02 0.13243405079E+02 0.10275784353E+02 0.78780586745E+01
 0.60897540419E+01 0.47705249243E+01 0.38876639886E+01 0.33572169054E+01 0.30832544479E+01
 0.29998080277E+01 0.30839380971E+01 0.33571816463E+01 0.38848576500E+01 0.47645375153E+01
 0.60839897671E+01 0.78781233404E+01 0.10283972431E+02 0.13255123008E+02 0.16408581292E+02
 0.19193370251E+02 0.21094890288E+02 0.21769886017E+02 0.21097905642E+02 0.19193351528E+02
 0.16401134282E+02 0.84814982695E+01 0.69230075250E+01 0.56256695666E+01 0.46159669220E+01
 0.39079622039E+01 0.34568029525E+01 0.31990454859E+01 0.30834302047E+01 0.30839380971E+01
 0.32008970249E+01 0.34594216333E+01 0.39082127662E+01 0.46105817887E+01 0.56158617797E+01
 0.69150357744E+01 0.84813543738E+01 0.10283972431E+02 0.12097983469E+02 0.13582249993E+02
 0.14417035278E+02 0.14414076384E+02 0.13573927285E+02 0.12087057582E+02 0.10276029629E+02
 0.59788996393E+01 0.51289582150E+01 0.44484566581E+01 0.39611434852E+01 0.36450103432E+01
 0.34564726746E+01 0.33567972866E+01 0.33252134729E+01 0.33571816463E+01 0.34594216333E+01
 0.36511288504E+01 0.39668381485E+01 0.44482710998E+01 0.51209214262E+01 0.59672413925E+01
 0.69150357744E+01 0.78781233404E+01 0.87531359920E+01 0.93760940246E+01 0.96003369477E+01
 0.93699707203E+01 0.87465467845E+01 0.78777385771E+01 0.69229124955E+01 0.46726848857E+01
 0.43166973528E+01 0.40846009432E+01 0.39613095848E+01 0.39079803395E+01 0.38872278181E+01
 0.38787258968E+01 0.38774059677E+01 0.38848576500E+01 0.39082127662E+01 0.39668381485E+01
 0.40939956704E+01 0.43242913659E+01 0.46728784895E+01 0.51209214262E+01 0.56158617797E+01
 0.60839897671E+01 0.64483590323E+01 0.66473291436E+01 0.66469921836E+01 0.64495176966E+01
 0.60899462459E+01 0.56255794199E+01 0.51284297921E+01 0.42661373532E+01 0.43163480735E+01
 0.44482817274E+01 0.46164035030E+01 0.47710155018E+01 0.48757055151E+01 0.49112651333E+01
 0.48720314113E+01 0.47645375153E+01 0.46105817887E+01 0.44482710998E+01 0.43242913659E+01
 0.42778440067E+01 0.43242913659E+01 0.44482710998E+01 0.46105817887E+01 0.47645375153E+01
 0.48720314113E+01 0.49112651333E+01 0.48757055151E+01 0.47710155018E+01 0.46164035030E+01
 0.44482817274E+01 0.43163480735E+01 0.46726848857E+01 0.51284297921E+01 0.56255794199E+01
 0.60899462459E+01 0.64495176966E+01 0.66469921836E+01 0.66473291436E+01 0.64483590323E+01
 0.60839897671E+01 0.56158617797E+01 0.51209214262E+01 0.46728784895E+01 0.43242913659E+01
 0.40939956704E+01 0.39668381485E+01 0.39082127662E+01 0.38848576500E+01 0.38774059677E+01
 0.38787258968E+01 0.38872278181E+01 0.39079803395E+01 0.39613095848E+01 0.40846009432E+01
 0.43166973528E+01 0.59788996393E+01 0.69229124955E+01 0.78777385771E+01 0.87465467845E+01
 0.93699707203E+01 0.96003369477E+01 0.93760940246E+01 0.87531359920E+01 0.78781233404E+01
 0.69150357744E+01 0.59672413925E+01 0.51209214262E+01 0.44482710998E+01 0.39668381485E+01
 0.36511288504E+01 0.34594216333E+01 0.33571816463E+01 0.33252134729E+01 0.33567972866E+01
 0.34564726746E+01 0.36450103432E+01 0.39611434852E+01 0.44484566581E+01 0.51289582150E+01
 0.84814982695E+01 0.10276029629E+02 0.12087057582E+02 0.13573927285E+02 0.14414076384E+02
 0.14417035278E+02 0.13582249993E+02 0.12097983469E+02 0.10283972431E+02 0.84813543738E+01
 0.69150357744E+01 0.56158617797E+01 0.46105817887E+01 0.39082127662E+01 0.34594216333E+01
 0.32008970249E+01 0.30839380971E+01 0.30834302047E+01 0.31990454859E+01 0.34568029525E+01
 0.39079622039E+01 0.46159669220E+01 0.56256695666E+01 0.69230075250E+01 0.13243405079E+02
 0.16401134282E+02 0.19193351528E+02 0.21097905642E+02 0.21769886017E+02 0.21094890288E+02
 0.19193370251E+02 0.16408581292E+02 0.13255123008E+02 0.10283972431E+02 0.78781233404E+01
 0.60839897671E+01 0.47645375153E+01 0.38848576500E+01 0.33571816463E+01 0.30839380971E+01
 0.29998080277E+01 0.30832544479E+01 0.33572169054E+01 0.38876639886E+01 0.47705249243E+01
 0.60897540419E+01 0.78780586745E+01 0.10275784353E+02 0.21138668605E+02 0.25527846323E+02
 0.28851413855E+02 0.30623366457E+02 0.30617169144E+02 0.28837737970E+02 0.25517166224E+02
 0.21138243188E+02 0.16408581292E+02 0.12097983469E+02 0.87531359920E+01 0.64483590323E+01
 0.48720314113E+01 0.38774059677E+01 0.33252134729E+01 0.30834302047E+01 0.30832544479E+01
 0.33255548628E+01 0.38795172287E+01 0.48750267170E+01 0.64486742623E+01 0.87474912246E+01
 0.12087573045E+02 0.16399953564E+02 0.31601164764E+02 0.36545406654E+02 0.39740663272E+02
 0.40839659501E+02 0.39731672213E+02 0.36531265075E+02 0.31588092489E+02 0.25517166224E+02
 0.19193370251E+02 0.13582249993E+02 0.93760940246E+01 0.66473291436E+01 0.49112651333E+01
 0.38787258968E+01 0.33567972866E+01 0.31990454859E+01 0.33572169054E+01 0.38795172287E+01
 0.49112814655E+01 0.66445531978E+01 0.93700140452E+01 0.13575846140E+02 0.19191774775E+02
 0.25523653589E+02 0.43206909469E+02 0.48134034170E+02 0.50770237498E+02 0.50770865015E+02
 0.48134236490E+02 0.43203779862E+02 0.36531265075E+02 0.28837737970E+02 0.21094890288E+02
 0.14417035278E+02 0.96003369477E+01 0.66469921836E+01 0.48757055151E+01 0.38872278181E+01
 0.34564726746E+01 0.34568029525E+01 0.38876639886E+01 0.48750267170E+01 0.66445531978E+01
 0.95973491207E+01 0.14416344101E+02 0.21098646006E+02 0.28844921034E+02 0.36538039185E+02
 0.55112118278E+02 0.59893891642E+02 0.61621770699E+02 0.59899069972E+02 0.55119179713E+02
 0.48134236490E+02 0.39731672213E+02 0.30617169144E+02 0.21769886017E+02 0.14414076384E+02
 0.93699707203E+01 0.64495176966E+01 0.47710155018E+01 0.39079803395E+01 0.36450103432E+01
 0.39079622039E+01 0.47705249243E+01 0.64486742623E+01 0.93700140452E+01 0.14416344101E+02
 0.21774057102E+02 0.30620743056E+02 0.39731611072E+02 0.48129539056E+02 0.67417421298E+02
 0.71830733644E+02 0.71827723151E+02 0.67411573204E+02 0.59899069972E+02 0.50770865015E+02
 0.40839659501E+02 0.30623366457E+02 0.21097905642E+02 0.13573927285E+02 0.87465467845E+01
 0.60899462459E+01 0.46164035030E+01 0.39613095848E+01 0.39611434852E+01 0.46159669220E+01
 0.60897540419E+01 0.87474912246E+01 0.13575846140E+02 0.21098646006E+02 0.30620743056E+02
 0.40834782317E+02 0.50768190009E+02 0.59901798679E+02 0.79682255332E+02 0.82677466571E+02
 0.79661183767E+02 0.71827723151E+02 0.61621770699E+02 0.50770237498E+02 0.39740663272E+02
 0.28851413855E+02 0.19193351528E+02 0.12087057582E+02 0.78777385771E+01 0.56255794199E+01
 0.44482817274E+01 0.40846009432E+01 0.44484566581E+01 0.56256695666E+01 0.78780586745E+01
 0.12087573045E+02 0.19191774775E+02 0.28844921034E+02 0.39731611072E+02 0.50768190009E+02
 0.61635511985E+02 0.71853622428E+02 0.89469389745E+02 0.89457573758E+02 0.82677466571E+02
 0.71830733644E+02 0.59893891642E+02 0.48134034170E+02 0.36545406654E+02 0.25527846323E+02
 0.16401134282E+02 0.10276029629E+02 0.69229124955E+01 0.51284297921E+01 0.43163480735E+01
 0.43166973528E+01 0.51289582150E+01 0.69230075250E+01 0.10275784353E+02 0.16399953564E+02
 0.25523653589E+02 0.36538039185E+02 0.48129539056E+02 0.59901798679E+02 0.71853622428E+02
 0.82703963483E+02 0.89469389745E+02 0.82703963483E+02 0.71853622428E+02 0.59901798679E+02
 0.48129539056E+02 0.36538039185E+02 0.25523653589E+02 0.16399953564E+02 0.10275784353E+02
 0.69230075250E+01 0.51289582150E+01 0.43166973528E+01 0.43163480735E+01 0.51284297921E+01
 0.69229124955E+01 0.10276029629E+02 0.16401134282E+02 0.25527846323E+02 0.36545406654E+02
 0.48134034170E+02 0.59893891642E+02 0.71830733644E+02 0.82677466571E+02 0.89457573758E+02
 0.82703963483E+02 0.74248992294E+02 0.63376791724E+02 0.52060119627E+02 0.40768860767E+02
 0.29680941059E+02 0.19793290439E+02 0.12451064594E+02 0.80725315897E+01 0.57434300511E+01
 0.45257008602E+01 0.41485056663E+01 0.45256074942E+01 0.57432658037E+01 0.80718467906E+01
 0.12450474834E+02 0.19796400853E+02 0.29691114705E+02 0.40781481209E+02 0.52060960477E+02
 0.63354033545E+02 0.74209165221E+02 0.82672286710E+02 0.85957715406E+02 0.71853622428E+02
 0.63376791724E+02 0.53438599919E+02 0.42987710312E+02 0.32383086511E+02 0.22424473433E+02
 0.14425865236E+02 0.92133447864E+01 0.63554092053E+01 0.47836108957E+01 0.40810558982E+01
 0.40812167288E+01 0.47839208001E+01 0.63550652823E+01 0.92115730934E+01 0.14424324228E+02
 0.22427564586E+02 0.32392774502E+02 0.42997661317E+02 0.53437074373E+02 0.63358851244E+02
 0.71829738939E+02 0.76934314094E+02 0.76945399130E+02 0.59901798679E+02 0.52060119627E+02
 0.42987710312E+02 0.33315983437E+02 0.23851457830E+02 0.15804579515E+02 0.10156896144E+02
 0.68778164183E+01 0.50357214598E+01 0.40811943207E+01 0.37889610909E+01 0.40811290752E+01
 0.50360210853E+01 0.68778630476E+01 0.10155174822E+02 0.15801215465E+02 0.23849503287E+02
 0.33318652236E+02 0.42994464051E+02 0.52066838504E+02 0.59905179916E+02 0.65488572207E+02
 0.67550930516E+02 0.65487998053E+02 0.48129539056E+02 0.40768860767E+02 0.32383086511E+02
 0.23851457830E+02 0.16299295675E+02 0.10696178001E+02 0.72368262047E+01 0.52313416203E+01
 0.41067248042E+01 0.36140331693E+01 0.36137889875E+01 0.41066425639E+01 0.52323068010E+01
 0.72381429633E+01 0.10695528299E+02 0.16295115281E+02 0.23845451926E+02 0.32379919336E+02
 0.40772582466E+02 0.48139657099E+02 0.53742779426E+02 0.56823753233E+02 0.56819075002E+02
 0.53731883294E+02 0.36538039185E+02 0.29680941059E+02 0.22424473433E+02 0.15804579515E+02
 0.10696178001E+02 0.73665469360E+01 0.53375375841E+01 0.41287127535E+01 0.35162485943E+01
 0.33306811735E+01 0.35160375048E+01 0.41286573032E+01 0.53385847431E+01 0.73692956382E+01
 0.10699216856E+02 0.15804753127E+02 0.22420008426E+02 0.29674078046E+02 0.36533327578E+02
 0.42119590486E+02 0.45772701551E+02 0.47045086240E+02 0.45771167545E+02 0.42120008696E+02
 0.25523653589E+02 0.19793290439E+02 0.14425865236E+02 0.10156896144E+02 0.72368262047E+01
 0.53375375841E+01 0.41367640287E+01 0.34715409463E+01 0.31813966174E+01 0.31813582282E+01
 0.34709623160E+01 0.41354872470E+01 0.53373188387E+01 0.72401658078E+01 0.10163742972E+02
 0.14432264080E+02 0.19794180684E+02 0.25517189525E+02 0.30710473918E+02 0.34606043909E+02
 0.36683803116E+02 0.36687637465E+02 0.34615767850E+02 0.30721343994E+02 0.16399953564E+02
 0.12451064594E+02 0.92133447864E+01 0.68778164183E+01 0.52313416203E+01 0.41287127535E+01
 0.34715409463E+01 0.31349877787E+01 0.30326619124E+01 0.31350658633E+01 0.34705049235E+01
 0.41257499702E+01 0.52278681402E+01 0.68774482943E+01 0.92189321652E+01 0.12460997872E+02
 0.16408046405E+02 0.20496499571E+02 0.24029764752E+02 0.26406501122E+02 0.27244590564E+02
 0.26413268614E+02 0.24036381432E+02 0.20496006529E+02 0.10275784353E+02 0.80725315897E+01
 0.63554092053E+01 0.50357214598E+01 0.41067248042E+01 0.35162485943E+01 0.31813966174E+01
 0.30326619124E+01 0.30331706681E+01 0.31824951088E+01 0.35162851415E+01 0.41033290647E+01
 0.50286357366E+01 0.63487313688E+01 0.80721752868E+01 0.10283580062E+02 0.12860389718E+02
 0.15420224277E+02 0.17480548171E+02 0.18627194726E+02 0.18626892179E+02 0.17477623731E+02
 0.15412040247E+02 0.12849110234E+02 0.69230075250E+01 0.57434300511E+01 0.47836108957E+01
 0.40811943207E+01 0.36140331693E+01 0.33306811735E+01 0.31813582282E+01 0.31350658633E+01
 0.31824951088E+01 0.33336387347E+01 0.36175362360E+01 0.40813364069E+01 0.47774802059E+01
 0.57331725119E+01 0.69150566831E+01 0.82699325357E+01 0.97301878827E+01 0.11081961101E+02
 0.12045306751E+02 0.12392657448E+02 0.12038474312E+02 0.11071889483E+02 0.97228094092E+01
 0.82701921042E+01 0.51289582150E+01 0.45257008602E+01 0.40810558982E+01 0.37889610909E+01
 0.36137889875E+01 0.35160375048E+01 0.34709623160E+01 0.34705049235E+01 0.35162851415E+01
 0.36175362360E+01 0.37961816773E+01 0.40874008133E+01 0.45256477976E+01 0.51210155360E+01
 0.58413452214E+01 0.66110924913E+01 0.73357465770E+01 0.79212981435E+01 0.82524189599E+01
 0.82497566416E+01 0.79165569920E+01 0.73353954301E+01 0.66182773337E+01 0.58525254459E+01
 0.43166973528E+01 0.41485056663E+01 0.40812167288E+01 0.40811290752E+01 0.41066425639E+01
 0.41286573032E+01 0.41354872470E+01 0.41257499702E+01 0.41033290647E+01 0.40813364069E+01
 0.40874008133E+01 0.41585426578E+01 0.43243844172E+01 0.45895679440E+01 0.49270137278E+01
 0.52845203941E+01 0.55992851545E+01 0.58139820940E+01 0.58901245649E+01 0.58154953952E+01
 0.56043259601E+01 0.52928407169E+01 0.49338726677E+01 0.45894526388E+01 0.43163480735E+01
 0.45256074942E+01 0.47839208001E+01 0.50360210853E+01 0.52323068010E+01 0.53385847431E+01
 0.53373188387E+01 0.52278681402E+01 0.50286357366E+01 0.47774802059E+01 0.45256477976E+01
 0.43243844172E+01 0.42084374453E+01 0.41841285826E+01 0.42291565391E+01 0.43051593481E+01
 0.43754007202E+01 0.44163747759E+01 0.44183010474E+01 0.43802757296E+01 0.43099044922E+01
 0.42292200085E+01 0.41770507872E+01 0.41973245483E+01 0.51284297921E+01 0.57432658037E+01
 0.63550652823E+01 0.68778630476E+01 0.72381429633E+01 0.73692956382E+01 0.72401658078E+01
 0.68774482943E+01 0.63487313688E+01 0.57331725119E+01 0.51210155360E+01 0.45895679440E+01
 0.41841285826E+01 0.39106585517E+01 0.37443509388E+01 0.36502753690E+01 0.36022292680E+01
 0.35879782527E+01 0.36035666108E+01 0.36501087637E+01 0.37399163485E+01 0.39026816064E+01
 0.41774141476E+01 0.45894526388E+01 0.69229124955E+01 0.80718467906E+01 0.92115730934E+01
 0.10155174822E+02 0.10695528299E+02 0.10699216856E+02 0.10163742972E+02 0.92189321652E+01
 0.80721752868E+01 0.69150566831E+01 0.58413452214E+01 0.49270137278E+01 0.42291565391E+01
 0.37443509388E+01 0.34332299402E+01 0.32514495520E+01 0.31679408254E+01 0.31676643650E+01
 0.32495627450E+01 0.34287498390E+01 0.37396869439E+01 0.42292647559E+01 0.49343915798E+01
 0.58525254459E+01 0.10276029629E+02 0.12450474834E+02 0.14424324228E+02 0.15801215465E+02
 0.16295115281E+02 0.15804753127E+02 0.14432264080E+02 0.12460997872E+02 0.10283580062E+02
 0.82699325357E+01 0.66110924913E+01 0.52845203941E+01 0.43051593481E+01 0.36502753690E+01
 0.32514495520E+01 0.30412315652E+01 0.29757612249E+01 0.30401992105E+01 0.32498415074E+01
 0.36502065257E+01 0.43093843040E+01 0.52927288505E+01 0.66182534729E+01 0.82701921042E+01
 0.16401134282E+02 0.19796400853E+02 0.22427564586E+02 0.23849503287E+02 0.23845451926E+02
 0.22420008426E+02 0.19794180684E+02 0.16408046405E+02 0.12860389718E+02 0.97301878827E+01
 0.73357465770E+01 0.55992851545E+01 0.43754007202E+01 0.36022292680E+01 0.31679408254E+01
 0.29757612249E+01 0.29754131424E+01 0.31678046886E+01 0.36041798454E+01 0.43800411537E+01
 0.56039576699E+01 0.73355499162E+01 0.97225685173E+01 0.12849110234E+02 0.25527846323E+02
 0.29691114705E+02 0.32392774502E+02 0.33318652236E+02 0.32379919336E+02 0.29674078046E+02
 0.25517189525E+02 0.20496499571E+02 0.15420224277E+02 0.11081961101E+02 0.79212981435E+01
 0.58139820940E+01 0.44163747759E+01 0.35879782527E+01 0.31676643650E+01 0.30401992105E+01
 0.31678046886E+01 0.35891127618E+01 0.44183236888E+01 0.58143087028E+01 0.79169898185E+01
 0.11073103247E+02 0.15411908994E+02 0.20496006529E+02 0.36545406654E+02 0.40781481209E+02
 0.42997661317E+02 0.42994464051E+02 0.40772582466E+02 0.36533327578E+02 0.30710473918E+02
 0.24029764752E+02 0.17480548171E+02 0.12045306751E+02 0.82524189599E+01 0.58901245649E+01
 0.44183010474E+01 0.36035666108E+01 0.32495627450E+01 0.32498415074E+01 0.36041798454E+01
 0.44183236888E+01 0.58880857853E+01 0.82478658615E+01 0.12040439150E+02 0.17479451495E+02
 0.24035202005E+02 0.30721343994E+02 0.48134034170E+02 0.52060960477E+02 0.53437074373E+02
 0.52066838504E+02 0.48139657099E+02 0.42119590486E+02 0.34606043909E+02 0.26406501122E+02
 0.18627194726E+02 0.12392657448E+02 0.82497566416E+01 0.58154953952E+01 0.43802757296E+01
 0.36501087637E+01 0.34287498390E+01 0.36502065257E+01 0.43800411537E+01 0.58143087028E+01
 0.82478658615E+01 0.12392117876E+02 0.18630565173E+02 0.26413542241E+02 0.34612321254E+02
 0.42120008696E+02 0.59893891642E+02 0.63354033545E+02 0.63358851244E+02 0.59905179916E+02
 0.53742779426E+02 0.45772701551E+02 0.36683803116E+02 0.27244590564E+02 0.18626892179E+02
 0.12038474312E+02 0.79165569920E+01 0.56043259601E+01 0.43099044922E+01 0.37399163485E+01
 0.37396869439E+01 0.43093843040E+01 0.56039576699E+01 0.79169898185E+01 0.12040439150E+02
 0.18630565173E+02 0.27248503803E+02 0.36684656947E+02 0.45767435076E+02 0.53731883294E+02
 0.71830733644E+02 0.74209165221E+02 0.71829738939E+02 0.65488572207E+02 0.56823753233E+02
 0.47045086240E+02 0.36687637465E+02 0.26413268614E+02 0.17477623731E+02 0.11071889483E+02
 0.73353954301E+01 0.52928407169E+01 0.42292200085E+01 0.39026816064E+01 0.42292647559E+01
 0.52927288505E+01 0.73355499162E+01 0.11073103247E+02 0.17479451495E+02 0.26413542241E+02
 0.36684656947E+02 0.47040079477E+02 0.56820049395E+02 0.65487998053E+02 0.82677466571E+02
 0.82672286710E+02 0.76934314094E+02 0.67550930516E+02 0.56819075002E+02 0.45771167545E+02
 0.34615767850E+02 0.24036381432E+02 0.15412040247E+02 0.97228094092E+01 0.66182773337E+01
 0.49338726677E+01 0.41770507872E+01 0.41774141476E+01 0.49343915798E+01 0.66182534729E+01
 0.97225685173E+01 0.15411908994E+02 0.24035202005E+02 0.34612321254E+02 0.45767435076E+02
 0.56820049395E+02 0.67559205610E+02 0.76945399130E+02 0.89457573758E+02 0.85957715406E+02
 0.76945399130E+02 0.65487998053E+02 0.53731883294E+02 0.42120008696E+02 0.30721343994E+02
 0.20496006529E+02 0.12849110234E+02 0.82701921042E+01 0.58525254459E+01 0.45894526388E+01
 0.41973245483E+01 0.45894526388E+01 0.58525254459E+01 0.82701921042E+01 0.12849110234E+02
 0.20496006529E+02 0.30721343994E+02 0.42120008696E+02 0.53731883294E+02 0.65487998053E+02
 0.76945399130E+02 0.85957715406E+02 0.79682255332E+02 0.71853622428E+02 0.61635511985E+02
 0.50768190009E+02 0.39731611072E+02 0.28844921034E+02 0.19191774775E+02 0.12087573045E+02
 0.78780586745E+01 0.56256695666E+01 0.44484566581E+01 0.40846009432E+01 0.44482817274E+01
 0.56255794199E+01 0.78777385771E+01 0.12087057582E+02 0.19193351528E+02 0.28851413855E+02
 0.39740663272E+02 0.50770237498E+02 0.61621770699E+02 0.71827723151E+02 0.79661183767E+02
 0.82677466571E+02 0.71853622428E+02 0.63376791724E+02 0.53438599919E+02 0.42987710312E+02
 0.32383086511E+02 0.22424473433E+02 0.14425865236E+02 0.92133447864E+01 0.63554092053E+01
 0.47836108957E+01 0.40810558982E+01 0.40812167288E+01 0.47839208001E+01 0.63550652823E+01
 0.92115730934E+01 0.14424324228E+02 0.22427564586E+02 0.32392774502E+02 0.42997661317E+02
 0.53437074373E+02 0.63358851244E+02 0.71829738939E+02 0.76934314094E+02 0.76945399130E+02
 0.61635511985E+02 0.53438599919E+02 0.44103089599E+02 0.34237473854E+02 0.24572393234E+02
 0.16296372904E+02 0.10440180882E+02 0.70306914142E+01 0.51300103340E+01 0.41423990873E+01
 0.38394998603E+01 0.41422394940E+01 0.51300183657E+01 0.70300724729E+01 0.10437606434E+02
 0.16292963456E+02 0.24572378340E+02 0.34243807731E+02 0.44112887381E+02 0.53445163285E+02
 0.61635587905E+02 0.67556484999E+02 0.69762566359E+02 0.67559205610E+02 0.50768190009E+02
 0.42987710312E+02 0.34237473854E+02 0.25321524336E+02 0.17332434000E+02 0.11313125748E+02
 0.75667838415E+01 0.54277326342E+01 0.42271331459E+01 0.36994520404E+01 0.36991112939E+01
 0.42268655740E+01 0.54283347183E+01 0.75669162252E+01 0.11310069771E+02 0.17325752373E+02
 0.25315470068E+02 0.34238720401E+02 0.42999844618E+02 0.50787866055E+02 0.56838228425E+02
 0.60225907322E+02 0.60218548670E+02 0.56820049395E+02 0.39731611072E+02 0.32383086511E+02
 0.24572393234E+02 0.17332434000E+02 0.11630318492E+02 0.78703177949E+01 0.56284398453E+01
 0.42984978168E+01 0.36231990293E+01 0.34184108335E+01 0.36232086941E+01 0.42989766512E+01
 0.56297200153E+01 0.78713983414E+01 0.11628539523E+02 0.17325956482E+02 0.24564032015E+02
 0.32380386010E+02 0.39740544269E+02 0.45784950390E+02 0.49794639688E+02 0.51201903724E+02
 0.49780394746E+02 0.45767435076E+02 0.28844921034E+02 0.22424473433E+02 0.16296372904E+02
 0.11313125748E+02 0.78703177949E+01 0.56997010963E+01 0.43380359871E+01 0.35842539512E+01
 0.32559322155E+01 0.32560289154E+01 0.35842039533E+01 0.43378806699E+01 0.57008070552E+01
 0.78734906861E+01 0.11316110164E+02 0.16295281789E+02 0.22418573829E+02 0.28838512625E+02
 0.34610285227E+02 0.38935301442E+02 0.41246641841E+02 0.41244987015E+02 0.38933156620E+02
 0.34612321254E+02 0.19191774775E+02 0.14425865236E+02 0.10440180882E+02 0.75667838415E+01
 0.56284398453E+01 0.43380359871E+01 0.35722454691E+01 0.31819055498E+01 0.30632084507E+01
 0.31815740283E+01 0.35709632454E+01 0.43362923427E+01 0.56284814448E+01 0.75705626967E+01
 0.10446662745E+02 0.14431020176E+02 0.19191692447E+02 0.24029360251E+02 0.28151709602E+02
 0.30901312714E+02 0.31866155260E+02 0.30907118431E+02 0.28159966033E+02 0.24035202005E+02
 0.12087573045E+02 0.92133447864E+01 0.70306914142E+01 0.54277326342E+01 0.42984978168E+01
 0.35842539512E+01 0.31819055498E+01 0.30038606736E+01 0.30040260511E+01 0.31818526029E+01
 0.35827484415E+01 0.42949604742E+01 0.54238193505E+01 0.70300332399E+01 0.92184187067E+01
 0.12096393735E+02 0.15418842647E+02 0.18664048041E+02 0.21237246714E+02 0.22656238446E+02
 0.22658336047E+02 0.21240555832E+02 0.18663077628E+02 0.15411908994E+02 0.78780586745E+01
 0.63554092053E+01 0.51300103340E+01 0.42271331459E+01 0.36231990293E+01 0.32559322155E+01
 0.30632084507E+01 0.30040260511E+01 0.30644743082E+01 0.32576686550E+01 0.36231950348E+01
 0.42230003311E+01 0.51223244156E+01 0.63488229562E+01 0.78777498482E+01 0.97293125060E+01
 0.11756052390E+02 0.13621635855E+02 0.14939759570E+02 0.15414678820E+02 0.14936309415E+02
 0.13614215406E+02 0.11746494994E+02 0.97225685173E+01 0.56256695666E+01 0.47836108957E+01
 0.41423990873E+01 0.36994520404E+01 0.34184108335E+01 0.32560289154E+01 0.31815740283E+01
 0.31818526029E+01 0.32576686550E+01 0.34221356471E+01 0.37033127927E+01 0.41423664044E+01
 0.47775001955E+01 0.56161117537E+01 0.66111388744E+01 0.76807177393E+01 0.87416071541E+01
 0.96226334236E+01 0.10125752794E+02 0.10122539886E+02 0.96153127085E+01 0.87356484776E+01
 0.76810045698E+01 0.66182534729E+01 0.44484566581E+01 0.40810558982E+01 0.38394998603E+01
 0.36991112939E+01 0.36232086941E+01 0.35842039533E+01 0.35709632454E+01 0.35827484415E+01
 0.36231950348E+01 0.37033127927E+01 0.38471490320E+01 0.40874038111E+01 0.44483956449E+01
 0.49272137405E+01 0.54853260728E+01 0.60536206159E+01 0.65466661122E+01 0.68844355244E+01
 0.70045413028E+01 0.68822217094E+01 0.65466181468E+01 0.60592755426E+01 0.54948103554E+01
 0.49343915798E+01 0.40846009432E+01 0.40812167288E+01 0.41422394940E+01 0.42268655740E+01
 0.42989766512E+01 0.43378806699E+01 0.43362923427E+01 0.42949604742E+01 0.42230003311E+01
 0.41423664044E+01 0.40874038111E+01 0.40941718771E+01 0.41842939943E+01 0.43536069704E+01
 0.45721890125E+01 0.47944640333E+01 0.49733399040E+01 0.50725210116E+01 0.50735334711E+01
 0.49769785697E+01 0.48006428521E+01 0.45776426329E+01 0.43535762867E+01 0.41774141476E+01
 0.44482817274E+01 0.47839208001E+01 0.51300183657E+01 0.54283347183E+01 0.56297200153E+01
 0.57008070552E+01 0.56284814448E+01 0.54238193505E+01 0.51223244156E+01 0.47775001955E+01
 0.44483956449E+01 0.41842939943E+01 0.40111596307E+01 0.39258793130E+01 0.39027308088E+01
 0.39092994076E+01 0.39213905286E+01 0.39275215526E+01 0.39242368312E+01 0.39126081047E+01
 0.39027356675E+01 0.39201886913E+01 0.40017488897E+01 0.41770507872E+01 0.56255794199E+01
 0.63550652823E+01 0.70300724729E+01 0.75669162252E+01 0.78713983414E+01 0.78734906861E+01
 0.75705626967E+01 0.70300332399E+01 0.63488229562E+01 0.56161117537E+01 0.49272137405E+01
 0.43536069704E+01 0.39258793130E+01 0.36353677430E+01 0.34514610230E+01 0.33435689356E+01
 0.32934595422E+01 0.32939257865E+01 0.33435275834E+01 0.34484157644E+01 0.36292773775E+01
 0.39204556985E+01 0.43535762867E+01 0.49338726677E+01 0.78777385771E+01 0.92115730934E+01
 0.10437606434E+02 0.11310069771E+02 0.11628539523E+02 0.11316110164E+02 0.10446662745E+02
 0.92184187067E+01 0.78777498482E+01 0.66111388744E+01 0.54853260728E+01 0.45721890125E+01
 0.39027308088E+01 0.34514610230E+01 0.31707328510E+01 0.30188042810E+01 0.29706334771E+01
 0.30177226447E+01 0.31679673144E+01 0.34482545483E+01 0.39027319366E+01 0.45780078535E+01
 0.54948103554E+01 0.66182773337E+01 0.12087057582E+02 0.14424324228E+02 0.16292963456E+02
 0.17325752373E+02 0.17325956482E+02 0.16295281789E+02 0.14431020176E+02 0.12096393735E+02
 0.97293125060E+01 0.76807177393E+01 0.60536206159E+01 0.47944640333E+01 0.39092994076E+01
 0.33435689356E+01 0.30188042810E+01 0.28723746143E+01 0.28719208919E+01 0.30178520755E+01
 0.33435849721E+01 0.39122707109E+01 0.48005180058E+01 0.60592533037E+01 0.76810045698E+01
 0.97228094092E+01 0.19193351528E+02 0.22427564586E+02 0.24572378340E+02 0.25315470068E+02
 0.24564032015E+02 0.22418573829E+02 0.19191692447E+02 0.15418842647E+02 0.11756052390E+02
 0.87416071541E+01 0.65466661122E+01 0.49733399040E+01 0.39213905286E+01 0.32934595422E+01
 0.29706334771E+01 0.28719208919E+01 0.29706473157E+01 0.32945496944E+01 0.39242295326E+01
 0.49764817964E+01 0.65466211272E+01 0.87358060006E+01 0.11746494994E+02 0.15412040247E+02
 0.28851413855E+02 0.32392774502E+02 0.34243807731E+02 0.34238720401E+02 0.32380386010E+02
 0.28838512625E+02 0.24029360251E+02 0.18664048041E+02 0.13621635855E+02 0.96226334236E+01
 0.68844355244E+01 0.50725210116E+01 0.39275215526E+01 0.32939257865E+01 0.30177226447E+01
 0.30178520755E+01 0.32945496944E+01 0.39285651223E+01 0.50725493550E+01 0.68814301718E+01
 0.96164595939E+01 0.13615555102E+02 0.18663077628E+02 0.24036381432E+02 0.39740663272E+02
 0.42997661317E+02 0.44112887381E+02 0.42999844618E+02 0.39740544269E+02 0.34610285227E+02
 0.28151709602E+02 0.21237246714E+02 0.14939759570E+02 0.10125752794E+02 0.70045413028E+01
 0.50735334711E+01 0.39242368312E+01 0.33435275834E+01 0.31679673144E+01 0.33435849721E+01
 0.39242295326E+01 0.50725493550E+01 0.70017233147E+01 0.10122498322E+02 0.14939748160E+02
 0.21242699671E+02 0.28159966033E+02 0.34615767850E+02 0.50770237498E+02 0.53437074373E+02
 0.53445163285E+02 0.50787866055E+02 0.45784950390E+02 0.38935301442E+02 0.30901312714E+02
 0.22656238446E+02 0.15414678820E+02 0.10122539886E+02 0.68822217094E+01 0.49769785697E+01
 0.39126081047E+01 0.34484157644E+01 0.34482545483E+01 0.39122707109E+01 0.49764817964E+01
 0.68814301718E+01 0.10122498322E+02 0.15417892445E+02 0.22663457163E+02 0.30907845560E+02