   1   1   0   0
  0.1919141E+02  0.3005204E-09  0.3005204E-09  0.3005204E-09  0.5000000E-15
  1.000000000000000E-004
  CAR 
 FCC Au                                  
     34.48458455     -6.57914674  301      3.99948718      1.00000000
     -6.579  0.0000E+00  0.0000E+00
     -6.442  0.0000E+00  0.0000E+00
     -6.305 -0.3149E-33 -0.4311E-34
     -6.169 -0.2454E-28 -0.3359E-29
     -6.032 -0.7436E-24 -0.1018E-24
     -5.895 -0.8752E-20 -0.1198E-20
     -5.758 -0.3830E-16 -0.5244E-17
     -5.621 -0.6786E-13 -0.9293E-14
     -5.484 -0.4551E-10 -0.6238E-11
     -5.347 -0.1159E-07 -0.1593E-08
     -5.210 -0.1101E-05 -0.1523E-06
     -5.073 -0.3762E-04 -0.5301E-05
     -4.937 -0.4186E-03 -0.6260E-04
     -4.800 -0.9377E-03 -0.1909E-03
     -4.663  0.3882E-02  0.3404E-03
     -4.526  0.1861E-01  0.2888E-02
     -4.389  0.4255E-01  0.8712E-02
     -4.252  0.5887E-01  0.1677E-01
     -4.115  0.6120E-01  0.2515E-01
     -3.978  0.7232E-01  0.3505E-01
     -3.842  0.1000E+00  0.4874E-01
     -3.705  0.1148E+00  0.6445E-01
     -3.568  0.8546E-01  0.7615E-01
     -3.431  0.9513E-01  0.8917E-01
     -3.294  0.1644E+00  0.1117E+00
     -3.157  0.1758E+00  0.1357E+00
     -3.020  0.1269E+00  0.1531E+00
     -2.883  0.1613E+00  0.1752E+00
     -2.747  0.2101E+00  0.2039E+00
     -2.610  0.2089E+00  0.2325E+00
     -2.473  0.2656E+00  0.2689E+00
     -2.336  0.3840E+00  0.3215E+00
     -2.199  0.5430E+00  0.3958E+00
     -2.062  0.6582E+00  0.4859E+00
     -1.925  0.8885E+00  0.6075E+00
     -1.788  0.1221E+01  0.7746E+00
     -1.651  0.1603E+01  0.9940E+00
     -1.515  0.2005E+01  0.1269E+01
     -1.378  0.2135E+01  0.1561E+01
     -1.241  0.2034E+01  0.1839E+01
     -1.104  0.1844E+01  0.2092E+01
     -0.967  0.1729E+01  0.2328E+01
     -0.830  0.1462E+01  0.2528E+01
     -0.693  0.1625E+01  0.2751E+01
     -0.556  0.2125E+01  0.3042E+01
     -0.420  0.2343E+01  0.3362E+01
     -0.283  0.2340E+01  0.3683E+01
     -0.146  0.2519E+01  0.4028E+01
     -0.009  0.2751E+01  0.4404E+01
      0.128  0.3075E+01  0.4825E+01
      0.265  0.3650E+01  0.5325E+01
      0.402  0.3328E+01  0.5780E+01
      0.539  0.2328E+01  0.6099E+01
      0.675  0.1793E+01  0.6344E+01
      0.812  0.1938E+01  0.6610E+01
      0.949  0.2289E+01  0.6923E+01
      1.086  0.2680E+01  0.7290E+01
      1.223  0.2514E+01  0.7634E+01
      1.360  0.2241E+01  0.7940E+01
      1.497  0.2236E+01  0.8246E+01
      1.634  0.1946E+01  0.8513E+01
      1.770  0.2008E+01  0.8788E+01
      1.907  0.2208E+01  0.9090E+01
      2.044  0.2870E+01  0.9483E+01
      2.181  0.3278E+01  0.9931E+01
      2.318  0.2554E+01  0.1028E+02
      2.455  0.1420E+01  0.1048E+02
      2.592  0.6942E+00  0.1057E+02
      2.729  0.2588E+00  0.1061E+02
      2.866  0.1390E+00  0.1062E+02
      3.002  0.2554E+00  0.1066E+02
      3.139  0.4517E+00  0.1072E+02
      3.276  0.3877E+00  0.1077E+02
      3.413  0.2261E+00  0.1081E+02
      3.550  0.1225E+00  0.1082E+02
      3.687  0.2741E+00  0.1086E+02
      3.824  0.5339E+00  0.1093E+02
      3.961  0.4149E+00  0.1099E+02
      4.097  0.2236E+00  0.1102E+02
      4.234  0.2001E+00  0.1105E+02
      4.371  0.2045E+00  0.1108E+02
      4.508  0.3526E+00  0.1112E+02
      4.645  0.4365E+00  0.1118E+02
      4.782  0.2971E+00  0.1122E+02
      4.919  0.2660E+00  0.1126E+02
      5.056  0.3143E+00  0.1130E+02
      5.192  0.2877E+00  0.1134E+02
      5.329  0.2472E+00  0.1138E+02
      5.466  0.2992E+00  0.1142E+02
      5.603  0.3355E+00  0.1146E+02
      5.740  0.3080E+00  0.1151E+02
      5.877  0.2736E+00  0.1154E+02
      6.014  0.2236E+00  0.1157E+02
      6.151  0.2853E+00  0.1161E+02
      6.287  0.3782E+00  0.1167E+02
      6.424  0.3307E+00  0.1171E+02
      6.561  0.2652E+00  0.1175E+02
      6.698  0.3593E+00  0.1180E+02
      6.835  0.5891E+00  0.1188E+02
      6.972  0.5067E+00  0.1195E+02
      7.109  0.2666E+00  0.1198E+02
      7.246  0.2232E+00  0.1201E+02
      7.383  0.2490E+00  0.1205E+02
      7.519  0.3090E+00  0.1209E+02
      7.656  0.3879E+00  0.1214E+02
      7.793  0.4156E+00  0.1220E+02
      7.930  0.3339E+00  0.1224E+02
      8.067  0.1442E+00  0.1226E+02
      8.204  0.4205E-01  0.1227E+02
      8.341  0.2313E+00  0.1230E+02
      8.478  0.4533E+00  0.1236E+02
      8.614  0.4697E+00  0.1243E+02
      8.751  0.4253E+00  0.1249E+02
      8.888  0.4543E+00  0.1255E+02
      9.025  0.3998E+00  0.1260E+02
      9.162  0.3140E+00  0.1265E+02
      9.299  0.3214E+00  0.1269E+02
      9.436  0.3889E+00  0.1274E+02
      9.573  0.4431E+00  0.1280E+02
      9.709  0.3736E+00  0.1286E+02
      9.846  0.2055E+00  0.1288E+02
      9.983  0.2006E+00  0.1291E+02
     10.120  0.4111E+00  0.1297E+02
     10.257  0.4853E+00  0.1303E+02
     10.394  0.2435E+00  0.1307E+02
     10.531  0.8370E-01  0.1308E+02
     10.668  0.2563E+00  0.1311E+02
     10.804  0.4744E+00  0.1318E+02
     10.941  0.3680E+00  0.1323E+02
     11.078  0.3634E+00  0.1328E+02
     11.215  0.4300E+00  0.1334E+02
     11.352  0.3273E+00  0.1338E+02
     11.489  0.5323E+00  0.1346E+02
     11.626  0.6192E+00  0.1354E+02
     11.763  0.2242E+00  0.1357E+02
     11.900  0.4651E-02  0.1357E+02
     12.036  0.1323E+00  0.1359E+02
     12.173  0.4306E+00  0.1365E+02
     12.310  0.5547E+00  0.1372E+02
     12.447  0.3749E+00  0.1378E+02
     12.584  0.3727E+00  0.1383E+02
     12.721  0.4739E+00  0.1389E+02
     12.858  0.3927E+00  0.1395E+02
     12.995  0.5104E+00  0.1402E+02
     13.131  0.4931E+00  0.1408E+02
     13.268  0.2939E+00  0.1412E+02
     13.405  0.3746E+00  0.1417E+02
     13.542  0.4837E+00  0.1424E+02
     13.679  0.4133E+00  0.1430E+02
     13.816  0.4231E+00  0.1435E+02
     13.953  0.7125E+00  0.1445E+02
     14.090  0.7602E+00  0.1456E+02
     14.226  0.3649E+00  0.1461E+02
     14.363  0.3523E+00  0.1465E+02
     14.500  0.4717E+00  0.1472E+02
     14.637  0.3831E+00  0.1477E+02
     14.774  0.5702E+00  0.1485E+02
     14.911  0.7855E+00  0.1496E+02
     15.048  0.8500E+00  0.1507E+02
     15.185  0.6967E+00  0.1517E+02
     15.322  0.4075E+00  0.1522E+02
     15.458  0.2289E+00  0.1526E+02
     15.595  0.2451E+00  0.1529E+02
     15.732  0.4303E+00  0.1535E+02
     15.869  0.5336E+00  0.1542E+02
     16.006  0.6419E+00  0.1551E+02
     16.143  0.6395E+00  0.1560E+02
     16.280  0.5128E+00  0.1567E+02
     16.417  0.4390E+00  0.1573E+02
     16.553  0.5259E+00  0.1580E+02
     16.690  0.5874E+00  0.1588E+02
     16.827  0.4265E+00  0.1594E+02
     16.964  0.4437E+00  0.1600E+02
     17.101  0.5868E+00  0.1608E+02
     17.238  0.5095E+00  0.1615E+02
     17.375  0.3882E+00  0.1620E+02
     17.512  0.4440E+00  0.1626E+02
     17.648  0.5373E+00  0.1634E+02
     17.785  0.4727E+00  0.1640E+02
     17.922  0.2989E+00  0.1644E+02
     18.059  0.3319E+00  0.1649E+02
     18.196  0.5880E+00  0.1657E+02
     18.333  0.5623E+00  0.1664E+02
     18.470  0.4393E+00  0.1670E+02
     18.607  0.5278E+00  0.1678E+02
     18.743  0.6508E+00  0.1687E+02
     18.880  0.6600E+00  0.1696E+02
     19.017  0.5344E+00  0.1703E+02
     19.154  0.4325E+00  0.1709E+02
     19.291  0.4152E+00  0.1715E+02
     19.428  0.5286E+00  0.1722E+02
     19.565  0.5573E+00  0.1729E+02
     19.702  0.3994E+00  0.1735E+02
     19.839  0.3003E+00  0.1739E+02
     19.975  0.5419E+00  0.1746E+02
     20.112  0.9353E+00  0.1759E+02
     20.249  0.1082E+01  0.1774E+02
     20.386  0.9608E+00  0.1787E+02
     20.523  0.8186E+00  0.1798E+02
     20.660  0.7547E+00  0.1809E+02
     20.797  0.8053E+00  0.1820E+02
     20.934  0.1126E+01  0.1835E+02
     21.070  0.1217E+01  0.1852E+02
     21.207  0.9505E+00  0.1865E+02
     21.344  0.7532E+00  0.1875E+02
     21.481  0.5894E+00  0.1883E+02
     21.618  0.4351E+00  0.1889E+02
     21.755  0.5889E+00  0.1897E+02
     21.892  0.8925E+00  0.1909E+02
     22.029  0.7631E+00  0.1920E+02
     22.165  0.6221E+00  0.1928E+02
     22.302  0.7750E+00  0.1939E+02
     22.439  0.8296E+00  0.1950E+02
     22.576  0.7614E+00  0.1961E+02
     22.713  0.5539E+00  0.1968E+02
     22.850  0.5417E+00  0.1976E+02
     22.987  0.5545E+00  0.1983E+02
     23.124  0.3651E+00  0.1988E+02
     23.260  0.3209E+00  0.1993E+02
     23.397  0.5109E+00  0.2000E+02
     23.534  0.4550E+00  0.2006E+02
     23.671  0.3928E+00  0.2011E+02
     23.808  0.6602E+00  0.2020E+02
     23.945  0.8157E+00  0.2032E+02
     24.082  0.4924E+00  0.2038E+02
     24.219  0.2927E+00  0.2042E+02
     24.356  0.2693E+00  0.2046E+02
     24.492  0.2105E+00  0.2049E+02
     24.629  0.2209E+00  0.2052E+02
     24.766  0.2745E+00  0.2056E+02
     24.903  0.3468E+00  0.2060E+02
     25.040  0.3399E+00  0.2065E+02
     25.177  0.4614E+00  0.2071E+02
     25.314  0.7443E+00  0.2082E+02
     25.451  0.7281E+00  0.2092E+02
     25.587  0.4304E+00  0.2097E+02
     25.724  0.1955E+00  0.2100E+02
     25.861  0.2197E+00  0.2103E+02
     25.998  0.3713E+00  0.2108E+02
     26.135  0.3113E+00  0.2112E+02
     26.272  0.2453E+00  0.2116E+02
     26.409  0.4865E+00  0.2122E+02
     26.546  0.6793E+00  0.2132E+02
     26.682  0.6127E+00  0.2140E+02
     26.819  0.5592E+00  0.2148E+02
     26.956  0.6338E+00  0.2156E+02
     27.093  0.8784E+00  0.2168E+02
     27.230  0.1215E+01  0.2185E+02
     27.367  0.1180E+01  0.2201E+02
     27.504  0.6931E+00  0.2211E+02
     27.641  0.4845E+00  0.2217E+02
     27.778  0.6206E+00  0.2226E+02
     27.914  0.5117E+00  0.2233E+02
     28.051  0.4464E+00  0.2239E+02
     28.188  0.6952E+00  0.2249E+02
     28.325  0.7253E+00  0.2258E+02
     28.462  0.6099E+00  0.2267E+02
     28.599  0.9517E+00  0.2280E+02
     28.736  0.1196E+01  0.2296E+02
     28.873  0.8012E+00  0.2307E+02
     29.009  0.4409E+00  0.2313E+02
     29.146  0.5196E+00  0.2320E+02
     29.283  0.7026E+00  0.2330E+02
     29.420  0.6530E+00  0.2339E+02
     29.557  0.4447E+00  0.2345E+02
     29.694  0.3389E+00  0.2350E+02
     29.831  0.3958E+00  0.2355E+02
     29.968  0.4035E+00  0.2361E+02
     30.104  0.2944E+00  0.2365E+02
     30.241  0.3928E+00  0.2370E+02
     30.378  0.5487E+00  0.2377E+02
     30.515  0.3864E+00  0.2383E+02
     30.652  0.1222E+00  0.2384E+02
     30.789  0.5161E-02  0.2384E+02
     30.926  0.3364E-01  0.2385E+02
     31.063  0.1127E+00  0.2386E+02
     31.199  0.1052E+00  0.2388E+02
     31.336  0.8196E-01  0.2389E+02
     31.473  0.1547E+00  0.2391E+02
     31.610  0.2310E+00  0.2394E+02
     31.747  0.1462E+00  0.2396E+02
     31.884  0.1582E-01  0.2397E+02
     32.021 -0.1184E-01  0.2396E+02
     32.158  0.1200E-02  0.2396E+02
     32.295  0.4431E-01  0.2397E+02
     32.431  0.1025E+00  0.2398E+02
     32.568  0.9698E-01  0.2400E+02
     32.705  0.2610E-01  0.2400E+02
     32.842 -0.4411E-02  0.2400E+02
     32.979 -0.1942E-02  0.2400E+02
     33.116 -0.1603E-03  0.2400E+02
     33.253 -0.4363E-05  0.2400E+02
     33.390 -0.4330E-07  0.2400E+02
     33.526 -0.1623E-09  0.2400E+02
     33.663 -0.2332E-12  0.2400E+02
     33.800 -0.1363E-15  0.2400E+02
     33.937  0.0000E+00  0.2400E+02
     34.074  0.0000E+00  0.2400E+02
     34.211  0.0000E+00  0.2400E+02
     34.348  0.0000E+00  0.2400E+02
     34.485  0.0000E+00  0.2400E+02
