    1    1    1    1
  0.1919141E+02  0.3005204E-09  0.3005204E-09  0.3005204E-09  0.5000000E-15
  1.000000000000000E-004
  CAR 
 FCC Au                                  
     11    110     12
 
  0.5000000E-01  0.5000000E-01  0.5000000E-01  0.2000000E-02
    1       -4.579147   1.000000
    2       -0.060799   1.000000
    3       -0.013886   1.000000
    4       -0.013886   1.000000
    5        1.200005   1.000000
    6        1.200005   1.000000
    7       19.405695   0.000000
    8       21.781499   0.000000
    9       22.508464   0.000000
   10       22.508464   0.000000
   11       27.074158   0.000000
   12       29.268478   0.000000
 
  0.1500000E+00  0.5000000E-01  0.5000000E-01  0.6000000E-02
    1       -4.170522   1.000000
    2       -0.180250   1.000000
    3        0.100390   1.000000
    4        0.127863   1.000000
    5        1.086505   1.000000
    6        1.243010   1.000000
    7       19.315221   0.000000
    8       20.035898   0.000000
    9       21.985741   0.000000
   10       23.303098   0.000000
   11       26.123851   0.000000
   12       28.655695   0.000000
 
  0.2500000E+00  0.5000000E-01  0.5000000E-01  0.6000000E-02
    1       -3.275669   1.000000
    2       -0.260134   1.000000
    3        0.230244   1.000000
    4        0.245302   1.000000
    5        1.099772   1.000000
    6        1.424387   1.000000
    7       15.842601   0.000000
    8       19.959962   0.000000
    9       21.913140   0.000000
   10       24.051469   0.000000
   11       24.606361   0.000000
   12       26.582940   0.000000
 
  0.3500000E+00  0.5000000E-01  0.5000000E-01  0.6000000E-02
    1       -2.446738   1.000000
    2        0.087931   1.000000
    3        0.153431   1.000000
    4        0.345377   1.000000
    5        1.494121   1.000000
    6        1.892853   1.000000
    7       11.937533   0.000000
    8       19.406465   0.000000
    9       20.916922   0.000000
   10       22.807252   0.000000
   11       25.652015   0.000000
   12       26.508956   0.000000
 
  0.4500000E+00  0.5000000E-01  0.5000000E-01  0.6000000E-02
    1       -2.220126   1.000000
    2       -0.036895   1.000000
    3        0.018571   1.000000
    4        1.636865   1.000000
    5        1.973497   1.000000
    6        2.790357   1.000000
    7        8.329158  -0.000000
    8       18.819409   0.000000
    9       20.110784   0.000000
   10       21.126025   0.000000
   11       27.020046   0.000000
   12       27.135762   0.000000
 
 -0.4500000E+00  0.5000000E-01  0.5000000E-01  0.6000000E-02
    1       -2.209888   1.000000
    2       -0.090628   1.000000
    3       -0.013334   1.000000
    4        1.892803   1.000000
    5        2.194226   1.000000
    6        3.851386   0.973224
    7        6.629548  -0.000000
    8       18.668920   0.000000
    9       20.169889   0.000000
   10       20.307325   0.000000
   11       27.348170   0.000000
   12       27.395510   0.000000
 
 -0.3500000E+00  0.5000000E-01  0.5000000E-01  0.6000000E-02
    1       -2.250549   1.000000
    2       -0.012211   1.000000
    3        0.075674   1.000000
    4        1.170694   1.000000
    5        2.037358   1.000000
    6        2.243167   1.000000
    7        9.458379  -0.000000
    8       19.056776   0.000000
    9       20.489097   0.000000
   10       21.226433   0.000000
   11       26.956280   0.000000
   12       27.226547   0.000000
 
 -0.2500000E+00  0.5000000E-01  0.5000000E-01  0.6000000E-02
    1       -2.660682   1.000000
    2       -0.033412   1.000000
    3        0.174740   1.000000
    4        0.214172   1.000000
    5        1.430357   1.000000
    6        1.631916   1.000000
    7       13.230464   0.000000
    8       19.813850   0.000000
    9       21.259599   0.000000
   10       22.934135   0.000000
   11       25.318250   0.000000
   12       27.131416   0.000000
 
 -0.1500000E+00  0.5000000E-01  0.5000000E-01  0.6000000E-02
    1       -3.606740   1.000000
    2       -0.276711   1.000000
    3        0.220969   1.000000
    4        0.230423   1.000000
    5        1.063242   1.000000
    6        1.320418   1.000000
    7       17.124696   0.000000
    8       20.193213   0.000000
    9       21.873021   0.000000
   10       23.632125   0.000000
   11       24.904855   0.000000
   12       27.638835   0.000000
 
 -0.5000000E-01  0.5000000E-01  0.5000000E-01  0.6000000E-02
    1       -4.371629   1.000000
    2       -0.146136   1.000000
    3        0.065201   1.000000
    4        0.070418   1.000000
    5        1.104211   1.000000
    6        1.248157   1.000000
    7       19.545530   0.000000
    8       20.886991   0.000000
    9       22.122541   0.000000
   10       22.571036   0.000000
   11       27.250084   0.000000
   12       28.683539   0.000000
 
  0.1500000E+00  0.1500000E+00  0.5000000E-01  0.6000000E-02
    1       -3.967293   1.000000
    2       -0.318126   1.000000
    3        0.230911   1.000000
    4        0.233184   1.000000
    5        0.932948   1.000000
    6        1.337343   1.000000
    7       19.565536   0.000000
    8       20.180933   0.000000
    9       21.291615   0.000000
   10       22.097166   0.000000
   11       26.020875   0.000000
   12       28.306536   0.000000
 
  0.2500000E+00  0.1500000E+00  0.5000000E-01  0.1200000E-01
    1       -3.225797   1.000000
    2       -0.513403   1.000000
    3        0.316783   1.000000
    4        0.461639   1.000000
    5        0.900169   1.000000
    6        1.520565   1.000000
    7       17.346244   0.000000
    8       19.155401   0.000000
    9       21.275682   0.000000
   10       22.433419   0.000000
   11       23.994420   0.000000
   12       27.578330   0.000000
 
  0.3500000E+00  0.1500000E+00  0.5000000E-01  0.1200000E-01
    1       -2.296969   1.000000
    2       -0.427597   1.000000
    3        0.078738   1.000000
    4        0.471523   1.000000
    5        1.443544   1.000000
    6        2.005403   1.000000
    7       13.450828   0.000000
    8       18.553507   0.000000
    9       20.283944   0.000000
   10       21.783990   0.000000
   11       25.370767   0.000000
   12       27.321787   0.000000
 
  0.4500000E+00  0.1500000E+00  0.5000000E-01  0.1200000E-01
    1       -1.922037   1.000000
    2       -0.162870   1.000000
    3        0.287551   1.000000
    4        0.437787   1.000000
    5        2.031442   1.000000
    6        3.099527   1.000000
    7        9.682343   0.000000
    8       18.222927   0.000000
    9       18.920966   0.000000
   10       20.700896   0.000000
   11       27.221342   0.000000
   12       28.130657   0.000000
 
 -0.4500000E+00  0.1500000E+00  0.5000000E-01  0.1200000E-01
    1       -1.893321   1.000000
    2       -0.266933   1.000000
    3        0.231843   1.000000
    4        1.074032   1.000000
    5        2.158662   1.000000
    6        5.016808  -0.000000
    7        6.668653  -0.000000
    8       17.858002   0.000000
    9       18.462407   0.000000
   10       20.209950   0.000000
   11       27.402876   0.000000
   12       28.559377   0.000000
 
 -0.3500000E+00  0.1500000E+00  0.5000000E-01  0.1200000E-01
    1       -1.884920   1.000000
    2       -0.203524   1.000000
    3        0.252903   1.000000
    4        0.814663   1.000000
    5        1.913160   1.000000
    6        3.745773   1.035179
    7        8.590858  -0.000000
    8       17.372061   0.000000
    9       19.207586   0.000000
   10       20.885035   0.000000
   11       26.819305   0.000000
   12       28.153057   0.000000
 
 -0.2500000E+00  0.1500000E+00  0.5000000E-01  0.1200000E-01
    1       -2.071877   1.000000
    2       -0.195578   1.000000
    3        0.057635   1.000000
    4        0.405424   1.000000
    5        1.362701   1.000000
    6        2.468555   1.000000
    7       12.182094   0.000000
    8       17.528527   0.000000
    9       20.333184   0.000000
   10       22.573339   0.000000
   11       25.308767   0.000000
   12       27.315968   0.000000
 
 -0.1500000E+00  0.1500000E+00  0.5000000E-01  0.1200000E-01
    1       -2.902871   1.000000
    2       -0.473933   1.000000
    3        0.235027   1.000000
    4        0.480005   1.000000
    5        0.893276   1.000000
    6        1.738768   1.000000
    7       15.975173   0.000000
    8       18.133784   0.000000
    9       21.901568   0.000000
   10       22.831943   0.000000
   11       25.160329   0.000000
   12       26.355898   0.000000
 
 -0.5000000E-01  0.1500000E+00  0.5000000E-01  0.1200000E-01
    1       -3.779223   1.000000
    2       -0.311980   1.000000
    3        0.233913   1.000000
    4        0.240716   1.000000
    5        0.966040   1.000000
    6        1.348021   1.000000
    7       18.409434   0.000000
    8       19.713351   0.000000
    9       21.598587   0.000000
   10       23.339559   0.000000
   11       25.204316   0.000000
   12       27.881934   0.000000
 
  0.2500000E+00  0.2500000E+00  0.5000000E-01  0.6000000E-02
    1       -2.723627   1.000000
    2       -0.804031   1.000000
    3        0.450929   1.000000
    4        0.775167   1.000000
    5        0.937684   1.000000
    6        1.615154   1.000000
    7       17.705242   0.000000
    8       18.746753   0.000000
    9       20.276156   0.000000
   10       20.821023   0.000000
   11       21.333089   0.000000
   12       29.266981   0.000000
 
  0.3500000E+00  0.2500000E+00  0.5000000E-01  0.1200000E-01
    1       -1.984345   1.000000
    2       -0.985158   1.000000
    3        0.249292   1.000000
    4        1.060169   1.000000
    5        1.483346   1.000000
    6        2.022796   1.000000
    7       15.076267   0.000000
    8       16.959465   0.000000
    9       18.557462   0.000000
   10       21.086073   0.000000
   11       22.497044   0.000000
   12       29.221068   0.000000
 
  0.4500000E+00  0.2500000E+00  0.5000000E-01  0.1200000E-01
    1       -1.549232   1.000000
    2       -0.753633   1.000000
    3        0.051994   1.000000
    4        0.954777   1.000000
    5        2.097226   1.000000
    6        3.323697   1.000010
    7       11.286772   0.000000
    8       16.257956   0.000000
    9       16.957290   0.000000
   10       20.877575   0.000000
   11       25.454124   0.000000
   12       28.951183   0.000000
 
 -0.4500000E+00  0.2500000E+00  0.5000000E-01  0.1200000E-01
    1       -1.446448   1.000000
    2       -0.529276   1.000000
    3        0.237971   1.000000
    4        0.795218   1.000000
    5        2.187815   1.000000
    6        5.547107  -0.000000
    7        7.967097  -0.000000
    8       15.027915   0.000000
    9       17.020699   0.000000
   10       20.654112   0.000000
   11       28.050830   0.000000
   12       29.197326   0.000000
 
 -0.3500000E+00  0.2500000E+00  0.5000000E-01  0.1200000E-01
    1       -1.308036   1.000000
    2       -0.482801   1.000000
    3        0.273020   1.000000
    4        0.710099   1.000000
    5        1.873200   1.000000
    6        5.397790  -0.000000
    7        8.398582  -0.000000
    8       14.035764   0.000000
    9       18.137030   0.000000
   10       20.849216   0.000000
   11       27.373541   0.000000
   12       29.587552   0.000000
 
 -0.2500000E+00  0.2500000E+00  0.5000000E-01  0.1200000E-01
    1       -1.251600   1.000000
    2       -0.434740   1.000000
    3       -0.197487   1.000000
    4        0.778535   1.000000
    5        1.325945   1.000000
    6        3.700882   1.027961
    7       11.567374   0.000000
    8       13.935122   0.000000
    9       19.526235   0.000000
   10       21.914770   0.000000
   11       25.569775   0.000000
   12       29.273634   0.000000
 
 -0.1500000E+00  0.2500000E+00  0.5000000E-01  0.1200000E-01
    1       -1.949464   1.000000
    2       -0.531531   1.000000
    3        0.028002   1.000000
    4        0.672253   1.000000
    5        1.007270   1.000000
    6        2.537088   1.000000
    7       13.580442   0.000000
    8       16.034421   0.000000
    9       20.712902   0.000000
   10       23.335546   0.000000
   11       24.240564   0.000000
   12       27.736310   0.000000
 
 -0.5000000E-01  0.2500000E+00  0.5000000E-01  0.1200000E-01
    1       -2.818427   1.000000
    2       -0.318323   1.000000
    3        0.211534   1.000000
    4        0.324616   1.000000
    5        1.156249   1.000000
    6        1.678016   1.000000
    7       14.618466   0.000000
    8       19.406949   0.000000
    9       21.177353   0.000000
   10       23.407042   0.000000
   11       24.814632   0.000000
   12       26.600718   0.000000
 
  0.3500000E+00  0.3500000E+00  0.5000000E-01  0.6000000E-02
    1       -1.823315   1.000000
    2       -1.297021   1.000000
    3        1.017984   1.000000
    4        1.486279   1.000000
    5        1.891685   1.000000
    6        1.947673   1.000000
    7       14.930579   0.000000
    8       16.144994   0.000000
    9       16.175225   0.000000
   10       20.043929   0.000000
   11       21.855601   0.000000
   12       31.602542   0.000000
 
  0.4500000E+00  0.3500000E+00  0.5000000E-01  0.1200000E-01
    1       -1.675426   1.000000
    2       -1.385396   1.000000
    3        1.039362   1.000000
    4        1.732654   1.000000
    5        2.109159   1.000000
    6        3.426960   1.000197
    7       12.304840   0.000000
    8       14.477045   0.000000
    9       15.132254   0.000000
   10       20.920122   0.000000
   11       22.732549   0.000000
   12       31.074615   0.000000
 
 -0.4500000E+00  0.3500000E+00  0.5000000E-01  0.1200000E-01
    1       -1.532161   1.000000
    2       -1.113138   1.000000
    3        0.744381   1.000000
    4        1.487825   1.000000
    5        2.267223   1.000000
    6        5.772060  -0.000000
    7        9.452280  -0.000000
    8       12.703843   0.000000
    9       15.267342   0.000000
   10       21.179951   0.000000
   11       25.301073   0.000000
   12       30.090112   0.000000
 
 -0.3500000E+00  0.3500000E+00  0.5000000E-01  0.1200000E-01
    1       -1.293863   1.000000
    2       -0.678396   1.000000
    3        0.294609   1.000000
    4        1.222352   1.000000
    5        2.011742   1.000000
    6        6.841492  -0.000000
    7        8.939845  -0.000000
    8       11.125534   0.000000
    9       16.424374   0.000000
   10       21.110350   0.000000
   11       28.494430   0.000000
   12       28.956052   0.000000
 
 -0.2500000E+00  0.3500000E+00  0.5000000E-01  0.1200000E-01
    1       -1.073200   1.000000
    2       -0.433724   1.000000
    3       -0.108947   1.000000
    4        0.934231   1.000000
    5        1.684298   1.000000
    6        5.206866  -0.000000
    7       10.131099   0.000000
    8       12.105588   0.000000
    9       18.080374   0.000000
   10       21.136535   0.000000
   11       27.268391   0.000000
   12       29.904728   0.000000
 
 -0.1500000E+00  0.3500000E+00  0.5000000E-01  0.1200000E-01
    1       -1.580272   1.000000
    2       -0.281325   1.000000
    3        0.172582   1.000000
    4        0.531707   1.000000
    5        1.618771   1.000000
    6        3.716841   1.031278
    7       10.055222   0.000000
    8       15.614684   0.000000
    9       19.399252   0.000000
   10       21.444528   0.000000
   11       26.144840   0.000000
   12       28.656700   0.000000
 
 -0.5000000E-01  0.3500000E+00  0.5000000E-01  0.1200000E-01
    1       -2.194113   1.000000
    2       -0.008680   1.000000
    3        0.191861   1.000000
    4        0.481100   1.000000
    5        1.729931   1.000000
    6        2.337772   1.000000
    7       10.754060   0.000000
    8       18.903970   0.000000
    9       20.016664   0.000000
   10       21.816018   0.000000
   11       26.395902   0.000000
   12       27.071178   0.000000
 
  0.4500000E+00  0.4500000E+00  0.5000000E-01  0.6000000E-02
    1       -1.886416   1.000000
    2       -1.626187   1.000000
    3        2.021472   1.000000
    4        2.067802   1.000000
    5        2.291377   1.000000
    6        4.060201   0.255753
    7       10.803923   0.000000
    8       14.001747   0.000000
    9       14.349597   0.000000
   10       20.209237   0.000000
   11       22.336697   0.000000
   12       32.447512   0.000000
 
 -0.4500000E+00  0.4500000E+00  0.5000000E-01  0.1200000E-01
    1       -1.820056   1.000000
    2       -1.583490   1.000000
    3        1.772415   1.000000
    4        1.991286   1.000000
    5        2.408400   1.000000
    6        5.938246  -0.000000
    7        9.026088  -0.000000
    8       12.997569   0.000000
    9       13.947163   0.000000
   10       21.056476   0.000000
   11       22.919441   0.000000
   12       31.618017   0.000000
 
 -0.3500000E+00  0.4500000E+00  0.5000000E-01  0.1200000E-01
    1       -1.572719   1.000000
    2       -1.190240   1.000000
    3        0.983551   1.000000
    4        1.621651   1.000000
    5        2.265239   1.000000
    6        7.165465  -0.000000
    7        8.514919  -0.000000
    8       11.550760   0.000000
    9       14.957939   0.000000
   10       21.300270   0.000000
   11       25.278748   0.000000
   12       30.333688   0.000000
 
 -0.2500000E+00  0.4500000E+00  0.5000000E-01  0.1200000E-01
    1       -1.327973   1.000000
    2       -0.640338   1.000000
    3        0.257889   1.000000
    4        1.043915   1.000000
    5        2.108293   1.000000
    6        6.792588  -0.000000
    7        7.679133  -0.000000
    8       13.001217   0.000000
    9       16.622489   0.000000
   10       20.925743   0.000000
   11       28.307658   0.000000
   12       29.052259   0.000000
 
 -0.1500000E+00  0.4500000E+00  0.5000000E-01  0.1200000E-01
    1       -1.616888   1.000000
    2       -0.397877   1.000000
    3        0.449824   1.000000
    4        0.682429   1.000000
    5        2.058707   1.000000
    6        5.673285  -0.000000
    7        6.894092  -0.000000
    8       16.001350   0.000000
    9       18.263569   0.000000
   10       20.456215   0.000000
   11       27.449777   0.000000
   12       29.128271   0.000000
 
 -0.5000000E-01  0.4500000E+00  0.5000000E-01  0.1200000E-01
    1       -2.099497   1.000000
    2       -0.135643   1.000000
    3        0.082075   1.000000
    4        1.427805   1.000000
    5        2.127157   1.000000
    6        3.794356   1.027589
    7        7.380969  -0.000000
    8       18.623015   0.000000
    9       19.350155   0.000000
   10       20.457659   0.000000
   11       27.249990   0.000000
   12       27.777292   0.000000
 
 -0.4500000E+00 -0.4500000E+00  0.5000000E-01  0.6000000E-02
    1       -1.945866   1.000000
    2       -1.696643   1.000000
    3        2.110561   1.000000
    4        2.279341   1.000000
    5        2.417511   1.000000
    6        5.317217  -0.000000
    7        9.164868  -0.000000
    8       13.580241   0.000000
    9       13.948717   0.000000
   10       20.286954   0.000000
   11       22.438336   0.000000
   12       32.294215   0.000000
 
 -0.3500000E+00 -0.4500000E+00  0.5000000E-01  0.1200000E-01
    1       -1.758282   1.000000
    2       -1.515964   1.000000
    3        1.486100   1.000000
    4        1.946203   1.000000
    5        2.286602   1.000000
    6        4.666123  -0.000013
    7       10.580218   0.000000
    8       13.486234   0.000000
    9       14.340361   0.000000
   10       20.992991   0.000000
   11       22.852307   0.000000
   12       31.508215   0.000000
 
 -0.2500000E+00 -0.4500000E+00  0.5000000E-01  0.1200000E-01
    1       -1.492864   1.000000
    2       -0.959450   1.000000
    3        0.382178   1.000000
    4        1.242295   1.000000
    5        2.228303   1.000000
    6        4.445698  -0.003535
    7       10.326968   0.000000
    8       14.464730   0.000000
    9       15.886705   0.000000
   10       21.005025   0.000000
   11       25.359973   0.000000
   12       29.612483   0.000000
 
 -0.1500000E+00 -0.4500000E+00  0.5000000E-01  0.1200000E-01
    1       -1.658673   1.000000
    2       -0.352859   1.000000
    3        0.268930   1.000000
    4        0.559041   1.000000
    5        2.177376   1.000000
    6        4.209579  -0.029602
    7        8.736598  -0.000000
    8       17.010529   0.000000
    9       17.645814   0.000000
   10       20.469229   0.000000
   11       27.706221   0.000000
   12       29.149635   0.000000
 
 -0.3500000E+00 -0.3500000E+00  0.5000000E-01  0.6000000E-02
    1       -1.808560   1.000000
    2       -1.489776   1.000000
    3        1.643509   1.000000
    4        1.808962   1.000000
    5        2.118541   1.000000
    6        2.778489   1.000000
    7       12.889147   0.000000
    8       14.827188   0.000000
    9       15.105673   0.000000
   10       20.103062   0.000000
   11       22.139659   0.000000
   12       32.484585   0.000000
 
 -0.2500000E+00 -0.3500000E+00  0.5000000E-01  0.1200000E-01
    1       -1.684562   1.000000
    2       -1.203361   1.000000
    3        0.540375   1.000000
    4        1.407242   1.000000
    5        1.864895   1.000000
    6        2.525815   1.000000
    7       13.799594   0.000000
    8       15.744706   0.000000
    9       16.534979   0.000000
   10       20.928205   0.000000
   11       22.586246   0.000000
   12       30.236033   0.000000
 
 -0.1500000E+00 -0.3500000E+00  0.5000000E-01  0.1200000E-01
    1       -1.823841   1.000000
    2       -0.562938   1.000000
    3       -0.050918   1.000000
    4        0.686263   1.000000
    5        1.834423   1.000000
    6        2.499970   1.000000
    7       12.336568   0.000000
    8       17.491604   0.000000
    9       18.759711   0.000000
   10       20.974742   0.000000
   11       25.524009   0.000000
   12       28.168853   0.000000
 
 -0.2500000E+00 -0.2500000E+00  0.5000000E-01  0.6000000E-02
    1       -2.122159   1.000000
    2       -1.062240   1.000000
    3        0.540628   1.000000
    4        1.122858   1.000000
    5        1.338353   1.000000
    6        1.779989   1.000000
    7       16.460877   0.000000
    8       17.387934   0.000000
    9       18.315168   0.000000
   10       20.115384   0.000000
   11       21.518730   0.000000
   12       30.339889   0.000000
 
 -0.1500000E+00 -0.2500000E+00  0.5000000E-01  0.1200000E-01
    1       -2.575985   1.000000
    2       -0.747671   1.000000
    3        0.256581   1.000000
    4        0.738393   1.000000
    5        1.096584   1.000000
    6        1.737800   1.000000
    7       16.243873   0.000000
    8       18.150563   0.000000
    9       20.552629   0.000000
   10       21.432546   0.000000
   11       22.778018   0.000000
   12       28.251380   0.000000
 
 -0.1500000E+00 -0.1500000E+00  0.5000000E-01  0.6000000E-02
    1       -3.394630   1.000000
    2       -0.547009   1.000000
    3        0.430304   1.000000
    4        0.470926   1.000000
    5        0.777673   1.000000
    6        1.462535   1.000000
    7       18.771898   0.000000
    8       20.100195   0.000000
    9       20.300318   0.000000
   10       21.419543   0.000000
   11       23.578477   0.000000
   12       28.544561   0.000000
 
  0.1500000E+00  0.1500000E+00  0.1500000E+00  0.2000000E-02
    1       -3.978668   1.000000
    2       -0.188945   1.000000
    3        0.142668   1.000000
    4        0.142668   1.000000
    5        1.169058   1.000000
    6        1.169058   1.000000
    7       18.283724   0.000000
    8       20.147301   0.000000
    9       22.841815   0.000000
   10       22.841815   0.000000
   11       25.882019   0.000000
   12       27.935057   0.000000
 
  0.2500000E+00  0.1500000E+00  0.1500000E+00  0.6000000E-02
    1       -3.414955   1.000000
    2       -0.353133   1.000000
    3        0.252742   1.000000
    4        0.311228   1.000000
    5        0.922381   1.000000
    6        1.483065   1.000000
    7       17.162945   0.000000
    8       19.010267   0.000000
    9       21.940731   0.000000
   10       23.829503   0.000000
   11       24.793333   0.000000
   12       26.989867   0.000000
 
  0.3500000E+00  0.1500000E+00  0.1500000E+00  0.6000000E-02
    1       -2.458667   1.000000
    2       -0.473657   1.000000
    3        0.178043   1.000000
    4        0.544768   1.000000
    5        0.853334   1.000000
    6        2.094592   1.000000
    7       14.718892   0.000000
    8       17.092727   0.000000
    9       21.667584   0.000000
   10       23.420711   0.000000
   11       24.609783   0.000000
   12       26.848567   0.000000
 
  0.4500000E+00  0.1500000E+00  0.1500000E+00  0.6000000E-02
    1       -1.828621   1.000000
    2       -0.166280   1.000000
    3        0.196092   1.000000
    4        0.383396   1.000000
    5        1.397733   1.000000
    6        3.020316   1.000000
    7       11.050206   0.000000
    8       16.534663   0.000000
    9       20.272716   0.000000
   10       22.013146   0.000000
   11       25.520074   0.000000
   12       27.890642   0.000000
 
 -0.4500000E+00  0.1500000E+00  0.1500000E+00  0.6000000E-02
    1       -1.783503   1.000000
    2       -0.276103   1.000000
    3        0.293873   1.000000
    4        0.896672   1.000000
    5        1.944453   1.000000
    6        4.587126  -0.000131
    7        7.663776  -0.000000
    8       16.622968   0.000000
    9       19.619293   0.000000
   10       19.978852   0.000000
   11       27.368608   0.000000
   12       28.166571   0.000000
 
 -0.3500000E+00  0.1500000E+00  0.1500000E+00  0.6000000E-02
    1       -1.814959   1.000000
    2       -0.295150   1.000000
    3        0.333510   1.000000
    4        0.741772   1.000000
    5        2.219823   1.000000
    6        4.594992  -0.000106
    7        7.519138  -0.000000
    8       17.438796   0.000000
    9       18.838495   0.000000
   10       19.621272   0.000000
   11       28.304815   0.000000
   12       28.312132   0.000000
 
 -0.2500000E+00  0.1500000E+00  0.1500000E+00  0.6000000E-02
    1       -1.898198   1.000000
    2       -0.191018   1.000000
    3       -0.026416   1.000000
    4        0.464179   1.000000
    5        2.102963   1.000000
    6        2.626512   1.000000
    7       10.939425   0.000000
    8       18.654429   0.000000
    9       18.793602   0.000000
   10       20.137581   0.000000
   11       27.214143   0.000000
   12       28.433662   0.000000
 
 -0.1500000E+00  0.1500000E+00  0.1500000E+00  0.6000000E-02
    1       -2.475918   1.000000
    2       -0.637290   1.000000
    3        0.178318   1.000000
    4        0.571120   1.000000
    5        1.392266   1.000000
    6        1.737274   1.000000
    7       14.840907   0.000000
    8       19.184133   0.000000
    9       20.093036   0.000000
   10       21.115794   0.000000
   11       24.134230   0.000000
   12       28.559421   0.000000
 
  0.2500000E+00  0.2500000E+00  0.1500000E+00  0.6000000E-02
    1       -3.084157   1.000000
    2       -0.440006   1.000000
    3        0.269637   1.000000
    4        0.372820   1.000000
    5        1.081800   1.000000
    6        1.518779   1.000000
    7       15.976725   0.000000
    8       20.199727   0.000000
    9       20.573921   0.000000
   10       23.053025   0.000000
   11       24.194072   0.000000
   12       27.918251   0.000000
 
  0.3500000E+00  0.2500000E+00  0.1500000E+00  0.1200000E-01
    1       -2.302416   1.000000
    2       -0.646767   1.000000
    3        0.099907   1.000000
    4        0.714729   1.000000
    5        1.071417   1.000000
    6        2.076738   1.000000
    7       14.835729   0.000000
    8       17.117439   0.000000
    9       20.623866   0.000000
   10       22.545042   0.000000
   11       24.245656   0.000000
   12       27.163629   0.000000
 
  0.4500000E+00  0.2500000E+00  0.1500000E+00  0.1200000E-01
    1       -1.461787   1.000000
    2       -0.621152   1.000000
    3       -0.209487   1.000000
    4        0.909056   1.000000
    5        1.320109   1.000000
    6        3.094289   1.000000
    7       12.546271   0.000000
    8       14.990082   0.000000
    9       19.063311   0.000000
   10       22.975426   0.000000
   11       24.611968   0.000000
   12       28.199895   0.000000
 
 -0.4500000E+00  0.2500000E+00  0.1500000E+00  0.1200000E-01
    1       -1.331467   1.000000
    2       -0.471038   1.000000
    3        0.073131   1.000000
    4        0.751114   1.000000
    5        1.868838   1.000000
    6        4.642705  -0.000027
    7        9.205304  -0.000000
    8       14.780440   0.000000
    9       17.641662   0.000000
   10       21.793537   0.000000
   11       26.441596   0.000000
   12       29.800044   0.000000
 
 -0.3500000E+00  0.2500000E+00  0.1500000E+00  0.1200000E-01
    1       -1.386934   1.000000
    2       -0.540257   1.000000
    3        0.350758   1.000000
    4        0.693830   1.000000
    5        2.099601   1.000000
    6        6.240160  -0.000000
    7        7.032158  -0.000000
    8       15.308234   0.000000
    9       16.690916   0.000000
   10       21.380565   0.000000
   11       27.130402   0.000000
   12       30.407215   0.000000
 
 -0.2500000E+00  0.2500000E+00  0.1500000E+00  0.1200000E-01
    1       -1.429006   1.000000
    2       -0.457117   1.000000
    3       -0.149286   1.000000
    4        0.852720   1.000000
    5        1.970973   1.000000
    6        3.963128   0.651066
    7       10.162383   0.000000
    8       15.591640   0.000000
    9       17.221777   0.000000
   10       21.687400   0.000000
   11       26.380817   0.000000
   12       28.583253   0.000000
 
 -0.1500000E+00  0.2500000E+00  0.1500000E+00  0.1200000E-01
    1       -1.739868   1.000000
    2       -0.833659   1.000000
    3       -0.036444   1.000000
    4        1.005985   1.000000
    5        1.407753   1.000000
    6        2.523959   1.000000
    7       13.725604   0.000000
    8       16.035014   0.000000
    9       18.761346   0.000000
   10       22.310590   0.000000
   11       23.843643   0.000000