       N       E                     dE             d eps       ncg     rms          rms(c)
DAV:   1    -0.907008157217E+01   -0.90701E+01   -0.67059E+01  2912   0.950E+01    0.123E+01
DAV:   2    -0.440790634949E+01    0.46622E+01   -0.13214E+01  2972   0.390E+01    0.244E+00
DAV:   3    -0.423667358018E+01    0.17123E+00   -0.10287E+00  3096   0.958E+00    0.249E-01
DAV:   4    -0.423626944108E+01    0.40414E-03   -0.11702E-02  2880   0.110E+00    0.793E-02
DAV:   5    -0.423672528015E+01   -0.45584E-03   -0.28633E-04  3052   0.150E-01    0.293E-02
DAV:   6    -0.423675912739E+01   -0.33847E-04   -0.99490E-05  2312   0.104E-01
   1 F= -.42367591E+01 E0= -.42370896E+01  d E =0.991344E-03
