 vasp.5.4.4.18Apr17-6-g9f103f2a35 (build Jul 01 2019 03:25:34) complex          
  
 executed on             LinuxIFC date 2020.07.08  00:55:58
 running on    4 total cores
 distrk:  each k-point on    4 cores,    1 groups
 distr:  one band on NCORES_PER_BAND=   1 cores,    4 groups


--------------------------------------------------------------------------------------------------------


 INCAR:
 POTCAR:   PAW Au 04Feb1998                       
 POTCAR:   PAW Au 04Feb1998                       
   VRHFIN =Au: s1d10                                                            
   LEXCH  = CA                                                                  
   EATOM  =   929.4667 eV,   68.3139 Ry                                         
                                                                                
   TITEL  = PAW Au 04Feb1998                                                    
   LULTRA =        F    use ultrasoft PP ?                                      
   IUNSCR =        1    unscreen: 0-lin 1-nonlin 2-no                           
   RPACOR =    2.330    partial core radius                                     
   POMASS =  196.966; ZVAL   =   11.000    mass and valenz                      
   RCORE  =    2.500    outmost cutoff radius                                   
   RWIGS  =    2.840; RWIGS  =    1.503    wigner-seitz radius (au A)           
   ENMAX  =  229.869; ENMIN  =  172.402 eV                                      
   RCLOC  =    1.964    cutoff for local pot                                    
   LCOR   =        T    correct aug charges                                     
   LPAW   =        T    paw PP                                                  
   EAUG   =  356.670                                                            
   DEXC   =    -.020                                                            
   RMAX   =    3.041    core radius for proj-oper                               
   RDEP   =    2.598    core radius for depl-charge                             
   QCUT   =   -4.110; QGAM   =    8.221    optimization parameters              
                                                                                
   Description                                                                  
     l     E      TYP  RCUT    TYP  RCUT                                        
     2   .000     23  2.500                                                     
     2   .000     23  2.500                                                     
     0   .000     23  2.500                                                     
     0   .000     23  2.500                                                     
     1  -.200     23  2.500                                                     
     1   .000     23  2.500                                                     
     3   .000      7   .000                                                     
  local pseudopotential read in
  partial core-charges read in
  atomic valenz-charges read in
  non local Contribution for L=           2  read in
    real space projection operators read in
  non local Contribution for L=           2  read in
    real space projection operators read in
  non local Contribution for L=           0  read in
    real space projection operators read in
  non local Contribution for L=           0  read in
    real space projection operators read in
  non local Contribution for L=           1  read in
    real space projection operators read in
  non local Contribution for L=           1  read in
    real space projection operators read in
    PAW grid and wavefunctions read in
 
   number of l-projection  operators is LMAX  =           6
   number of lm-projection operators is LMMAX =          18
 
 PAW Au 04Feb1998                       :
 energy of atom  1       EATOM= -929.4667
 kinetic energy error for atom=    0.0704 (will be added to EATOM!!)
 
 
 POSCAR: FCC Au Bulk                             
  positions in direct lattice
  No initial velocities read in
 exchange correlation table for  LEXCH =        2
   RHO(1)=    0.500       N(1)  =     2000
   RHO(2)=  100.500       N(2)  =     4000
 


--------------------------------------------------------------------------------------------------------


 ion  position               nearest neighbor table
   1  0.000  0.000  0.000-
 
  LATTYP: Found a face centered cubic cell.
 ALAT       =     4.2500000000
  
  Lattice vectors:
  
 A1 = (   0.0000000000,   2.1250000000,   2.1250000000)
 A2 = (   2.1250000000,   0.0000000000,   2.1250000000)
 A3 = (   2.1250000000,   2.1250000000,   0.0000000000)


Analysis of symmetry for initial positions (statically):
=====================================================================
 Subroutine PRICEL returns:
 Original cell was already a primitive cell.
 

 Routine SETGRP: Setting up the symmetry group for a 
 face centered cubic supercell.


 Subroutine GETGRP returns: Found 48 space group operations
 (whereof 48 operations were pure point group operations)
 out of a pool of 48 trial point group operations.


The static configuration has the point symmetry O_h .


Analysis of symmetry for dynamics (positions and initial velocities):
=====================================================================
 Subroutine PRICEL returns:
 Original cell was already a primitive cell.
 

 Routine SETGRP: Setting up the symmetry group for a 
 face centered cubic supercell.


 Subroutine GETGRP returns: Found 48 space group operations
 (whereof 48 operations were pure point group operations)
 out of a pool of 48 trial point group operations.


The dynamic configuration has the point symmetry O_h .


 Subroutine INISYM returns: Found 48 space group operations
 (whereof 48 operations are pure point group operations),
 and found     1 'primitive' translations

 
 
 KPOINTS: 10x10x10                                

Automatic generation of k-mesh.
Space group operators:
 irot       det(A)        alpha          n_x          n_y          n_z        tau_x        tau_y        tau_z
    1     1.000000     0.000000     1.000000     0.000000     0.000000     0.000000     0.000000     0.000000
    2    -1.000000     0.000000     1.000000     0.000000     0.000000     0.000000     0.000000     0.000000
    3     1.000000   120.000000    -0.577350    -0.577350    -0.577350     0.000000     0.000000     0.000000
    4    -1.000000   120.000000    -0.577350    -0.577350    -0.577350     0.000000     0.000000     0.000000
    5     1.000000   120.000000     0.577350     0.577350     0.577350     0.000000     0.000000     0.000000
    6    -1.000000   120.000000     0.577350     0.577350     0.577350     0.000000     0.000000     0.000000
    7     1.000000    90.000000     0.000000     0.000000    -1.000000     0.000000     0.000000     0.000000
    8    -1.000000    90.000000     0.000000     0.000000    -1.000000     0.000000     0.000000     0.000000
    9     1.000000   180.000000     0.000000     0.707107     0.707107     0.000000     0.000000     0.000000
   10    -1.000000   180.000000     0.000000     0.707107     0.707107     0.000000     0.000000     0.000000
   11     1.000000    90.000000     0.000000     1.000000     0.000000     0.000000     0.000000     0.000000
   12    -1.000000    90.000000     0.000000     1.000000     0.000000     0.000000     0.000000     0.000000
   13     1.000000   180.000000     0.000000     0.000000     1.000000     0.000000     0.000000     0.000000
   14    -1.000000   180.000000     0.000000     0.000000     1.000000     0.000000     0.000000     0.000000
   15     1.000000   120.000000    -0.577350     0.577350     0.577350     0.000000     0.000000     0.000000
   16    -1.000000   120.000000    -0.577350     0.577350     0.577350     0.000000     0.000000     0.000000
   17     1.000000   120.000000    -0.577350     0.577350    -0.577350     0.000000     0.000000     0.000000
   18    -1.000000   120.000000    -0.577350     0.577350    -0.577350     0.000000     0.000000     0.000000
   19     1.000000    90.000000     0.000000     0.000000     1.000000     0.000000     0.000000     0.000000
   20    -1.000000    90.000000     0.000000     0.000000     1.000000     0.000000     0.000000     0.000000
   21     1.000000    90.000000    -1.000000     0.000000     0.000000     0.000000     0.000000     0.000000
   22    -1.000000    90.000000    -1.000000     0.000000     0.000000     0.000000     0.000000     0.000000
   23     1.000000   180.000000     0.707107     0.000000     0.707107     0.000000     0.000000     0.000000
   24    -1.000000   180.000000     0.707107     0.000000     0.707107     0.000000     0.000000     0.000000
   25     1.000000   120.000000     0.577350    -0.577350     0.577350     0.000000     0.000000     0.000000
   26    -1.000000   120.000000     0.577350    -0.577350     0.577350     0.000000     0.000000     0.000000
   27     1.000000   120.000000    -0.577350    -0.577350     0.577350     0.000000     0.000000     0.000000
   28    -1.000000   120.000000    -0.577350    -0.577350     0.577350     0.000000     0.000000     0.000000
   29     1.000000   180.000000     1.000000     0.000000     0.000000     0.000000     0.000000     0.000000
   30    -1.000000   180.000000     1.000000     0.000000     0.000000     0.000000     0.000000     0.000000
   31     1.000000    90.000000     0.000000    -1.000000     0.000000     0.000000     0.000000     0.000000
   32    -1.000000    90.000000     0.000000    -1.000000     0.000000     0.000000     0.000000     0.000000
   33     1.000000   180.000000     0.707107     0.707107     0.000000     0.000000     0.000000     0.000000
   34    -1.000000   180.000000     0.707107     0.707107     0.000000     0.000000     0.000000     0.000000
   35     1.000000    90.000000     1.000000     0.000000     0.000000     0.000000     0.000000     0.000000
   36    -1.000000    90.000000     1.000000     0.000000     0.000000     0.000000     0.000000     0.000000
   37     1.000000   120.000000     0.577350    -0.577350    -0.577350     0.000000     0.000000     0.000000
   38    -1.000000   120.000000     0.577350    -0.577350    -0.577350     0.000000     0.000000     0.000000
   39     1.000000   180.000000     0.000000     1.000000     0.000000     0.000000     0.000000     0.000000
   40    -1.000000   180.000000     0.000000     1.000000     0.000000     0.000000     0.000000     0.000000
   41     1.000000   120.000000     0.577350     0.577350    -0.577350     0.000000     0.000000     0.000000
   42    -1.000000   120.000000     0.577350     0.577350    -0.577350     0.000000     0.000000     0.000000
   43     1.000000   180.000000     0.000000    -0.707107     0.707107     0.000000     0.000000     0.000000
   44    -1.000000   180.000000     0.000000    -0.707107     0.707107     0.000000     0.000000     0.000000
   45     1.000000   180.000000     0.707107    -0.707107     0.000000     0.000000     0.000000     0.000000
   46    -1.000000   180.000000     0.707107    -0.707107     0.000000     0.000000     0.000000     0.000000
   47     1.000000   180.000000     0.707107     0.000000    -0.707107     0.000000     0.000000     0.000000
   48    -1.000000   180.000000     0.707107     0.000000    -0.707107     0.000000     0.000000     0.000000
 
 Subroutine IBZKPT returns following result:
 ===========================================
 
 Found    110 irreducible k-points:
 
 Following reciprocal coordinates:
            Coordinates               Weight
  0.050000  0.050000  0.050000     96.000000
  0.150000  0.050000  0.050000    288.000000
  0.250000  0.050000  0.050000    288.000000
  0.350000  0.050000  0.050000    288.000000
  0.450000  0.050000  0.050000    288.000000
 -0.450000  0.050000  0.050000    288.000000
 -0.350000  0.050000  0.050000    288.000000
 -0.250000  0.050000  0.050000    288.000000
 -0.150000  0.050000  0.050000    288.000000
 -0.050000  0.050000  0.050000    288.000000
  0.150000  0.150000  0.050000    288.000000
  0.250000  0.150000  0.050000    576.000000
  0.350000  0.150000  0.050000    576.000000
  0.450000  0.150000  0.050000    576.000000
 -0.450000  0.150000  0.050000    576.000000
 -0.350000  0.150000  0.050000    576.000000
 -0.250000  0.150000  0.050000    576.000000
 -0.150000  0.150000  0.050000    576.000000
 -0.050000  0.150000  0.050000    576.000000
  0.250000  0.250000  0.050000    288.000000
  0.350000  0.250000  0.050000    576.000000
  0.450000  0.250000  0.050000    576.000000
 -0.450000  0.250000  0.050000    576.000000
 -0.350000  0.250000  0.050000    576.000000
 -0.250000  0.250000  0.050000    576.000000
 -0.150000  0.250000  0.050000    576.000000
 -0.050000  0.250000  0.050000    576.000000
  0.350000  0.350000  0.050000    288.000000
  0.450000  0.350000  0.050000    576.000000
 -0.450000  0.350000  0.050000    576.000000
 -0.350000  0.350000  0.050000    576.000000
 -0.250000  0.350000  0.050000    576.000000
 -0.150000  0.350000  0.050000    576.000000
 -0.050000  0.350000  0.050000    576.000000
  0.450000  0.450000  0.050000    288.000000
 -0.450000  0.450000  0.050000    576.000000
 -0.350000  0.450000  0.050000    576.000000
 -0.250000  0.450000  0.050000    576.000000
 -0.150000  0.450000  0.050000    576.000000
 -0.050000  0.450000  0.050000    576.000000
 -0.450000 -0.450000  0.050000    288.000000
 -0.350000 -0.450000  0.050000    576.000000
 -0.250000 -0.450000  0.050000    576.000000
 -0.150000 -0.450000  0.050000    576.000000
 -0.350000 -0.350000  0.050000    288.000000
 -0.250000 -0.350000  0.050000    576.000000
 -0.150000 -0.350000  0.050000    576.000000
 -0.250000 -0.250000  0.050000    288.000000
 -0.150000 -0.250000  0.050000    576.000000
 -0.150000 -0.150000  0.050000    288.000000
  0.150000  0.150000  0.150000     96.000000
  0.250000  0.150000  0.150000    288.000000
  0.350000  0.150000  0.150000    288.000000
  0.450000  0.150000  0.150000    288.000000
 -0.450000  0.150000  0.150000    288.000000
 -0.350000  0.150000  0.150000    288.000000
 -0.250000  0.150000  0.150000    288.000000
 -0.150000  0.150000  0.150000    288.000000
  0.250000  0.250000  0.150000    288.000000
  0.350000  0.250000  0.150000    576.000000
  0.450000  0.250000  0.150000    576.000000
 -0.450000  0.250000  0.150000    576.000000
 -0.350000  0.250000  0.150000    576.000000
 -0.250000  0.250000  0.150000    576.000000
 -0.150000  0.250000  0.150000    576.000000
  0.350000  0.350000  0.150000    288.000000
  0.450000  0.350000  0.150000    576.000000
 -0.450000  0.350000  0.150000    576.000000
 -0.350000  0.350000  0.150000    576.000000
 -0.250000  0.350000  0.150000    576.000000
 -0.150000  0.350000  0.150000    576.000000
  0.450000  0.450000  0.150000    288.000000
 -0.450000  0.450000  0.150000    576.000000
 -0.350000  0.450000  0.150000    576.000000
 -0.250000  0.450000  0.150000    576.000000
 -0.150000  0.450000  0.150000    576.000000
 -0.450000 -0.450000  0.150000    288.000000
 -0.350000 -0.450000  0.150000    576.000000
 -0.250000 -0.450000  0.150000    576.000000
 -0.350000 -0.350000  0.150000    288.000000
 -0.250000 -0.350000  0.150000    576.000000
 -0.250000 -0.250000  0.150000    288.000000
  0.250000  0.250000  0.250000     96.000000
  0.350000  0.250000  0.250000    288.000000
  0.450000  0.250000  0.250000    288.000000
 -0.450000  0.250000  0.250000    288.000000
 -0.350000  0.250000  0.250000    288.000000
 -0.250000  0.250000  0.250000    288.000000
  0.350000  0.350000  0.250000    288.000000
  0.450000  0.350000  0.250000    576.000000
 -0.450000  0.350000  0.250000    576.000000
 -0.350000  0.350000  0.250000    576.000000
 -0.250000  0.350000  0.250000    576.000000
  0.450000  0.450000  0.250000    288.000000
 -0.450000  0.450000  0.250000    576.000000
 -0.350000  0.450000  0.250000    576.000000
 -0.250000  0.450000  0.250000    576.000000
 -0.450000 -0.450000  0.250000    288.000000
 -0.350000 -0.450000  0.250000    576.000000
 -0.350000 -0.350000  0.250000    288.000000
  0.350000  0.350000  0.350000     96.000000
  0.450000  0.350000  0.350000    288.000000
 -0.450000  0.350000  0.350000    288.000000
 -0.350000  0.350000  0.350000    288.000000
  0.450000  0.450000  0.350000    288.000000
 -0.450000  0.450000  0.350000    576.000000
 -0.350000  0.450000  0.350000    576.000000
 -0.450000 -0.450000  0.350000    288.000000
  0.450000  0.450000  0.450000     96.000000
 -0.450000  0.450000  0.450000    288.000000
 
 Following cartesian coordinates:
            Coordinates               Weight
  0.050000  0.050000  0.050000     96.000000
 -0.050000  0.150000  0.150000    288.000000
 -0.150000  0.250000  0.250000    288.000000
 -0.250000  0.350000  0.350000    288.000000
 -0.350000  0.450000  0.450000    288.000000
  0.550000 -0.450000 -0.450000    288.000000
  0.450000 -0.350000 -0.350000    288.000000
  0.350000 -0.250000 -0.250000    288.000000
  0.250000 -0.150000 -0.150000    288.000000
  0.150000 -0.050000 -0.050000    288.000000
  0.050000  0.050000  0.250000    288.000000
 -0.050000  0.150000  0.350000    576.000000
 -0.150000  0.250000  0.450000    576.000000
 -0.250000  0.350000  0.550000    576.000000
  0.650000 -0.550000 -0.350000    576.000000
  0.550000 -0.450000 -0.250000    576.000000
  0.450000 -0.350000 -0.150000    576.000000
  0.350000 -0.250000 -0.050000    576.000000
  0.250000 -0.150000  0.050000    576.000000
  0.050000  0.050000  0.450000    288.000000
 -0.050000  0.150000  0.550000    576.000000
 -0.150000  0.250000  0.650000    576.000000
  0.750000 -0.650000 -0.250000    576.000000
  0.650000 -0.550000 -0.150000    576.000000
  0.550000 -0.450000 -0.050000    576.000000
  0.450000 -0.350000  0.050000    576.000000
  0.350000 -0.250000  0.150000    576.000000
  0.050000  0.050000  0.650000    288.000000
 -0.050000  0.150000  0.750000    576.000000
  0.850000 -0.750000 -0.150000    576.000000
  0.750000 -0.650000 -0.050000    576.000000
  0.650000 -0.550000  0.050000    576.000000
  0.550000 -0.450000  0.150000    576.000000
  0.450000 -0.350000  0.250000    576.000000
  0.050000  0.050000  0.850000    288.000000
  0.950000 -0.850000 -0.050000    576.000000
  0.850000 -0.750000  0.050000    576.000000
  0.750000 -0.650000  0.150000    576.000000
  0.650000 -0.550000  0.250000    576.000000
  0.550000 -0.450000  0.350000    576.000000
  0.050000  0.050000 -0.950000    288.000000
 -0.050000  0.150000 -0.850000    576.000000
 -0.150000  0.250000 -0.750000    576.000000
 -0.250000  0.350000 -0.650000    576.000000
  0.050000  0.050000 -0.750000    288.000000
 -0.050000  0.150000 -0.650000    576.000000
 -0.150000  0.250000 -0.550000    576.000000
  0.050000  0.050000 -0.550000    288.000000
 -0.050000  0.150000 -0.450000    576.000000
  0.050000  0.050000 -0.350000    288.000000
  0.150000  0.150000  0.150000     96.000000
  0.050000  0.250000  0.250000    288.000000
 -0.050000  0.350000  0.350000    288.000000
 -0.150000  0.450000  0.450000    288.000000
  0.750000 -0.450000 -0.450000    288.000000
  0.650000 -0.350000 -0.350000    288.000000
  0.550000 -0.250000 -0.250000    288.000000
  0.450000 -0.150000 -0.150000    288.000000
  0.150000  0.150000  0.350000    288.000000
  0.050000  0.250000  0.450000    576.000000
 -0.050000  0.350000  0.550000    576.000000
  0.850000 -0.550000 -0.350000    576.000000
  0.750000 -0.450000 -0.250000    576.000000
  0.650000 -0.350000 -0.150000    576.000000
  0.550000 -0.250000 -0.050000    576.000000
  0.150000  0.150000  0.550000    288.000000
  0.050000  0.250000  0.650000    576.000000
  0.950000 -0.650000 -0.250000    576.000000
  0.850000 -0.550000 -0.150000    576.000000
  0.750000 -0.450000 -0.050000    576.000000
  0.650000 -0.350000  0.050000    576.000000
  0.150000  0.150000  0.750000    288.000000
  1.050000 -0.750000 -0.150000    576.000000
  0.950000 -0.650000 -0.050000    576.000000
  0.850000 -0.550000  0.050000    576.000000
  0.750000 -0.450000  0.150000    576.000000
  0.150000  0.150000 -1.050000    288.000000
  0.050000  0.250000 -0.950000    576.000000
 -0.050000  0.350000 -0.850000    576.000000
  0.150000  0.150000 -0.850000    288.000000
  0.050000  0.250000 -0.750000    576.000000
  0.150000  0.150000 -0.650000    288.000000
  0.250000  0.250000  0.250000     96.000000
  0.150000  0.350000  0.350000    288.000000
  0.050000  0.450000  0.450000    288.000000
  0.950000 -0.450000 -0.450000    288.000000
  0.850000 -0.350000 -0.350000    288.000000
  0.750000 -0.250000 -0.250000    288.000000
  0.250000  0.250000  0.450000    288.000000
  0.150000  0.350000  0.550000    576.000000
  1.050000 -0.550000 -0.350000    576.000000
  0.950000 -0.450000 -0.250000    576.000000
  0.850000 -0.350000 -0.150000    576.000000
  0.250000  0.250000  0.650000    288.000000
  1.150000 -0.650000 -0.250000    576.000000
  1.050000 -0.550000 -0.150000    576.000000
  0.950000 -0.450000 -0.050000    576.000000
  0.250000  0.250000 -1.150000    288.000000
  0.150000  0.350000 -1.050000    576.000000
  0.250000  0.250000 -0.950000    288.000000
  0.350000  0.350000  0.350000     96.000000
  0.250000  0.450000  0.450000    288.000000
  1.150000 -0.450000 -0.450000    288.000000
  1.050000 -0.350000 -0.350000    288.000000
  0.350000  0.350000  0.550000    288.000000
  1.250000 -0.550000 -0.350000    576.000000
  1.150000 -0.450000 -0.250000    576.000000
  0.350000  0.350000 -1.250000    288.000000
  0.450000  0.450000  0.450000     96.000000
  1.350000 -0.450000 -0.450000    288.000000
 


--------------------------------------------------------------------------------------------------------




 Dimension of arrays:
   k-points           NKPTS =    110   k-points in BZ     NKDIM =    110   number of bands    NBANDS=     12
   number of dos      NEDOS =    301   number of ions     NIONS =      1
   non local maximal  LDIM  =      6   non local SUM 2l+1 LMDIM =     18
   total plane-waves  NPLWV =   1728
   max r-space proj   IRMAX =      1   max aug-charges    IRDMAX=   5705
   dimension x,y,z NGX =    12 NGY =   12 NGZ =   12
   dimension x,y,z NGXF=    24 NGYF=   24 NGZF=   24
   support grid    NGXF=    24 NGYF=   24 NGZF=   24
   ions per type =               1
   NGX,Y,Z   is equivalent  to a cutoff of   6.64,  6.64,  6.64 a.u.
   NGXF,Y,Z  is equivalent  to a cutoff of  13.28, 13.28, 13.28 a.u.

 SYSTEM =  FCC Au                                  
 POSCAR =  FCC Au Bulk                             

 Startparameter for this run:
   NWRITE =      2    write-flag & timer
   PREC   = normal    normal or accurate (medium, high low for compatibility)
   ISTART =      1    job   : 0-new  1-cont  2-samecut
   ICHARG =      0    charge: 1-file 2-atom 10-const
   ISPIN  =      1    spin polarized calculation?
   LNONCOLLINEAR =      F non collinear calculations
   LSORBIT =      F    spin-orbit coupling
   INIWAV =      1    electr: 0-lowe 1-rand  2-diag
   LASPH  =      F    aspherical Exc in radial PAW
   METAGGA=      F    non-selfconsistent MetaGGA calc.

 Electronic Relaxation 1
   ENCUT  =  230.0 eV  16.90 Ry    4.11 a.u.   3.72  3.72  3.72*2*pi/ulx,y,z
   ENINI  =  230.0     initial cutoff
   ENAUG  =  356.7 eV  augmentation charge cutoff
   NELM   =     60;   NELMIN=  2; NELMDL=  0     # of ELM steps 
   EDIFF  = 0.1E-03   stopping-criterion for ELM
   LREAL  =      F    real-space projection
   NLSPLINE    = F    spline interpolate recip. space projectors
   LCOMPAT=      F    compatible to vasp.4.4
   GGA_COMPAT  = T    GGA compatible to vasp.4.4-vasp.4.6
   LMAXPAW     = -100 max onsite density
   LMAXMIX     =    2 max onsite mixed and CHGCAR
   VOSKOWN=      0    Vosko Wilk Nusair interpolation
   ROPT   =    0.00000
 Ionic relaxation
   EDIFFG = 0.1E-02   stopping-criterion for IOM
   NSW    =      0    number of steps for IOM
   NBLOCK =      1;   KBLOCK =      1    inner block; outer block 
   IBRION =     -1    ionic relax: 0-MD 1-quasi-New 2-CG
   NFREE  =      0    steps in history (QN), initial steepest desc. (CG)
   ISIF   =      2    stress and relaxation
   IWAVPR =     10    prediction:  0-non 1-charg 2-wave 3-comb
   ISYM   =      2    0-nonsym 1-usesym 2-fastsym
   LCORR  =      T    Harris-Foulkes like correction to forces

   POTIM  = 0.5000    time-step for ionic-motion
   TEIN   =    0.0    initial temperature
   TEBEG  =    0.0;   TEEND  =   0.0 temperature during run
   SMASS  =  -3.00    Nose mass-parameter (am)
   estimated Nose-frequenzy (Omega)   =  0.10E-29 period in steps =****** mass=  -0.206E-27a.u.
   SCALEE = 1.0000    scale energy and forces
   NPACO  =    256;   APACO  = 16.0  distance and # of slots for P.C.
   PSTRESS=    0.0 pullay stress

  Mass of Ions in am
   POMASS = 196.97
  Ionic Valenz
   ZVAL   =  11.00
  Atomic Wigner-Seitz radii
   RWIGS  =  -1.00
  virtual crystal weights 
   VCA    =   1.00
   NELECT =      11.0000    total number of electrons
   NUPDOWN=      -1.0000    fix difference up-down

 DOS related values:
   EMIN   =  10.00;   EMAX   =-10.00  energy-range for DOS
   EFERMI =   0.00
   ISMEAR =     1;   SIGMA  =   0.20  broadening in eV -4-tet -1-fermi 0-gaus

 Electronic relaxation 2 (details)
   IALGO  =     38    algorithm
   LDIAG  =      T    sub-space diagonalisation (order eigenvalues)
   LSUBROT=      F    optimize rotation matrix (better conditioning)
   TURBO    =      0    0=normal 1=particle mesh
   IRESTART =      0    0=no restart 2=restart with 2 vectors
   NREBOOT  =      0    no. of reboots
   NMIN     =      0    reboot dimension
   EREF     =   0.00    reference energy to select bands
   IMIX   =      4    mixing-type and parameters
     AMIX     =   0.40;   BMIX     =  1.00
     AMIX_MAG =   1.60;   BMIX_MAG =  1.00
     AMIN     =   0.10
     WC   =   100.;   INIMIX=   1;  MIXPRE=   1;  MAXMIX= -45

 Intra band minimization:
   WEIMIN = 0.0000     energy-eigenvalue tresh-hold
   EBREAK =  0.21E-05  absolut break condition
   DEPER  =   0.30     relativ break condition  

   TIME   =   0.40     timestep for ELM

  volume/ion in A,a.u.               =      19.19       129.51
  Fermi-wavevector in a.u.,A,eV,Ry     =   1.359889  2.569818 25.161228  1.849298
  Thomas-Fermi vector in A             =   2.486598
 
 Write flags
   LWAVE        =      T    write WAVECAR
   LDOWNSAMPLE  =      F    k-point downsampling of WAVECAR
   LCHARG       =      T    write CHGCAR
   LVTOT        =      F    write LOCPOT, total local potential
   LVHAR        =      F    write LOCPOT, Hartree potential only
   LELF         =      F    write electronic localiz. function (ELF)
   LORBIT       =      0    0 simple, 1 ext, 2 COOP (PROOUT), +10 PAW based schemes


 Dipole corrections
   LMONO  =      F    monopole corrections only (constant potential shift)
   LDIPOL =      F    correct potential (dipole corrections)
   IDIPOL =      0    1-x, 2-y, 3-z, 4-all directions 
   EPSILON=  1.0000000 bulk dielectric constant

 Exchange correlation treatment:
   GGA     =    --    GGA type
   LEXCH   =     2    internal setting for exchange type
   VOSKOWN=      0    Vosko Wilk Nusair interpolation
   LHFCALC =     F    Hartree Fock is set to
   LHFONE  =     F    Hartree Fock one center treatment
   AEXX    =    0.0000 exact exchange contribution

 Linear response parameters
   LEPSILON=     F    determine dielectric tensor
   LRPA    =     F    only Hartree local field effects (RPA)
   LNABLA  =     F    use nabla operator in PAW spheres
   LVEL    =     F    velocity operator in full k-point grid
   LINTERFAST=   F  fast interpolation
   KINTER  =     0    interpolate to denser k-point grid
   CSHIFT  =0.1000    complex shift for real part using Kramers Kronig
   OMEGAMAX=  -1.0    maximum frequency
   DEG_THRESHOLD= 0.2000000E-02 threshold for treating states as degnerate
   RTIME   =   -0.100 relaxation time in fs
  (WPLASMAI=    0.000 imaginary part of plasma frequency in eV, 0.658/RTIME)
   DFIELD  = 0.0000000 0.0000000 0.0000000 field for delta impulse in time
 
 Orbital magnetization related:
   ORBITALMAG=     F  switch on orbital magnetization
   LCHIMAG   =     F  perturbation theory with respect to B field
   DQ        =  0.001000  dq finite difference perturbation B field
   LLRAUG    =     F  two centre corrections for induced B field



--------------------------------------------------------------------------------------------------------


 Static calculation
 charge density and potential will be updated during run
 non-spin polarized calculation
 Variant of blocked Davidson
 Davidson routine will perform the subspace rotation
 perform sub-space diagonalisation
    after iterative eigenvector-optimisation
 modified Broyden-mixing scheme, WC =      100.0
 initial mixing is a Kerker type mixing with AMIX =  0.4000 and BMIX =      1.0000
 Hartree-type preconditioning will be used
 using additional bands            6
 reciprocal scheme for non local part
 use partial core corrections
 calculate Harris-corrections to forces 
   (improved forces if not selfconsistent)
 use of overlap-Matrix (Vanderbilt PP)
 Methfessel and Paxton  Order N= 1 SIGMA  =   0.20


--------------------------------------------------------------------------------------------------------


  energy-cutoff  :      230.00
  volume of cell :       19.19
      direct lattice vectors                 reciprocal lattice vectors
     0.000000000  2.125000000  2.125000000    -0.235294118  0.235294118  0.235294118
     2.125000000  0.000000000  2.125000000     0.235294118 -0.235294118  0.235294118
     2.125000000  2.125000000  0.000000000     0.235294118  0.235294118 -0.235294118

  length of vectors
     3.005203820  3.005203820  3.005203820     0.407541366  0.407541366  0.407541366


 
 old parameters found on file WAVECAR:
  energy-cutoff  :      287.34
  volume of cell :       19.19
      direct lattice vectors                 reciprocal lattice vectors
     0.000000000  2.125000000  2.125000000    -0.235294118  0.235294118  0.235294118
     2.125000000  0.000000000  2.125000000     0.235294118 -0.235294118  0.235294118
     2.125000000  2.125000000  0.000000000     0.235294118  0.235294118 -0.235294118

  length of vectors

 
 k-points in units of 2pi/SCALE and weight: 10x10x10                                
   0.05000000  0.05000000  0.05000000       0.002
  -0.05000000  0.15000000  0.15000000       0.006
  -0.15000000  0.25000000  0.25000000       0.006
  -0.25000000  0.35000000  0.35000000       0.006
  -0.35000000  0.45000000  0.45000000       0.006
   0.55000000 -0.45000000 -0.45000000       0.006
   0.45000000 -0.35000000 -0.35000000       0.006
   0.35000000 -0.25000000 -0.25000000       0.006
   0.25000000 -0.15000000 -0.15000000       0.006
   0.15000000 -0.05000000 -0.05000000       0.006
   0.05000000  0.05000000  0.25000000       0.006
  -0.05000000  0.15000000  0.35000000       0.012
  -0.15000000  0.25000000  0.45000000       0.012
  -0.25000000  0.35000000  0.55000000       0.012
   0.65000000 -0.55000000 -0.35000000       0.012
   0.55000000 -0.45000000 -0.25000000       0.012
   0.45000000 -0.35000000 -0.15000000       0.012
   0.35000000 -0.25000000 -0.05000000       0.012
   0.25000000 -0.15000000  0.05000000       0.012
   0.05000000  0.05000000  0.45000000       0.006
  -0.05000000  0.15000000  0.55000000       0.012
  -0.15000000  0.25000000  0.65000000       0.012
   0.75000000 -0.65000000 -0.25000000       0.012
   0.65000000 -0.55000000 -0.15000000       0.012
   0.55000000 -0.45000000 -0.05000000       0.012
   0.45000000 -0.35000000  0.05000000       0.012
   0.35000000 -0.25000000  0.15000000       0.012
   0.05000000  0.05000000  0.65000000       0.006
  -0.05000000  0.15000000  0.75000000       0.012
   0.85000000 -0.75000000 -0.15000000       0.012
   0.75000000 -0.65000000 -0.05000000       0.012
   0.65000000 -0.55000000  0.05000000       0.012
   0.55000000 -0.45000000  0.15000000       0.012
   0.45000000 -0.35000000  0.25000000       0.012
   0.05000000  0.05000000  0.85000000       0.006
   0.95000000 -0.85000000 -0.05000000       0.012
   0.85000000 -0.75000000  0.05000000       0.012
   0.75000000 -0.65000000  0.15000000       0.012
   0.65000000 -0.55000000  0.25000000       0.012
   0.55000000 -0.45000000  0.35000000       0.012
   0.05000000  0.05000000 -0.95000000       0.006
  -0.05000000  0.15000000 -0.85000000       0.012
  -0.15000000  0.25000000 -0.75000000       0.012
  -0.25000000  0.35000000 -0.65000000       0.012
   0.05000000  0.05000000 -0.75000000       0.006
  -0.05000000  0.15000000 -0.65000000       0.012
  -0.15000000  0.25000000 -0.55000000       0.012
   0.05000000  0.05000000 -0.55000000       0.006
  -0.05000000  0.15000000 -0.45000000       0.012
   0.05000000  0.05000000 -0.35000000       0.006
   0.15000000  0.15000000  0.15000000       0.002
   0.05000000  0.25000000  0.25000000       0.006
  -0.05000000  0.35000000  0.35000000       0.006
  -0.15000000  0.45000000  0.45000000       0.006
   0.75000000 -0.45000000 -0.45000000       0.006
   0.65000000 -0.35000000 -0.35000000       0.006
   0.55000000 -0.25000000 -0.25000000       0.006
   0.45000000 -0.15000000 -0.15000000       0.006
   0.15000000  0.15000000  0.35000000       0.006
   0.05000000  0.25000000  0.45000000       0.012
  -0.05000000  0.35000000  0.55000000       0.012
   0.85000000 -0.55000000 -0.35000000       0.012
   0.75000000 -0.45000000 -0.25000000       0.012
   0.65000000 -0.35000000 -0.15000000       0.012
   0.55000000 -0.25000000 -0.05000000       0.012
   0.15000000  0.15000000  0.55000000       0.006
   0.05000000  0.25000000  0.65000000       0.012
   0.95000000 -0.65000000 -0.25000000       0.012
   0.85000000 -0.55000000 -0.15000000       0.012
   0.75000000 -0.45000000 -0.05000000       0.012
   0.65000000 -0.35000000  0.05000000       0.012
   0.15000000  0.15000000  0.75000000       0.006
   1.05000000 -0.75000000 -0.15000000       0.012
   0.95000000 -0.65000000 -0.05000000       0.012
   0.85000000 -0.55000000  0.05000000       0.012
   0.75000000 -0.45000000  0.15000000       0.012
   0.15000000  0.15000000 -1.05000000       0.006
   0.05000000  0.25000000 -0.95000000       0.012
  -0.05000000  0.35000000 -0.85000000       0.012
   0.15000000  0.15000000 -0.85000000       0.006
   0.05000000  0.25000000 -0.75000000       0.012
   0.15000000  0.15000000 -0.65000000       0.006
   0.25000000  0.25000000  0.25000000       0.002
   0.15000000  0.35000000  0.35000000       0.006
   0.05000000  0.45000000  0.45000000       0.006
   0.95000000 -0.45000000 -0.45000000       0.006
   0.85000000 -0.35000000 -0.35000000       0.006
   0.75000000 -0.25000000 -0.25000000       0.006
   0.25000000  0.25000000  0.45000000       0.006
   0.15000000  0.35000000  0.55000000       0.012
   1.05000000 -0.55000000 -0.35000000       0.012
   0.95000000 -0.45000000 -0.25000000       0.012
   0.85000000 -0.35000000 -0.15000000       0.012
   0.25000000  0.25000000  0.65000000       0.006
   1.15000000 -0.65000000 -0.25000000       0.012
   1.05000000 -0.55000000 -0.15000000       0.012
   0.95000000 -0.45000000 -0.05000000       0.012
   0.25000000  0.25000000 -1.15000000       0.006
   0.15000000  0.35000000 -1.05000000       0.012
   0.25000000  0.25000000 -0.95000000       0.006
   0.35000000  0.35000000  0.35000000       0.002
   0.25000000  0.45000000  0.45000000       0.006
   1.15000000 -0.45000000 -0.45000000       0.006
   1.05000000 -0.35000000 -0.35000000       0.006
   0.35000000  0.35000000  0.55000000       0.006
   1.25000000 -0.55000000 -0.35000000       0.012
   1.15000000 -0.45000000 -0.25000000       0.012
   0.35000000  0.35000000 -1.25000000       0.006
   0.45000000  0.45000000  0.45000000       0.002
   1.35000000 -0.45000000 -0.45000000       0.006
 
 k-points in reciprocal lattice and weights: 10x10x10                                
   0.05000000  0.05000000  0.05000000       0.002
   0.15000000  0.05000000  0.05000000       0.006
   0.25000000  0.05000000  0.05000000       0.006
   0.35000000  0.05000000  0.05000000       0.006
   0.45000000  0.05000000  0.05000000       0.006
  -0.45000000  0.05000000  0.05000000       0.006
  -0.35000000  0.05000000  0.05000000       0.006
  -0.25000000  0.05000000  0.05000000       0.006
  -0.15000000  0.05000000  0.05000000       0.006
  -0.05000000  0.05000000  0.05000000       0.006
   0.15000000  0.15000000  0.05000000       0.006
   0.25000000  0.15000000  0.05000000       0.012
   0.35000000  0.15000000  0.05000000       0.012
   0.45000000  0.15000000  0.05000000       0.012
  -0.45000000  0.15000000  0.05000000       0.012
  -0.35000000  0.15000000  0.05000000       0.012
  -0.25000000  0.15000000  0.05000000       0.012
  -0.15000000  0.15000000  0.05000000       0.012
  -0.05000000  0.15000000  0.05000000       0.012
   0.25000000  0.25000000  0.05000000       0.006
   0.35000000  0.25000000  0.05000000       0.012
   0.45000000  0.25000000  0.05000000       0.012
  -0.45000000  0.25000000  0.05000000       0.012
  -0.35000000  0.25000000  0.05000000       0.012
  -0.25000000  0.25000000  0.05000000       0.012
  -0.15000000  0.25000000  0.05000000       0.012
  -0.05000000  0.25000000  0.05000000       0.012
   0.35000000  0.35000000  0.05000000       0.006
   0.45000000  0.35000000  0.05000000       0.012
  -0.45000000  0.35000000  0.05000000       0.012
  -0.35000000  0.35000000  0.05000000       0.012
  -0.25000000  0.35000000  0.05000000       0.012
  -0.15000000  0.35000000  0.05000000       0.012
  -0.05000000  0.35000000  0.05000000       0.012
   0.45000000  0.45000000  0.05000000       0.006
  -0.45000000  0.45000000  0.05000000       0.012
  -0.35000000  0.45000000  0.05000000       0.012
  -0.25000000  0.45000000  0.05000000       0.012
  -0.15000000  0.45000000  0.05000000       0.012
  -0.05000000  0.45000000  0.05000000       0.012
  -0.45000000 -0.45000000  0.05000000       0.006
  -0.35000000 -0.45000000  0.05000000       0.012
  -0.25000000 -0.45000000  0.05000000       0.012
  -0.15000000 -0.45000000  0.05000000       0.012
  -0.35000000 -0.35000000  0.05000000       0.006
  -0.25000000 -0.35000000  0.05000000       0.012
  -0.15000000 -0.35000000  0.05000000       0.012
  -0.25000000 -0.25000000  0.05000000       0.006
  -0.15000000 -0.25000000  0.05000000       0.012
  -0.15000000 -0.15000000  0.05000000       0.006
   0.15000000  0.15000000  0.15000000       0.002
   0.25000000  0.15000000  0.15000000       0.006
   0.35000000  0.15000000  0.15000000       0.006
   0.45000000  0.15000000  0.15000000       0.006
  -0.45000000  0.15000000  0.15000000       0.006
  -0.35000000  0.15000000  0.15000000       0.006
  -0.25000000  0.15000000  0.15000000       0.006
  -0.15000000  0.15000000  0.15000000       0.006
   0.25000000  0.25000000  0.15000000       0.006
   0.35000000  0.25000000  0.15000000       0.012
   0.45000000  0.25000000  0.15000000       0.012
  -0.45000000  0.25000000  0.15000000       0.012
  -0.35000000  0.25000000  0.15000000       0.012
  -0.25000000  0.25000000  0.15000000       0.012
  -0.15000000  0.25000000  0.15000000       0.012
   0.35000000  0.35000000  0.15000000       0.006
   0.45000000  0.35000000  0.15000000       0.012
  -0.45000000  0.35000000  0.15000000       0.012
  -0.35000000  0.35000000  0.15000000       0.012
  -0.25000000  0.35000000  0.15000000       0.012
  -0.15000000  0.35000000  0.15000000       0.012
   0.45000000  0.45000000  0.15000000       0.006
  -0.45000000  0.45000000  0.15000000       0.012
  -0.35000000  0.45000000  0.15000000       0.012
  -0.25000000  0.45000000  0.15000000       0.012
  -0.15000000  0.45000000  0.15000000       0.012
  -0.45000000 -0.45000000  0.15000000       0.006
  -0.35000000 -0.45000000  0.15000000       0.012
  -0.25000000 -0.45000000  0.15000000       0.012
  -0.35000000 -0.35000000  0.15000000       0.006
  -0.25000000 -0.35000000  0.15000000       0.012
  -0.25000000 -0.25000000  0.15000000       0.006
   0.25000000  0.25000000  0.25000000       0.002
   0.35000000  0.25000000  0.25000000       0.006
   0.45000000  0.25000000  0.25000000       0.006
  -0.45000000  0.25000000  0.25000000       0.006
  -0.35000000  0.25000000  0.25000000       0.006
  -0.25000000  0.25000000  0.25000000       0.006
   0.35000000  0.35000000  0.25000000       0.006
   0.45000000  0.35000000  0.25000000       0.012
  -0.45000000  0.35000000  0.25000000       0.012
  -0.35000000  0.35000000  0.25000000       0.012
  -0.25000000  0.35000000  0.25000000       0.012
   0.45000000  0.45000000  0.25000000       0.006
  -0.45000000  0.45000000  0.25000000       0.012
  -0.35000000  0.45000000  0.25000000       0.012
  -0.25000000  0.45000000  0.25000000       0.012
  -0.45000000 -0.45000000  0.25000000       0.006
  -0.35000000 -0.45000000  0.25000000       0.012
  -0.35000000 -0.35000000  0.25000000       0.006
   0.35000000  0.35000000  0.35000000       0.002
   0.45000000  0.35000000  0.35000000       0.006
  -0.45000000  0.35000000  0.35000000       0.006
  -0.35000000  0.35000000  0.35000000       0.006
   0.45000000  0.45000000  0.35000000       0.006
  -0.45000000  0.45000000  0.35000000       0.012
  -0.35000000  0.45000000  0.35000000       0.012
  -0.45000000 -0.45000000  0.35000000       0.006
   0.45000000  0.45000000  0.45000000       0.002
  -0.45000000  0.45000000  0.45000000       0.006
 
 position of ions in fractional coordinates (direct lattice) 
   0.00000000  0.00000000  0.00000000
 
 position of ions in cartesian coordinates  (Angst):
   0.00000000  0.00000000  0.00000000
 


--------------------------------------------------------------------------------------------------------


 k-point  1 :   0.0500 0.0500 0.0500  plane waves:     165
 k-point  2 :   0.1500 0.0500 0.0500  plane waves:     158
 k-point  3 :   0.2500 0.0500 0.0500  plane waves:     151
 k-point  4 :   0.3500 0.0500 0.0500  plane waves:     153
 k-point  5 :   0.4500 0.0500 0.0500  plane waves:     149
 k-point  6 :  -0.4500 0.0500 0.0500  plane waves:     156
 k-point  7 :  -0.3500 0.0500 0.0500  plane waves:     149
 k-point  8 :  -0.2500 0.0500 0.0500  plane waves:     152
 k-point  9 :  -0.1500 0.0500 0.0500  plane waves:     154
 k-point 10 :  -0.0500 0.0500 0.0500  plane waves:     158
 k-point 11 :   0.1500 0.1500 0.0500  plane waves:     157
 k-point 12 :   0.2500 0.1500 0.0500  plane waves:     153
 k-point 13 :   0.3500 0.1500 0.0500  plane waves:     153
 k-point 14 :   0.4500 0.1500 0.0500  plane waves:     150
 k-point 15 :  -0.4500 0.1500 0.0500  plane waves:     155
 k-point 16 :  -0.3500 0.1500 0.0500  plane waves:     153
 k-point 17 :  -0.2500 0.1500 0.0500  plane waves:     151
 k-point 18 :  -0.1500 0.1500 0.0500  plane waves:     153
 k-point 19 :  -0.0500 0.1500 0.0500  plane waves:     156
 k-point 20 :   0.2500 0.2500 0.0500  plane waves:     152
 k-point 21 :   0.3500 0.2500 0.0500  plane waves:     150
 k-point 22 :   0.4500 0.2500 0.0500  plane waves:     150
 k-point 23 :  -0.4500 0.2500 0.0500  plane waves:     152
 k-point 24 :  -0.3500 0.2500 0.0500  plane waves:     153
 k-point 25 :  -0.2500 0.2500 0.0500  plane waves:     151
 k-point 26 :  -0.1500 0.2500 0.0500  plane waves:     149
 k-point 27 :  -0.0500 0.2500 0.0500  plane waves:     153
 k-point 28 :   0.3500 0.3500 0.0500  plane waves:     149
 k-point 29 :   0.4500 0.3500 0.0500  plane waves:     152
 k-point 30 :  -0.4500 0.3500 0.0500  plane waves:     151
 k-point 31 :  -0.3500 0.3500 0.0500  plane waves:     151
 k-point 32 :  -0.2500 0.3500 0.0500  plane waves:     152
 k-point 33 :  -0.1500 0.3500 0.0500  plane waves:     151
 k-point 34 :  -0.0500 0.3500 0.0500  plane waves:     151
 k-point 35 :   0.4500 0.4500 0.0500  plane waves:     152
 k-point 36 :  -0.4500 0.4500 0.0500  plane waves:     150
 k-point 37 :  -0.3500 0.4500 0.0500  plane waves:     152
 k-point 38 :  -0.2500 0.4500 0.0500  plane waves:     152
 k-point 39 :  -0.1500 0.4500 0.0500  plane waves:     155
 k-point 40 :  -0.0500 0.4500 0.0500  plane waves:     153
 k-point 41 :  -0.4500-0.4500 0.0500  plane waves:     150
 k-point 42 :  -0.3500-0.4500 0.0500  plane waves:     151
 k-point 43 :  -0.2500-0.4500 0.0500  plane waves:     149
 k-point 44 :  -0.1500-0.4500 0.0500  plane waves:     152
 k-point 45 :  -0.3500-0.3500 0.0500  plane waves:     150
 k-point 46 :  -0.2500-0.3500 0.0500  plane waves:     149
 k-point 47 :  -0.1500-0.3500 0.0500  plane waves:     150
 k-point 48 :  -0.2500-0.2500 0.0500  plane waves:     151
 k-point 49 :  -0.1500-0.2500 0.0500  plane waves:     153
 k-point 50 :  -0.1500-0.1500 0.0500  plane waves:     157
 k-point 51 :   0.1500 0.1500 0.1500  plane waves:     153
 k-point 52 :   0.2500 0.1500 0.1500  plane waves:     155
 k-point 53 :   0.3500 0.1500 0.1500  plane waves:     152
 k-point 54 :   0.4500 0.1500 0.1500  plane waves:     149
 k-point 55 :  -0.4500 0.1500 0.1500  plane waves:     156
 k-point 56 :  -0.3500 0.1500 0.1500  plane waves:     155
 k-point 57 :  -0.2500 0.1500 0.1500  plane waves:     148
 k-point 58 :  -0.1500 0.1500 0.1500  plane waves:     152
 k-point 59 :   0.2500 0.2500 0.1500  plane waves:     153
 k-point 60 :   0.3500 0.2500 0.1500  plane waves:     151
 k-point 61 :   0.4500 0.2500 0.1500  plane waves:     148
 k-point 62 :  -0.4500 0.2500 0.1500  plane waves:     153
 k-point 63 :  -0.3500 0.2500 0.1500  plane waves:     151
 k-point 64 :  -0.2500 0.2500 0.1500  plane waves:     151
 k-point 65 :  -0.1500 0.2500 0.1500  plane waves:     150
 k-point 66 :   0.3500 0.3500 0.1500  plane waves:     152
 k-point 67 :   0.4500 0.3500 0.1500  plane waves:     149
 k-point 68 :  -0.4500 0.3500 0.1500  plane waves:     151
 k-point 69 :  -0.3500 0.3500 0.1500  plane waves:     154
 k-point 70 :  -0.2500 0.3500 0.1500  plane waves:     153
 k-point 71 :  -0.1500 0.3500 0.1500  plane waves:     149
 k-point 72 :   0.4500 0.4500 0.1500  plane waves:     152
 k-point 73 :  -0.4500 0.4500 0.1500  plane waves:     152
 k-point 74 :  -0.3500 0.4500 0.1500  plane waves:     152
 k-point 75 :  -0.2500 0.4500 0.1500  plane waves:     150
 k-point 76 :  -0.1500 0.4500 0.1500  plane waves:     152
 k-point 77 :  -0.4500-0.4500 0.1500  plane waves:     150
 k-point 78 :  -0.3500-0.4500 0.1500  plane waves:     154
 k-point 79 :  -0.2500-0.4500 0.1500  plane waves:     155
 k-point 80 :  -0.3500-0.3500 0.1500  plane waves:     150
 k-point 81 :  -0.2500-0.3500 0.1500  plane waves:     150
 k-point 82 :  -0.2500-0.2500 0.1500  plane waves:     149
 k-point 83 :   0.2500 0.2500 0.2500  plane waves:     150
 k-point 84 :   0.3500 0.2500 0.2500  plane waves:     150
 k-point 85 :   0.4500 0.2500 0.2500  plane waves:     149
 k-point 86 :  -0.4500 0.2500 0.2500  plane waves:     153
 k-point 87 :  -0.3500 0.2500 0.2500  plane waves:     153
 k-point 88 :  -0.2500 0.2500 0.2500  plane waves:     149
 k-point 89 :   0.3500 0.3500 0.2500  plane waves:     150
 k-point 90 :   0.4500 0.3500 0.2500  plane waves:     150
 k-point 91 :  -0.4500 0.3500 0.2500  plane waves:     150
 k-point 92 :  -0.3500 0.3500 0.2500  plane waves:     152
 k-point 93 :  -0.2500 0.3500 0.2500  plane waves:     155
 k-point 94 :   0.4500 0.4500 0.2500  plane waves:     149
 k-point 95 :  -0.4500 0.4500 0.2500  plane waves:     151
 k-point 96 :  -0.3500 0.4500 0.2500  plane waves:     151
 k-point 97 :  -0.2500 0.4500 0.2500  plane waves:     153
 k-point 98 :  -0.4500-0.4500 0.2500  plane waves:     152
 k-point 99 :  -0.3500-0.4500 0.2500  plane waves:     152
 k-point ** :  -0.3500-0.3500 0.2500  plane waves:     150
 k-point ** :   0.3500 0.3500 0.3500  plane waves:     153
 k-point ** :   0.4500 0.3500 0.3500  plane waves:     151
 k-point ** :  -0.4500 0.3500 0.3500  plane waves:     155
 k-point ** :  -0.3500 0.3500 0.3500  plane waves:     151
 k-point ** :   0.4500 0.4500 0.3500  plane waves:     151
 k-point ** :  -0.4500 0.4500 0.3500  plane waves:     154
 k-point ** :  -0.3500 0.4500 0.3500  plane waves:     153
 k-point ** :  -0.4500-0.4500 0.3500  plane waves:     154
 k-point ** :   0.4500 0.4500 0.4500  plane waves:     156
 k-point ** :  -0.4500 0.4500 0.4500  plane waves:     156

 maximum and minimum number of plane-waves per node :       165      148

 maximum number of plane-waves:       165
 maximum index in each direction: 
   IXMAX=    4   IYMAX=    4   IZMAX=    3
   IXMIN=   -4   IYMIN=   -4   IZMIN=   -4


 serial   3D FFT for wavefunctions
 parallel 3D FFT for charge:
    minimum data exchange during FFTs selected (reduces bandwidth)


 total amount of memory used by VASP MPI-rank0    34239. kBytes
=======================================================================

   base      :      30000. kBytes
   nonl-proj :       2663. kBytes
   fftplans  :        238. kBytes
   grid      :        331. kBytes
   one-center:         15. kBytes
   wavefun   :        992. kBytes
 
     INWAV:  cpu time    0.0270: real time    0.0692
 Broyden mixing: mesh for mixing (old mesh)
   NGX =  7   NGY =  7   NGZ =  7
  (NGX  = 24   NGY  = 24   NGZ  = 24)
  gives a total of    343 points

 charge density for first step will be calculated from the start-wavefunctions


--------------------------------------------------------------------------------------------------------


 Maximum index for augmentation-charges         1333 (set IRDMAX)


--------------------------------------------------------------------------------------------------------


 initial charge from wavefunction
 First call to EWALD:  gamma=   0.662
 Maximum number of real-space cells 3x 3x 3
 Maximum number of reciprocal cells 3x 3x 3

    FEWALD:  cpu time    0.0013: real time    0.0051


--------------------------------------- Iteration      1(   1)  ---------------------------------------


    POTLOK:  cpu time    0.0021: real time    0.0127
    SETDIJ:  cpu time    0.0005: real time    0.0030
     EDDAV:  cpu time    0.2984: real time    0.9004
       DOS:  cpu time    0.0015: real time    0.0016
    CHARGE:  cpu time    0.0038: real time    0.0042
    MIXING:  cpu time    0.0006: real time    0.0032
    --------------------------------------------
      LOOP:  cpu time    0.3069: real time    0.9251

 eigenvalue-minimisations  :  2912
 total energy-change (2. order) :-0.9070082E+01  (-0.6705865E+01)
 number of electron      10.9999922 magnetization 
 augmentation part        4.7058531 magnetization 

 Broyden mixing:
  rms(total) = 0.12323E+01    rms(broyden)= 0.12318E+01
  rms(prec ) = 0.43600E+01
  weight for this iteration     100.00

 Free energy of the ion-electron system (eV)
  ---------------------------------------------------
  alpha Z        PSCENC =        95.76574619
  Ewald energy   TEWEN  =      -939.82889455
  -Hartree energ DENC   =       -95.59178623
  -exchange      EXHF   =         0.00000000
  -V(xc)+E(xc)   XCENC  =        13.93344749
  PAW double counting   =       707.25224981     -688.66333076
  entropy T*S    EENTRO =        -0.00079594
  eigenvalues    EBANDS =       -31.33304965
  atomic energy  EATOM  =       929.39633208
  Solvation  Ediel_sol  =         0.00000000
  ---------------------------------------------------
  free energy    TOTEN  =        -9.07008157 eV

  energy without entropy =       -9.06928563  energy(sigma->0) =       -9.06981626


--------------------------------------------------------------------------------------------------------




--------------------------------------- Iteration      1(   2)  ---------------------------------------


    POTLOK:  cpu time    0.0019: real time    0.0076
    SETDIJ:  cpu time    0.0009: real time    0.0013
     EDDAV:  cpu time    0.3012: real time    0.9162
       DOS:  cpu time    0.0013: real time    0.0013
    CHARGE:  cpu time    0.0048: real time    0.0099
    MIXING:  cpu time    0.0003: real time    0.0003
    --------------------------------------------
      LOOP:  cpu time    0.3105: real time    0.9366

 eigenvalue-minimisations  :  2972
 total energy-change (2. order) : 0.4662175E+01  (-0.1321399E+01)
 number of electron      10.9999931 magnetization 
 augmentation part        4.1693833 magnetization 

 Broyden mixing:
  rms(total) = 0.24446E+00    rms(broyden)= 0.24431E+00
  rms(prec ) = 0.88499E+00
  weight for this iteration     100.00

 eigenvalues of (default mixing * dielectric matrix)
  average eigenvalue GAMMA=   1.2457
  1.2457

 Free energy of the ion-electron system (eV)
  ---------------------------------------------------
  alpha Z        PSCENC =        95.76574619
  Ewald energy   TEWEN  =      -939.82889455
  -Hartree energ DENC   =      -121.07497626
  -exchange      EXHF   =         0.00000000
  -V(xc)+E(xc)   XCENC  =        15.10101401
  PAW double counting   =       748.65781632     -729.99616199
  entropy T*S    EENTRO =         0.00076797
  eigenvalues    EBANDS =        -2.42955011
  atomic energy  EATOM  =       929.39633208
  Solvation  Ediel_sol  =         0.00000000
  ---------------------------------------------------
  free energy    TOTEN  =        -4.40790635 eV

  energy without entropy =       -4.40867432  energy(sigma->0) =       -4.40816234


--------------------------------------------------------------------------------------------------------




--------------------------------------- Iteration      1(   3)  ---------------------------------------


    POTLOK:  cpu time    0.0015: real time    0.0014
    SETDIJ:  cpu time    0.0004: real time    0.0043
     EDDAV:  cpu time    0.3023: real time    0.9134
       DOS:  cpu time    0.0013: real time    0.0014
    CHARGE:  cpu time    0.0037: real time    0.0165
    MIXING:  cpu time    0.0005: real time    0.0004
    --------------------------------------------
      LOOP:  cpu time    0.3095: real time    0.9374

 eigenvalue-minimisations  :  3096
 total energy-change (2. order) : 0.1712328E+00  (-0.1028666E+00)
 number of electron      10.9999934 magnetization 
 augmentation part        4.0095469 magnetization 

 Broyden mixing:
  rms(total) = 0.24945E-01    rms(broyden)= 0.24438E-01
  rms(prec ) = 0.94232E-01
  weight for this iteration     100.00

 eigenvalues of (default mixing * dielectric matrix)
  average eigenvalue GAMMA=   1.0073
  1.1998  0.8148

 Free energy of the ion-electron system (eV)
  ---------------------------------------------------
  alpha Z        PSCENC =        95.76574619
  Ewald energy   TEWEN  =      -939.82889455
  -Hartree energ DENC   =      -128.11433208
  -exchange      EXHF   =         0.00000000
  -V(xc)+E(xc)   XCENC  =        15.43549486
  PAW double counting   =       752.33195920     -733.62581660
  entropy T*S    EENTRO =         0.00100315
  eigenvalues    EBANDS =         4.40183417
  atomic energy  EATOM  =       929.39633208
  Solvation  Ediel_sol  =         0.00000000
  ---------------------------------------------------
  free energy    TOTEN  =        -4.23667358 eV

  energy without entropy =       -4.23767673  energy(sigma->0) =       -4.23700796


--------------------------------------------------------------------------------------------------------




--------------------------------------- Iteration      1(   4)  ---------------------------------------


    POTLOK:  cpu time    0.0013: real time    0.0015
    SETDIJ:  cpu time    0.0004: real time    0.0070
     EDDAV:  cpu time    0.3036: real time    0.9202
       DOS:  cpu time    0.0013: real time    0.0014
    CHARGE:  cpu time    0.0036: real time    0.0098
    MIXING:  cpu time    0.0003: real time    0.0003
    --------------------------------------------
      LOOP:  cpu time    0.3107: real time    0.9402

 eigenvalue-minimisations  :  2880
 total energy-change (2. order) : 0.4041391E-03  (-0.1170245E-02)
 number of electron      10.9999934 magnetization 
 augmentation part        4.0204764 magnetization 

 Broyden mixing:
  rms(total) = 0.79272E-02    rms(broyden)= 0.78988E-02
  rms(prec ) = 0.24395E-01
  weight for this iteration     100.00

 eigenvalues of (default mixing * dielectric matrix)
  average eigenvalue GAMMA=   1.5252
  1.1220  1.1220  2.3316

 Free energy of the ion-electron system (eV)
  ---------------------------------------------------
  alpha Z        PSCENC =        95.76574619
  Ewald energy   TEWEN  =      -939.82889455
  -Hartree energ DENC   =      -127.54085209
  -exchange      EXHF   =         0.00000000
  -V(xc)+E(xc)   XCENC  =        15.40757639
  PAW double counting   =       747.43253223     -728.78197402
  entropy T*S    EENTRO =         0.00100423
  eigenvalues    EBANDS =         3.91226010
  atomic energy  EATOM  =       929.39633208
  Solvation  Ediel_sol  =         0.00000000
  ---------------------------------------------------
  free energy    TOTEN  =        -4.23626944 eV

  energy without entropy =       -4.23727367  energy(sigma->0) =       -4.23660418


--------------------------------------------------------------------------------------------------------




--------------------------------------- Iteration      1(   5)  ---------------------------------------


    POTLOK:  cpu time    0.0014: real time    0.0014
    SETDIJ:  cpu time    0.0006: real time    0.0020
     EDDAV:  cpu time    0.3180: real time    0.9708
       DOS:  cpu time    0.0014: real time    0.0014
    CHARGE:  cpu time    0.0036: real time    0.0086
    MIXING:  cpu time    0.0004: real time    0.0025
    --------------------------------------------
      LOOP:  cpu time    0.3255: real time    0.9868

 eigenvalue-minimisations  :  3052
 total energy-change (2. order) :-0.4558391E-03  (-0.2863326E-04)
 number of electron      10.9999934 magnetization 
 augmentation part        4.0212652 magnetization 

 Broyden mixing:
  rms(total) = 0.29282E-02    rms(broyden)= 0.29264E-02
  rms(prec ) = 0.10659E-01
  weight for this iteration     100.00

 eigenvalues of (default mixing * dielectric matrix)
  average eigenvalue GAMMA=   1.4360
  1.1256  1.1256  0.9075  2.5852

 Free energy of the ion-electron system (eV)
  ---------------------------------------------------
  alpha Z        PSCENC =        95.76574619
  Ewald energy   TEWEN  =      -939.82889455
  -Hartree energ DENC   =      -127.38858802
  -exchange      EXHF   =         0.00000000
  -V(xc)+E(xc)   XCENC  =        15.39958526
  PAW double counting   =       740.03476340     -721.47032205
  entropy T*S    EENTRO =         0.00099511
  eigenvalues    EBANDS =         3.85365729
  atomic energy  EATOM  =       929.39633208
  Solvation  Ediel_sol  =         0.00000000
  ---------------------------------------------------
  free energy    TOTEN  =        -4.23672528 eV

  energy without entropy =       -4.23772039  energy(sigma->0) =       -4.23705698


--------------------------------------------------------------------------------------------------------




--------------------------------------- Iteration      1(   6)  ---------------------------------------


    POTLOK:  cpu time    0.0027: real time    0.0078
    SETDIJ:  cpu time    0.0007: real time    0.0022
     EDDAV:  cpu time    0.2714: real time    0.8277
       DOS:  cpu time    0.0015: real time    0.0017
    --------------------------------------------
      LOOP:  cpu time    0.2762: real time    0.8394

 eigenvalue-minimisations  :  2312
 total energy-change (2. order) :-0.3384725E-04  (-0.9949033E-05)
 number of electron      10.9999934 magnetization 
 augmentation part        4.0212652 magnetization 

 Free energy of the ion-electron system (eV)
  ---------------------------------------------------
  alpha Z        PSCENC =        95.76574619
  Ewald energy   TEWEN  =      -939.82889455
  -Hartree energ DENC   =      -127.28251655
  -exchange      EXHF   =         0.00000000
  -V(xc)+E(xc)   XCENC  =        15.39423499
  PAW double counting   =       736.96325332     -718.43926123
  entropy T*S    EENTRO =         0.00099134
  eigenvalues    EBANDS =         3.79335528
  atomic energy  EATOM  =       929.39633208
  Solvation  Ediel_sol  =         0.00000000
  ---------------------------------------------------
  free energy    TOTEN  =        -4.23675913 eV

  energy without entropy =       -4.23775047  energy(sigma->0) =       -4.23708958


--------------------------------------------------------------------------------------------------------




 average (electrostatic) potential at core
  the test charge radii are     1.2098
  (the norm of the test charge is              1.0000)
       1 -46.9082
 
 
 
 E-fermi :   3.9995     XC(G=0): -12.3066     alpha+bet : -9.1385


 k-point     1 :       0.0500    0.0500    0.0500
  band No.  band energies     occupation 
      1      -4.5791      2.00000
      2      -0.0608      2.00000
      3      -0.0139      2.00000
      4      -0.0139      2.00000
      5       1.2000      2.00000
      6       1.2000      2.00000
      7      19.4057      0.00000
      8      21.7815      0.00000
      9      22.5085      0.00000
     10      22.5085      0.00000
     11      27.0742      0.00000
     12      29.2685      0.00000

 k-point     2 :       0.1500    0.0500    0.0500
  band No.  band energies     occupation 
      1      -4.1705      2.00000
      2      -0.1803      2.00000
      3       0.1004      2.00000
      4       0.1279      2.00000
      5       1.0865      2.00000
      6       1.2430      2.00000
      7      19.3152      0.00000
      8      20.0359      0.00000
      9      21.9857      0.00000
     10      23.3031      0.00000
     11      26.1239      0.00000
     12      28.6557      0.00000

 k-point     3 :       0.2500    0.0500    0.0500
  band No.  band energies     occupation 
      1      -3.2757      2.00000
      2      -0.2601      2.00000
      3       0.2302      2.00000
      4       0.2453      2.00000
      5       1.0998      2.00000
      6       1.4244      2.00000
      7      15.8426      0.00000
      8      19.9600      0.00000
      9      21.9131      0.00000
     10      24.0515      0.00000
     11      24.6064      0.00000
     12      26.5829      0.00000

 k-point     4 :       0.3500    0.0500    0.0500
  band No.  band energies     occupation 
      1      -2.4467      2.00000
      2       0.0879      2.00000
      3       0.1534      2.00000
      4       0.3454      2.00000
      5       1.4941      2.00000
      6       1.8929      2.00000
      7      11.9375      0.00000
      8      19.4065      0.00000
      9      20.9169      0.00000
     10      22.8073      0.00000
     11      25.6520      0.00000
     12      26.5090      0.00000

 k-point     5 :       0.4500    0.0500    0.0500
  band No.  band energies     occupation 
      1      -2.2201      2.00000
      2      -0.0369      2.00000
      3       0.0186      2.00000
      4       1.6369      2.00000
      5       1.9735      2.00000
      6       2.7904      2.00000
      7       8.3292     -0.00000
      8      18.8194      0.00000
      9      20.1108      0.00000
     10      21.1260      0.00000
     11      27.0200      0.00000
     12      27.1358      0.00000

 k-point     6 :      -0.4500    0.0500    0.0500
  band No.  band energies     occupation 
      1      -2.2099      2.00000
      2      -0.0906      2.00000
      3      -0.0133      2.00000
      4       1.8928      2.00000
      5       2.1942      2.00000
      6       3.8514      1.94645
      7       6.6295     -0.00000
      8      18.6689      0.00000
      9      20.1699      0.00000
     10      20.3073      0.00000
     11      27.3482      0.00000
     12      27.3955      0.00000

 k-point     7 :      -0.3500    0.0500    0.0500
  band No.  band energies     occupation 
      1      -2.2505      2.00000
      2      -0.0122      2.00000
      3       0.0757      2.00000
      4       1.1707      2.00000
      5       2.0374      2.00000
      6       2.2432      2.00000
      7       9.4584     -0.00000
      8      19.0568      0.00000
      9      20.4891      0.00000
     10      21.2264      0.00000
     11      26.9563      0.00000
     12      27.2265      0.00000

 k-point     8 :      -0.2500    0.0500    0.0500
  band No.  band energies     occupation 
      1      -2.6607      2.00000
      2      -0.0334      2.00000
      3       0.1747      2.00000
      4       0.2142      2.00000
      5       1.4304      2.00000
      6       1.6319      2.00000
      7      13.2305      0.00000
      8      19.8139      0.00000
      9      21.2596      0.00000
     10      22.9341      0.00000
     11      25.3183      0.00000
     12      27.1314      0.00000

 k-point     9 :      -0.1500    0.0500    0.0500
  band No.  band energies     occupation 
      1      -3.6067      2.00000
      2      -0.2767      2.00000
      3       0.2210      2.00000
      4       0.2304      2.00000
      5       1.0632      2.00000
      6       1.3204      2.00000
      7      17.1247      0.00000
      8      20.1932      0.00000
      9      21.8730      0.00000
     10      23.6321      0.00000
     11      24.9049      0.00000
     12      27.6388      0.00000

 k-point    10 :      -0.0500    0.0500    0.0500
  band No.  band energies     occupation 
      1      -4.3716      2.00000
      2      -0.1461      2.00000
      3       0.0652      2.00000
      4       0.0704      2.00000
      5       1.1042      2.00000
      6       1.2482      2.00000
      7      19.5455      0.00000
      8      20.8870      0.00000
      9      22.1225      0.00000
     10      22.5710      0.00000
     11      27.2501      0.00000
     12      28.6835      0.00000

 k-point    11 :       0.1500    0.1500    0.0500
  band No.  band energies     occupation 
      1      -3.9673      2.00000
      2      -0.3181      2.00000
      3       0.2309      2.00000
      4       0.2332      2.00000
      5       0.9329      2.00000
      6       1.3373      2.00000
      7      19.5655      0.00000
      8      20.1809      0.00000
      9      21.2916      0.00000
     10      22.0972      0.00000
     11      26.0209      0.00000
     12      28.3065      0.00000

 k-point    12 :       0.2500    0.1500    0.0500
  band No.  band energies     occupation 
      1      -3.2258      2.00000
      2      -0.5134      2.00000
      3       0.3168      2.00000
      4       0.4616      2.00000
      5       0.9002      2.00000
      6       1.5206      2.00000
      7      17.3462      0.00000
      8      19.1554      0.00000
      9      21.2757      0.00000
     10      22.4334      0.00000
     11      23.9944      0.00000
     12      27.5783      0.00000

 k-point    13 :       0.3500    0.1500    0.0500
  band No.  band energies     occupation 
      1      -2.2970      2.00000
      2      -0.4276      2.00000
      3       0.0787      2.00000
      4       0.4715      2.00000
      5       1.4435      2.00000
      6       2.0054      2.00000
      7      13.4508      0.00000
      8      18.5535      0.00000
      9      20.2839      0.00000
     10      21.7840      0.00000
     11      25.3708      0.00000
     12      27.3218      0.00000

 k-point    14 :       0.4500    0.1500    0.0500
  band No.  band energies     occupation 
      1      -1.9220      2.00000
      2      -0.1629      2.00000
      3       0.2876      2.00000
      4       0.4378      2.00000
      5       2.0314      2.00000
      6       3.0995      2.00000
      7       9.6823      0.00000
      8      18.2229      0.00000
      9      18.9210      0.00000
     10      20.7009      0.00000
     11      27.2213      0.00000
     12      28.1307      0.00000

 k-point    15 :      -0.4500    0.1500    0.0500
  band No.  band energies     occupation 
      1      -1.8933      2.00000
      2      -0.2669      2.00000
      3       0.2318      2.00000
      4       1.0740      2.00000
      5       2.1587      2.00000
      6       5.0168     -0.00000
      7       6.6687     -0.00000
      8      17.8580      0.00000
      9      18.4624      0.00000
     10      20.2100      0.00000
     11      27.4029      0.00000
     12      28.5594      0.00000

 k-point    16 :      -0.3500    0.1500    0.0500
  band No.  band energies     occupation 
      1      -1.8849      2.00000
      2      -0.2035      2.00000
      3       0.2529      2.00000
      4       0.8147      2.00000
      5       1.9132      2.00000
      6       3.7458      2.07036
      7       8.5909     -0.00000
      8      17.3721      0.00000
      9      19.2076      0.00000
     10      20.8850      0.00000
     11      26.8193      0.00000
     12      28.1531      0.00000

 k-point    17 :      -0.2500    0.1500    0.0500
  band No.  band energies     occupation 
      1      -2.0719      2.00000
      2      -0.1956      2.00000
      3       0.0576      2.00000
      4       0.4054      2.00000
      5       1.3627      2.00000
      6       2.4686      2.00000
      7      12.1821      0.00000
      8      17.5285      0.00000
      9      20.3332      0.00000
     10      22.5733      0.00000
     11      25.3088      0.00000
     12      27.3160      0.00000

 k-point    18 :      -0.1500    0.1500    0.0500
  band No.  band energies     occupation 
      1      -2.9029      2.00000
      2      -0.4739      2.00000
      3       0.2350      2.00000
      4       0.4800      2.00000
      5       0.8933      2.00000
      6       1.7388      2.00000
      7      15.9752      0.00000
      8      18.1338      0.00000
      9      21.9016      0.00000
     10      22.8319      0.00000
     11      25.1603      0.00000
     12      26.3559      0.00000

 k-point    19 :      -0.0500    0.1500    0.0500
  band No.  band energies     occupation 
      1      -3.7792      2.00000
      2      -0.3120      2.00000
      3       0.2339      2.00000
      4       0.2407      2.00000
      5       0.9660      2.00000
      6       1.3480      2.00000
      7      18.4094      0.00000
      8      19.7134      0.00000
      9      21.5986      0.00000
     10      23.3396      0.00000
     11      25.2043      0.00000
     12      27.8819      0.00000

 k-point    20 :       0.2500    0.2500    0.0500
  band No.  band energies     occupation 
      1      -2.7236      2.00000
      2      -0.8040      2.00000
      3       0.4509      2.00000
      4       0.7752      2.00000
      5       0.9377      2.00000
      6       1.6152      2.00000
      7      17.7052      0.00000
      8      18.7468      0.00000
      9      20.2762      0.00000
     10      20.8210      0.00000
     11      21.3331      0.00000
     12      29.2670      0.00000

 k-point    21 :       0.3500    0.2500    0.0500
  band No.  band energies     occupation 
      1      -1.9843      2.00000
      2      -0.9852      2.00000
      3       0.2493      2.00000
      4       1.0602      2.00000
      5       1.4833      2.00000
      6       2.0228      2.00000
      7      15.0763      0.00000
      8      16.9595      0.00000
      9      18.5575      0.00000
     10      21.0861      0.00000
     11      22.4970      0.00000
     12      29.2211      0.00000

 k-point    22 :       0.4500    0.2500    0.0500
  band No.  band energies     occupation 
      1      -1.5492      2.00000
      2      -0.7536      2.00000
      3       0.0520      2.00000
      4       0.9548      2.00000
      5       2.0972      2.00000
      6       3.3237      2.00002
      7      11.2868      0.00000
      8      16.2580      0.00000
      9      16.9573      0.00000
     10      20.8776      0.00000
     11      25.4541      0.00000
     12      28.9512      0.00000

 k-point    23 :      -0.4500    0.2500    0.0500
  band No.  band energies     occupation 
      1      -1.4464      2.00000
      2      -0.5293      2.00000
      3       0.2380      2.00000
      4       0.7952      2.00000
      5       2.1878      2.00000
      6       5.5471     -0.00000
      7       7.9671     -0.00000
      8      15.0279      0.00000
      9      17.0207      0.00000
     10      20.6541      0.00000
     11      28.0508      0.00000
     12      29.1973      0.00000

 k-point    24 :      -0.3500    0.2500    0.0500
  band No.  band energies     occupation 
      1      -1.3080      2.00000
      2      -0.4828      2.00000
      3       0.2730      2.00000
      4       0.7101      2.00000
      5       1.8732      2.00000
      6       5.3978     -0.00000
      7       8.3986     -0.00000
      8      14.0358      0.00000
      9      18.1370      0.00000
     10      20.8492      0.00000
     11      27.3735      0.00000
     12      29.5876      0.00000

 k-point    25 :      -0.2500    0.2500    0.0500
  band No.  band energies     occupation 
      1      -1.2516      2.00000
      2      -0.4347      2.00000
      3      -0.1975      2.00000
      4       0.7785      2.00000
      5       1.3259      2.00000
      6       3.7009      2.05592
      7      11.5674      0.00000
      8      13.9351      0.00000
      9      19.5262      0.00000
     10      21.9148      0.00000
     11      25.5698      0.00000
     12      29.2736      0.00000

 k-point    26 :      -0.1500    0.2500    0.0500
  band No.  band energies     occupation 
      1      -1.9495      2.00000
      2      -0.5315      2.00000
      3       0.0280      2.00000
      4       0.6723      2.00000
      5       1.0073      2.00000
      6       2.5371      2.00000
      7      13.5804      0.00000
      8      16.0344      0.00000
      9      20.7129      0.00000
     10      23.3355      0.00000
     11      24.2406      0.00000
     12      27.7363      0.00000

 k-point    27 :      -0.0500    0.2500    0.0500
  band No.  band energies     occupation 
      1      -2.8184      2.00000
      2      -0.3183      2.00000
      3       0.2115      2.00000
      4       0.3246      2.00000
      5       1.1562      2.00000
      6       1.6780      2.00000
      7      14.6185      0.00000
      8      19.4069      0.00000
      9      21.1774      0.00000
     10      23.4070      0.00000
     11      24.8146      0.00000
     12      26.6007      0.00000

 k-point    28 :       0.3500    0.3500    0.0500
  band No.  band energies     occupation 
      1      -1.8233      2.00000
      2      -1.2970      2.00000
      3       1.0180      2.00000
      4       1.4863      2.00000
      5       1.8917      2.00000
      6       1.9477      2.00000
      7      14.9306      0.00000
      8      16.1450      0.00000
      9      16.1752      0.00000
     10      20.0439      0.00000
     11      21.8556      0.00000
     12      31.6025      0.00000

 k-point    29 :       0.4500    0.3500    0.0500
  band No.  band energies     occupation 
      1      -1.6754      2.00000
      2      -1.3854      2.00000
      3       1.0394      2.00000
      4       1.7327      2.00000
      5       2.1092      2.00000
      6       3.4270      2.00039
      7      12.3048      0.00000
      8      14.4770      0.00000
      9      15.1323      0.00000
     10      20.9201      0.00000
     11      22.7325      0.00000
     12      31.0746      0.00000

 k-point    30 :      -0.4500    0.3500    0.0500
  band No.  band energies     occupation 
      1      -1.5322      2.00000
      2      -1.1131      2.00000
      3       0.7444      2.00000
      4       1.4878      2.00000
      5       2.2672      2.00000
      6       5.7721     -0.00000
      7       9.4523     -0.00000
      8      12.7038      0.00000
      9      15.2673      0.00000
     10      21.1800      0.00000
     11      25.3011      0.00000
     12      30.0901      0.00000

 k-point    31 :      -0.3500    0.3500    0.0500
  band No.  band energies     occupation 
      1      -1.2939      2.00000
      2      -0.6784      2.00000
      3       0.2946      2.00000
      4       1.2224      2.00000
      5       2.0117      2.00000
      6       6.8415     -0.00000
      7       8.9398     -0.00000
      8      11.1255      0.00000
      9      16.4244      0.00000
     10      21.1103      0.00000
     11      28.4944      0.00000
     12      28.9561      0.00000

 k-point    32 :      -0.2500    0.3500    0.0500
  band No.  band energies     occupation 
      1      -1.0732      2.00000
      2      -0.4337      2.00000
      3      -0.1089      2.00000
      4       0.9342      2.00000
      5       1.6843      2.00000
      6       5.2069     -0.00000
      7      10.1311      0.00000
      8      12.1056      0.00000
      9      18.0804      0.00000
     10      21.1365      0.00000
     11      27.2684      0.00000
     12      29.9047      0.00000

 k-point    33 :      -0.1500    0.3500    0.0500
  band No.  band energies     occupation 
      1      -1.5803      2.00000
      2      -0.2813      2.00000
      3       0.1726      2.00000
      4       0.5317      2.00000
      5       1.6188      2.00000
      6       3.7168      2.06256
      7      10.0552      0.00000
      8      15.6147      0.00000
      9      19.3993      0.00000
     10      21.4445      0.00000
     11      26.1448      0.00000
     12      28.6567      0.00000

 k-point    34 :      -0.0500    0.3500    0.0500
  band No.  band energies     occupation 
      1      -2.1941      2.00000
      2      -0.0087      2.00000
      3       0.1919      2.00000
      4       0.4811      2.00000
      5       1.7299      2.00000
      6       2.3378      2.00000
      7      10.7541      0.00000
      8      18.9040      0.00000
      9      20.0167      0.00000
     10      21.8160      0.00000
     11      26.3959      0.00000
     12      27.0712      0.00000

 k-point    35 :       0.4500    0.4500    0.0500
  band No.  band energies     occupation 
      1      -1.8864      2.00000
      2      -1.6262      2.00000
      3       2.0215      2.00000
      4       2.0678      2.00000
      5       2.2914      2.00000
      6       4.0602      0.51151
      7      10.8039      0.00000
      8      14.0017      0.00000
      9      14.3496      0.00000
     10      20.2092      0.00000
     11      22.3367      0.00000
     12      32.4475      0.00000

 k-point    36 :      -0.4500    0.4500    0.0500
  band No.  band energies     occupation 
      1      -1.8201      2.00000
      2      -1.5835      2.00000
      3       1.7724      2.00000
      4       1.9913      2.00000
      5       2.4084      2.00000
      6       5.9382     -0.00000
      7       9.0261     -0.00000
      8      12.9976      0.00000
      9      13.9472      0.00000
     10      21.0565      0.00000
     11      22.9194      0.00000
     12      31.6180      0.00000

 k-point    37 :      -0.3500    0.4500    0.0500
  band No.  band energies     occupation 
      1      -1.5727      2.00000
      2      -1.1902      2.00000
      3       0.9836      2.00000
      4       1.6217      2.00000
      5       2.2652      2.00000
      6       7.1655     -0.00000
      7       8.5149     -0.00000
      8      11.5508      0.00000
      9      14.9579      0.00000
     10      21.3003      0.00000
     11      25.2787      0.00000
     12      30.3337      0.00000

 k-point    38 :      -0.2500    0.4500    0.0500
  band No.  band energies     occupation 
      1      -1.3280      2.00000
      2      -0.6403      2.00000
      3       0.2579      2.00000
      4       1.0439      2.00000
      5       2.1083      2.00000
      6       6.7926     -0.00000
      7       7.6791     -0.00000
      8      13.0012      0.00000
      9      16.6225      0.00000
     10      20.9257      0.00000
     11      28.3077      0.00000
     12      29.0523      0.00000

 k-point    39 :      -0.1500    0.4500    0.0500
  band No.  band energies     occupation 
      1      -1.6169      2.00000
      2      -0.3979      2.00000
      3       0.4498      2.00000
      4       0.6824      2.00000
      5       2.0587      2.00000
      6       5.6733     -0.00000
      7       6.8941     -0.00000
      8      16.0013      0.00000
      9      18.2636      0.00000
     10      20.4562      0.00000
     11      27.4498      0.00000
[...]
      6       4.5150     -0.00163
      7      10.7956      0.00000
      8      13.0021      0.00000
      9      17.6057      0.00000
     10      22.5071      0.00000
     11      25.8326      0.00000
     12      29.7899      0.00000

 k-point    92 :      -0.3500    0.3500    0.2500
  band No.  band energies     occupation 
      1      -1.0199      2.00000
      2      -0.5815      2.00000
      3      -0.1083      2.00000
      4       1.0868      2.00000
      5       1.9631      2.00000
      6       6.1955     -0.00000
      7       9.6067      0.00000
      8      11.4722      0.00000
      9      16.1367      0.00000
     10      22.2665      0.00000
     11      27.2360      0.00000
     12      30.3618      0.00000

 k-point    93 :      -0.2500    0.3500    0.2500
  band No.  band energies     occupation 
      1      -1.2896      2.00000
      2      -0.8318      2.00000
      3       0.2324      2.00000
      4       1.2872      2.00000
      5       2.1964      2.00000
      6       6.4293     -0.00000
      7       8.7911     -0.00000
      8      12.6473      0.00000
      9      15.0473      0.00000
     10      22.1473      0.00000
     11      26.7836      0.00000
     12      28.7037      0.00000

 k-point    94 :       0.4500    0.4500    0.2500
  band No.  band energies     occupation 
      1      -1.6281      2.00000
      2      -0.4618      2.00000
      3       0.0762      2.00000
      4       0.6876      2.00000
      5       2.2317      2.00000
      6       3.6739      2.04355
      7       9.9343      0.00000
      8      16.8403      0.00000
      9      17.6344      0.00000
     10      20.1063      0.00000
     11      27.2575      0.00000
     12      29.1334      0.00000

 k-point    95 :      -0.4500    0.4500    0.2500
  band No.  band energies     occupation 
      1      -1.2988      2.00000
      2      -0.6857      2.00000
      3       0.0088      2.00000
      4       1.1090      2.00000
      5       2.1234      2.00000
      6       5.1180     -0.00000
      7       9.3619     -0.00000
      8      14.3388      0.00000
      9      15.7693      0.00000
     10      21.8871      0.00000
     11      26.6085      0.00000
     12      28.6648      0.00000

 k-point    96 :      -0.3500    0.4500    0.2500
  band No.  band energies     occupation 
      1      -0.9526      2.00000
      2      -0.6520      2.00000
      3      -0.2723      2.00000
      4       1.2010      2.00000
      5       2.2337      2.00000
      6       6.7576     -0.00000
      7       9.7074      0.00000
      8      11.4494      0.00000
      9      14.0834      0.00000
     10      24.3978      0.00000
     11      25.9763      0.00000
     12      28.6918      0.00000

 k-point    97 :      -0.2500    0.4500    0.2500
  band No.  band energies     occupation 
      1      -1.0537      2.00000
      2      -0.6460      2.00000
      3      -0.1399      2.00000
      4       1.1639      2.00000
      5       2.4020      2.00000
      6       7.8345     -0.00000
      7       9.4734      0.00000
      8      10.6972      0.00000
      9      13.1623      0.00000
     10      25.0686      0.00000
     11      26.5268      0.00000
     12      27.6451      0.00000

 k-point    98 :      -0.4500   -0.4500    0.2500
  band No.  band energies     occupation 
      1      -1.4695      2.00000
      2      -0.8582      2.00000
      3       0.5328      2.00000
      4       1.2273      2.00000
      5       2.2071      2.00000
      6       6.3097     -0.00000
      7       8.4586     -0.00000
      8      12.7585      0.00000
      9      16.3237      0.00000
     10      20.5714      0.00000
     11      26.9118      0.00000
     12      30.1839      0.00000

 k-point    99 :      -0.3500   -0.4500    0.2500
  band No.  band energies     occupation 
      1      -1.3164      2.00000
      2      -0.8947      2.00000
      3       0.4059      2.00000
      4       1.3521      2.00000
      5       2.2393      2.00000
      6       7.5100     -0.00000
      7       8.6414     -0.00000
      8      11.1489      0.00000
      9      14.7500      0.00000
     10      22.3205      0.00000
     11      26.9101      0.00000
     12      28.7372      0.00000

 k-point   100 :      -0.3500   -0.3500    0.2500
  band No.  band energies     occupation 
      1      -1.4782      2.00000
      2      -0.9353      2.00000
      3       0.6970      2.00000
      4       1.4351      2.00000
      5       2.1134      2.00000
      6       7.3738     -0.00000
      7       8.3417     -0.00000
      8      11.1629      0.00000
      9      16.0594      0.00000
     10      20.7357      0.00000
     11      26.8495      0.00000
     12      30.3994      0.00000

 k-point   101 :       0.3500    0.3500    0.3500
  band No.  band energies     occupation 
      1      -2.3801      2.00000
      2       0.0714      2.00000
      3       0.0714      2.00000
      4       0.9353      2.00000
      5       1.7935      2.00000
      6       1.7935      2.00000
      7      10.6330      0.00000
      8      19.2737      0.00000
      9      21.5951      0.00000
     10      21.5951      0.00000
     11      26.7410      0.00000
     12      26.7945      0.00000

 k-point   102 :       0.4500    0.3500    0.3500
  band No.  band energies     occupation 
      1      -2.0673      2.00000
      2      -0.0713      2.00000
      3       0.1646      2.00000
      4       0.8370      2.00000
      5       1.7094      2.00000
      6       2.9207      2.00000
      7       9.6027      0.00000
      8      18.1206      0.00000
      9      19.8131      0.00000
     10      21.6114      0.00000
     11      26.3484      0.00000
     12      27.3610      0.00000

 k-point   103 :      -0.4500    0.3500    0.3500
  band No.  band energies     occupation 
      1      -1.4526      2.00000
      2      -0.3582      2.00000
      3       0.3517      2.00000
      4       0.5393      2.00000
      5       1.6924      2.00000
      6       4.4643     -0.00490
      7       9.1511     -0.00000
      8      14.7594      0.00000
      9      19.9494      0.00000
     10      20.0356      0.00000
     11      27.0014      0.00000
     12      28.7176      0.00000

 k-point   104 :      -0.3500    0.3500    0.3500
  band No.  band energies     occupation 
      1      -1.2118      2.00000
      2      -0.4736      2.00000
      3       0.1079      2.00000
      4       1.0484      2.00000
      5       1.8129      2.00000
      6       5.9840     -0.00000
      7       9.5231      0.00000
      8      11.4488      0.00000
      9      17.8581      0.00000
     10      20.4260      0.00000
     11      28.7626      0.00000
     12      29.6441      0.00000

 k-point   105 :       0.4500    0.4500    0.3500
  band No.  band energies     occupation 
      1      -2.0578      2.00000
      2      -0.1406      2.00000
      3       0.1654      2.00000
      4       0.9834      2.00000
      5       2.1848      2.00000
      6       3.2951      2.00001
      7       8.4179     -0.00000
      8      18.7990      0.00000
      9      19.5597      0.00000
     10      19.9785      0.00000
     11      27.7447      0.00000
     12      27.8079      0.00000

 k-point   106 :      -0.4500    0.4500    0.3500
  band No.  band energies     occupation 
      1      -1.6519      2.00000
      2      -0.3756      2.00000
      3       0.4160      2.00000
      4       0.6324      2.00000
      5       2.0705      2.00000
      6       4.8750     -0.00000
      7       7.7238     -0.00000
      8      16.6281      0.00000
      9      17.7554      0.00000
     10      20.9319      0.00000
     11      27.0336      0.00000
     12      29.3630      0.00000

 k-point   107 :      -0.3500    0.4500    0.3500
  band No.  band energies     occupation 
      1      -1.1401      2.00000
      2      -0.6363      2.00000
      3       0.1111      2.00000
      4       0.9232      2.00000
      5       2.0363      2.00000
      6       6.4668     -0.00000
      7       7.8696     -0.00000
      8      13.4120      0.00000
      9      16.2960      0.00000
     10      21.9044      0.00000
     11      27.1935      0.00000
     12      30.5460      0.00000

 k-point   108 :      -0.4500   -0.4500    0.3500
  band No.  band energies     occupation 
      1      -1.5513      2.00000
      2      -0.4348      2.00000
      3       0.5030      2.00000
      4       0.5644      2.00000
      5       2.1430      2.00000
      6       6.0823     -0.00000
      7       6.7888     -0.00000
      8      15.4746      0.00000
      9      18.3267      0.00000
     10      19.8817      0.00000
     11      28.5731      0.00000
     12      28.8624      0.00000

 k-point   109 :       0.4500    0.4500    0.4500
  band No.  band energies     occupation 
      1      -2.2695      2.00000
      2      -0.0420      2.00000
      3      -0.0420      2.00000
      4       2.1410      2.00000
      5       2.1410      2.00000
      6       2.9801      2.00000
      7       7.2984     -0.00000
      8      18.7160      0.00000
      9      20.6641      0.00000
     10      20.6641      0.00000
     11      27.1491      0.00000
     12      27.1491      0.00000

 k-point   110 :      -0.4500    0.4500    0.4500
  band No.  band energies     occupation 
      1      -2.0445      2.00000
      2      -0.1758      2.00000
      3       0.1022      2.00000
      4       1.4339      2.00000
      5       2.1233      2.00000
      6       4.5237     -0.00133
      7       6.6601     -0.00000
      8      18.2242      0.00000
      9      19.4131      0.00000
     10      20.0840      0.00000
     11      27.5589      0.00000
     12      27.6962      0.00000


--------------------------------------------------------------------------------------------------------


 soft charge-density along one line, spin component           1
         0         1         2         3         4         5         6         7         8         9
 total charge-density along one line
 
 pseudopotential strength for first ion, spin component:           1
-10.284   0.000   0.000   0.000   0.000   0.000   0.000   0.000  -0.000   0.000  -0.026   0.000   0.000   0.000  -0.000   0.000
  0.000   0.000 -10.284   0.000  -0.000   0.000   0.000   0.000   0.000   0.000   0.000   0.000  -0.026   0.000   0.000   0.000
  0.000   0.000  -0.000   0.000 -10.269   0.000  -0.000   0.000  -0.000   0.000  -0.000   0.000   0.000   0.000  -0.028   0.000
  0.000   0.000   0.000   0.000  -0.000   0.000 -10.284   0.000  -0.000   0.000   0.000   0.000   0.000   0.000   0.000   0.000
 -0.000   0.000   0.000   0.000  -0.000   0.000  -0.000   0.000 -10.269   0.000   0.000   0.000  -0.000   0.000   0.000   0.000
 -0.026   0.000   0.000   0.000  -0.000   0.000   0.000   0.000   0.000   0.000   0.274   0.000  -0.000   0.000   0.000   0.000
  0.000   0.000  -0.026   0.000   0.000   0.000   0.000   0.000  -0.000   0.000  -0.000   0.000   0.274   0.000  -0.000   0.000
 -0.000   0.000   0.000   0.000  -0.028   0.000   0.000   0.000   0.000   0.000   0.000   0.000  -0.000   0.000   0.274   0.000
  0.000   0.000   0.000   0.000   0.000   0.000  -0.026   0.000   0.000   0.000  -0.000   0.000  -0.000   0.000  -0.000   0.000
  0.000   0.000  -0.000   0.000   0.000   0.000   0.000   0.000  -0.028   0.000  -0.000   0.000   0.000   0.000  -0.000   0.000
  0.000   0.000   0.000   0.000  -0.000   0.000   0.000   0.000  -0.000   0.000   0.000   0.000   0.000   0.000   0.000   0.000
 -0.000   0.000  -0.000   0.000   0.000   0.000  -0.000   0.000   0.000   0.000   0.000   0.000   0.000   0.000  -0.000   0.000
  0.000   0.000  -0.000   0.000   0.000   0.000  -0.000   0.000   0.000   0.000  -0.000   0.000   0.000   0.000  -0.000   0.000
 -0.000   0.000  -0.000   0.000  -0.000   0.000  -0.000   0.000  -0.000   0.000   0.000   0.000   0.000   0.000   0.000   0.000
 -0.000   0.000  -0.000   0.000  -0.000   0.000  -0.000   0.000   0.000   0.000   0.000   0.000   0.000   0.000   0.000   0.000
 -0.000   0.000   0.000   0.000  -0.000   0.000   0.000   0.000  -0.000   0.000   0.000   0.000  -0.000   0.000   0.000   0.000
  0.000   0.000   0.000   0.000   0.000   0.000   0.000   0.000   0.000   0.000  -0.000   0.000  -0.000   0.000  -0.000   0.000
  0.000   0.000   0.000   0.000   0.000   0.000   0.000   0.000  -0.000   0.000  -0.000   0.000  -0.000   0.000  -0.000   0.000
 total augmentation occupancy for first ion, spin component:           1
  1.904   0.000  -0.000   0.000  -0.000  -0.064   0.000   0.000   0.000  -0.000   0.000   0.000   0.000   0.000   0.000   0.000
 -0.000   1.904   0.000   0.000   0.000   0.000  -0.064   0.000  -0.000   0.000   0.000   0.000   0.000   0.000   0.000   0.000
 -0.000   0.000   1.950   0.000   0.000   0.000   0.000  -0.103   0.000   0.000   0.000   0.000   0.000   0.000   0.000   0.000
  0.000  -0.000   0.000   1.904   0.000   0.000   0.000  -0.000  -0.064  -0.000  -0.000   0.000   0.000   0.000   0.000   0.000
  0.000   0.000   0.000  -0.000   1.950   0.000   0.000   0.000   0.000  -0.103   0.000   0.000   0.000   0.000   0.000   0.000
 -0.064  -0.000  -0.000  -0.000  -0.000   0.142  -0.000  -0.000  -0.000  -0.000   0.000  -0.000   0.000   0.000   0.000   0.000
  0.000  -0.064   0.000   0.000   0.000  -0.000   0.142   0.000  -0.000   0.000   0.000   0.000   0.000   0.000   0.000   0.000
 -0.000   0.000  -0.103  -0.000   0.000   0.000  -0.000   0.114   0.000   0.000  -0.000   0.000   0.000   0.000   0.000   0.000
  0.000  -0.000   0.000  -0.064   0.000  -0.000  -0.000  -0.000   0.142   0.000   0.000   0.000   0.000   0.000   0.000   0.000
  0.000   0.000   0.000  -0.000  -0.103  -0.000  -0.000   0.000  -0.000   0.114   0.000   0.000   0.000   0.000   0.000   0.000
  0.000   0.000   0.000  -0.000   0.000   0.000   0.000  -0.000  -0.000   0.000   1.019  -0.315   0.000   0.000   0.000   0.000
  0.000   0.000  -0.000   0.000   0.000   0.000   0.000   0.000  -0.000   0.000  -0.315   0.185   0.000   0.000   0.000   0.000
  0.000   0.000   0.000   0.000   0.000   0.000   0.000   0.000   0.000   0.000   0.000   0.000   0.126   0.000  -0.000  -0.010
  0.000   0.000   0.000   0.000   0.000   0.000   0.000   0.000   0.000   0.000   0.000   0.000   0.000   0.126   0.000   0.000
  0.000   0.000   0.000   0.000   0.000   0.000   0.000   0.000   0.000   0.000   0.000   0.000   0.000   0.000   0.126  -0.000
  0.000   0.000   0.000   0.000   0.000   0.000   0.000   0.000   0.000   0.000   0.000   0.000  -0.010   0.000  -0.000   0.001
  0.000   0.000   0.000   0.000   0.000   0.000   0.000   0.000   0.000   0.000   0.000   0.000   0.000  -0.010   0.000  -0.000
  0.000   0.000   0.000   0.000   0.000   0.000   0.000   0.000   0.000   0.000   0.000   0.000   0.000  -0.000  -0.010   0.000


------------------------ aborting loop because EDIFF is reached ----------------------------------------


    CHARGE:  cpu time    0.0036: real time    0.0220
    FORLOC:  cpu time    0.0001: real time    0.0018
    FORNL :  cpu time    0.0091: real time    0.0285
    STRESS:  cpu time    0.0565: real time    0.1615
    FORCOR:  cpu time    0.0009: real time    0.0152
    FORHAR:  cpu time    0.0008: real time    0.0009
    MIXING:  cpu time    0.0004: real time    0.0004
    OFIELD:  cpu time    0.0000: real time    0.0000

  FORCE on cell =-STRESS in cart. coord.  units (eV):
  Direction    XX          YY          ZZ          XY          YZ          ZX
  --------------------------------------------------------------------------------------
  Alpha Z    95.76575    95.76575    95.76575
  Ewald    -313.27631  -313.27631  -313.27631    -0.00000    -0.00000    -0.00000
  Hartree    42.42789    42.42789    42.42789     0.00000     0.00000     0.00000
  E(xc)     -48.56317   -48.56317   -48.56317     0.00002     0.00002     0.00002
  Local      76.98343    76.98343    76.98343     0.00030     0.00030     0.00030
  n-local   -51.59417   -49.04926   -52.81473     0.56546    -0.72833    -0.01566
  augment    42.62800    42.62800    42.62800    -0.00005    -0.00005    -0.00005
  Kinetic   152.82713   151.62730   153.63877    -0.56021     0.31924    -0.00109
  Fock        0.00000     0.00000     0.00000     0.00000     0.00000     0.00000
  -------------------------------------------------------------------------------------
  Total      -2.48939    -2.48939    -2.48939     0.00000    -0.00000     0.00000
  in kB    -207.82453  -207.82453  -207.82453     0.00000    -0.00000     0.00000
  external pressure =     -207.82 kB  Pullay stress =        0.00 kB


 VOLUME and BASIS-vectors are now :
 -----------------------------------------------------------------------------
  energy-cutoff  :      230.00
  volume of cell :       19.19
      direct lattice vectors                 reciprocal lattice vectors
     0.000000000  2.125000000  2.125000000    -0.235294118  0.235294118  0.235294118
     2.125000000  0.000000000  2.125000000     0.235294118 -0.235294118  0.235294118
     2.125000000  2.125000000  0.000000000     0.235294118  0.235294118 -0.235294118

  length of vectors
     3.005203820  3.005203820  3.005203820     0.407541366  0.407541366  0.407541366


 FORCES acting on ions
    electron-ion (+dipol)            ewald-force                    non-local-force                 convergence-correction
 -----------------------------------------------------------------------------------------------
   0.281E-14 0.703E-14 0.596E-14   -.125E-14 -.240E-14 0.289E-16   0.000E+00 0.000E+00 0.000E+00   -.614E-16 0.411E-14 -.191E-14
 -----------------------------------------------------------------------------------------------
   0.281E-14 0.703E-14 0.596E-14   -.125E-14 -.240E-14 0.289E-16   0.000E+00 0.000E+00 0.000E+00   -.614E-16 0.411E-14 -.191E-14
 
 
 POSITION                                       TOTAL-FORCE (eV/Angst)
 -----------------------------------------------------------------------------------
      0.00000      0.00000      0.00000        -0.000000      0.000000      0.000000
 -----------------------------------------------------------------------------------
    total drift:                                0.000000      0.000000      0.000000


--------------------------------------------------------------------------------------------------------



  FREE ENERGIE OF THE ION-ELECTRON SYSTEM (eV)
  ---------------------------------------------------
  free  energy   TOTEN  =        -4.23675913 eV

  energy  without entropy=       -4.23775047  energy(sigma->0) =       -4.23708958
 


--------------------------------------------------------------------------------------------------------


    POTLOK:  cpu time    0.0023: real time    0.0135


--------------------------------------------------------------------------------------------------------


 writing wavefunctions
     LOOP+:  cpu time    2.0623: real time    6.2483
    4ORBIT:  cpu time    0.0000: real time    0.0000

 total amount of memory used by VASP MPI-rank0    34239. kBytes
=======================================================================

   base      :      30000. kBytes
   nonl-proj :       2663. kBytes
   fftplans  :        238. kBytes
   grid      :        331. kBytes
   one-center:         15. kBytes
   wavefun   :        992. kBytes
 
  
  
 General timing and accounting informations for this job:
 ========================================================
  
                  Total CPU time used (sec):        2.502
                            User time (sec):        2.243
                          System time (sec):        0.259
                         Elapsed time (sec):        7.511
  
                   Maximum memory used (kb):       60364.
                   Average memory used (kb):           0.
  
                          Minor page faults:        18232
                          Major page faults:            0
                 Voluntary context switches:         2432
