bcc Fe                                  
   2.95000000000000     
    -0.500000    0.500000    0.500000
     0.500000   -0.500000    0.500000
     0.500000    0.500000   -0.500000
   Fe
     1
Direct
  0.000000  0.000000  0.000000
 
   20   20   20
 0.10910313637E+03 0.10229726952E+03 0.84400015359E+02 0.61338667414E+02 0.39162570836E+02
 0.21862230785E+02 0.11005817150E+02 0.60095613317E+01 0.44678256362E+01 0.38473129565E+01
 0.36757692634E+01 0.38473129565E+01 0.44678256362E+01 0.60095613317E+01 0.11005817150E+02
 0.21862230785E+02 0.39162570836E+02 0.61338667414E+02 0.84400015359E+02 0.10229726952E+03
 0.10229726952E+03 0.10007500775E+03 0.86056982273E+02 0.65132298255E+02 0.43339694127E+02
 0.25241873837E+02 0.13060281769E+02 0.68367892734E+01 0.47080771028E+01 0.39397959363E+01
 0.36459684930E+01 0.36979252884E+01 0.41367870967E+01 0.51428340567E+01 0.83393278840E+01
 0.16442296748E+02 0.30729731722E+02 0.50458104253E+02 0.72598359549E+02 0.91884241878E+02
 0.84400015359E+02 0.86056982273E+02 0.76969317325E+02 0.60453505429E+02 0.41702195235E+02
 0.25223905482E+02 0.13559467157E+02 0.71965809084E+01 0.48075804879E+01 0.39540305846E+01
 0.35618264074E+01 0.35139332980E+01 0.37800147200E+01 0.44777079422E+01 0.61057711106E+01
 0.10981288250E+02 0.20980894677E+02 0.36232518045E+02 0.54790352529E+02 0.72598359549E+02
 0.61338667414E+02 0.65132298255E+02 0.60453505429E+02 0.49113336419E+02 0.34976486556E+02
 0.21891362931E+02 0.12291474900E+02 0.68651216829E+01 0.47098094333E+01 0.38749103878E+01
 0.34357187174E+01 0.33180741651E+01 0.34505641649E+01 0.39099003057E+01 0.47790119074E+01
 0.70258800029E+01 0.12700947317E+02 0.22726878667E+02 0.36232518045E+02 0.50458104253E+02
 0.39162570836E+02 0.43339694127E+02 0.41702195235E+02 0.34976486556E+02 0.25674382620E+02
 0.16650048628E+02 0.98783311165E+01 0.60109171109E+01 0.44298380705E+01 0.37047492022E+01
 0.32815197110E+01 0.31313295337E+01 0.31779763285E+01 0.34439929055E+01 0.40207711916E+01
 0.49764700885E+01 0.74014253132E+01 0.12700947317E+02 0.20980894677E+02 0.30729731722E+02
 0.21862230785E+02 0.25241873837E+02 0.25223905482E+02 0.21891362931E+02 0.16650048628E+02
 0.11337803804E+02 0.73143310825E+01 0.50399610694E+01 0.40588754557E+01 0.34706713597E+01
 0.31135898677E+01 0.29682650722E+01 0.29716678081E+01 0.31131192366E+01 0.34556389476E+01
 0.40616901661E+01 0.49764700885E+01 0.70258800029E+01 0.10981288250E+02 0.16442296748E+02
 0.11005817150E+02 0.13060281769E+02 0.13559467157E+02 0.12291474900E+02 0.98783311165E+01
 0.73143310825E+01 0.53733817305E+01 0.42772269260E+01 0.36668928417E+01 0.32177733070E+01
 0.29492477001E+01 0.28351495055E+01 0.28271705630E+01 0.29049588025E+01 0.30957191032E+01
 0.34556389476E+01 0.40207711916E+01 0.47790119074E+01 0.61057711106E+01 0.83393278840E+01
 0.60095613317E+01 0.68367892734E+01 0.71965809084E+01 0.68651216829E+01 0.60109171109E+01
 0.50399610694E+01 0.42772269260E+01 0.37434540416E+01 0.33060341771E+01 0.29904731109E+01
 0.28077805887E+01 0.27334552189E+01 0.27328854994E+01 0.27875074765E+01 0.29049588025E+01
 0.31131192366E+01 0.34439929055E+01 0.39099003057E+01 0.44777079422E+01 0.51428340567E+01
 0.44678256362E+01 0.47080771028E+01 0.48075804879E+01 0.47098094333E+01 0.44298380705E+01
 0.40588754557E+01 0.36668928417E+01 0.33060341771E+01 0.30163660777E+01 0.28161379025E+01
 0.27040890088E+01 0.26648631709E+01 0.26787622290E+01 0.27328854994E+01 0.28271705630E+01
 0.29716678081E+01 0.31779763285E+01 0.34505641649E+01 0.37800147200E+01 0.41367870967E+01
 0.38473129565E+01 0.39397959363E+01 0.39540305846E+01 0.38749103878E+01 0.37047492022E+01
 0.34706713597E+01 0.32177733070E+01 0.29904731109E+01 0.28161379025E+01 0.27020301220E+01
 0.26434849765E+01 0.26331637760E+01 0.26648631709E+01 0.27334552189E+01 0.28351495055E+01
 0.29682650722E+01 0.31313295337E+01 0.33180741651E+01 0.35139332980E+01 0.36979252884E+01
 0.36757692634E+01 0.36459684930E+01 0.35618264074E+01 0.34357187174E+01 0.32815197110E+01
 0.31135898677E+01 0.29492477001E+01 0.28077805887E+01 0.27040890088E+01 0.26434849765E+01
 0.26239503683E+01 0.26434849765E+01 0.27040890088E+01 0.28077805887E+01 0.29492477001E+01
 0.31135898677E+01 0.32815197110E+01 0.34357187174E+01 0.35618264074E+01 0.36459684930E+01
 0.38473129565E+01 0.36979252884E+01 0.35139332980E+01 0.33180741651E+01 0.31313295337E+01
 0.29682650722E+01 0.28351495055E+01 0.27334552189E+01 0.26648631709E+01 0.26331637760E+01
 0.26434849765E+01 0.27020301220E+01 0.28161379025E+01 0.29904731109E+01 0.32177733070E+01
 0.34706713597E+01 0.37047492022E+01 0.38749103878E+01 0.39540305846E+01 0.39397959363E+01
 0.44678256362E+01 0.41367870967E+01 0.37800147200E+01 0.34505641649E+01 0.31779763285E+01
 0.29716678081E+01 0.28271705630E+01 0.27328854994E+01 0.26787622290E+01 0.26648631709E+01
 0.27040890088E+01 0.28161379025E+01 0.30163660777E+01 0.33060341771E+01 0.36668928417E+01
 0.40588754557E+01 0.44298380705E+01 0.47098094333E+01 0.48075804879E+01 0.47080771028E+01
 0.60095613317E+01 0.51428340567E+01 0.44777079422E+01 0.39099003057E+01 0.34439929055E+01
 0.31131192366E+01 0.29049588025E+01 0.27875074765E+01 0.27328854994E+01 0.27334552189E+01
 0.28077805887E+01 0.29904731109E+01 0.33060341771E+01 0.37434540416E+01 0.42772269260E+01
 0.50399610694E+01 0.60109171109E+01 0.68651216829E+01 0.71965809084E+01 0.68367892734E+01
 0.11005817150E+02 0.83393278840E+01 0.61057711106E+01 0.47790119074E+01 0.40207711916E+01
 0.34556389476E+01 0.30957191032E+01 0.29049588025E+01 0.28271705630E+01 0.28351495055E+01
 0.29492477001E+01 0.32177733070E+01 0.36668928417E+01 0.42772269260E+01 0.53733817305E+01
 0.73143310825E+01 0.98783311165E+01 0.12291474900E+02 0.13559467157E+02 0.13060281769E+02
 0.21862230785E+02 0.16442296748E+02 0.10981288250E+02 0.70258800029E+01 0.49764700885E+01
 0.40616901661E+01 0.34556389476E+01 0.31131192366E+01 0.29716678081E+01 0.29682650722E+01
 0.31135898677E+01 0.34706713597E+01 0.40588754557E+01 0.50399610694E+01 0.73143310825E+01
 0.11337803804E+02 0.16650048628E+02 0.21891362931E+02 0.25223905482E+02 0.25241873837E+02
 0.39162570836E+02 0.30729731722E+02 0.20980894677E+02 0.12700947317E+02 0.74014253132E+01
 0.49764700885E+01 0.40207711916E+01 0.34439929055E+01 0.31779763285E+01 0.31313295337E+01
 0.32815197110E+01 0.37047492022E+01 0.44298380705E+01 0.60109171109E+01 0.98783311165E+01
 0.16650048628E+02 0.25674382620E+02 0.34976486556E+02 0.41702195235E+02 0.43339694127E+02
 0.61338667414E+02 0.50458104253E+02 0.36232518045E+02 0.22726878667E+02 0.12700947317E+02
 0.70258800029E+01 0.47790119074E+01 0.39099003057E+01 0.34505641649E+01 0.33180741651E+01
 0.34357187174E+01 0.38749103878E+01 0.47098094333E+01 0.68651216829E+01 0.12291474900E+02
 0.21891362931E+02 0.34976486556E+02 0.49113336419E+02 0.60453505429E+02 0.65132298255E+02
 0.84400015359E+02 0.72598359549E+02 0.54790352529E+02 0.36232518045E+02 0.20980894677E+02
 0.10981288250E+02 0.61057711106E+01 0.44777079422E+01 0.37800147200E+01 0.35139332980E+01
 0.35618264074E+01 0.39540305846E+01 0.48075804879E+01 0.71965809084E+01 0.13559467157E+02
 0.25223905482E+02 0.41702195235E+02 0.60453505429E+02 0.76969317325E+02 0.86056982273E+02
 0.10229726952E+03 0.91884241878E+02 0.72598359549E+02 0.50458104253E+02 0.30729731722E+02
 0.16442296748E+02 0.83393278840E+01 0.51428340567E+01 0.41367870967E+01 0.36979252884E+01
 0.36459684930E+01 0.39397959363E+01 0.47080771028E+01 0.68367892734E+01 0.13060281769E+02
 0.25241873837E+02 0.43339694127E+02 0.65132298255E+02 0.86056982273E+02 0.10007500775E+03
 0.10229726952E+03 0.10007500775E+03 0.86056982273E+02 0.65132298255E+02 0.43339694127E+02
 0.25241873837E+02 0.13060281769E+02 0.68367892734E+01 0.47080771028E+01 0.39397959363E+01
 0.36459684930E+01 0.36979252884E+01 0.41367870967E+01 0.51428340567E+01 0.83393278840E+01
 0.16442296748E+02 0.30729731722E+02 0.50458104253E+02 0.72598359549E+02 0.91884241878E+02
 0.10007500775E+03 0.10227756811E+03 0.91856709509E+02 0.72578643005E+02 0.50451242563E+02
 0.30729213092E+02 0.16441148582E+02 0.83378701642E+01 0.51445927694E+01 0.41407932203E+01
 0.36991863051E+01 0.36427994630E+01 0.39365501570E+01 0.47089791421E+01 0.68401261349E+01
 0.13062022947E+02 0.25243650057E+02 0.43348433342E+02 0.65149808326E+02 0.86073011932E+02
 0.86056982273E+02 0.91856709509E+02 0.86048047210E+02 0.70787253933E+02 0.51164776875E+02
 0.32423206937E+02 0.18038331505E+02 0.92939185627E+01 0.54704183793E+01 0.42559004765E+01
 0.36945571253E+01 0.35380872148E+01 0.36944818974E+01 0.42559760072E+01 0.54703822340E+01
 0.92933446417E+01 0.18038248483E+02 0.32426518355E+02 0.51173589874E+02 0.70799345981E+02
 0.65132298255E+02 0.72578643005E+02 0.70787253933E+02 0.60457733803E+02 0.45256093264E+02
 0.29694669990E+02 0.17169633014E+02 0.92065471500E+01 0.55014538037E+01 0.42490009045E+01
 0.36304385390E+01 0.33980715911E+01 0.34457641417E+01 0.38023010414E+01 0.45673370269E+01
 0.63969481477E+01 0.11468661876E+02 0.21171398010E+02 0.35168788680E+02 0.51165643758E+02
 0.43339694127E+02 0.50451242563E+02 0.51164776875E+02 0.45256093264E+02 0.34979810922E+02
 0.23706107464E+02 0.14274807200E+02 0.81258534970E+01 0.51860933469E+01 0.41090060718E+01
 0.35089031163E+01 0.32407284331E+01 0.32161020333E+01 0.34124001526E+01 0.39224234671E+01
 0.48082293875E+01 0.70435304085E+01 0.12325702396E+02 0.21170393524E+02 0.32421125921E+02
 0.25241873837E+02 0.30729213092E+02 0.32423206937E+02 0.29694669990E+02 0.23706107464E+02
 0.16652099677E+02 0.10573676613E+02 0.65832582193E+01 0.46703792029E+01 0.38606089837E+01
 0.33400087140E+01 0.30822638370E+01 0.30222676811E+01 0.31169119182E+01 0.34166399651E+01
 0.39991125024E+01 0.49080625663E+01 0.70454906249E+01 0.11470292475E+02 0.18037737240E+02
 0.13060281769E+02 0.16441148582E+02 0.18038331505E+02 0.17169633014E+02 0.14274807200E+02
 0.10573676613E+02 0.73148829506E+01 0.51937195877E+01 0.41549359749E+01 0.35565590606E+01
 0.31464387636E+01 0.29347385925E+01 0.28713842669E+01 0.29148231911E+01 0.30792501257E+01
 0.34255579467E+01 0.40010437959E+01 0.48111024566E+01 0.63987022672E+01 0.92928985423E+01
 0.68367892734E+01 0.83378701642E+01 0.92939185627E+01 0.92065471500E+01 0.81258534970E+01
 0.65832582193E+01 0.51937195877E+01 0.42765272665E+01 0.37030252303E+01 0.32556484694E+01
 0.29595293750E+01 0.28079201784E+01 0.27617299537E+01 0.27881087582E+01 0.28845898004E+01
 0.30802580006E+01 0.34182595553E+01 0.39231714867E+01 0.45659328966E+01 0.54671023445E+01
 0.47080771028E+01 0.51445927694E+01 0.54704183793E+01 0.55014538037E+01 0.51860933469E+01
 0.46703792029E+01 0.41549359749E+01 0.37030252303E+01 0.33060787889E+01 0.30018529870E+01
 0.28068181797E+01 0.27107743036E+01 0.26881008817E+01 0.27161961782E+01 0.27884285552E+01
 0.29152453213E+01 0.31165729887E+01 0.34104872193E+01 0.37990781801E+01 0.42530081528E+01
 0.39397959363E+01 0.41407932203E+01 0.42559004765E+01 0.42490009045E+01 0.41090060718E+01
 0.38606089837E+01 0.35565590606E+01 0.32556484694E+01 0.30018529870E+01 0.28163436786E+01
 0.27016403674E+01 0.26497947318E+01 0.26489424557E+01 0.26881440009E+01 0.27616353477E+01
 0.28707505481E+01 0.30208414358E+01 0.32143266202E+01 0.34448483392E+01 0.36956113206E+01
 0.36459684930E+01 0.36991863051E+01 0.36945571253E+01 0.36304385390E+01 0.35089031163E+01
 0.33400087140E+01 0.31464387636E+01 0.29595293750E+01 0.28068181797E+01 0.27016403674E+01
 0.26435838205E+01 0.26272916186E+01 0.26498129571E+01 0.27106353523E+01 0.28074397518E+01
 0.29340049112E+01 0.30818543360E+01 0.32415130755E+01 0.34005315929E+01 0.35416598781E+01
 0.36979252884E+01 0.36427994630E+01 0.35380872148E+01 0.33980715911E+01 0.32407284331E+01
 0.30822638370E+01 0.29347385925E+01 0.28079201784E+01 0.27107743036E+01 0.26497947318E+01
 0.26272916186E+01 0.26436256258E+01 0.27016049270E+01 0.28065967509E+01 0.29592713366E+01
 0.31466618824E+01 0.33412904175E+01 0.35112418524E+01 0.36328751012E+01 0.36956113206E+01
 0.41367870967E+01 0.39365501570E+01 0.36944818974E+01 0.34457641417E+01 0.32161020333E+01
 0.30222676811E+01 0.28713842669E+01 0.27617299537E+01 0.26881008817E+01 0.26489424557E+01
 0.26498129571E+01 0.27016049270E+01 0.28162474794E+01 0.30018428448E+01 0.32560533979E+01
 0.35576593097E+01 0.38621618944E+01 0.41100186370E+01 0.42482563557E+01 0.42530081528E+01
 0.51428340567E+01 0.47089791421E+01 0.42559760072E+01 0.38023010414E+01 0.34124001526E+01
 0.31169119182E+01 0.29148231911E+01 0.27881087582E+01 0.27161961782E+01 0.26881440009E+01
 0.27106353523E+01 0.28065967509E+01 0.30018428448E+01 0.33065213887E+01 0.37039189178E+01
 0.41558735490E+01 0.46705383173E+01 0.51846698451E+01 0.54984565116E+01 0.54671023445E+01
 0.83393278840E+01 0.68401261349E+01 0.54703822340E+01 0.45673370269E+01 0.39224234671E+01
 0.34166399651E+01 0.30792501257E+01 0.28845898004E+01 0.27884285552E+01 0.27616353477E+01
 0.28074397518E+01 0.29592713366E+01 0.32560533979E+01 0.37039189178E+01 0.42772610320E+01
 0.51935693655E+01 0.65817995890E+01 0.81233129242E+01 0.92039976304E+01 0.92928985423E+01
 0.16442296748E+02 0.13062022947E+02 0.92933446417E+01 0.63969481477E+01 0.48082293875E+01
 0.39991125024E+01 0.34255579467E+01 0.30802580006E+01 0.29152453213E+01 0.28707505481E+01
 0.29340049112E+01 0.31466618824E+01 0.35576593097E+01 0.41558735490E+01 0.51935693655E+01
 0.73134607609E+01 0.10571339581E+02 0.14272153937E+02 0.17167531271E+02 0.18037737240E+02
 0.30729731722E+02 0.25243650057E+02 0.18038248483E+02 0.11468661876E+02 0.70435304085E+01
 0.49080625663E+01 0.40010437959E+01 0.34182595553E+01 0.31165729887E+01 0.30208414358E+01
 0.30818543360E+01 0.33412904175E+01 0.38621618944E+01 0.46705383173E+01 0.65817995890E+01
 0.10571339581E+02 0.16649179953E+02 0.23702450931E+02 0.29690948119E+02 0.32421125921E+02
 0.50458104253E+02 0.43348433342E+02 0.32426518355E+02 0.21171398010E+02 0.12325702396E+02
 0.70454906249E+01 0.48111024566E+01 0.39231714867E+01 0.34104872193E+01 0.32143266202E+01
 0.32415130755E+01 0.35112418524E+01 0.41100186370E+01 0.51846698451E+01 0.81233129242E+01
 0.14272153937E+02 0.23702450931E+02 0.34974615154E+02 0.45251888512E+02 0.51165643758E+02
 0.72598359549E+02 0.65149808326E+02 0.51173589874E+02 0.35168788680E+02 0.21170393524E+02
 0.11470292475E+02 0.63987022672E+01 0.45659328966E+01 0.37990781801E+01 0.34448483392E+01
 0.34005315929E+01 0.36328751012E+01 0.42482563557E+01 0.54984565116E+01 0.92039976304E+01
 0.17167531271E+02 0.29690948119E+02 0.45251888512E+02 0.60459145869E+02 0.70799345981E+02
 0.91884241878E+02 0.86073011932E+02 0.70799345981E+02 0.51165643758E+02 0.32421125921E+02
 0.18037737240E+02 0.92928985423E+01 0.54671023445E+01 0.42530081528E+01 0.36956113206E+01
 0.35416598781E+01 0.36956113206E+01 0.42530081528E+01 0.54671023445E+01 0.92928985423E+01
 0.18037737240E+02 0.32421125921E+02 0.51165643758E+02 0.70799345981E+02 0.86073011932E+02
 0.84400015359E+02 0.86056982273E+02 0.76969317325E+02 0.60453505429E+02 0.41702195235E+02
 0.25223905482E+02 0.13559467157E+02 0.71965809084E+01 0.48075804879E+01 0.39540305846E+01
 0.35618264074E+01 0.35139332980E+01 0.37800147200E+01 0.44777079422E+01 0.61057711106E+01
 0.10981288250E+02 0.20980894677E+02 0.36232518045E+02 0.54790352529E+02 0.72598359549E+02
 0.86056982273E+02 0.91856709509E+02 0.86048047210E+02 0.70787253933E+02 0.51164776875E+02
 0.32423206937E+02 0.18038331505E+02 0.92939185627E+01 0.54704183793E+01 0.42559004765E+01
 0.36945571253E+01 0.35380872148E+01 0.36944818974E+01 0.42559760072E+01 0.54703822340E+01
 0.92933446417E+01 0.18038248483E+02 0.32426518355E+02 0.51173589874E+02 0.70799345981E+02
 0.76969317325E+02 0.86048047210E+02 0.84384825608E+02 0.72583903332E+02 0.54782274806E+02
 0.36231168900E+02 0.20982614628E+02 0.10982652613E+02 0.61060046700E+01 0.44776409420E+01
 0.37801061808E+01 0.35139549927E+01 0.35617240664E+01 0.39540560470E+01 0.48076360713E+01
 0.71963956826E+01 0.13559798677E+02 0.25226616362E+02 0.41707903164E+02 0.60459145869E+02
 0.60453505429E+02 0.70787253933E+02 0.72583903332E+02 0.65139291881E+02 0.51170477088E+02
 0.35171360995E+02 0.21174210513E+02 0.11472366357E+02 0.63990576890E+01 0.45658917142E+01
 0.37992090298E+01 0.34448813172E+01 0.34003845481E+01 0.36328385442E+01 0.42483285003E+01
 0.54983515489E+01 0.92040279055E+01 0.17168614233E+02 0.29692869869E+02 0.45251888512E+02
 0.41702195235E+02 0.51164776875E+02 0.54782274806E+02 0.51170477088E+02 0.41710734367E+02
 0.29698677059E+02 0.18565923674E+02 0.10532460075E+02 0.61638256840E+01 0.44897978276E+01
 0.37365628532E+01 0.33389768958E+01 0.32290417142E+01 0.33388953089E+01 0.37365262628E+01
 0.44898438688E+01 0.61634899487E+01 0.10530559070E+02 0.18561146591E+02 0.29690948119E+02
 0.25223905482E+02 0.32423206937E+02 0.36231168900E+02 0.35171360995E+02 0.29698677059E+02
 0.21896805834E+02 0.14276228996E+02 0.86301737486E+01 0.55161799218E+01 0.42617010028E+01
 0.35918423234E+01 0.32063443990E+01 0.30653122837E+01 0.30978538629E+01 0.33243276347E+01
 0.38283725668E+01 0.46330307371E+01 0.64384697599E+01 0.10530461663E+02 0.17167531271E+02
 0.13559467157E+02 0.18038331505E+02 0.20982614628E+02 0.21174210513E+02 0.18565923674E+02
 0.14276228996E+02 0.98793564583E+01 0.65816228068E+01 0.47661042944E+01 0.39395165529E+01
 0.33877164375E+01 0.30595018713E+01 0.29221346274E+01 0.29172171339E+01 0.30358114971E+01
 0.33318741305E+01 0.38639594137E+01 0.46330896847E+01 0.61636510170E+01 0.92039976304E+01
 0.71965809084E+01 0.92939185627E+01 0.10982652613E+02 0.11472366357E+02 0.10532460075E+02
 0.86301737486E+01 0.65816228068E+01 0.50379302195E+01 0.41544591656E+01 0.35851549352E+01
 0.31644008109E+01 0.29150565008E+01 0.28057788103E+01 0.27921545470E+01 0.28561939152E+01
 0.30199526289E+01 0.33317566321E+01 0.38282715545E+01 0.44898710586E+01 0.54984565116E+01
 0.48075804879E+01 0.54704183793E+01 0.61060046700E+01 0.63990576890E+01 0.61638256840E+01
 0.55161799218E+01 0.47661042944E+01 0.41544591656E+01 0.36667327372E+01 0.32561304127E+01
 0.29624309054E+01 0.27913132148E+01 0.27182510057E+01 0.27120735932E+01 0.27561610977E+01
 0.28561333894E+01 0.30356518701E+01 0.33241494820E+01 0.37364089503E+01 0.42482563557E+01
 0.39540305846E+01 0.42559004765E+01 0.44776409420E+01 0.45658917142E+01 0.44897978276E+01
 0.42617010028E+01 0.39395165529E+01 0.35851549352E+01 0.32561304128E+01 0.29911109451E+01
 0.28069213579E+01 0.27016241598E+01 0.26611408348E+01 0.26683452845E+01 0.27121157030E+01
 0.27921858121E+01 0.29172230982E+01 0.30978713012E+01 0.33389430940E+01 0.36328751012E+01
 0.35618264074E+01 0.36945571253E+01 0.37801061808E+01 0.37992090298E+01 0.37365628532E+01
 0.35918423234E+01 0.33877164375E+01 0.31644008109E+01 0.29624309054E+01 0.28069213579E+01
 0.27042797490E+01 0.26499000922E+01 0.26371732341E+01 0.26611915335E+01 0.27183377604E+01
 0.28058810309E+01 0.29222541314E+01 0.30654608601E+01 0.32292080978E+01 0.34005315929E+01
 0.35139332980E+01 0.35380872148E+01 0.35139549927E+01 0.34448813172E+01 0.33389768958E+01
 0.32063443990E+01 0.30595018713E+01 0.29150565008E+01 0.27913132148E+01 0.27016241598E+01
 0.26499000922E+01 0.26333968352E+01 0.26499286716E+01 0.27016590400E+01 0.27913306090E+01
 0.29150494440E+01 0.30594785604E+01 0.32063140500E+01 0.33389430940E+01 0.34448483392E+01
 0.37800147200E+01 0.36944818974E+01 0.35617240664E+01 0.34003845481E+01 0.32290417142E+01
 0.30653122837E+01 0.29221346274E+01 0.28057788103E+01 0.27182510057E+01 0.26611408348E+01
 0.26371732341E+01 0.26499286716E+01 0.27042889976E+01 0.28068793671E+01 0.29623431355E+01
 0.31642888504E+01 0.33875883084E+01 0.35916953161E+01 0.37364089503E+01 0.37990781801E+01
 0.44777079422E+01 0.42559760072E+01 0.39540560470E+01 0.36328385442E+01 0.33388953089E+01
 0.30978538629E+01 0.29172171339E+01 0.27921545470E+01 0.27120735932E+01 0.26683452845E+01
 0.26611915335E+01 0.27016590400E+01 0.28068793671E+01 0.29910299748E+01 0.32561229109E+01
 0.35852826025E+01 0.39397173254E+01 0.42618597859E+01 0.44898710586E+01 0.45659328966E+01
 0.61057711106E+01 0.54703822340E+01 0.48076360713E+01 0.42483285003E+01 0.37365262628E+01
 0.33243276347E+01 0.30358114971E+01 0.28561939152E+01 0.27561610977E+01 0.27121157030E+01
 0.27183377604E+01 0.27913306090E+01 0.29623431355E+01 0.32561229109E+01 0.36670565823E+01
 0.41551156611E+01 0.47667595083E+01 0.55164545084E+01 0.61636510170E+01 0.63987022672E+01
 0.10981288250E+02 0.92933446417E+01 0.71963956826E+01 0.54983515489E+01 0.44898438688E+01
 0.38283725668E+01 0.33318741305E+01 0.30199526289E+01 0.28561333894E+01 0.27921858121E+01
 0.28058810309E+01 0.29150494440E+01 0.31642888504E+01 0.35852826025E+01 0.41551156611E+01
 0.50388086932E+01 0.65818793720E+01 0.86291802560E+01 0.10530461663E+02 0.11470292475E+02
 0.20980894677E+02 0.18038248483E+02 0.13559798677E+02 0.92040279055E+01 0.61634899487E+01
 0.46330307371E+01 0.38639594137E+01 0.33317566321E+01 0.30356518701E+01 0.29172230982E+01
 0.29222541314E+01 0.30594785604E+01 0.33875883084E+01 0.39397173254E+01 0.47667595083E+01
 0.65818793720E+01 0.98778542819E+01 0.14272493389E+02 0.18561146591E+02 0.21170393524E+02
 0.36232518045E+02 0.32426518355E+02 0.25226616362E+02 0.17168614233E+02 0.10530559070E+02
 0.64384697599E+01 0.46330896847E+01 0.38282715545E+01 0.33241494820E+01 0.30978713012E+01
 0.30654608601E+01 0.32063140500E+01 0.35916953161E+01 0.42618597859E+01 0.55164545084E+01
 0.86291802560E+01 0.14272493389E+02 0.21890703987E+02 0.29692869869E+02 0.35168788680E+02
 0.54790352529E+02 0.51173589874E+02 0.41707903164E+02 0.29692869869E+02 0.18561146591E+02
 0.10530461663E+02 0.61636510170E+01 0.44898710586E+01 0.37364089503E+01 0.33389430940E+01
 0.32292080978E+01 0.33389430940E+01 0.37364089503E+01 0.44898710586E+01 0.61636510170E+01
 0.10530461663E+02 0.18561146591E+02 0.29692869869E+02 0.41707903164E+02 0.51173589874E+02
 0.72598359549E+02 0.70799345981E+02 0.60459145869E+02 0.45251888512E+02 0.29690948119E+02
 0.17167531271E+02 0.92039976304E+01 0.54984565116E+01 0.42482563557E+01 0.36328751012E+01
 0.34005315929E+01 0.34448483392E+01 0.37990781801E+01 0.45659328966E+01 0.63987022672E+01
 0.11470292475E+02 0.21170393524E+02 0.35168788680E+02 0.51173589874E+02 0.65149808326E+02
 0.61338667414E+02 0.65132298255E+02 0.60453505429E+02 0.49113336419E+02 0.34976486556E+02
 0.21891362931E+02 0.12291474900E+02 0.68651216829E+01 0.47098094333E+01 0.38749103878E+01
 0.34357187174E+01 0.33180741651E+01 0.34505641649E+01 0.39099003057E+01 0.47790119074E+01
 0.70258800029E+01 0.12700947317E+02 0.22726878667E+02 0.36232518045E+02 0.50458104253E+02
 0.65132298255E+02 0.72578643005E+02 0.70787253933E+02 0.60457733803E+02 0.45256093264E+02
 0.29694669990E+02 0.17169633014E+02 0.92065471500E+01 0.55014538037E+01 0.42490009045E+01
 0.36304385390E+01 0.33980715911E+01 0.34457641417E+01 0.38023010414E+01 0.45673370269E+01
 0.63969481477E+01 0.11468661876E+02 0.21171398010E+02 0.35168788680E+02 0.51165643758E+02
 0.60453505429E+02 0.70787253933E+02 0.72583903332E+02 0.65139291881E+02 0.51170477088E+02
 0.35171360995E+02 0.21174210513E+02 0.11472366357E+02 0.63990576890E+01 0.45658917142E+01
 0.37992090298E+01 0.34448813172E+01 0.34003845481E+01 0.36328385442E+01 0.42483285003E+01
 0.54983515489E+01 0.92040279055E+01 0.17168614233E+02 0.29692869869E+02 0.45251888512E+02
 0.49113336419E+02 0.60457733803E+02 0.65139291881E+02 0.61344926021E+02 0.50462250793E+02
 0.36236179730E+02 0.22731325457E+02 0.12704489846E+02 0.70259225560E+01 0.47760014710E+01
 0.39075056052E+01 0.34514383194E+01 0.33206819377E+01 0.34364564370E+01 0.38727157190E+01
 0.47071975792E+01 0.68645169376E+01 0.12292049744E+02 0.21890703987E+02 0.34974615154E+02
 0.34976486556E+02 0.45256093264E+02 0.51170477088E+02 0.50462250793E+02 0.43352597408E+02
 0.32431663921E+02 0.21176224715E+02 0.12327392485E+02 0.70432474027E+01 0.48077629285E+01
 0.39223237085E+01 0.34124560351E+01 0.32161019394E+01 0.32406901762E+01 0.35089032602E+01
 0.41090263236E+01 0.51859155167E+01 0.81249382555E+01 0.14272493389E+02 0.23702450931E+02
 0.21891362931E+02 0.29694669990E+02 0.35171360995E+02 0.36236179730E+02 0.32431663921E+02
 0.25231998555E+02 0.17171449324E+02 0.10529225014E+02 0.64347048661E+01 0.46305766047E+01
 0.38288601439E+01 0.33261428417E+01 0.30984115756E+01 0.30640069570E+01 0.32049885766E+01
 0.35923844054E+01 0.42639505808E+01 0.55179097586E+01 0.86291802560E+01 0.14272153937E+02
 0.12291474900E+02 0.17169633014E+02 0.21174210513E+02 0.22731325457E+02 0.21176224715E+02
 0.17171449324E+02 0.12291118460E+02 0.81210414145E+01 0.55141231606E+01 0.43126956789E+01
 0.36424492966E+01 0.31994406503E+01 0.29789722557E+01 0.29171980403E+01 0.29791636641E+01
 0.31995056369E+01 0.36426013467E+01 0.43137980560E+01 0.55164545084E+01 0.81233129242E+01
 0.68651216829E+01 0.92065471500E+01 0.11472366357E+02 0.12704489846E+02 0.12327392485E+02
 0.10529225014E+02 0.81210414145E+01 0.60065756778E+01 0.46683609173E+01 0.39399769026E+01
 0.34045531564E+01 0.30513194475E+01 0.28674947035E+01 0.28042410565E+01 0.28270774075E+01
 0.29437410877E+01 0.31996064141E+01 0.36411488784E+01 0.42618597859E+01 0.51846698451E+01
 0.47098094333E+01 0.55014538037E+01 0.63990576890E+01 0.70259225560E+01 0.70432474027E+01
 0.64347048661E+01 0.55141231606E+01 0.46683609173E+01 0.40579205379E+01 0.35575448846E+01
 0.31644085836E+01 0.29078757627E+01 0.27727602903E+01 0.27238023129E+01 0.27339842110E+01
 0.27999209535E+01 0.29428910563E+01 0.31981436996E+01 0.35916953161E+01 0.41100186370E+01
 0.38749103878E+01 0.42490009045E+01 0.45658917142E+01 0.47760014710E+01 0.48077629285E+01
 0.46305766047E+01 0.43126956789E+01 0.39399769026E+01 0.35575448846E+01 0.32187610595E+01
 0.29596406633E+01 0.27911068171E+01 0.27024536795E+01 0.26728792055E+01 0.26850504915E+01
 0.27337519942E+01 0.28266988965E+01 0.29793065051E+01 0.32063140500E+01 0.35112418524E+01
 0.34357187174E+01 0.36304385390E+01 0.37992090298E+01 0.39075056052E+01 0.39223237085E+01
 0.38288601439E+01 0.36424492966E+01 0.34045531564E+01 0.31644085836E+01 0.29596406633E+01
 0.28079151421E+01 0.27106145669E+01 0.26610788850E+01 0.26508461482E+01 0.26729568127E+01
 0.27240020844E+01 0.28048189607E+01 0.29183660137E+01 0.30654608601E+01 0.32415130755E+01
 0.33180741651E+01 0.33980715911E+01 0.34448813172E+01 0.34514383194E+01 0.34124560351E+01
 0.33261428417E+01 0.31994406503E+01 0.30513194475E+01 0.29078757627E+01 0.27911068171E+01
 0.27106145669E+01 0.26648330321E+01 0.26489442998E+01 0.26611948988E+01 0.27027231901E+01
 0.27732320407E+01 0.28680908253E+01 0.29793065051E+01 0.30978713012E+01 0.32143266202E+01
 0.34505641649E+01 0.34457641417E+01 0.34003845481E+01 0.33206819377E+01 0.32161019394E+01
 0.30984115756E+01 0.29789722557E+01 0.28674947035E+01 0.27727602903E+01 0.27024536795E+01
 0.26610788850E+01 0.26489442998E+01 0.26649256840E+01 0.27107626629E+01 0.27912422180E+01
 0.29078376344E+01 0.30508020867E+01 0.31981436996E+01 0.33241494820E+01 0.34104872193E+01
 0.39099003057E+01 0.38023010414E+01 0.36328385442E+01 0.34364564370E+01 0.32406901762E+01
 0.30640069570E+01 0.29171980403E+01 0.28042410565E+01 0.27238023129E+01 0.26728792055E+01
 0.26508461482E+01 0.26611948988E+01 0.27107626629E+01 0.28078839818E+01 0.29592261325E+01
 0.31635139073E+01 0.34032619729E+01 0.36411488784E+01 0.38282715545E+01 0.39231714867E+01
 0.47790119074E+01 0.45673370269E+01 0.42483285003E+01 0.38727157190E+01 0.35089032602E+01
 0.32049885766E+01 0.29791636641E+01 0.28270774075E+01 0.27339842110E+01 0.26850504915E+01
 0.26729568127E+01 0.27027231901E+01 0.27912422180E+01 0.29592261325E+01 0.32177933563E+01
 0.35565597532E+01 0.39397451368E+01 0.43137980560E+01 0.46330896847E+01 0.48111024566E+01
 0.70258800029E+01 0.63969481477E+01 0.54983515489E+01 0.47071975792E+01 0.41090263236E+01
 0.35923844054E+01 0.31995056369E+01 0.29437410877E+01 0.27999209535E+01 0.27337519942E+01
 0.27240020844E+01 0.27732320407E+01 0.29078376344E+01 0.31635139073E+01 0.35565597532E+01
 0.40582065976E+01 0.46706731582E+01 0.55179097586E+01 0.64384697599E+01 0.70454906249E+01
 0.12700947317E+02 0.11468661876E+02 0.92040279055E+01 0.68645169376E+01 0.51859155167E+01
 0.42639505808E+01 0.36426013467E+01 0.31996064141E+01 0.29428910563E+01 0.28266988965E+01
 0.28048189607E+01 0.28680908253E+01 0.30508020867E+01 0.34032619729E+01 0.39397451368E+01
 0.46706731582E+01 0.60108534981E+01 0.81249382555E+01 0.10530559070E+02 0.12325702396E+02
 0.22726878667E+02 0.21171398010E+02 0.17168614233E+02 0.12292049744E+02 0.81249382555E+01
 0.55179097586E+01 0.43137980560E+01 0.36411488784E+01 0.31981436996E+01 0.29793065051E+01
 0.29183660137E+01 0.29793065051E+01 0.31981436996E+01 0.36411488784E+01 0.43137980560E+01
 0.55179097586E+01 0.81249382555E+01 0.12292049744E+02 0.17168614233E+02 0.21171398010E+02
 0.36232518045E+02 0.35168788680E+02 0.29692869869E+02 0.21890703987E+02 0.14272493389E+02
 0.86291802560E+01 0.55164545084E+01 0.42618597859E+01 0.35916953161E+01 0.32063140500E+01
 0.30654608601E+01 0.30978713012E+01 0.33241494820E+01 0.38282715545E+01 0.46330896847E+01
 0.64384697599E+01 0.10530559070E+02 0.17168614233E+02 0.25226616362E+02 0.32426518355E+02
 0.50458104253E+02 0.51165643758E+02 0.45251888512E+02 0.34974615154E+02 0.23702450931E+02
 0.14272153937E+02 0.81233129242E+01 0.51846698451E+01 0.41100186370E+01 0.35112418524E+01
 0.32415130755E+01 0.32143266202E+01 0.34104872193E+01 0.39231714867E+01 0.48111024566E+01
 0.70454906249E+01 0.12325702396E+02 0.21171398010E+02 0.32426518355E+02 0.43348433342E+02
 0.39162570836E+02 0.43339694127E+02 0.41702195235E+02 0.34976486556E+02 0.25674382620E+02
 0.16650048628E+02 0.98783311165E+01 0.60109171109E+01 0.44298380705E+01 0.37047492022E+01
 0.32815197110E+01 0.31313295337E+01 0.31779763285E+01 0.34439929055E+01 0.40207711916E+01
 0.49764700885E+01 0.74014253132E+01 0.12700947317E+02 0.20980894677E+02 0.30729731722E+02
 0.43339694127E+02 0.50451242563E+02 0.51164776875E+02 0.45256093264E+02 0.34979810922E+02
 0.23706107464E+02 0.14274807200E+02 0.81258534970E+01 0.51860933469E+01 0.41090060718E+01