   1   1   0   0
  0.1283619E+02  0.2554775E-09  0.2554775E-09  0.2554775E-09  0.5000000E-15
  1.000000000000000E-004
  CAR 
 bcc Fe                                  
     43.62867692     -5.10697283  301      4.66185067      1.00000000
     -5.107  0.0000E+00  0.0000E+00  0.0000E+00  0.0000E+00
     -4.945  0.0000E+00  0.0000E+00  0.0000E+00  0.0000E+00
     -4.782  0.0000E+00  0.0000E+00  0.0000E+00  0.0000E+00
     -4.620 -0.3453E-33  0.0000E+00 -0.5609E-34  0.0000E+00
     -4.457 -0.2014E-27 -0.1812E-32 -0.3272E-28 -0.2943E-33
     -4.295 -0.3106E-22 -0.9016E-27 -0.5046E-23 -0.1465E-27
     -4.132 -0.1263E-17 -0.1186E-21 -0.2052E-18 -0.1926E-22
     -3.970 -0.1304E-13 -0.4110E-17 -0.2118E-14 -0.6678E-18
     -3.807 -0.3588E-10 -0.3609E-13 -0.5831E-11 -0.5864E-14
     -3.645 -0.2530E-07 -0.8449E-10 -0.4116E-08 -0.1373E-10
     -3.482 -0.4433E-05 -0.5054E-07 -0.7243E-06 -0.8224E-08
     -3.320 -0.1777E-03 -0.7471E-05 -0.2959E-04 -0.1222E-05
     -3.158 -0.1076E-02 -0.2477E-03 -0.2043E-03 -0.4147E-04
     -2.995  0.5613E-02 -0.1057E-02  0.7076E-03 -0.2131E-03
     -2.833  0.2165E-01  0.7708E-02  0.4225E-02  0.1039E-02
     -2.670  0.1340E-01  0.2192E-01  0.6402E-02  0.4599E-02
     -2.508  0.2307E-01  0.1256E-01  0.1015E-01  0.6640E-02
     -2.345  0.2265E-01  0.2447E-01  0.1383E-01  0.1062E-01
     -2.183  0.6557E-01  0.2182E-01  0.2448E-01  0.1416E-01
     -2.020  0.7871E-01  0.6953E-01  0.3727E-01  0.2546E-01
     -1.858  0.5858E-02  0.7490E-01  0.3822E-01  0.3762E-01
     -1.695 -0.6104E-02  0.3755E-02  0.3723E-01  0.3823E-01
     -1.533  0.6333E-01 -0.7112E-02  0.4752E-01  0.3708E-01
     -1.371  0.1082E+00  0.5560E-01  0.6509E-01  0.4611E-01
     -1.208  0.7410E-01  0.1094E+00  0.7713E-01  0.6389E-01
     -1.046  0.9153E-01  0.6554E-01  0.9200E-01  0.7453E-01
     -0.883  0.9587E-01  0.8392E-01  0.1076E+00  0.8817E-01
     -0.721  0.5244E-01  0.7302E-01  0.1161E+00  0.1000E+00
     -0.558 -0.1039E-01  0.8486E-01  0.1144E+00  0.1138E+00
     -0.396  0.7489E-01  0.1372E-01  0.1266E+00  0.1160E+00
     -0.233  0.2296E+00 -0.6448E-02  0.1639E+00  0.1150E+00
     -0.071  0.1689E+00  0.1116E+00  0.1913E+00  0.1331E+00
      0.091  0.2244E+00  0.1859E+00  0.2278E+00  0.1633E+00
      0.254  0.2063E+00  0.1061E+00  0.2613E+00  0.1806E+00
      0.416  0.2292E+00  0.1099E+00  0.2985E+00  0.1984E+00
      0.579  0.5785E+00  0.1779E+00  0.3925E+00  0.2273E+00
      0.741  0.9043E+00  0.7177E-01  0.5394E+00  0.2390E+00
      0.904  0.8243E+00  0.7806E-01  0.6733E+00  0.2517E+00
      1.066  0.9997E+00  0.6953E-01  0.8357E+00  0.2630E+00
      1.229  0.9312E+00  0.7773E-01  0.9870E+00  0.2756E+00
      1.391  0.5081E+00  0.2770E+00  0.1070E+01  0.3206E+00
      1.554  0.7492E+00  0.3522E+00  0.1191E+01  0.3778E+00
      1.716  0.1611E+01  0.2617E+00  0.1453E+01  0.4203E+00
      1.878  0.1590E+01  0.3574E+00  0.1711E+01  0.4784E+00
      2.041  0.1076E+01  0.1924E+00  0.1886E+01  0.5097E+00
      2.203  0.1654E+01  0.3210E+00  0.2155E+01  0.5618E+00
      2.366  0.1925E+01  0.4689E+00  0.2467E+01  0.6380E+00
      2.528  0.1061E+01  0.4013E+00  0.2640E+01  0.7032E+00
      2.691  0.4369E+00  0.6777E+00  0.2711E+01  0.8133E+00
      2.853  0.7547E+00  0.6910E+00  0.2833E+01  0.9255E+00
      3.016  0.8012E+00  0.3962E+00  0.2964E+01  0.9899E+00
      3.178  0.4979E+00  0.3275E+00  0.3044E+01  0.1043E+01
      3.341  0.1411E+01  0.4116E+00  0.3274E+01  0.1110E+01
      3.503  0.2246E+01  0.7266E+00  0.3638E+01  0.1228E+01
      3.665  0.2706E+01  0.1402E+01  0.4078E+01  0.1456E+01
      3.828  0.2498E+01  0.1511E+01  0.4484E+01  0.1701E+01
      3.990  0.1314E+01  0.1228E+01  0.4697E+01  0.1901E+01
      4.153  0.1053E+01  0.1366E+01  0.4868E+01  0.2123E+01
      4.315  0.1123E+01  0.1500E+01  0.5051E+01  0.2366E+01
      4.478  0.7795E+00  0.1285E+01  0.5177E+01  0.2575E+01
      4.640  0.4330E+00  0.9627E+00  0.5248E+01  0.2731E+01
      4.803  0.2165E+00  0.5077E+00  0.5283E+01  0.2814E+01
      4.965  0.1581E+00  0.2774E+00  0.5309E+01  0.2859E+01
      5.128  0.1044E+00  0.4293E+00  0.5326E+01  0.2929E+01
      5.290  0.1918E+00  0.4233E+00  0.5357E+01  0.2997E+01
      5.452  0.2553E+00  0.2445E+00  0.5398E+01  0.3037E+01
      5.615  0.2973E+00  0.2778E+00  0.5447E+01  0.3082E+01
      5.777  0.1935E+00  0.6124E+00  0.5478E+01  0.3182E+01
      5.940  0.8674E-01  0.1072E+01  0.5492E+01  0.3356E+01
      6.102  0.1061E+00  0.1049E+01  0.5509E+01  0.3526E+01
      6.265  0.9289E-01  0.1389E+01  0.5524E+01  0.3752E+01
      6.427 -0.1790E-03  0.1586E+01  0.5524E+01  0.4010E+01
      6.590  0.4695E-01  0.1988E+01  0.5532E+01  0.4333E+01
      6.752  0.2668E+00  0.2624E+01  0.5575E+01  0.4759E+01
      6.914  0.2105E+00  0.1841E+01  0.5610E+01  0.5058E+01
      7.077  0.1433E+00  0.8523E+00  0.5633E+01  0.5196E+01
      7.239  0.2598E+00  0.5631E+00  0.5675E+01  0.5288E+01
      7.402  0.1841E+00  0.3632E+00  0.5705E+01  0.5347E+01
      7.564  0.7530E-01  0.2329E+00  0.5717E+01  0.5385E+01
      7.727  0.5562E-02  0.4037E+00  0.5718E+01  0.5450E+01
      7.889  0.6307E-01  0.3030E+00  0.5728E+01  0.5499E+01
      8.052  0.1899E+00  0.1619E+00  0.5759E+01  0.5526E+01
      8.214  0.1419E+00  0.9346E-01  0.5782E+01  0.5541E+01
      8.377  0.1094E+00  0.2334E+00  0.5800E+01  0.5579E+01
      8.539  0.1414E+00  0.2332E+00  0.5823E+01  0.5617E+01
      8.701  0.1140E+00  0.1082E+00  0.5841E+01  0.5634E+01
      8.864  0.2327E-01  0.1750E+00  0.5845E+01  0.5663E+01
      9.026  0.3078E-01  0.1559E+00  0.5850E+01  0.5688E+01
      9.189  0.3252E-01  0.1600E+00  0.5856E+01  0.5714E+01
      9.351  0.8454E-01  0.7966E-01  0.5869E+01  0.5727E+01
      9.514  0.1564E+00  0.2345E+00  0.5895E+01  0.5765E+01
      9.676  0.1201E+00  0.2900E+00  0.5914E+01  0.5812E+01
      9.839  0.7963E-01  0.1599E+00  0.5927E+01  0.5838E+01
     10.001  0.6902E-02  0.4112E-01  0.5928E+01  0.5845E+01
     10.164 -0.2562E-02  0.3820E-02  0.5928E+01  0.5845E+01
     10.326  0.6301E-01  0.3786E-01  0.5938E+01  0.5852E+01
     10.488  0.7605E-01  0.3394E-01  0.5950E+01  0.5857E+01
     10.651  0.7865E-01  0.1224E+00  0.5963E+01  0.5877E+01
     10.813  0.1360E+00  0.1448E+00  0.5985E+01  0.5901E+01
     10.976  0.1119E+00  0.8110E-01  0.6003E+01  0.5914E+01
     11.138  0.1146E+00  0.1183E+00  0.6022E+01  0.5933E+01
     11.301  0.1072E+00  0.9852E-01  0.6040E+01  0.5949E+01
     11.463  0.2368E+00  0.2813E-01  0.6078E+01  0.5953E+01
     11.626  0.1652E+00  0.7168E-01  0.6105E+01  0.5965E+01
     11.788  0.1362E+00  0.7271E-01  0.6127E+01  0.5977E+01
     11.951  0.3011E+00  0.5681E-01  0.6176E+01  0.5986E+01
     12.113  0.2451E+00  0.3592E-01  0.6216E+01  0.5992E+01
     12.275  0.1948E+00 -0.1051E-01  0.6247E+01  0.5990E+01
     12.438  0.9819E-01  0.4267E-01  0.6263E+01  0.5997E+01
     12.600  0.1594E+00  0.2522E+00  0.6289E+01  0.6038E+01
     12.763  0.2083E+00  0.2566E+00  0.6323E+01  0.6080E+01
     12.925  0.2001E+00  0.1319E+00  0.6356E+01  0.6101E+01
     13.088  0.1346E+00  0.3301E+00  0.6377E+01  0.6155E+01
     13.250  0.1610E+00  0.3640E+00  0.6404E+01  0.6214E+01
     13.413  0.1734E+00  0.2736E+00  0.6432E+01  0.6259E+01
     13.575  0.1233E+00  0.2323E+00  0.6452E+01  0.6296E+01
     13.737  0.2474E+00  0.2164E+00  0.6492E+01  0.6331E+01
     13.900  0.3105E+00  0.1533E+00  0.6542E+01  0.6356E+01
     14.062  0.4757E+00  0.6414E-01  0.6620E+01  0.6367E+01
     14.225  0.2037E+00  0.1117E+00  0.6653E+01  0.6385E+01
     14.387 -0.1906E-01  0.3209E+00  0.6650E+01  0.6437E+01
     14.550  0.4958E-01  0.3517E+00  0.6658E+01  0.6494E+01
     14.712  0.1847E+00  0.1820E+00  0.6688E+01  0.6524E+01
     14.875  0.1946E+00  0.2869E+00  0.6719E+01  0.6570E+01
     15.037  0.1500E+00  0.4157E+00  0.6744E+01  0.6638E+01
     15.200  0.2379E+00  0.1038E+00  0.6782E+01  0.6655E+01
     15.362  0.4859E+00  0.7473E-01  0.6861E+01  0.6667E+01
     15.524  0.3301E+00  0.1296E+00  0.6915E+01  0.6688E+01
     15.687  0.1058E+00  0.1341E+00  0.6932E+01  0.6710E+01
     15.849  0.3898E-01  0.2558E+00  0.6938E+01  0.6751E+01
     16.012 -0.7757E-02  0.3901E+00  0.6937E+01  0.6815E+01
     16.174  0.4980E-01  0.2520E+00  0.6945E+01  0.6856E+01
     16.337  0.1791E+00  0.2510E+00  0.6974E+01  0.6896E+01
     16.499  0.3088E+00  0.1815E+00  0.7024E+01  0.6926E+01
     16.662  0.2005E+00  0.6996E-01  0.7057E+01  0.6937E+01
     16.824  0.9853E-01  0.7833E-03  0.7073E+01  0.6937E+01
     16.987  0.2919E+00  0.9740E-01  0.7120E+01  0.6953E+01
     17.149  0.2561E+00  0.3166E+00  0.7162E+01  0.7005E+01
     17.311  0.2271E+00  0.2954E+00  0.7199E+01  0.7053E+01
     17.474  0.3498E+00  0.1062E+00  0.7256E+01  0.7070E+01
     17.636  0.2443E+00  0.1670E+00  0.7295E+01  0.7097E+01
     17.799  0.1658E+00  0.2723E+00  0.7322E+01  0.7141E+01
     17.961  0.1309E+00  0.2266E+00  0.7344E+01  0.7178E+01
     18.124  0.2583E-01  0.3724E+00  0.7348E+01  0.7238E+01
     18.286  0.1038E+00  0.3857E+00  0.7365E+01  0.7301E+01
     18.449  0.3598E+00  0.1221E+00  0.7423E+01  0.7321E+01
     18.611  0.1681E+00  0.7211E-01  0.7450E+01  0.7333E+01
     18.773  0.7557E-01  0.7503E-01  0.7463E+01  0.7345E+01
     18.936  0.6821E-01  0.1301E+00  0.7474E+01  0.7366E+01
     19.098  0.1085E+00  0.3429E+00  0.7491E+01  0.7422E+01
     19.261  0.2945E+00  0.2157E+00  0.7539E+01  0.7457E+01
     19.423  0.2063E+00  0.6780E-01  0.7573E+01  0.7468E+01
     19.586  0.4090E-01  0.3197E-01  0.7579E+01  0.7473E+01
     19.748  0.6099E-01  0.1918E+00  0.7589E+01  0.7504E+01
     19.911  0.2321E+00  0.2575E+00  0.7627E+01  0.7546E+01
     20.073  0.2692E+00  0.1639E+00  0.7671E+01  0.7573E+01
     20.236  0.2823E+00  0.3613E-01  0.7717E+01  0.7578E+01
     20.398  0.2786E+00  0.6385E-01  0.7762E+01  0.7589E+01
     20.560  0.1967E+00  0.1942E+00  0.7794E+01  0.7620E+01
     20.723  0.3211E+00  0.2807E+00  0.7846E+01  0.7666E+01
     20.885  0.3560E+00  0.4136E+00  0.7904E+01  0.7733E+01
     21.048  0.2388E+00  0.3237E+00  0.7943E+01  0.7786E+01
     21.210  0.1516E+00  0.2713E+00  0.7967E+01  0.7830E+01
     21.373  0.1845E+00  0.3415E+00  0.7997E+01  0.7885E+01
     21.535  0.3644E+00  0.3260E+00  0.8056E+01  0.7938E+01
     21.698  0.2994E+00  0.2957E+00  0.8105E+01  0.7986E+01
     21.860  0.2226E+00  0.9781E-01  0.8141E+01  0.8002E+01
     22.023  0.3872E+00  0.2921E+00  0.8204E+01  0.8050E+01
     22.185  0.2560E+00  0.4161E+00  0.8246E+01  0.8117E+01
     22.347  0.2084E+00  0.2827E+00  0.8280E+01  0.8163E+01
     22.510  0.2505E+00  0.3389E+00  0.8320E+01  0.8218E+01
     22.672  0.1793E+00  0.2165E+00  0.8349E+01  0.8253E+01
     22.835  0.9035E-01  0.8527E-01  0.8364E+01  0.8267E+01
     22.997  0.2248E+00  0.2597E+00  0.8401E+01  0.8309E+01
     23.160  0.3868E+00  0.2292E+00  0.8463E+01  0.8347E+01
     23.322  0.3562E+00  0.2230E+00  0.8521E+01  0.8383E+01
     23.485  0.2702E+00  0.2623E+00  0.8565E+01  0.8425E+01
     23.647  0.3045E+00  0.3153E+00  0.8615E+01  0.8477E+01
     23.810  0.4547E+00  0.3739E+00  0.8689E+01  0.8537E+01
     23.972  0.3668E+00  0.2280E+00  0.8748E+01  0.8574E+01
     24.134  0.2504E+00  0.4260E+00  0.8789E+01  0.8644E+01
     24.297  0.2512E+00  0.3804E+00  0.8830E+01  0.8705E+01
     24.459  0.1433E+00  0.2744E+00  0.8853E+01  0.8750E+01
     24.622  0.1157E+00  0.4360E+00  0.8872E+01  0.8821E+01
     24.784  0.1337E+00  0.2342E+00  0.8893E+01  0.8859E+01
     24.947  0.6848E-01 -0.3264E-02  0.8905E+01  0.8858E+01
     25.109  0.1393E+00  0.2274E-01  0.8927E+01  0.8862E+01
     25.272  0.3249E+00  0.1242E+00  0.8980E+01  0.8882E+01
     25.434  0.2678E+00  0.1104E+00  0.9023E+01  0.8900E+01
     25.596  0.1103E+00  0.2850E+00  0.9041E+01  0.8946E+01
     25.759  0.8324E-01  0.3293E+00  0.9055E+01  0.9000E+01
     25.921  0.1348E+00  0.2533E+00  0.9077E+01  0.9041E+01
     26.084  0.1353E+00  0.1343E+00  0.9099E+01  0.9063E+01
     26.246  0.1966E+00 -0.9412E-02  0.9131E+01  0.9061E+01
     26.409  0.2570E+00  0.6896E-01  0.9172E+01  0.9073E+01
     26.571  0.2769E+00  0.1941E+00  0.9217E+01  0.9104E+01
     26.734  0.1202E+00  0.2381E+00  0.9237E+01  0.9143E+01
     26.896  0.1895E-01  0.2648E+00  0.9240E+01  0.9186E+01
     27.059  0.1123E+00  0.1749E+00  0.9258E+01  0.9214E+01
     27.221  0.1890E+00  0.1906E+00  0.9289E+01  0.9245E+01
     27.383  0.1374E+00  0.2298E+00  0.9311E+01  0.9283E+01
     27.546  0.4223E+00  0.4808E-01  0.9380E+01  0.9290E+01
     27.708  0.7254E+00  0.8974E-01  0.9498E+01  0.9305E+01
     27.871  0.3512E+00  0.2453E+00  0.9555E+01  0.9345E+01
     28.033  0.2342E+00  0.3871E+00  0.9593E+01  0.9408E+01
     28.196  0.2826E+00  0.6280E+00  0.9639E+01  0.9510E+01
     28.358  0.1489E+00  0.5436E+00  0.9663E+01  0.9598E+01
     28.521  0.2305E+00  0.3210E+00  0.9700E+01  0.9650E+01
     28.683  0.1946E+00  0.2612E+00  0.9732E+01  0.9693E+01
     28.846  0.8615E-01  0.1128E+00  0.9746E+01  0.9711E+01
     29.008  0.8137E-01  0.1583E+00  0.9759E+01  0.9737E+01
     29.170  0.1205E+00  0.1623E+00  0.9779E+01  0.9763E+01
     29.333  0.8280E-01  0.8297E-01  0.9792E+01  0.9777E+01
     29.495  0.1305E+00  0.1583E-01  0.9813E+01  0.9779E+01
     29.658  0.9487E-01  0.4289E-01  0.9829E+01  0.9786E+01
     29.820  0.2170E+00  0.5760E-01  0.9864E+01  0.9795E+01
     29.983  0.3816E+00  0.1156E+00  0.9926E+01  0.9814E+01
     30.145  0.3614E+00  0.1974E+00  0.9985E+01  0.9846E+01
     30.308  0.6576E+00  0.3233E+00  0.1009E+02  0.9899E+01
     30.470  0.4527E+00  0.5882E+00  0.1017E+02  0.9994E+01
     30.633  0.3278E+00  0.5762E+00  0.1022E+02  0.1009E+02
     30.795  0.4541E+00  0.2062E+00  0.1029E+02  0.1012E+02
     30.957  0.2279E+00  0.1483E+00  0.1033E+02  0.1015E+02
     31.120  0.3209E+00  0.6479E+00  0.1038E+02  0.1025E+02
     31.282  0.3135E+00  0.6251E+00  0.1043E+02  0.1035E+02
     31.445  0.1270E+00  0.1052E+00  0.1045E+02  0.1037E+02
     31.607  0.1652E+00  0.1087E+00  0.1048E+02  0.1039E+02
     31.770  0.2593E+00  0.2887E+00  0.1052E+02  0.1043E+02
     31.932  0.2123E+00  0.2117E+00  0.1056E+02  0.1047E+02
     32.095  0.2655E+00  0.2229E+00  0.1060E+02  0.1050E+02
     32.257  0.3723E+00  0.4327E+00  0.1066E+02  0.1057E+02
     32.419  0.2029E+00  0.2242E+00  0.1069E+02  0.1061E+02
     32.582  0.5957E-01  0.1859E+00  0.1070E+02  0.1064E+02
     32.744  0.4634E-01  0.1510E+00  0.1071E+02  0.1067E+02
     32.907  0.1563E+00  0.5672E-01  0.1074E+02  0.1068E+02
     33.069  0.2287E+00  0.1263E+00  0.1077E+02  0.1070E+02
     33.232  0.3665E+00  0.2440E+00  0.1083E+02  0.1074E+02
     33.394  0.4258E+00  0.3114E+00  0.1090E+02  0.1079E+02
     33.557  0.3915E+00  0.2564E+00  0.1097E+02  0.1083E+02
     33.719  0.3891E+00  0.2673E+00  0.1103E+02  0.1087E+02
     33.882  0.3379E+00  0.2951E+00  0.1108E+02  0.1092E+02
     34.044  0.2593E+00  0.3904E+00  0.1113E+02  0.1098E+02
     34.206  0.1756E+00  0.5265E+00  0.1115E+02  0.1107E+02
     34.369  0.3345E+00  0.5048E+00  0.1121E+02  0.1115E+02
     34.531  0.2219E+00  0.2372E+00  0.1124E+02  0.1119E+02
     34.694  0.1386E+00  0.1716E+00  0.1127E+02  0.1122E+02
     34.856  0.4435E+00  0.1053E+00  0.1134E+02  0.1123E+02
     35.019  0.4188E+00  0.7666E-01  0.1141E+02  0.1125E+02
     35.181  0.2556E+00  0.1787E+00  0.1145E+02  0.1127E+02
     35.344  0.2232E+00  0.4020E+00  0.1148E+02  0.1134E+02
     35.506  0.2296E+00  0.4779E+00  0.1152E+02  0.1142E+02
     35.669  0.1241E+00  0.3499E+00  0.1154E+02  0.1147E+02
     35.831  0.6792E-02  0.1926E+00  0.1154E+02  0.1151E+02
     35.993  0.1223E+00  0.1960E+00  0.1156E+02  0.1154E+02
     36.156  0.2155E+00  0.2237E+00  0.1160E+02  0.1157E+02
     36.318  0.1303E+00  0.2157E+00  0.1162E+02  0.1161E+02
     36.481  0.1887E+00  0.8415E-01  0.1165E+02  0.1162E+02
     36.643  0.2965E+00  0.6968E-01  0.1170E+02  0.1163E+02
     36.806  0.1576E+00  0.7558E-01  0.1172E+02  0.1165E+02
     36.968 -0.1264E-01  0.1140E+00  0.1172E+02  0.1167E+02
     37.131  0.6280E-01  0.4850E-01  0.1173E+02  0.1167E+02
     37.293  0.2074E+00  0.1548E+00  0.1177E+02  0.1170E+02
     37.455  0.1173E+00  0.3692E+00  0.1178E+02  0.1176E+02
     37.618  0.3523E-01  0.1576E+00  0.1179E+02  0.1178E+02
     37.780  0.5200E-01 -0.8852E-02  0.1180E+02  0.1178E+02
     37.943  0.1493E+00  0.7067E-01  0.1182E+02  0.1179E+02
     38.105  0.1145E+00  0.1566E+00  0.1184E+02  0.1182E+02
     38.268  0.7750E-03  0.1162E+00  0.1184E+02  0.1184E+02
     38.430  0.1102E-01  0.2474E-01  0.1184E+02  0.1184E+02
     38.593  0.1688E+00  0.3625E-01  0.1187E+02  0.1185E+02
     38.755  0.1797E+00  0.1159E+00  0.1190E+02  0.1187E+02
     38.918  0.4633E-01  0.1350E+00  0.1191E+02  0.1189E+02
     39.080  0.4641E-01  0.1097E+00  0.1192E+02  0.1191E+02
     39.242  0.1152E+00  0.1318E-01  0.1193E+02  0.1191E+02
     39.405  0.3966E-01  0.5302E-02  0.1194E+02  0.1191E+02
     39.567  0.2331E-01  0.3405E-01  0.1194E+02  0.1192E+02
     39.730  0.9105E-01  0.8348E-01  0.1196E+02  0.1193E+02
     39.892  0.3745E-01  0.1249E+00  0.1196E+02  0.1195E+02
     40.055 -0.3903E-02  0.8750E-01  0.1196E+02  0.1196E+02
     40.217 -0.1216E-02  0.1021E-01  0.1196E+02  0.1196E+02
     40.380 -0.4239E-04 -0.4072E-02  0.1196E+02  0.1196E+02
     40.542 -0.8281E-04 -0.4598E-03  0.1196E+02  0.1196E+02
     40.705 -0.1935E-02 -0.5499E-03  0.1196E+02  0.1196E+02
     40.867 -0.3535E-02 -0.1547E-02  0.1196E+02  0.1196E+02
     41.029  0.5531E-01  0.9503E-02  0.1197E+02  0.1197E+02
     41.192  0.1115E+00  0.5690E-01  0.1199E+02  0.1197E+02
     41.354  0.4404E-01  0.1071E+00  0.1200E+02  0.1199E+02
     41.517  0.1567E-01  0.5109E-01  0.1200E+02  0.1200E+02
     41.679  0.1693E-02  0.1327E-02  0.1200E+02  0.1200E+02
     41.842 -0.9498E-03 -0.1993E-02  0.1200E+02  0.1200E+02
     42.004 -0.9242E-04 -0.2041E-03  0.1200E+02  0.1200E+02
     42.167 -0.1657E-05 -0.4605E-05  0.1200E+02  0.1200E+02
     42.329 -0.6993E-08 -0.2557E-07  0.1200E+02  0.1200E+02
     42.492 -0.7401E-11 -0.3599E-10  0.1200E+02  0.1200E+02
     42.654 -0.2015E-14 -0.1303E-13  0.1200E+02  0.1200E+02
     42.816  0.0000E+00  0.0000E+00  0.1200E+02  0.1200E+02
     42.979  0.0000E+00  0.0000E+00  0.1200E+02  0.1200E+02
     43.141  0.0000E+00  0.0000E+00  0.1200E+02  0.1200E+02
     43.304  0.0000E+00  0.0000E+00  0.1200E+02  0.1200E+02
     43.466  0.0000E+00  0.0000E+00  0.1200E+02  0.1200E+02
     43.629  0.0000E+00  0.0000E+00  0.1200E+02  0.1200E+02
