<?xml version="1.0" encoding="ISO-8859-1"?>
<modeling>
 <generator>
  <i name="program" type="string">vasp </i>
  <i name="version" type="string">5.4.4.18Apr17-6-g9f103f2a35  </i>
  <i name="subversion" type="string">(build Jul 01 2019 03:25:34) complex            parallel </i>
  <i name="platform" type="string">LinuxIFC </i>
  <i name="date" type="string">2020 07 08 </i>
  <i name="time" type="string">18:32:26 </i>
 </generator>
 <incar>
  <i type="string" name="SYSTEM"> bcc Fe</i>
  <i type="string" name="PREC">normal</i>
  <i type="int" name="ISPIN">     2</i>
  <i name="EDIFF">      0.00010000</i>
  <i name="ENCUT">    268.00000000</i>
  <v name="MAGMOM">      3.00000000</v>
  <v type="int" name="KPOINT_BSE">    -1     0     0     0</v>
 </incar>
 <structure name="primitive_cell" >
  <crystal>
   <varray name="basis" >
    <v>      -1.47500000       1.47500000       1.47500000 </v>
    <v>       1.47500000      -1.47500000       1.47500000 </v>
    <v>       1.47500000       1.47500000      -1.47500000 </v>
   </varray>
   <i name="volume">     12.83618750 </i>
   <varray name="rec_basis" >
    <v>       0.00000000       0.33898305       0.33898305 </v>
    <v>       0.33898305       0.00000000       0.33898305 </v>
    <v>       0.33898305       0.33898305       0.00000000 </v>
   </varray>
  </crystal>
  <varray name="positions" >
   <v>       0.00000000       0.00000000       0.00000000 </v>
  </varray>
 </structure>
 <varray name="primitive_index" >
  <v type="int" >        1 </v>
 </varray>
 <kpoints>
  <generation param="Monkhorst-Pack">
   <v type="int" name="divisions">      10       10       10 </v>
   <v name="usershift">      0.00000000       0.00000000       0.00000000 </v>
   <v name="genvec1">      0.10000000       0.00000000       0.00000000 </v>
   <v name="genvec2">      0.00000000       0.10000000       0.00000000 </v>
   <v name="genvec3">      0.00000000       0.00000000       0.10000000 </v>
   <v name="shift">      0.50000000       0.50000000       0.50000000 </v>
  </generation>
  <varray name="kpointlist" >
   <v>       0.05000000       0.05000000       0.05000000 </v>
   <v>       0.15000000       0.05000000       0.05000000 </v>
   <v>       0.25000000       0.05000000       0.05000000 </v>
   <v>       0.35000000       0.05000000       0.05000000 </v>
   <v>       0.45000000       0.05000000       0.05000000 </v>
   <v>      -0.05000000       0.05000000       0.05000000 </v>
   <v>       0.15000000       0.15000000       0.05000000 </v>
   <v>       0.25000000       0.15000000       0.05000000 </v>
   <v>       0.35000000       0.15000000       0.05000000 </v>
   <v>      -0.15000000       0.15000000       0.05000000 </v>
   <v>       0.25000000       0.25000000       0.05000000 </v>
   <v>       0.35000000       0.25000000       0.05000000 </v>
   <v>      -0.25000000       0.25000000       0.05000000 </v>
   <v>      -0.15000000       0.25000000       0.05000000 </v>
   <v>      -0.35000000       0.35000000       0.05000000 </v>
   <v>      -0.25000000       0.35000000       0.05000000 </v>
   <v>      -0.45000000       0.45000000       0.05000000 </v>
   <v>      -0.35000000       0.45000000       0.05000000 </v>
   <v>      -0.25000000       0.45000000       0.05000000 </v>
   <v>      -0.45000000      -0.45000000       0.05000000 </v>
   <v>      -0.35000000      -0.45000000       0.05000000 </v>
   <v>      -0.35000000      -0.35000000       0.05000000 </v>
   <v>       0.15000000       0.15000000       0.15000000 </v>
   <v>       0.25000000       0.15000000       0.15000000 </v>
   <v>       0.35000000       0.15000000       0.15000000 </v>
   <v>      -0.15000000       0.15000000       0.15000000 </v>
   <v>       0.25000000       0.25000000       0.15000000 </v>
   <v>      -0.25000000       0.25000000       0.15000000 </v>
   <v>      -0.35000000       0.35000000       0.15000000 </v>
   <v>      -0.25000000       0.35000000       0.15000000 </v>
   <v>      -0.45000000       0.45000000       0.15000000 </v>
   <v>      -0.35000000       0.45000000       0.15000000 </v>
   <v>      -0.45000000      -0.45000000       0.15000000 </v>
   <v>      -0.35000000      -0.45000000       0.15000000 </v>
   <v>       0.25000000       0.25000000       0.25000000 </v>
   <v>      -0.25000000       0.25000000       0.25000000 </v>
   <v>      -0.35000000       0.35000000       0.25000000 </v>
   <v>      -0.45000000       0.45000000       0.25000000 </v>
   <v>      -0.35000000       0.45000000       0.25000000 </v>
   <v>      -0.45000000      -0.45000000       0.25000000 </v>
   <v>      -0.35000000       0.35000000       0.35000000 </v>
   <v>      -0.45000000       0.45000000       0.35000000 </v>
   <v>      -0.45000000      -0.45000000       0.35000000 </v>
   <v>      -0.45000000       0.45000000       0.45000000 </v>
  </varray>
  <varray name="weights" >
   <v>       0.00800000 </v>
   <v>       0.02400000 </v>
   <v>       0.02400000 </v>
   <v>       0.02400000 </v>
   <v>       0.01200000 </v>
   <v>       0.00600000 </v>
   <v>       0.02400000 </v>
   <v>       0.04800000 </v>
   <v>       0.04800000 </v>
   <v>       0.02400000 </v>
   <v>       0.02400000 </v>
   <v>       0.02400000 </v>
   <v>       0.02400000 </v>
   <v>       0.02400000 </v>
   <v>       0.02400000 </v>
   <v>       0.04800000 </v>
   <v>       0.02400000 </v>
   <v>       0.04800000 </v>
   <v>       0.02400000 </v>
   <v>       0.02400000 </v>
   <v>       0.04800000 </v>
   <v>       0.00800000 </v>
   <v>       0.00800000 </v>
   <v>       0.02400000 </v>
   <v>       0.01200000 </v>
   <v>       0.00600000 </v>
   <v>       0.02400000 </v>
   <v>       0.02400000 </v>
   <v>       0.02400000 </v>
   <v>       0.02400000 </v>
   <v>       0.02400000 </v>
   <v>       0.04800000 </v>
   <v>       0.02400000 </v>
   <v>       0.02400000 </v>
   <v>       0.00200000 </v>
   <v>       0.00600000 </v>
   <v>       0.02400000 </v>
   <v>       0.02400000 </v>
   <v>       0.02400000 </v>
   <v>       0.02400000 </v>
   <v>       0.00600000 </v>
   <v>       0.02400000 </v>
   <v>       0.00800000 </v>
   <v>       0.00600000 </v>
  </varray>
 </kpoints>
 <parameters>
  <separator name="general" >
   <i type="string" name="SYSTEM">bcc Fe</i>
   <i type="logical" name="LCOMPAT"> F  </i>
  </separator>
  <separator name="electronic" >
   <i type="string" name="PREC">normal</i>
   <i name="ENMAX">    268.00000000</i>
   <i name="ENAUG">    511.36800000</i>
   <i name="EDIFF">      0.00010000</i>
   <i type="int" name="IALGO">    38</i>
   <i type="int" name="IWAVPR">    10</i>
   <i type="int" name="NBANDS">    12</i>
   <i name="NELECT">      8.00000000</i>
   <i type="int" name="TURBO">     0</i>
   <i type="int" name="IRESTART">     0</i>
   <i type="int" name="NREBOOT">     0</i>
   <i type="int" name="NMIN">     0</i>
   <i name="EREF">      0.00000000</i>
   <separator name="electronic smearing" >
    <i type="int" name="ISMEAR">     1</i>
    <i name="SIGMA">      0.20000000</i>
    <i name="KSPACING">      0.50000000</i>
    <i type="logical" name="KGAMMA"> T  </i>
   </separator>
   <separator name="electronic projectors" >
    <i type="logical" name="LREAL"> F  </i>
    <v name="ROPT">      0.00000000</v>
    <i type="int" name="LMAXPAW">  -100</i>
    <i type="int" name="LMAXMIX">     2</i>
    <i type="logical" name="NLSPLINE"> F  </i>
   </separator>
   <separator name="electronic startup" >
    <i type="int" name="ISTART">     0</i>
    <i type="int" name="ICHARG">     2</i>
    <i type="int" name="INIWAV">     1</i>
   </separator>
   <separator name="electronic spin" >
    <i type="int" name="ISPIN">     2</i>
    <i type="logical" name="LNONCOLLINEAR"> F  </i>
    <v name="MAGMOM">      3.00000000</v>
    <i name="NUPDOWN">     -1.00000000</i>
    <i type="logical" name="LSORBIT"> F  </i>
    <v name="SAXIS">      0.00000000      0.00000000      1.00000000</v>
    <i type="logical" name="LSPIRAL"> F  </i>
    <v name="QSPIRAL">      0.00000000      0.00000000      0.00000000</v>
    <i type="logical" name="LZEROZ"> F  </i>
   </separator>
   <separator name="electronic exchange-correlation" >
    <i type="logical" name="LASPH"> F  </i>
    <i type="logical" name="LMETAGGA"> F  </i>
   </separator>
   <separator name="electronic convergence" >
    <i type="int" name="NELM">    60</i>
    <i type="int" name="NELMDL">    -5</i>
    <i type="int" name="NELMIN">     2</i>
    <i name="ENINI">    268.00000000</i>
    <separator name="electronic convergence detail" >
     <i type="logical" name="LDIAG"> T  </i>
     <i type="logical" name="LSUBROT"> F  </i>
     <i name="WEIMIN">      0.00000000</i>
     <i name="EBREAK">      0.00000208</i>
     <i name="DEPER">      0.30000000</i>
     <i type="int" name="NRMM">     4</i>
     <i name="TIME">      0.40000000</i>
    </separator>
   </separator>
   <separator name="electronic mixer" >
    <i name="AMIX">      0.40000000</i>
    <i name="BMIX">      1.00000000</i>
    <i name="AMIN">      0.10000000</i>
    <i name="AMIX_MAG">      1.60000000</i>
    <i name="BMIX_MAG">      1.00000000</i>
    <separator name="electronic mixer details" >
     <i type="int" name="IMIX">     4</i>
     <i type="logical" name="MIXFIRST"> F  </i>
     <i type="int" name="MAXMIX">   -45</i>
     <i name="WC">    100.00000000</i>
     <i type="int" name="INIMIX">     1</i>
     <i type="int" name="MIXPRE">     1</i>
     <i type="int" name="MREMOVE">     5</i>
    </separator>
   </separator>
   <separator name="electronic dipolcorrection" >
    <i type="logical" name="LDIPOL"> F  </i>
    <i type="logical" name="LMONO"> F  </i>
    <i type="int" name="IDIPOL">     0</i>
    <i name="EPSILON">      1.00000000</i>
    <v name="DIPOL">   -100.00000000   -100.00000000   -100.00000000</v>
    <i name="EFIELD">      0.00000000</i>
   </separator>
  </separator>
  <separator name="grids" >
   <i type="int" name="NGX">    10</i>
   <i type="int" name="NGY">    10</i>
   <i type="int" name="NGZ">    10</i>
   <i type="int" name="NGXF">    20</i>
   <i type="int" name="NGYF">    20</i>
   <i type="int" name="NGZF">    20</i>
   <i type="logical" name="ADDGRID"> F  </i>
  </separator>
  <separator name="ionic" >
   <i type="int" name="NSW">     0</i>
   <i type="int" name="IBRION">    -1</i>
   <i type="int" name="MDALGO">     0</i>
   <i type="int" name="ISIF">     2</i>
   <i name="PSTRESS">      0.00000000</i>
   <i name="EDIFFG">      0.00100000</i>
   <i type="int" name="NFREE">     0</i>
   <i name="POTIM">      0.50000000</i>
   <i name="SMASS">     -3.00000000</i>
   <i name="SCALEE">      1.00000000</i>
  </separator>
  <separator name="ionic md" >
   <i name="TEBEG">      0.00010000</i>
   <i name="TEEND">      0.00010000</i>
   <i type="int" name="NBLOCK">     1</i>
   <i type="int" name="KBLOCK">     1</i>
   <i type="int" name="NPACO">   256</i>
   <i name="APACO">     16.00000000</i>
  </separator>
  <separator name="symmetry" >
   <i type="int" name="ISYM">     2</i>
   <i name="SYMPREC">      0.00001000</i>
  </separator>
  <separator name="dos" >
   <i type="int" name="LORBIT">     0</i>
   <v name="RWIGS">     -1.00000000</v>
   <i type="int" name="NEDOS">   301</i>
   <i name="EMIN">     10.00000000</i>
   <i name="EMAX">    -10.00000000</i>
   <i name="EFERMI">      0.00000000</i>
  </separator>
  <separator name="writing" >
   <i type="int" name="NWRITE">     2</i>
   <i type="logical" name="LWAVE"> T  </i>
   <i type="logical" name="LDOWNSAMPLE"> F  </i>
   <i type="logical" name="LCHARG"> T  </i>
   <i type="logical" name="LPARD"> F  </i>
   <i type="logical" name="LVTOT"> F  </i>
   <i type="logical" name="LVHAR"> F  </i>
   <i type="logical" name="LELF"> F  </i>
   <i type="logical" name="LOPTICS"> F  </i>
   <v name="STM">      0.00000000      0.00000000      0.00000000      0.00000000      0.00000000      0.00000000      0.00000000</v>
  </separator>
  <separator name="performance" >
   <i type="int" name="NPAR">     4</i>
   <i type="int" name="NSIM">     4</i>
   <i type="int" name="NBLK">    -1</i>
   <i type="logical" name="LPLANE"> T  </i>
   <i type="logical" name="LSCALAPACK"> T  </i>
   <i type="logical" name="LSCAAWARE"> F  </i>
   <i type="logical" name="LSCALU"> F  </i>
   <i type="logical" name="LASYNC"> F  </i>
   <i type="logical" name="LORBITALREAL"> F  </i>
  </separator>
  <separator name="miscellaneous" >
   <i type="int" name="IDIOT">     3</i>
   <i type="int" name="ISPECIAL">     0</i>
   <i type="logical" name="LMUSIC"> F  </i>
   <v name="POMASS">     55.84700000</v>
   <v name="DARWINR">      0.00000000</v>
   <v name="DARWINV">      1.00000000</v>
   <i type="logical" name="LCORR"> T  </i>
  </separator>
  <i type="logical" name="GGA_COMPAT"> T  </i>
  <i type="logical" name="LBERRY"> F  </i>
  <i type="int" name="ICORELEVEL">     0</i>
  <i type="logical" name="LDAU"> F  </i>
  <i type="int" name="I_CONSTRAINED_M">     0</i>
  <separator name="electronic exchange-correlation" >
   <i type="string" name="GGA">--</i>
   <i type="int" name="VOSKOWN">     0</i>
   <i type="logical" name="LHFCALC"> F  </i>
   <i type="string" name="PRECFOCK"></i>
   <i type="logical" name="LSYMGRAD"> F  </i>
   <i type="logical" name="LHFONE"> F  </i>
   <i type="logical" name="LRHFCALC"> F  </i>
   <i type="logical" name="LTHOMAS"> F  </i>
   <i type="logical" name="LMODELHF"> F  </i>
   <i name="ENCUT4O">     -1.00000000</i>
   <i type="int" name="EXXOEP">     0</i>
   <i type="int" name="FOURORBIT">     0</i>
   <i name="AEXX">      0.00000000</i>
   <i name="HFALPHA">      0.00000000</i>
   <i name="MCALPHA">      0.00000000</i>
   <i name="ALDAX">      1.00000000</i>
   <i name="AGGAX">      1.00000000</i>
   <i name="ALDAC">      1.00000000</i>
   <i name="AGGAC">      1.00000000</i>
   <i type="int" name="NKREDX">     1</i>
   <i type="int" name="NKREDY">     1</i>
   <i type="int" name="NKREDZ">     1</i>
   <i type="logical" name="SHIFTRED"> F  </i>
   <i type="logical" name="ODDONLY"> F  </i>
   <i type="logical" name="EVENONLY"> F  </i>
   <i type="int" name="LMAXFOCK">     0</i>
   <i type="int" name="NMAXFOCKAE">     0</i>
   <i type="logical" name="LFOCKAEDFT"> F  </i>
   <i name="HFSCREEN">      0.00000000</i>
   <i name="HFSCREENC">      0.00000000</i>
   <i type="int" name="NBANDSGWLOW">     0</i>
  </separator>
  <separator name="vdW DFT" >
   <i type="logical" name="LUSE_VDW"> F  </i>
   <i name="Zab_VDW">     -0.84910000</i>
   <i name="PARAM1">      0.12340000</i>
   <i name="PARAM2">      1.00000000</i>
   <i name="PARAM3">      0.00000000</i>
  </separator>
  <separator name="model GW" >
   <i type="int" name="MODEL_GW">     0</i>
   <i name="MODEL_EPS0">      7.70171250</i>
   <i name="MODEL_ALPHA">      1.00000000</i>
  </separator>
  <separator name="linear response parameters" >
   <i type="logical" name="LEPSILON"> F  </i>
   <i type="logical" name="LRPA"> F  </i>
   <i type="logical" name="LNABLA"> F  </i>
   <i type="logical" name="LVEL"> F  </i>
   <i type="int" name="KINTER">     0</i>
   <i name="CSHIFT">      0.10000000</i>
   <i name="OMEGAMAX">     -1.00000000</i>
   <i name="DEG_THRESHOLD">      0.00200000</i>
   <i name="RTIME">     -0.10000000</i>
   <i name="WPLASMAI">      0.00000000</i>
   <v name="DFIELD">      0.00000000      0.00000000      0.00000000</v>
   <v name="WPLASMA">      0.00000000      0.00000000      0.00000000      0.00000000      0.00000000      0.00000000      0.00000000      0.00000000      0.00000000</v>
  </separator>
  <separator name="orbital magnetization" >
   <i type="logical" name="NUCIND"> F  </i>
   <v name="MAGPOS">      0.00000000      0.00000000      0.00000000</v>
   <i type="logical" name="LNICSALL"> T  </i>
   <i type="logical" name="ORBITALMAG"> F  </i>
   <i type="logical" name="LMAGBLOCH"> F  </i>
   <i type="logical" name="LCHIMAG"> F  </i>
   <i type="logical" name="LGAUGE"> T  </i>
   <i type="int" name="MAGATOM">     0</i>
   <v name="MAGDIPOL">      0.00000000      0.00000000      0.00000000</v>
   <v name="AVECCONST">      0.00000000      0.00000000      0.00000000</v>
  </separator>
  <separator name="response functions" >
   <i type="logical" name="LADDER"> F  </i>
   <i type="logical" name="LRPAFORCE"> F  </i>
   <i type="logical" name="LFXC"> F  </i>
   <i type="logical" name="LHARTREE"> T  </i>
   <i type="int" name="IBSE">     0</i>
   <v type="int" name="KPOINT">    -1     0     0     0</v>
   <i type="logical" name="LTCTE"> F  </i>
   <i type="logical" name="LTETE"> F  </i>
   <i type="logical" name="LTRIPLET"> F  </i>
   <i type="logical" name="LFXCEPS"> F  </i>
   <i type="logical" name="LFXHEG"> F  </i>
   <i type="int" name="NATURALO">     2</i>
   <i type="logical" name="L2ORDER"> F  </i>
   <i type="logical" name="LMP2LT"> F  </i>
   <i type="logical" name="LUSEW"> F  </i>
   <i name="ENCUTGW">     -2.00000000</i>
   <i name="ENCUTGWSOFT">     -2.00000000</i>
   <i name="ENCUTLF">     -1.00000000</i>
   <i type="int" name="LMAXMP2">    -1</i>
   <i name="SCISSOR">      0.00000000</i>
   <i type="int" name="NOMEGA">     0</i>
   <i type="int" name="NOMEGAR">     0</i>
   <i type="int" name="NBANDSGW">    -1</i>
   <i type="int" name="NBANDSO">    -1</i>
   <i type="int" name="NBANDSV">    -1</i>
   <i type="int" name="NELM">     1</i>
   <i type="int" name="NELMHF">     1</i>
   <i type="int" name="DIM">     3</i>
   <i type="int" name="ANTIRES">     0</i>
   <i name="OMEGAMAX">    -30.00000000</i>
   <i name="OMEGAMIN">    -30.00000000</i>
   <i name="OMEGATL">   -200.00000000</i>
   <i type="int" name="OMEGAGRID">   140</i>
   <i name="CSHIFT">     -0.10000000</i>
   <i type="logical" name="SELFENERGY"> F  </i>
   <i type="logical" name="LSPECTRAL"> F  </i>
   <i type="logical" name="LSPECTRALGW"> F  </i>
   <i type="logical" name="LSINGLES"> F  </i>
   <i type="logical" name="LFERMIGW"> F  </i>
   <i type="logical" name="ODDONLYGW"> F  </i>
   <i type="logical" name="EVENONLYGW"> F  </i>
   <i type="int" name="NKREDLFX">     1</i>
   <i type="int" name="NKREDLFY">     1</i>
   <i type="int" name="NKREDLFZ">     1</i>
   <i type="int" name="MAXMEM">  2800</i>
   <i type="int" name="TELESCOPE">     0</i>
   <i type="int" name="TAUPAR">     1</i>
   <i type="int" name="OMEGAPAR">    -1</i>
   <i name="LAMBDA">      1.00000000</i>
  </separator>
  <separator name="External order field" >
   <i name="OFIELD_KAPPA">      0.00000000</i>
   <v name="OFIELD_K">      0.00000000      0.00000000      0.00000000</v>
   <i name="OFIELD_Q6_NEAR">      0.00000000</i>
   <i name="OFIELD_Q6_FAR">      0.00000000</i>
   <i name="OFIELD_A">      0.00000000</i>
  </separator>
 </parameters>
 <atominfo>
  <atoms>       1 </atoms>
  <types>       1 </types>
  <array name="atoms" >
   <dimension dim="1">ion</dimension>
   <field type="string">element</field>
   <field type="int">atomtype</field>
   <set>
    <rc><c>Fe</c><c>   1</c></rc>
   </set>
  </array>
  <array name="atomtypes" >
   <dimension dim="1">type</dimension>
   <field type="int">atomspertype</field>
   <field type="string">element</field>
   <field>mass</field>
   <field>valence</field>
   <field type="string">pseudopotential</field>
   <set>
    <rc><c>   1</c><c>Fe</c><c>     55.84700000</c><c>      8.00000000</c><c>  PAW_PBE Fe 06Sep2000                  </c></rc>
   </set>
  </array>
 </atominfo>
 <structure name="initialpos" >
  <crystal>
   <varray name="basis" >
    <v>      -1.47500000       1.47500000       1.47500000 </v>
    <v>       1.47500000      -1.47500000       1.47500000 </v>
    <v>       1.47500000       1.47500000      -1.47500000 </v>
   </varray>
   <i name="volume">     12.83618750 </i>
   <varray name="rec_basis" >
    <v>       0.00000000       0.33898305       0.33898305 </v>
    <v>       0.33898305       0.00000000       0.33898305 </v>
    <v>       0.33898305       0.33898305       0.00000000 </v>
   </varray>
  </crystal>
  <varray name="positions" >
   <v>       0.00000000       0.00000000       0.00000000 </v>
  </varray>
 </structure>
 <calculation>
  <scstep>
   <time name="dav">    0.19    0.19</time>
   <time name="total">    0.20    0.20</time>
   <energy>
    <i name="alphaZ">     53.84291559 </i>
    <i name="ewald">   -568.45219923 </i>
    <i name="hartreedc">   -120.99424960 </i>
    <i name="XCdc">      4.72616638 </i>
    <i name="pawpsdc">    553.75926685 </i>
    <i name="pawaedc">   -561.48528711 </i>
    <i name="eentropy">     -0.00104175 </i>
    <i name="bandstr">     55.61473300 </i>
    <i name="atom">    594.28084496 </i>
    <i name="e_fr_energy">     11.29114909 </i>
    <i name="e_wo_entrp">     11.29219084 </i>
    <i name="e_0_energy">     11.29149634 </i>
   </energy>
  </scstep>
  <scstep>
   <time name="dav">    0.12    0.13</time>
   <time name="total">    0.12    0.13</time>
   <energy>
    <i name="e_fr_energy">     -8.76094743 </i>
    <i name="e_wo_entrp">     -8.76102397 </i>
    <i name="e_0_energy">     -8.76097295 </i>
   </energy>
  </scstep>
  <scstep>
   <time name="dav">    0.12    0.13</time>
   <time name="total">    0.13    0.13</time>
   <energy>
    <i name="e_fr_energy">     -9.08614861 </i>
    <i name="e_wo_entrp">     -9.08845242 </i>
    <i name="e_0_energy">     -9.08691655 </i>
   </energy>
  </scstep>
  <scstep>
   <time name="dav">    0.11    0.12</time>
   <time name="total">    0.11    0.12</time>
   <energy>
    <i name="e_fr_energy">     -9.08713974 </i>
    <i name="e_wo_entrp">     -9.08944860 </i>
    <i name="e_0_energy">     -9.08790936 </i>
   </energy>
  </scstep>
  <scstep>
   <time name="dav">    0.11    0.11</time>
   <time name="total">    0.11    0.11</time>
   <energy>
    <i name="e_fr_energy">     -9.08714508 </i>
    <i name="e_wo_entrp">     -9.08945397 </i>
    <i name="e_0_energy">     -9.08791471 </i>
   </energy>
  </scstep>
  <scstep>
   <time name="dav">    0.12    0.12</time>
   <time name="total">    0.12    0.13</time>
   <energy>
    <i name="e_fr_energy">     -8.29117852 </i>
    <i name="e_wo_entrp">     -8.29442848 </i>
    <i name="e_0_energy">     -8.29226184 </i>
   </energy>
  </scstep>
  <scstep>
   <time name="dav">    0.12    0.12</time>
   <time name="total">    0.13    0.13</time>
   <energy>
    <i name="e_fr_energy">     -8.16649268 </i>
    <i name="e_wo_entrp">     -8.16861083 </i>
    <i name="e_0_energy">     -8.16719873 </i>
   </energy>
  </scstep>
  <scstep>
   <time name="dav">    0.12    0.12</time>
   <time name="total">    0.12    0.13</time>
   <energy>
    <i name="e_fr_energy">     -8.16514184 </i>
    <i name="e_wo_entrp">     -8.16690447 </i>
    <i name="e_0_energy">     -8.16572939 </i>
   </energy>
  </scstep>
  <scstep>
   <time name="dav">    0.13    0.13</time>
   <time name="total">    0.14    0.14</time>
   <energy>
    <i name="e_fr_energy">     -8.15991105 </i>
    <i name="e_wo_entrp">     -8.16173602 </i>
    <i name="e_0_energy">     -8.16051937 </i>
   </energy>
  </scstep>
  <scstep>
   <time name="dav">    0.11    0.12</time>
   <time name="total">    0.12    0.12</time>
   <energy>
    <i name="e_fr_energy">     -8.16024679 </i>
    <i name="e_wo_entrp">     -8.16219677 </i>
    <i name="e_0_energy">     -8.16089678 </i>
   </energy>
  </scstep>
  <scstep>
   <time name="dav">    0.10    0.11</time>
   <time name="total">    0.11    0.11</time>
   <energy>
    <i name="alphaZ">     53.84291559 </i>
    <i name="ewald">   -568.45219923 </i>
    <i name="hartreedc">   -104.90246110 </i>
    <i name="XCdc">      4.34073308 </i>
    <i name="pawpsdc">    675.06605487 </i>
    <i name="pawaedc">   -683.87466546 </i>
    <i name="eentropy">      0.00200248 </i>
    <i name="bandstr">     21.53649870 </i>
    <i name="atom">    594.28084496 </i>
    <i name="e_fr_energy">     -8.16027612 </i>
    <i name="e_wo_entrp">     -8.16227860 </i>
    <i name="e_0_energy">     -8.16094361 </i>
   </energy>
  </scstep>
  <structure>
   <crystal>
    <varray name="basis" >
     <v>      -1.47500000       1.47500000       1.47500000 </v>
     <v>       1.47500000      -1.47500000       1.47500000 </v>
     <v>       1.47500000       1.47500000      -1.47500000 </v>
    </varray>
    <i name="volume">     12.83618750 </i>
    <varray name="rec_basis" >
     <v>       0.00000000       0.33898305       0.33898305 </v>
     <v>       0.33898305       0.00000000       0.33898305 </v>
     <v>       0.33898305       0.33898305       0.00000000 </v>
    </varray>
   </crystal>
   <varray name="positions" >
    <v>       0.00000000       0.00000000       0.00000000 </v>
   </varray>
  </structure>
  <varray name="forces" >
   <v>       0.00000000       0.00000000      -0.00000000 </v>
  </varray>
  <varray name="stress" >
   <v>    -189.19465685       0.00000000      -0.00000000 </v>
   <v>       0.00000000    -189.19465685      -0.00000000 </v>
   <v>      -0.00000000      -0.00000000    -189.19465685 </v>
  </varray>
  <energy>
   <i name="e_fr_energy">     -8.16027612 </i>
   <i name="e_wo_entrp">     -8.16094361 </i>
   <i name="e_0_energy">      0.00200248 </i>
  </energy>
  <time name="totalsc">    1.51    1.54</time>
  <eigenvalues>
   <array>
    <dimension dim="1">band</dimension>
    <dimension dim="2">kpoint</dimension>
    <dimension dim="3">spin</dimension>
    <field>eigene</field>
    <field>occ</field>
    <set>
     <set comment="spin 1">
      <set comment="kpoint 1">
       <r>   -2.5233    1.0000 </r>
       <r>    2.3683    1.0000 </r>
       <r>    2.3683    1.0000 </r>
       <r>    2.7931    1.0000 </r>
       <r>    3.5096    1.0000 </r>
       <r>    3.5096    1.0000 </r>
       <r>   25.7740    0.0000 </r>
       <r>   25.7740    0.0000 </r>
       <r>   28.9467    0.0000 </r>
       <r>   29.0115    0.0000 </r>
       <r>   32.8671    0.0000 </r>
       <r>   32.8671    0.0000 </r>
      </set>
      <set comment="kpoint 2">
       <r>   -1.4936    1.0000 </r>
       <r>    2.1256    1.0000 </r>
       <r>    2.2598    1.0000 </r>
       <r>    3.3585    1.0000 </r>
       <r>    3.4211    1.0000 </r>
       <r>    3.5725    1.0000 </r>
       <r>   21.5579    0.0000 </r>
       <r>   23.8705    0.0000 </r>
       <r>   25.8862    0.0000 </r>
       <r>   29.1112    0.0000 </r>
       <r>   32.3931    0.0000 </r>
       <r>   33.0589    0.0000 </r>
      </set>
      <set comment="kpoint 3">
       <r>   -0.1993    1.0000 </r>
       <r>    1.8552    1.0000 </r>
       <r>    2.3407    1.0000 </r>
       <r>    3.4649    1.0000 </r>
       <r>    3.6350    1.0000 </r>
       <r>    4.1469    1.0008 </r>
       <r>   17.0480    0.0000 </r>
       <r>   22.2452    0.0000 </r>
       <r>   23.7086    0.0000 </r>
       <r>   28.5089    0.0000 </r>
       <r>   31.5528    0.0000 </r>
       <r>   34.9481    0.0000 </r>
      </set>
      <set comment="kpoint 4">
       <r>    0.3822    1.0000 </r>
       <r>    1.6513    1.0000 </r>
       <r>    3.2758    1.0000 </r>
       <r>    3.5886    1.0000 </r>
       <r>    3.6898    1.0000 </r>
       <r>    5.1835   -0.0007 </r>
       <r>   13.0766    0.0000 </r>
       <r>   21.1563    0.0000 </r>
       <r>   22.2436    0.0000 </r>
       <r>   28.0463    0.0000 </r>
       <r>   31.2395    0.0000 </r>
       <r>   37.2693    0.0000 </r>
      </set>
      <set comment="kpoint 5">
       <r>    0.4222    1.0000 </r>
       <r>    1.5755    1.0000 </r>
       <r>    3.5971    1.0000 </r>
       <r>    3.7082    1.0000 </r>
       <r>    3.9267    1.0000 </r>
       <r>    6.1773   -0.0000 </r>
       <r>   10.9765    0.0000 </r>
       <r>   20.7713    0.0000 </r>
       <r>   21.7062    0.0000 </r>
       <r>   27.8852    0.0000 </r>
       <r>   31.1681    0.0000 </r>
       <r>   37.2720    0.0000 </r>
      </set>
      <set comment="kpoint 6">
       <r>   -2.8917    1.0000 </r>
       <r>    2.4704    1.0000 </r>
       <r>    2.4705    1.0000 </r>
       <r>    2.5175    1.0000 </r>
       <r>    3.4837    1.0000 </r>
       <r>    3.5851    1.0000 </r>
       <r>   27.2622    0.0000 </r>
       <r>   28.1770    0.0000 </r>
       <r>   28.1770    0.0000 </r>
       <r>   30.9799    0.0000 </r>
       <r>   32.3427    0.0000 </r>
       <r>   32.3427    0.0000 </r>
      </set>
      <set comment="kpoint 7">
       <r>   -0.3182    1.0000 </r>
       <r>    1.9533    1.0000 </r>
       <r>    1.9697    1.0000 </r>
       <r>    3.4368    1.0000 </r>
       <r>    3.6448    1.0000 </r>
       <r>    4.1978    1.0025 </r>
       <r>   19.3914    0.0000 </r>
       <r>   20.0800    0.0000 </r>
       <r>   23.0829    0.0000 </r>
       <r>   30.3289    0.0000 </r>
       <r>   33.5337    0.0000 </r>
       <r>   34.8773    0.0000 </r>
      </set>
      <set comment="kpoint 8">
       <r>    0.6691    1.0000 </r>
       <r>    1.7106    1.0000 </r>
       <r>    2.1784    1.0000 </r>
       <r>    3.5116    1.0000 </r>
       <r>    3.7235    1.0000 </r>
       <r>    5.4280   -0.0000 </r>
       <r>   15.3684    0.0000 </r>
       <r>   18.3718    0.0000 </r>
       <r>   21.5172    0.0000 </r>
       <r>   30.3810    0.0000 </r>
       <r>   34.3181    0.0000 </r>
       <r>   35.4942    0.0000 </r>
      </set>
      <set comment="kpoint 9">
       <r>    0.7975    1.0000 </r>
       <r>    1.5952    1.0000 </r>
       <r>    2.8260    1.0000 </r>
       <r>    3.6042    1.0000 </r>
       <r>    3.8061    1.0000 </r>
       <r>    7.1499   -0.0000 </r>
       <r>   11.8661    0.0000 </r>
       <r>   17.5987    0.0000 </r>
       <r>   20.7151    0.0000 </r>
       <r>   30.1830    0.0000 </r>
       <r>   34.8034    0.0000 </r>
       <r>   36.0422    0.0000 </r>
      </set>
      <set comment="kpoint 10">
       <r>   -2.1664    1.0000 </r>
       <r>    2.3207    1.0000 </r>
       <r>    2.4515    1.0000 </r>
       <r>    2.8592    1.0000 </r>
       <r>    3.3187    1.0000 </r>
       <r>    3.6362    1.0000 </r>
       <r>   23.8206    0.0000 </r>
       <r>   26.4579    0.0000 </r>
       <r>   26.9753    0.0000 </r>
       <r>   30.2250    0.0000 </r>
       <r>   30.2335    0.0000 </r>
       <r>   31.2628    0.0000 </r>
      </set>
      <set comment="kpoint 11">
       <r>    1.1691    1.0000 </r>
       <r>    1.6625    1.0000 </r>
       <r>    2.1634    1.0000 </r>
       <r>    3.5970    1.0000 </r>
       <r>    3.7930    1.0000 </r>
       <r>    7.4292   -0.0000 </r>
       <r>   13.9250    0.0000 </r>
       <r>   14.6601    0.0000 </r>
       <r>   20.5316    0.0000 </r>
       <r>   31.6785    0.0000 </r>
       <r>   34.2047    0.0000 </r>
       <r>   39.6586    0.0000 </r>
      </set>
      <set comment="kpoint 12">
       <r>    1.2153    1.0000 </r>
       <r>    1.6947    1.0000 </r>
       <r>    2.2299    1.0000 </r>
       <r>    3.6742    1.0000 </r>
       <r>    3.7939    1.0000 </r>
       <r>    9.4806   -0.0000 </r>
       <r>   11.4083    0.0000 </r>
       <r>   14.0236    0.0000 </r>
       <r>   20.2113    0.0000 </r>
       <r>   32.1384    0.0000 </r>
       <r>   34.3403    0.0000 </r>
       <r>   39.1791    0.0000 </r>
      </set>
      <set comment="kpoint 13">
       <r>   -0.9120    1.0000 </r>
       <r>    2.0644    1.0000 </r>
       <r>    2.3887    1.0000 </r>
       <r>    3.3099    1.0000 </r>
       <r>    3.4848    1.0000 </r>
       <r>    3.6995    1.0000 </r>
       <r>   19.2386    0.0000 </r>
       <r>   24.4136    0.0000 </r>
       <r>   25.2937    0.0000 </r>
       <r>   28.4975    0.0000 </r>
       <r>   29.9794    0.0000 </r>
       <r>   32.1629    0.0000 </r>
      </set>
      <set comment="kpoint 14">
       <r>   -1.1770    1.0000 </r>
       <r>    2.2678    1.0000 </r>
       <r>    2.2847    1.0000 </r>
       <r>    3.1577    1.0000 </r>
       <r>    3.3315    1.0000 </r>
       <r>    3.7584    1.0000 </r>
       <r>   21.5019    0.0000 </r>
       <r>   22.4247    0.0000 </r>
       <r>   27.1614    0.0000 </r>
       <r>   27.5331    0.0000 </r>
       <r>   30.2306    0.0000 </r>
       <r>   33.2836    0.0000 </r>
      </set>
      <set comment="kpoint 15">
       <r>    0.1301    1.0000 </r>
       <r>    1.8139    1.0000 </r>
       <r>    2.8135    1.0000 </r>
       <r>    3.5063    1.0000 </r>
       <r>    3.9185    1.0000 </r>
       <r>    4.1630    1.0012 </r>
       <r>   14.9027    0.0000 </r>
       <r>   22.8366    0.0000 </r>
       <r>   23.5666    0.0000 </r>
       <r>   27.5863    0.0000 </r>
       <r>   29.8588    0.0000 </r>
       <r>   33.9272    0.0000 </r>
      </set>
      <set comment="kpoint 16">
       <r>    0.0477    1.0000 </r>
       <r>    1.9848    1.0000 </r>
       <r>    2.2563    1.0000 </r>
       <r>    3.2560    1.0000 </r>
       <r>    3.8025    1.0000 </r>
       <r>    4.2625    1.0081 </r>
       <r>   17.3190    0.0000 </r>
       <r>   20.3262    0.0000 </r>
       <r>   25.2009    0.0000 </r>
       <r>   27.5773    0.0000 </r>
       <r>   30.7235    0.0000 </r>
       <r>   33.7900    0.0000 </r>
      </set>
      <set comment="kpoint 17">
       <r>    0.3505    1.0000 </r>
       <r>    1.6646    1.0000 </r>
       <r>    3.3394    1.0000 </r>
       <r>    3.5572    1.0000 </r>
       <r>    4.6281    0.6404 </r>
       <r>    5.2000   -0.0005 </r>
       <r>   11.5666    0.0000 </r>
       <r>   21.9929    0.0000 </r>
       <r>   22.5028    0.0000 </r>
       <r>   27.2281    0.0000 </r>
       <r>   29.9122    0.0000 </r>
       <r>   35.3200    0.0000 </r>
      </set>
      <set comment="kpoint 18">
       <r>    0.5927    1.0000 </r>
       <r>    1.8147    1.0000 </r>
       <r>    2.5846    1.0000 </r>
       <r>    3.4502    1.0000 </r>
       <r>    4.1187    1.0004 </r>
       <r>    5.5977   -0.0000 </r>
       <r>   13.2920    0.0000 </r>
       <r>   19.1583    0.0000 </r>
       <r>   23.7437    0.0000 </r>
       <r>   27.6760    0.0000 </r>
       <r>   31.8736    0.0000 </r>
       <r>   33.5885    0.0000 </r>
      </set>
      <set comment="kpoint 19">
       <r>    0.8884    1.0000 </r>
       <r>    1.7180    1.0000 </r>
       <r>    2.2518    1.0000 </r>
       <r>    3.3588    1.0000 </r>
       <r>    3.9260    1.0000 </r>
       <r>    5.7834   -0.0000 </r>
       <r>   15.6497    0.0000 </r>
       <r>   16.2063    0.0000 </r>
       <r>   24.7333    0.0000 </r>
       <r>   27.5290    0.0000 </r>
       <r>   30.6748    0.0000 </r>
       <r>   37.8590    0.0000 </r>
      </set>
      <set comment="kpoint 20">
       <r>    0.6195    1.0000 </r>
       <r>    1.7598    1.0000 </r>
       <r>    2.7935    1.0000 </r>
       <r>    3.4737    1.0000 </r>
       <r>    4.3709    1.0296 </r>
       <r>    6.9170   -0.0000 </r>
       <r>   11.0520    0.0000 </r>
       <r>   18.7370    0.0000 </r>
       <r>   23.2358    0.0000 </r>
       <r>   27.6965    0.0000 </r>
       <r>   32.9006    0.0000 </r>
       <r>   33.1924    0.0000 </r>
      </set>
      <set comment="kpoint 21">
       <r>    1.1068    1.0000 </r>
       <r>    1.7367    1.0000 </r>
       <r>    2.2015    1.0000 </r>
       <r>    3.5383    1.0000 </r>
       <r>    4.0503    1.0001 </r>
       <r>    7.9919   -0.0000 </r>
       <r>   12.1929    0.0000 </r>
       <r>   15.1847    0.0000 </r>
       <r>   24.1186    0.0000 </r>
       <r>   28.0821    0.0000 </r>
       <r>   31.0287    0.0000 </r>
       <r>   36.6098    0.0000 </r>
      </set>
      <set comment="kpoint 22">
       <r>    1.4828    1.0000 </r>
       <r>    1.7689    1.0000 </r>
       <r>    1.7689    1.0000 </r>
       <r>    3.8201    1.0000 </r>
       <r>    3.8202    1.0000 </r>
       <r>   10.7671    0.0000 </r>
       <r>   10.7671    0.0000 </r>
       <r>   12.9030    0.0000 </r>
       <r>   24.1742    0.0000 </r>
       <r>   29.5102    0.0000 </r>
       <r>   29.5103    0.0000 </r>
       <r>   35.8999    0.0000 </r>
      </set>
      <set comment="kpoint 23">
       <r>    0.8305    1.0000 </r>
       <r>    1.7085    1.0000 </r>
       <r>    1.7085    1.0000 </r>
       <r>    3.6150    1.0000 </r>
       <r>    3.6150    1.0000 </r>
       <r>    5.4320   -0.0000 </r>
       <r>   17.8002    0.0000 </r>
       <r>   17.8002    0.0000 </r>
       <r>   18.8838    0.0000 </r>
       <r>   33.1387    0.0000 </r>
       <r>   36.3873    0.0000 </r>
       <r>   36.3873    0.0000 </r>
      </set>
      <set comment="kpoint 24">
       <r>    1.2565    1.0000 </r>
       <r>    1.5723    1.0000 </r>
       <r>    2.0937    1.0000 </r>
       <r>    3.6567    1.0000 </r>
       <r>    3.6998    1.0000 </r>
       <r>    7.2335   -0.0000 </r>
       <r>   13.9972    0.0000 </r>
       <r>   16.8161    0.0000 </r>
       <r>   17.4111    0.0000 </r>
       <r>   33.9749    0.0000 </r>
       <r>   37.1689    0.0000 </r>
       <r>   38.6118    0.0000 </r>
      </set>
      <set comment="kpoint 25">
       <r>    1.1874    1.0000 </r>
       <r>    1.5292    1.0000 </r>
       <r>    2.4831    1.0000 </r>
       <r>    3.6851    1.0000 </r>
       <r>    3.7201    1.0000 </r>
       <r>    9.0121   -0.0000 </r>
       <r>   11.4183    0.0000 </r>
       <r>   16.4782    0.0000 </r>
       <r>   16.9882    0.0000 </r>
       <r>   33.9319    0.0000 </r>
       <r>   37.5634    0.0000 </r>
       <r>   38.7868    0.0000 </r>
      </set>
      <set comment="kpoint 26">
       <r>   -1.4840    1.0000 </r>
       <r>    2.5329    1.0000 </r>
       <r>    2.5330    1.0000 </r>
       <r>    2.8723    1.0000 </r>
       <r>    2.9276    1.0000 </r>
       <r>    3.8166    1.0000 </r>
       <r>   23.6087    0.0000 </r>
       <r>   24.6656    0.0000 </r>
       <r>   24.6656    0.0000 </r>
       <r>   26.2510    0.0000 </r>
       <r>   32.7241    0.0000 </r>
       <r>   32.7241    0.0000 </r>
      </set>
      <set comment="kpoint 27">
       <r>    1.4333    1.0000 </r>
       <r>    1.6973    1.0000 </r>
       <r>    2.0134    1.0000 </r>
       <r>    3.7102    1.0000 </r>
       <r>    3.7287    1.0000 </r>
       <r>    9.7048   -0.0000 </r>
       <r>   12.8367    0.0000 </r>
       <r>   13.7307    0.0000 </r>
       <r>   16.4776    0.0000 </r>
       <r>   36.3788    0.0000 </r>
       <r>   37.9733    0.0000 </r>
       <r>   41.0753    0.0000 </r>
      </set>
      <set comment="kpoint 28">
       <r>   -0.3400    1.0000 </r>
       <r>    2.3161    1.0000 </r>
       <r>    2.4110    1.0000 </r>
       <r>    2.9275    1.0000 </r>
       <r>    3.4092    1.0000 </r>
       <r>    4.0475    1.0001 </r>
       <r>   19.7899    0.0000 </r>
       <r>   22.5644    0.0000 </r>
       <r>   23.1010    0.0000 </r>
       <r>   26.2686    0.0000 </r>
       <r>   32.1164    0.0000 </r>
       <r>   33.3503    0.0000 </r>
      </set>
      <set comment="kpoint 29">
       <r>    0.5669    1.0000 </r>
       <r>    2.1122    1.0000 </r>
       <r>    2.2039    1.0000 </r>
       <r>    3.2446    1.0000 </r>
       <r>    4.1015    1.0003 </r>
       <r>    4.8648   -0.0266 </r>
       <r>   15.4118    0.0000 </r>
       <r>   20.8670    0.0000 </r>
       <r>   21.9581    0.0000 </r>
       <r>   27.8238    0.0000 </r>
       <r>   31.0795    0.0000 </r>
       <r>   33.1529    0.0000 </r>
      </set>
      <set comment="kpoint 30">
       <r>    0.5998    1.0000 </r>
       <r>    1.8835    1.0000 </r>
       <r>    2.5237    1.0000 </r>
       <r>    3.0424    1.0000 </r>
       <r>    3.8362    1.0000 </r>
       <r>    4.8358   -0.0058 </r>
       <r>   17.9020    0.0000 </r>
       <r>   18.3660    0.0000 </r>
       <r>   23.9023    0.0000 </r>
       <r>   25.0378    0.0000 </r>
       <r>   31.6469    0.0000 </r>
       <r>   36.6049    0.0000 </r>
      </set>
      <set comment="kpoint 31">
       <r>    0.7166    1.0000 </r>
       <r>    2.0755    1.0000 </r>
       <r>    2.2832    1.0000 </r>
       <r>    3.3043    1.0000 </r>
       <r>    4.5827    0.8075 </r>
       <r>    6.7151   -0.0000 </r>
       <r>   11.8568    0.0000 </r>
       <r>   19.8854    0.0000 </r>
       <r>   21.3329    0.0000 </r>
       <r>   29.8630    0.0000 </r>
       <r>   30.5451    0.0000 </r>
       <r>   32.1590    0.0000 </r>
      </set>
      <set comment="kpoint 32">
       <r>    1.0299    1.0000 </r>
       <r>    1.6898    1.0000 </r>
       <r>    2.3661    1.0000 </r>
       <r>    3.3242    1.0000 </r>
       <r>    4.2360    1.0052 </r>
       <r>    6.7008   -0.0000 </r>
       <r>   13.9722    0.0000 </r>
       <r>   16.9682    0.0000 </r>
       <r>   23.3294    0.0000 </r>
       <r>   26.5390    0.0000 </r>
       <r>   30.6921    0.0000 </r>
       <r>   34.7824    0.0000 </r>
      </set>
      <set comment="kpoint 33">
       <r>    1.0059    1.0000 </r>
       <r>    1.8313    1.0000 </r>
       <r>    2.2066    1.0000 </r>
       <r>    3.4003    1.0000 </r>
       <r>    4.4499    1.0303 </r>
       <r>    8.6016   -0.0000 </r>
       <r>   11.3455    0.0000 </r>
       <r>   16.5232    0.0000 </r>
       <r>   22.9841    0.0000 </r>
       <r>   28.3832    0.0000 </r>
       <r>   29.3994    0.0000 </r>
       <r>   33.4231    0.0000 </r>
      </set>
      <set comment="kpoint 34">
       <r>    1.3902    1.0000 </r>
       <r>    1.4179    1.0000 </r>
       <r>    2.1455    1.0000 </r>
       <r>    3.7370    1.0000 </r>
       <r>    4.1631    1.0012 </r>
       <r>    9.3515   -0.0000 </r>
       <r>   12.6507    0.0000 </r>
       <r>   13.6596    0.0000 </r>
       <r>   25.3249    0.0000 </r>
       <r>   26.0745    0.0000 </r>
       <r>   28.7091    0.0000 </r>
       <r>   33.3134    0.0000 </r>
      </set>
      <set comment="kpoint 35">
       <r>    1.7291    1.0000 </r>
       <r>    1.7291    1.0000 </r>
       <r>    1.7292    1.0000 </r>
       <r>    3.7290    1.0000 </r>
       <r>    3.7290    1.0000 </r>
       <r>   12.4654    0.0000 </r>
       <r>   12.4654    0.0000 </r>
       <r>   12.4655    0.0000 </r>
       <r>   14.0522    0.0000 </r>
       <r>   41.3786    0.0000 </r>
       <r>   41.3787    0.0000 </r>
       <r>   41.3788    0.0000 </r>
      </set>
      <set comment="kpoint 36">
       <r>    0.4729    1.0000 </r>
       <r>    2.0117    1.0000 </r>
       <r>    2.8562    1.0000 </r>
       <r>    2.8563    1.0000 </r>
       <r>    3.4554    1.0000 </r>
       <r>    4.6525    0.5397 </r>
       <r>   20.2222    0.0000 </r>
       <r>   20.2223    0.0000 </r>
       <r>   21.1488    0.0000 </r>
       <r>   22.9280    0.0000 </r>
       <r>   36.1604    0.0000 </r>
       <r>   36.1605    0.0000 </r>
      </set>
      <set comment="kpoint 37">
       <r>    0.9674    1.0000 </r>
       <r>    1.5456    1.0000 </r>
       <r>    2.8886    1.0000 </r>
       <r>    3.1756    1.0000 </r>
       <r>    4.0162    1.0000 </r>
       <r>    6.0592   -0.0000 </r>
       <r>   16.3371    0.0000 </r>
       <r>   18.4094    0.0000 </r>
       <r>   20.9719    0.0000 </r>
       <r>   23.4995    0.0000 </r>
       <r>   33.6484    0.0000 </r>
       <r>   35.1132    0.0000 </r>
      </set>
      <set comment="kpoint 38">
       <r>    0.9863    1.0000 </r>
       <r>    1.4146    1.0000 </r>
       <r>    2.8186    1.0000 </r>
       <r>    3.3174    1.0000 </r>
       <r>    4.5117    0.9764 </r>
       <r>    8.4470   -0.0000 </r>
       <r>   12.5602    0.0000 </r>
       <r>   17.3638    0.0000 </r>
       <r>   20.6316    0.0000 </r>
       <r>   25.5292    0.0000 </r>
       <r>   30.2433    0.0000 </r>
       <r>   34.4960    0.0000 </r>
      </set>
      <set comment="kpoint 39">
       <r>    1.0670    1.0000 </r>
       <r>    1.1677    1.0000 </r>
       <r>    2.9530    1.0000 </r>
       <r>    3.6177    1.0000 </r>
       <r>    4.2809    1.0107 </r>
       <r>    8.2374   -0.0000 </r>
       <r>   14.8724    0.0000 </r>
       <r>   15.2484    0.0000 </r>
       <r>   21.8158    0.0000 </r>
       <r>   23.1233    0.0000 </r>
       <r>   29.8121    0.0000 </r>
       <r>   35.2379    0.0000 </r>
      </set>
      <set comment="kpoint 40">
       <r>    0.9903    1.0000 </r>
       <r>    1.1152    1.0000 </r>
       <r>    2.9067    1.0000 </r>
       <r>    3.8422    1.0000 </r>
       <r>    4.4103    1.0353 </r>
       <r>   10.6744    0.0000 </r>
       <r>   12.0210    0.0000 </r>
       <r>   14.6110    0.0000 </r>
       <r>   21.9935    0.0000 </r>
       <r>   24.2370    0.0000 </r>
       <r>   27.5668    0.0000 </r>
       <r>   35.0409    0.0000 </r>
      </set>
      <set comment="kpoint 41">
       <r>    0.9202    1.0000 </r>
       <r>    1.0962    1.0000 </r>
       <r>    3.5659    1.0000 </r>
       <r>    3.5660    1.0000 </r>
       <r>    4.0543    1.0001 </r>
       <r>    7.8133   -0.0000 </r>
       <r>   16.4620    0.0000 </r>
       <r>   16.4621    0.0000 </r>
       <r>   19.8067    0.0000 </r>
       <r>   21.3399    0.0000 </r>
       <r>   29.5830    0.0000 </r>
       <r>   38.5438    0.0000 </r>
      </set>
      <set comment="kpoint 42">
       <r>    0.7849    1.0000 </r>
       <r>    0.8299    1.0000 </r>
       <r>    3.7041    1.0000 </r>
       <r>    3.8650    1.0000 </r>
       <r>    4.4430    1.0323 </r>
       <r>   10.3404    0.0000 </r>
       <r>   13.6578    0.0000 </r>
       <r>   15.3226    0.0000 </r>
       <r>   19.9709    0.0000 </r>
       <r>   21.9230    0.0000 </r>
       <r>   26.2687    0.0000 </r>
       <r>   38.5651    0.0000 </r>
      </set>
      <set comment="kpoint 43">
       <r>    0.6826    1.0000 </r>
       <r>    0.6826    1.0000 </r>
       <r>    3.7918    1.0000 </r>
       <r>    4.3591    1.0270 </r>
       <r>    4.3593    1.0271 </r>
       <r>   12.8306    0.0000 </r>
       <r>   12.8308    0.0000 </r>
       <r>   13.5002    0.0000 </r>
       <r>   20.9022    0.0000 </r>
       <r>   20.9023    0.0000 </r>
       <r>   24.5367    0.0000 </r>
       <r>   39.0973    0.0000 </r>
      </set>
      <set comment="kpoint 44">
       <r>    0.5373    1.0000 </r>
       <r>    0.5375    1.0000 </r>
       <r>    4.3372    1.0220 </r>
       <r>    4.3373    1.0220 </r>
       <r>    4.4239    1.0353 </r>
       <r>   12.4604    0.0000 </r>
       <r>   14.0965    0.0000 </r>
       <r>   14.0967    0.0000 </r>
       <r>   19.2411    0.0000 </r>
       <r>   20.0510    0.0000 </r>
       <r>   23.5096    0.0000 </r>
       <r>   41.1341    0.0000 </r>
      </set>
     </set>
     <set comment="spin 2">
      <set comment="kpoint 1">
       <r>   -2.3771    1.0000 </r>
       <r>    4.6444    0.5735 </r>
       <r>    4.6444    0.5735 </r>
       <r>    5.1411   -0.0018 </r>
       <r>    6.4085   -0.0000 </r>
       <r>    6.4085   -0.0000 </r>
       <r>   25.8558    0.0000 </r>
       <r>   25.8558    0.0000 </r>
       <r>   28.6689    0.0000 </r>
       <r>   29.8949    0.0000 </r>
       <r>   33.2594    0.0000 </r>
       <r>   33.2594    0.0000 </r>
      </set>
      <set comment="kpoint 2">
       <r>   -1.3171    1.0000 </r>
       <r>    4.3334    1.0211 </r>
       <r>    4.4527    1.0293 </r>
       <r>    5.7563   -0.0000 </r>
       <r>    6.2583   -0.0000 </r>
       <r>    6.4906   -0.0000 </r>
       <r>   22.0351    0.0000 </r>
       <r>   24.1082    0.0000 </r>
       <r>   26.7251    0.0000 </r>
       <r>   28.9594    0.0000 </r>
       <r>   33.0417    0.0000 </r>
       <r>   33.3333    0.0000 </r>
      </set>
      <set comment="kpoint 3">
       <r>    0.2041    1.0000 </r>
       <r>    3.9877    1.0000 </r>
       <r>    4.2211    1.0039 </r>
       <r>    6.2639   -0.0000 </r>
       <r>    6.5769   -0.0000 </r>
       <r>    6.5823   -0.0000 </r>
       <r>   17.8439    0.0000 </r>
       <r>   22.5013    0.0000 </r>
       <r>   24.4657    0.0000 </r>
       <r>   28.6362    0.0000 </r>
       <r>   32.1453    0.0000 </r>
       <r>   35.1708    0.0000 </r>
      </set>
      <set comment="kpoint 4">
       <r>    1.5160    1.0000 </r>
       <r>    3.7290    1.0000 </r>
       <r>    4.4520    1.0295 </r>
       <r>    6.3609   -0.0000 </r>
       <r>    6.6655   -0.0000 </r>
       <r>    7.4032   -0.0000 </r>
       <r>   14.2270    0.0000 </r>
       <r>   21.3818    0.0000 </r>
       <r>   22.9287    0.0000 </r>
       <r>   28.3264    0.0000 </r>
       <r>   31.8389    0.0000 </r>
       <r>   37.3468    0.0000 </r>
      </set>
      <set comment="kpoint 5">
       <r>    1.8963    1.0000 </r>
       <r>    3.6337    1.0000 </r>
       <r>    4.9542   -0.0293 </r>
       <r>    6.3987   -0.0000 </r>
       <r>    6.6969   -0.0000 </r>
       <r>    7.8606   -0.0000 </r>
       <r>   12.5017    0.0000 </r>
       <r>   20.9789    0.0000 </r>
       <r>   22.3550    0.0000 </r>
       <r>   28.2145    0.0000 </r>
       <r>   31.7873    0.0000 </r>
       <r>   37.2562    0.0000 </r>
      </set>
      <set comment="kpoint 6">
       <r>   -2.7487    1.0000 </r>
       <r>    4.7744    0.0975 </r>
       <r>    4.7746    0.0969 </r>
       <r>    4.8370   -0.0070 </r>
       <r>    6.3751   -0.0000 </r>
       <r>    6.5131   -0.0000 </r>
       <r>   27.0591    0.0000 </r>
       <r>   27.9809    0.0000 </r>
       <r>   27.9809    0.0000 </r>
       <r>   31.3719    0.0000 </r>
       <r>   33.2247    0.0000 </r>
       <r>   33.2248    0.0000 </r>
      </set>
      <set comment="kpoint 7">
       <r>   -0.0382    1.0000 </r>
       <r>    4.0598    1.0001 </r>
       <r>    4.0700    1.0001 </r>
       <r>    6.2616   -0.0000 </r>
       <r>    6.5475   -0.0000 </r>
       <r>    6.6150   -0.0000 </r>
       <r>   19.9698    0.0000 </r>
       <r>   20.6741    0.0000 </r>
       <r>   23.7542    0.0000 </r>
       <r>   30.1812    0.0000 </r>
       <r>   33.9054    0.0000 </r>
       <r>   35.3071    0.0000 </r>
      </set>
      <set comment="kpoint 8">
       <r>    1.4485    1.0000 </r>
       <r>    3.7359    1.0000 </r>
       <r>    3.9144    1.0000 </r>
       <r>    6.3263   -0.0000 </r>
       <r>    6.6642   -0.0000 </r>
       <r>    7.6268   -0.0000 </r>
       <r>   16.2438    0.0000 </r>
       <r>   18.9917    0.0000 </r>
       <r>   22.1048    0.0000 </r>
       <r>   30.4195    0.0000 </r>
       <r>   34.6444    0.0000 </r>
       <r>   35.8892    0.0000 </r>
      </set>
      <set comment="kpoint 9">
       <r>    2.2604    1.0000 </r>
       <r>    3.5919    1.0000 </r>
       <r>    4.2082    1.0031 </r>
       <r>    6.4242   -0.0000 </r>
       <r>    6.7160   -0.0000 </r>
       <r>    8.7695   -0.0000 </r>
       <r>   13.1298    0.0000 </r>
       <r>   18.2114    0.0000 </r>
       <r>   21.2636    0.0000 </r>
       <r>   30.3265    0.0000 </r>
       <r>   35.2681    0.0000 </r>
       <r>   36.1393    0.0000 </r>
      </set>
      <set comment="kpoint 10">
       <r>   -2.0138    1.0000 </r>
       <r>    4.5816    0.8111 </r>
       <r>    4.7122    0.2941 </r>
       <r>    5.2200   -0.0003 </r>
       <r>    6.1406   -0.0000 </r>
       <r>    6.5745   -0.0000 </r>
       <r>   24.1029    0.0000 </r>
       <r>   26.5036    0.0000 </r>
       <r>   27.2250    0.0000 </r>
       <r>   30.6339    0.0000 </r>
       <r>   30.9015    0.0000 </r>
       <r>   31.7427    0.0000 </r>
      </set>
      <set comment="kpoint 11">
       <r>    2.5764    1.0000 </r>
       <r>    3.5036    1.0000 </r>
       <r>    3.7944    1.0000 </r>
       <r>    6.4247   -0.0000 </r>
       <r>    6.6989   -0.0000 </r>
       <r>    9.1468   -0.0000 </r>
       <r>   14.8611    0.0000 </r>
       <r>   15.5012    0.0000 </r>
       <r>   21.1061    0.0000 </r>
       <r>   31.6921    0.0000 </r>
       <r>   34.3877    0.0000 </r>
       <r>   39.9247    0.0000 </r>
      </set>
      <set comment="kpoint 12">
       <r>    2.9221    1.0000 </r>
       <r>    3.5157    1.0000 </r>
       <r>    3.7886    1.0000 </r>
       <r>    6.5169   -0.0000 </r>
       <r>    6.6692   -0.0000 </r>
       <r>   10.7174    0.0000 </r>
       <r>   12.6360    0.0000 </r>
       <r>   14.8921    0.0000 </r>
       <r>   20.7923    0.0000 </r>
       <r>   32.1942    0.0000 </r>
       <r>   34.3574    0.0000 </r>
       <r>   39.7216    0.0000 </r>
      </set>
      <set comment="kpoint 13">
       <r>   -0.6719    1.0000 </r>
       <r>    4.2554    1.0072 </r>
       <r>    4.4793    1.0135 </r>
       <r>    5.9306   -0.0000 </r>
       <r>    6.0581   -0.0000 </r>
       <r>    6.6385   -0.0000 </r>
       <r>   19.9011    0.0000 </r>
       <r>   24.4982    0.0000 </r>
       <r>   25.9106    0.0000 </r>
       <r>   28.9888    0.0000 </r>
       <r>   30.5149    0.0000 </r>
       <r>   32.4127    0.0000 </r>
      </set>
      <set comment="kpoint 14">
       <r>   -0.9813    1.0000 </r>
       <r>    4.4673    1.0220 </r>
       <r>    4.5016    0.9903 </r>
       <r>    5.7313   -0.0000 </r>
       <r>    5.8841   -0.0000 </r>
       <r>    6.6987   -0.0000 </r>
       <r>   21.9538    0.0000 </r>
       <r>   22.9698    0.0000 </r>
       <r>   27.3253    0.0000 </r>
       <r>   28.1230    0.0000 </r>
       <r>   30.6010    0.0000 </r>
       <r>   33.6403    0.0000 </r>
      </set>
      <set comment="kpoint 15">
       <r>    0.8696    1.0000 </r>
       <r>    3.9417    1.0000 </r>
       <r>    4.3705    1.0295 </r>
       <r>    6.1929   -0.0000 </r>
       <r>    6.7223   -0.0000 </r>
       <r>    6.7263   -0.0000 </r>
       <r>   15.8783    0.0000 </r>
       <r>   22.9021    0.0000 </r>
       <r>   24.2530    0.0000 </r>
       <r>   28.0802    0.0000 </r>
       <r>   30.4204    0.0000 </r>
       <r>   34.1632    0.0000 </r>
      </set>
      <set comment="kpoint 16">
       <r>    0.4930    1.0000 </r>
       <r>    4.1125    1.0004 </r>
       <r>    4.2682    1.0088 </r>
       <r>    5.9181   -0.0000 </r>
       <r>    6.4909   -0.0000 </r>
       <r>    6.8650   -0.0000 </r>
       <r>   18.0983    0.0000 </r>
       <r>   20.8930    0.0000 </r>
       <r>   25.6093    0.0000 </r>
       <r>   27.9243    0.0000 </r>
       <r>   31.1201    0.0000 </r>
       <r>   34.1816    0.0000 </r>
      </set>
      <set comment="kpoint 17">
       <r>    1.7410    1.0000 </r>
       <r>    3.7556    1.0000 </r>
       <r>    4.8645   -0.0265 </r>
       <r>    6.2976   -0.0000 </r>
       <r>    6.9423   -0.0000 </r>
       <r>    7.2768   -0.0000 </r>
       <r>   12.9729    0.0000 </r>
       <r>   22.0309    0.0000 </r>
       <r>   23.1422    0.0000 </r>
       <r>   27.7660    0.0000 </r>
       <r>   30.5263    0.0000 </r>
       <r>   35.3847    0.0000 </r>
      </set>
      <set comment="kpoint 18">
       <r>    1.7748    1.0000 </r>
       <r>    3.8870    1.0000 </r>
       <r>    4.2228    1.0040 </r>
       <r>    6.1245   -0.0000 </r>
       <r>    6.8174   -0.0000 </r>
       <r>    7.6475   -0.0000 </r>
       <r>   14.3978    0.0000 </r>
       <r>   19.7278    0.0000 </r>
       <r>   24.0910    0.0000 </r>
       <r>   28.1255    0.0000 </r>
       <r>   32.1828    0.0000 </r>
       <r>   33.9869    0.0000 </r>
      </set>
      <set comment="kpoint 19">
       <r>    1.8372    1.0000 </r>
       <r>    3.7206    1.0000 </r>
       <r>    4.1714    1.0014 </r>
       <r>    6.0083   -0.0000 </r>
       <r>    6.7049   -0.0000 </r>
       <r>    7.8721   -0.0000 </r>
       <r>   16.5180    0.0000 </r>
       <r>   16.9774    0.0000 </r>
       <r>   25.2082    0.0000 </r>
       <r>   27.7186    0.0000 </r>
       <r>   31.0548    0.0000 </r>
       <r>   38.1908    0.0000 </r>
      </set>
      <set comment="kpoint 20">
       <r>    2.1550    1.0000 </r>
       <r>    3.8344    1.0000 </r>
       <r>    4.4081    1.0352 </r>
       <r>    6.1857   -0.0000 </r>
       <r>    6.9886   -0.0000 </r>
       <r>    8.3565   -0.0000 </r>
       <r>   12.5250    0.0000 </r>
       <r>   19.2971    0.0000 </r>
       <r>   23.5528    0.0000 </r>
       <r>   28.1897    0.0000 </r>
       <r>   33.2476    0.0000 </r>
       <r>   33.4285    0.0000 </r>
      </set>
      <set comment="kpoint 21">
       <r>    2.6825    1.0000 </r>
       <r>    3.6472    1.0000 </r>
       <r>    3.9773    1.0000 </r>
       <r>    6.2123   -0.0000 </r>
       <r>    6.7467   -0.0000 </r>
       <r>    9.4865   -0.0000 </r>
       <r>   13.3526    0.0000 </r>
       <r>   15.9815    0.0000 </r>
       <r>   24.5767    0.0000 </r>
       <r>   28.3407    0.0000 </r>
       <r>   31.1931    0.0000 </r>
       <r>   37.3720    0.0000 </r>
      </set>
      <set comment="kpoint 22">
       <r>    3.3611    1.0000 </r>
       <r>    3.5292    1.0000 </r>
       <r>    3.5293    1.0000 </r>
       <r>    6.5033   -0.0000 </r>
       <r>    6.5035   -0.0000 </r>
       <r>   11.9245    0.0000 </r>
       <r>   11.9247    0.0000 </r>
       <r>   13.9274    0.0000 </r>
       <r>   24.7082    0.0000 </r>
       <r>   29.6436    0.0000 </r>
       <r>   29.6438    0.0000 </r>
       <r>   36.8689    0.0000 </r>
      </set>
      <set comment="kpoint 23">
       <r>    1.3283    1.0000 </r>
       <r>    3.7105    1.0000 </r>
       <r>    3.7105    1.0000 </r>
       <r>    6.5294   -0.0000 </r>
       <r>    6.5294   -0.0000 </r>
       <r>    7.6616   -0.0000 </r>
       <r>   18.4389    0.0000 </r>
       <r>   18.4389    0.0000 </r>
       <r>   19.6758    0.0000 </r>
       <r>   32.8039    0.0000 </r>
       <r>   36.6306    0.0000 </r>
       <r>   36.6306    0.0000 </r>
      </set>
      <set comment="kpoint 24">
       <r>    2.5252    1.0000 </r>
       <r>    3.5024    1.0000 </r>
       <r>    3.6352    1.0000 </r>
       <r>    6.5635   -0.0000 </r>
       <r>    6.6740   -0.0000 </r>
       <r>    9.0182   -0.0000 </r>
       <r>   14.9255    0.0000 </r>
       <r>   17.4765    0.0000 </r>
       <r>   18.1330    0.0000 </r>
       <r>   33.8324    0.0000 </r>
       <r>   37.4665    0.0000 </r>
       <r>   38.6500    0.0000 </r>
      </set>
      <set comment="kpoint 25">
       <r>    2.7779    1.0000 </r>
       <r>    3.4343    1.0000 </r>
       <r>    3.9194    1.0000 </r>
       <r>    6.5905   -0.0000 </r>
       <r>    6.7158   -0.0000 </r>
       <r>   10.2739    0.0000 </r>
       <r>   12.7006    0.0000 </r>
       <r>   17.1435    0.0000 </r>
       <r>   17.6929    0.0000 </r>
       <r>   33.8745    0.0000 </r>
       <r>   38.0250    0.0000 </r>
       <r>   38.7909    0.0000 </r>
      </set>
      <set comment="kpoint 26">
       <r>   -1.3111    1.0000 </r>
       <r>    4.7873    0.0680 </r>
       <r>    4.7876    0.0675 </r>
       <r>    5.2436   -0.0002 </r>
       <r>    5.6212   -0.0000 </r>
       <r>    6.7666   -0.0000 </r>
       <r>   23.7418    0.0000 </r>
       <r>   25.2238    0.0000 </r>
       <r>   25.2238    0.0000 </r>
       <r>   26.6798    0.0000 </r>
       <r>   33.0256    0.0000 </r>
       <r>   33.0256    0.0000 </r>
      </set>
      <set comment="kpoint 27">
       <r>    3.1535    1.0000 </r>
       <r>    3.4252    1.0000 </r>
       <r>    3.5546    1.0000 </r>
       <r>    6.6622   -0.0000 </r>
       <r>    6.7086   -0.0000 </r>
       <r>   11.0022    0.0000 </r>
       <r>   13.8081    0.0000 </r>
       <r>   14.6235    0.0000 </r>
       <r>   17.1818    0.0000 </r>
       <r>   36.2504    0.0000 </r>
       <r>   37.9600    0.0000 </r>
       <r>   41.2658    0.0000 </r>
      </set>
      <set comment="kpoint 28">
       <r>   -0.0431    1.0000 </r>
       <r>    4.5701    0.8465 </r>
       <r>    4.6278    0.6417 </r>
       <r>    5.4251   -0.0000 </r>
       <r>    5.8450   -0.0000 </r>
       <r>    6.9036   -0.0000 </r>
       <r>   20.4349    0.0000 </r>
       <r>   23.2362    0.0000 </r>
       <r>   23.4114    0.0000 </r>
       <r>   26.7084    0.0000 </r>
       <r>   32.5473    0.0000 </r>
       <r>   33.6721    0.0000 </r>
      </set>
      <set comment="kpoint 29">
       <r>    1.3941    1.0000 </r>
       <r>    4.1008    1.0003 </r>
       <r>    4.3714    1.0297 </r>
       <r>    5.7458   -0.0000 </r>
       <r>    6.6483   -0.0000 </r>
       <r>    7.2239   -0.0000 </r>
       <r>   16.3295    0.0000 </r>
       <r>   21.5450    0.0000 </r>
       <r>   22.2751    0.0000 </r>
       <r>   28.1968    0.0000 </r>
       <r>   31.5667    0.0000 </r>
       <r>   33.5541    0.0000 </r>
      </set>
      <set comment="kpoint 30">
       <r>    1.2456    1.0000 </r>
       <r>    4.0926    1.0002 </r>
       <r>    4.6824    0.4135 </r>
       <r>    5.4707   -0.0000 </r>
       <r>    6.3884   -0.0000 </r>
       <r>    7.2556   -0.0000 </r>
       <r>   18.6643    0.0000 </r>
       <r>   19.0696    0.0000 </r>
       <r>   24.2859    0.0000 </r>
       <r>   25.4926    0.0000 </r>
       <r>   32.1000    0.0000 </r>
       <r>   36.9195    0.0000 </r>
      </set>
      <set comment="kpoint 31">
       <r>    2.2282    1.0000 </r>
       <r>    4.0259    1.0000 </r>
       <r>    4.2122    1.0033 </r>
       <r>    5.8852   -0.0000 </r>
       <r>    7.2238   -0.0000 </r>
       <r>    8.1927   -0.0000 </r>
       <r>   13.1449    0.0000 </r>
       <r>   20.5228    0.0000 </r>
       <r>   21.6527    0.0000 </r>
       <r>   30.1133    0.0000 </r>
       <r>   31.0553    0.0000 </r>
       <r>   32.6263    0.0000 </r>
      </set>
      <set comment="kpoint 32">
       <r>    2.3645    1.0000 </r>
       <r>    3.6545    1.0000 </r>
       <r>    4.4970    0.9960 </r>
       <r>    5.8055   -0.0000 </r>
       <r>    6.8342   -0.0000 </r>
       <r>    8.4233   -0.0000 </r>
       <r>   14.9536    0.0000 </r>
       <r>   17.6930    0.0000 </r>
       <r>   23.7233    0.0000 </r>
       <r>   26.9060    0.0000 </r>
       <r>   31.1454    0.0000 </r>
       <r>   35.4910    0.0000 </r>
      </set>
      <set comment="kpoint 33">
       <r>    2.7398    1.0000 </r>
       <r>    3.6116    1.0000 </r>
       <r>    4.3297    1.0203 </r>
       <r>    5.9047   -0.0000 </r>
       <r>    7.0650   -0.0000 </r>
       <r>    9.7909   -0.0000 </r>
       <r>   12.6478    0.0000 </r>
       <r>   17.2311    0.0000 </r>
       <r>   23.3763    0.0000 </r>
       <r>   28.5638    0.0000 </r>
       <r>   29.9664    0.0000 </r>
       <r>   34.2275    0.0000 </r>
      </set>
      <set comment="kpoint 34">
       <r>    3.1249    1.0000 </r>
       <r>    3.3298    1.0000 </r>
       <r>    4.1915    1.0022 </r>
       <r>    6.2513   -0.0000 </r>
       <r>    6.7416   -0.0000 </r>
       <r>   10.6145    0.0000 </r>
       <r>   13.6690    0.0000 </r>
       <r>   14.5509    0.0000 </r>
       <r>   25.6292    0.0000 </r>
       <r>   26.4426    0.0000 </r>
       <r>   29.2106    0.0000 </r>
       <r>   34.1438    0.0000 </r>
      </set>
      <set comment="kpoint 35">
       <r>    3.4131    1.0000 </r>
       <r>    3.4131    1.0000 </r>
       <r>    3.4133    1.0000 </r>
       <r>    6.7288   -0.0000 </r>
       <r>    6.7288   -0.0000 </r>
       <r>   13.4481    0.0000 </r>
       <r>   13.4481    0.0000 </r>
       <r>   13.4484    0.0000 </r>
       <r>   14.8782    0.0000 </r>
       <r>   41.0653    0.0000 </r>
       <r>   41.0653    0.0000 </r>
       <r>   41.0654    0.0000 </r>
      </set>
      <set comment="kpoint 36">
       <r>    1.0246    1.0000 </r>
       <r>    4.4053    1.0350 </r>
       <r>    5.0935   -0.0046 </r>
       <r>    5.0938   -0.0046 </r>
       <r>    5.9162   -0.0000 </r>
       <r>    7.1919   -0.0000 </r>
       <r>   20.9195    0.0000 </r>
       <r>   20.9195    0.0000 </r>
       <r>   21.6310    0.0000 </r>
       <r>   23.3967    0.0000 </r>
       <r>   36.4612    0.0000 </r>
       <r>   36.4613    0.0000 </r>
      </set>
      <set comment="kpoint 37">
       <r>    2.1035    1.0000 </r>
       <r>    3.7314    1.0000 </r>
       <r>    5.1336   -0.0021 </r>
       <r>    5.4997   -0.0000 </r>
       <r>    6.5505   -0.0000 </r>
       <r>    7.9158   -0.0000 </r>
       <r>   17.1358    0.0000 </r>
       <r>   19.0717    0.0000 </r>
       <r>   21.5292    0.0000 </r>
       <r>   23.9910    0.0000 </r>
       <r>   34.3259    0.0000 </r>
       <r>   35.5713    0.0000 </r>
      </set>
      <set comment="kpoint 38">
       <r>    2.7380    1.0000 </r>
       <r>    3.3130    1.0000 </r>
       <r>    5.0538   -0.0091 </r>
       <r>    5.6748   -0.0000 </r>
       <r>    7.1404   -0.0000 </r>
       <r>    9.6623   -0.0000 </r>
       <r>   13.6027    0.0000 </r>
       <r>   17.9648    0.0000 </r>
       <r>   21.2268    0.0000 </r>
       <r>   25.8851    0.0000 </r>
       <r>   31.0709    0.0000 </r>
       <r>   34.9595    0.0000 </r>
      </set>
      <set comment="kpoint 39">
       <r>    2.6923    1.0000 </r>
       <r>    3.2439    1.0000 </r>
       <r>    5.1796   -0.0008 </r>
       <r>    6.0049   -0.0000 </r>
       <r>    6.8549   -0.0000 </r>
       <r>    9.5197   -0.0000 </r>
       <r>   15.6849    0.0000 </r>
       <r>   15.9611    0.0000 </r>
       <r>   22.3524    0.0000 </r>
       <r>   23.6502    0.0000 </r>
       <r>   30.6004    0.0000 </r>
       <r>   35.7070    0.0000 </r>
      </set>
      <set comment="kpoint 40">
       <r>    2.9391    1.0000 </r>
       <r>    3.0056    1.0000 </r>
       <r>    5.0909   -0.0049 </r>
       <r>    6.2827   -0.0000 </r>
       <r>    7.0031   -0.0000 </r>
       <r>   11.6112    0.0000 </r>
       <r>   13.0119    0.0000 </r>
       <r>   15.3221    0.0000 </r>
       <r>   22.5300    0.0000 </r>
       <r>   24.6106    0.0000 </r>
       <r>   28.5295    0.0000 </r>
       <r>   35.5131    0.0000 </r>
      </set>
      <set comment="kpoint 41">
       <r>    2.5124    1.0000 </r>
       <r>    3.2270    1.0000 </r>
       <r>    5.9018   -0.0000 </r>
       <r>    5.9021   -0.0000 </r>
       <r>    6.6103   -0.0000 </r>
       <r>    9.0755   -0.0000 </r>
       <r>   17.0532    0.0000 </r>
       <r>   17.0534    0.0000 </r>
       <r>   20.5763    0.0000 </r>
       <r>   21.9967    0.0000 </r>
       <r>   30.3716    0.0000 </r>
       <r>   38.9563    0.0000 </r>
      </set>
      <set comment="kpoint 42">
       <r>    2.6646    1.0000 </r>
       <r>    2.8350    1.0000 </r>
       <r>    6.0996   -0.0000 </r>
       <r>    6.2604   -0.0000 </r>
       <r>    7.0603   -0.0000 </r>
       <r>   11.2011    0.0000 </r>
       <r>   14.3401    0.0000 </r>
       <r>   15.8164    0.0000 </r>
       <r>   20.7497    0.0000 </r>
       <r>   22.5197    0.0000 </r>
       <r>   27.2242    0.0000 </r>
       <r>   38.9516    0.0000 </r>
      </set>
      <set comment="kpoint 43">
       <r>    2.6449    1.0000 </r>
       <r>    2.6449    1.0000 </r>
       <r>    6.1829   -0.0000 </r>
       <r>    6.9329   -0.0000 </r>
       <r>    6.9334   -0.0000 </r>
       <r>   13.4465    0.0000 </r>
       <r>   13.4467    0.0000 </r>
       <r>   14.0683    0.0000 </r>
       <r>   21.5641    0.0000 </r>
       <r>   21.5641    0.0000 </r>
       <r>   25.6350    0.0000 </r>
       <r>   39.4680    0.0000 </r>
      </set>
      <set comment="kpoint 44">
       <r>    2.4836    1.0000 </r>
       <r>    2.5259    1.0000 </r>
       <r>    6.9038   -0.0000 </r>
       <r>    6.9042   -0.0000 </r>
       <r>    7.0426   -0.0000 </r>
       <r>   12.9583    0.0000 </r>
       <r>   14.4419    0.0000 </r>
       <r>   14.4421    0.0000 </r>
       <r>   20.1651    0.0000 </r>
       <r>   20.8509    0.0000 </r>
       <r>   24.6317    0.0000 </r>
       <r>   41.4134    0.0000 </r>
      </set>
     </set>
    </set>
   </array>
  </eigenvalues>
  <separator name="orbital magnetization" >
   <v name="MAGDIPOLOUT">      0.00000000      0.00000000      0.00000000</v>
  </separator>
  <dos>
   <i name="efermi">      4.66185067 </i>
   <total>
    <array>
     <dimension dim="1">gridpoints</dimension>
     <dimension dim="2">spin</dimension>
     <field>energy</field>
     <field>total</field>
     <field>integrated</field>
     <set>
      <set comment="spin 1">
       <r>    -5.1070     0.0000     0.0000 </r>
       <r>    -4.9445     0.0000     0.0000 </r>
       <r>    -4.7821     0.0000     0.0000 </r>
       <r>    -4.6196    -0.0000    -0.0000 </r>
       <r>    -4.4572    -0.0000    -0.0000 </r>
       <r>    -4.2947    -0.0000    -0.0000 </r>
       <r>    -4.1323    -0.0000    -0.0000 </r>
       <r>    -3.9698    -0.0000    -0.0000 </r>
       <r>    -3.8074    -0.0000    -0.0000 </r>
       <r>    -3.6449    -0.0000    -0.0000 </r>
       <r>    -3.4825    -0.0000    -0.0000 </r>
       <r>    -3.3200    -0.0002    -0.0000 </r>
       <r>    -3.1575    -0.0011    -0.0002 </r>
       <r>    -2.9951     0.0056     0.0007 </r>
       <r>    -2.8326     0.0217     0.0042 </r>
       <r>    -2.6702     0.0134     0.0064 </r>
       <r>    -2.5077     0.0231     0.0101 </r>
       <r>    -2.3453     0.0227     0.0138 </r>
       <r>    -2.1828     0.0656     0.0245 </r>
       <r>    -2.0204     0.0787     0.0373 </r>
       <r>    -1.8579     0.0059     0.0382 </r>
       <r>    -1.6955    -0.0061     0.0372 </r>
       <r>    -1.5330     0.0633     0.0475 </r>
       <r>    -1.3706     0.1082     0.0651 </r>
       <r>    -1.2081     0.0741     0.0771 </r>
       <r>    -1.0457     0.0915     0.0920 </r>
       <r>    -0.8832     0.0959     0.1076 </r>
       <r>    -0.7208     0.0524     0.1161 </r>
       <r>    -0.5583    -0.0104     0.1144 </r>
       <r>    -0.3959     0.0749     0.1266 </r>
       <r>    -0.2334     0.2296     0.1639 </r>
       <r>    -0.0710     0.1689     0.1913 </r>
       <r>     0.0915     0.2244     0.2278 </r>
       <r>     0.2539     0.2063     0.2613 </r>
       <r>     0.4164     0.2292     0.2985 </r>
       <r>     0.5789     0.5785     0.3925 </r>
       <r>     0.7413     0.9043     0.5394 </r>
       <r>     0.9038     0.8243     0.6733 </r>
       <r>     1.0662     0.9997     0.8357 </r>
       <r>     1.2287     0.9312     0.9870 </r>
       <r>     1.3911     0.5081     1.0695 </r>
       <r>     1.5536     0.7492     1.1912 </r>
       <r>     1.7160     1.6109     1.4529 </r>
       <r>     1.8785     1.5897     1.7112 </r>
       <r>     2.0409     1.0758     1.8859 </r>
       <r>     2.2034     1.6542     2.1547 </r>
       <r>     2.3658     1.9254     2.4675 </r>
       <r>     2.5283     1.0608     2.6398 </r>
       <r>     2.6907     0.4369     2.7108 </r>
       <r>     2.8532     0.7547     2.8334 </r>
       <r>     3.0156     0.8012     2.9635 </r>
       <r>     3.1781     0.4979     3.0444 </r>
       <r>     3.3405     1.4110     3.2736 </r>
       <r>     3.5030     2.2457     3.6384 </r>
       <r>     3.6654     2.7057     4.0780 </r>
       <r>     3.8279     2.4980     4.4838 </r>
       <r>     3.9903     1.3139     4.6972 </r>
       <r>     4.1528     1.0534     4.8684 </r>
       <r>     4.3153     1.1234     5.0509 </r>
       <r>     4.4777     0.7795     5.1775 </r>
       <r>     4.6402     0.4330     5.2478 </r>
       <r>     4.8026     0.2165     5.2830 </r>
       <r>     4.9651     0.1581     5.3087 </r>
       <r>     5.1275     0.1044     5.3256 </r>
       <r>     5.2900     0.1918     5.3568 </r>
       <r>     5.4524     0.2553     5.3983 </r>
       <r>     5.6149     0.2973     5.4466 </r>
       <r>     5.7773     0.1935     5.4780 </r>
       <r>     5.9398     0.0867     5.4921 </r>
       <r>     6.1022     0.1061     5.5093 </r>
       <r>     6.2647     0.0929     5.5244 </r>
       <r>     6.4271    -0.0002     5.5244 </r>
       <r>     6.5896     0.0470     5.5320 </r>
       <r>     6.7520     0.2668     5.5754 </r>
       <r>     6.9145     0.2105     5.6096 </r>
       <r>     7.0769     0.1433     5.6328 </r>
       <r>     7.2394     0.2598     5.6750 </r>
       <r>     7.4018     0.1841     5.7049 </r>
       <r>     7.5643     0.0753     5.7172 </r>
       <r>     7.7267     0.0056     5.7181 </r>
       <r>     7.8892     0.0631     5.7283 </r>
       <r>     8.0517     0.1899     5.7592 </r>
       <r>     8.2141     0.1419     5.7822 </r>
       <r>     8.3766     0.1094     5.8000 </r>
       <r>     8.5390     0.1414     5.8230 </r>
       <r>     8.7015     0.1140     5.8415 </r>
       <r>     8.8639     0.0233     5.8453 </r>
       <r>     9.0264     0.0308     5.8503 </r>
       <r>     9.1888     0.0325     5.8555 </r>
       <r>     9.3513     0.0845     5.8693 </r>
       <r>     9.5137     0.1564     5.8947 </r>
       <r>     9.6762     0.1201     5.9142 </r>
       <r>     9.8386     0.0796     5.9271 </r>
       <r>    10.0011     0.0069     5.9283 </r>
       <r>    10.1635    -0.0026     5.9278 </r>
       <r>    10.3260     0.0630     5.9381 </r>
       <r>    10.4884     0.0761     5.9504 </r>
       <r>    10.6509     0.0787     5.9632 </r>
       <r>    10.8133     0.1360     5.9853 </r>
       <r>    10.9758     0.1119     6.0035 </r>
       <r>    11.1382     0.1146     6.0221 </r>
       <r>    11.3007     0.1072     6.0395 </r>
       <r>    11.4631     0.2368     6.0780 </r>
       <r>    11.6256     0.1652     6.1048 </r>
       <r>    11.7881     0.1362     6.1270 </r>
       <r>    11.9505     0.3011     6.1759 </r>
       <r>    12.1130     0.2451     6.2157 </r>
       <r>    12.2754     0.1948     6.2473 </r>
       <r>    12.4379     0.0982     6.2633 </r>
       <r>    12.6003     0.1594     6.2892 </r>
       <r>    12.7628     0.2083     6.3230 </r>
       <r>    12.9252     0.2001     6.3555 </r>
       <r>    13.0877     0.1346     6.3774 </r>
       <r>    13.2501     0.1610     6.4036 </r>
       <r>    13.4126     0.1734     6.4317 </r>
       <r>    13.5750     0.1233     6.4518 </r>
       <r>    13.7375     0.2474     6.4920 </r>
       <r>    13.8999     0.3105     6.5424 </r>
       <r>    14.0624     0.4757     6.6197 </r>
       <r>    14.2248     0.2037     6.6528 </r>
       <r>    14.3873    -0.0191     6.6497 </r>
       <r>    14.5497     0.0496     6.6577 </r>
       <r>    14.7122     0.1847     6.6877 </r>
       <r>    14.8746     0.1946     6.7193 </r>
       <r>    15.0371     0.1500     6.7437 </r>
       <r>    15.1995     0.2379     6.7823 </r>
       <r>    15.3620     0.4859     6.8613 </r>
       <r>    15.5245     0.3301     6.9149 </r>
       <r>    15.6869     0.1058     6.9321 </r>
       <r>    15.8494     0.0390     6.9384 </r>
       <r>    16.0118    -0.0078     6.9371 </r>
       <r>    16.1743     0.0498     6.9452 </r>
       <r>    16.3367     0.1791     6.9743 </r>
       <r>    16.4992     0.3088     7.0245 </r>
       <r>    16.6616     0.2005     7.0571 </r>
       <r>    16.8241     0.0985     7.0731 </r>
       <r>    16.9865     0.2919     7.1205 </r>
       <r>    17.1490     0.2561     7.1621 </r>
       <r>    17.3114     0.2271     7.1990 </r>
       <r>    17.4739     0.3498     7.2558 </r>
       <r>    17.6363     0.2443     7.2955 </r>
       <r>    17.7988     0.1658     7.3224 </r>
       <r>    17.9612     0.1309     7.3437 </r>
       <r>    18.1237     0.0258     7.3479 </r>
       <r>    18.2861     0.1038     7.3647 </r>
       <r>    18.4486     0.3598     7.4232 </r>
       <r>    18.6110     0.1681     7.4505 </r>
       <r>    18.7735     0.0756     7.4628 </r>
       <r>    18.9359     0.0682     7.4739 </r>
       <r>    19.0984     0.1085     7.4915 </r>
       <r>    19.2609     0.2945     7.5393 </r>
       <r>    19.4233     0.2063     7.5728 </r>
       <r>    19.5858     0.0409     7.5795 </r>
       <r>    19.7482     0.0610     7.5894 </r>
       <r>    19.9107     0.2321     7.6271 </r>
       <r>    20.0731     0.2692     7.6708 </r>
       <r>    20.2356     0.2823     7.7167 </r>
       <r>    20.3980     0.2786     7.7619 </r>
       <r>    20.5605     0.1967     7.7939 </r>
       <r>    20.7229     0.3211     7.8461 </r>
       <r>    20.8854     0.3560     7.9039 </r>
       <r>    21.0478     0.2388     7.9427 </r>
       <r>    21.2103     0.1516     7.9673 </r>
       <r>    21.3727     0.1845     7.9973 </r>
       <r>    21.5352     0.3644     8.0565 </r>
       <r>    21.6976     0.2994     8.1051 </r>
       <r>    21.8601     0.2226     8.1413 </r>
       <r>    22.0225     0.3872     8.2042 </r>
       <r>    22.1850     0.2560     8.2458 </r>
       <r>    22.3474     0.2084     8.2796 </r>
       <r>    22.5099     0.2505     8.3203 </r>
       <r>    22.6723     0.1793     8.3494 </r>
       <r>    22.8348     0.0903     8.3641 </r>
       <r>    22.9973     0.2248     8.4006 </r>
       <r>    23.1597     0.3868     8.4635 </r>
       <r>    23.3222     0.3562     8.5213 </r>
       <r>    23.4846     0.2702     8.5652 </r>
       <r>    23.6471     0.3045     8.6147 </r>
       <r>    23.8095     0.4547     8.6886 </r>
       <r>    23.9720     0.3668     8.7481 </r>
       <r>    24.1344     0.2504     8.7888 </r>
       <r>    24.2969     0.2512     8.8296 </r>
       <r>    24.4593     0.1433     8.8529 </r>
       <r>    24.6218     0.1157     8.8717 </r>
       <r>    24.7842     0.1337     8.8934 </r>
       <r>    24.9467     0.0685     8.9045 </r>
       <r>    25.1091     0.1393     8.9272 </r>
       <r>    25.2716     0.3249     8.9800 </r>
       <r>    25.4340     0.2678     9.0235 </r>
       <r>    25.5965     0.1103     9.0414 </r>
       <r>    25.7589     0.0832     9.0549 </r>
       <r>    25.9214     0.1348     9.0768 </r>
       <r>    26.0838     0.1353     9.0988 </r>
       <r>    26.2463     0.1966     9.1307 </r>
       <r>    26.4087     0.2570     9.1725 </r>
       <r>    26.5712     0.2769     9.2174 </r>
       <r>    26.7337     0.1202     9.2370 </r>
       <r>    26.8961     0.0190     9.2400 </r>
       <r>    27.0586     0.1123     9.2583 </r>
       <r>    27.2210     0.1890     9.2890 </r>
       <r>    27.3835     0.1374     9.3113 </r>
       <r>    27.5459     0.4223     9.3799 </r>
       <r>    27.7084     0.7254     9.4978 </r>
       <r>    27.8708     0.3512     9.5548 </r>
       <r>    28.0333     0.2342     9.5929 </r>
       <r>    28.1957     0.2826     9.6388 </r>
       <r>    28.3582     0.1489     9.6630 </r>
       <r>    28.5206     0.2305     9.7004 </r>
       <r>    28.6831     0.1946     9.7320 </r>
       <r>    28.8455     0.0862     9.7460 </r>
       <r>    29.0080     0.0814     9.7592 </r>
       <r>    29.1704     0.1205     9.7788 </r>
       <r>    29.3329     0.0828     9.7923 </r>
       <r>    29.4953     0.1305     9.8135 </r>
       <r>    29.6578     0.0949     9.8289 </r>
       <r>    29.8202     0.2170     9.8641 </r>
       <r>    29.9827     0.3816     9.9261 </r>
       <r>    30.1451     0.3614     9.9848 </r>
       <r>    30.3076     0.6576    10.0916 </r>
       <r>    30.4701     0.4527    10.1652 </r>
       <r>    30.6325     0.3278    10.2184 </r>
       <r>    30.7950     0.4541    10.2922 </r>
       <r>    30.9574     0.2279    10.3292 </r>
       <r>    31.1199     0.3209    10.3813 </r>
       <r>    31.2823     0.3135    10.4323 </r>
       <r>    31.4448     0.1270    10.4529 </r>
       <r>    31.6072     0.1652    10.4797 </r>
       <r>    31.7697     0.2593    10.5219 </r>
       <r>    31.9321     0.2123    10.5564 </r>
       <r>    32.0946     0.2655    10.5995 </r>
       <r>    32.2570     0.3723    10.6600 </r>
       <r>    32.4195     0.2029    10.6929 </r>
       <r>    32.5819     0.0596    10.7026 </r>
       <r>    32.7444     0.0463    10.7101 </r>
       <r>    32.9068     0.1563    10.7355 </r>
       <r>    33.0693     0.2287    10.7727 </r>
       <r>    33.2317     0.3665    10.8322 </r>
       <r>    33.3942     0.4258    10.9014 </r>
       <r>    33.5566     0.3915    10.9650 </r>
       <r>    33.7191     0.3891    11.0282 </r>
       <r>    33.8815     0.3379    11.0831 </r>
       <r>    34.0440     0.2593    11.1252 </r>
       <r>    34.2065     0.1756    11.1538 </r>
       <r>    34.3689     0.3345    11.2081 </r>
       <r>    34.5314     0.2219    11.2441 </r>
       <r>    34.6938     0.1386    11.2666 </r>
       <r>    34.8563     0.4435    11.3387 </r>
       <r>    35.0187     0.4188    11.4067 </r>
       <r>    35.1812     0.2556    11.4482 </r>
       <r>    35.3436     0.2232    11.4845 </r>
       <r>    35.5061     0.2296    11.5218 </r>
       <r>    35.6685     0.1241    11.5420 </r>
       <r>    35.8310     0.0068    11.5431 </r>
       <r>    35.9934     0.1223    11.5629 </r>
       <r>    36.1559     0.2155    11.5979 </r>
       <r>    36.3183     0.1303    11.6191 </r>
       <r>    36.4808     0.1887    11.6497 </r>
       <r>    36.6432     0.2965    11.6979 </r>
       <r>    36.8057     0.1576    11.7235 </r>
       <r>    36.9681    -0.0126    11.7215 </r>
       <r>    37.1306     0.0628    11.7317 </r>
       <r>    37.2930     0.2074    11.7653 </r>
       <r>    37.4555     0.1173    11.7844 </r>
       <r>    37.6179     0.0352    11.7901 </r>
       <r>    37.7804     0.0520    11.7986 </r>
       <r>    37.9429     0.1493    11.8228 </r>
       <r>    38.1053     0.1145    11.8414 </r>
       <r>    38.2678     0.0008    11.8416 </r>
       <r>    38.4302     0.0110    11.8433 </r>
       <r>    38.5927     0.1688    11.8708 </r>
       <r>    38.7551     0.1797    11.9000 </r>
       <r>    38.9176     0.0463    11.9075 </r>
       <r>    39.0800     0.0464    11.9150 </r>
       <r>    39.2425     0.1152    11.9337 </r>
       <r>    39.4049     0.0397    11.9402 </r>
       <r>    39.5674     0.0233    11.9440 </r>
       <r>    39.7298     0.0910    11.9588 </r>
       <r>    39.8923     0.0374    11.9648 </r>
       <r>    40.0547    -0.0039    11.9642 </r>
       <r>    40.2172    -0.0012    11.9640 </r>
       <r>    40.3796    -0.0000    11.9640 </r>
       <r>    40.5421    -0.0001    11.9640 </r>
       <r>    40.7045    -0.0019    11.9637 </r>
       <r>    40.8670    -0.0035    11.9631 </r>
       <r>    41.0294     0.0553    11.9721 </r>
       <r>    41.1919     0.1115    11.9902 </r>
       <r>    41.3543     0.0440    11.9973 </r>
       <r>    41.5168     0.0157    11.9999 </r>
       <r>    41.6793     0.0017    12.0002 </r>
       <r>    41.8417    -0.0009    12.0000 </r>
       <r>    42.0042    -0.0001    12.0000 </r>
       <r>    42.1666    -0.0000    12.0000 </r>
       <r>    42.3291    -0.0000    12.0000 </r>
       <r>    42.4915    -0.0000    12.0000 </r>
       <r>    42.6540    -0.0000    12.0000 </r>
       <r>    42.8164     0.0000    12.0000 </r>
       <r>    42.9789     0.0000    12.0000 </r>
       <r>    43.1413     0.0000    12.0000 </r>
       <r>    43.3038     0.0000    12.0000 </r>
       <r>    43.4662     0.0000    12.0000 </r>
       <r>    43.6287     0.0000    12.0000 </r>
      </set>
      <set comment="spin 2">
       <r>    -5.1070     0.0000     0.0000 </r>
       <r>    -4.9445     0.0000     0.0000 </r>
       <r>    -4.7821     0.0000     0.0000 </r>
       <r>    -4.6196     0.0000     0.0000 </r>
       <r>    -4.4572    -0.0000    -0.0000 </r>
       <r>    -4.2947    -0.0000    -0.0000 </r>
       <r>    -4.1323    -0.0000    -0.0000 </r>
       <r>    -3.9698    -0.0000    -0.0000 </r>
       <r>    -3.8074    -0.0000    -0.0000 </r>
       <r>    -3.6449    -0.0000    -0.0000 </r>
       <r>    -3.4825    -0.0000    -0.0000 </r>
       <r>    -3.3200    -0.0000    -0.0000 </r>
       <r>    -3.1575    -0.0002    -0.0000 </r>
       <r>    -2.9951    -0.0011    -0.0002 </r>
       <r>    -2.8326     0.0077     0.0010 </r>
       <r>    -2.6702     0.0219     0.0046 </r>
       <r>    -2.5077     0.0126     0.0066 </r>
       <r>    -2.3453     0.0245     0.0106 </r>
       <r>    -2.1828     0.0218     0.0142 </r>
       <r>    -2.0204     0.0695     0.0255 </r>
       <r>    -1.8579     0.0749     0.0376 </r>
       <r>    -1.6955     0.0038     0.0382 </r>
       <r>    -1.5330    -0.0071     0.0371 </r>
       <r>    -1.3706     0.0556     0.0461 </r>
       <r>    -1.2081     0.1094     0.0639 </r>
       <r>    -1.0457     0.0655     0.0745 </r>
       <r>    -0.8832     0.0839     0.0882 </r>
       <r>    -0.7208     0.0730     0.1000 </r>
       <r>    -0.5583     0.0849     0.1138 </r>
       <r>    -0.3959     0.0137     0.1160 </r>
       <r>    -0.2334    -0.0064     0.1150 </r>
       <r>    -0.0710     0.1116     0.1331 </r>
       <r>     0.0915     0.1859     0.1633 </r>
       <r>     0.2539     0.1061     0.1806 </r>
       <r>     0.4164     0.1099     0.1984 </r>
       <r>     0.5789     0.1779     0.2273 </r>
       <r>     0.7413     0.0718     0.2390 </r>
       <r>     0.9038     0.0781     0.2517 </r>
       <r>     1.0662     0.0695     0.2630 </r>
       <r>     1.2287     0.0777     0.2756 </r>
       <r>     1.3911     0.2770     0.3206 </r>
       <r>     1.5536     0.3522     0.3778 </r>
       <r>     1.7160     0.2617     0.4203 </r>
       <r>     1.8785     0.3574     0.4784 </r>
       <r>     2.0409     0.1924     0.5097 </r>
       <r>     2.2034     0.3210     0.5618 </r>
       <r>     2.3658     0.4689     0.6380 </r>
       <r>     2.5283     0.4013     0.7032 </r>
       <r>     2.6907     0.6777     0.8133 </r>
       <r>     2.8532     0.6910     0.9255 </r>
       <r>     3.0156     0.3962     0.9899 </r>
       <r>     3.1781     0.3275     1.0431 </r>
       <r>     3.3405     0.4116     1.1100 </r>
       <r>     3.5030     0.7266     1.2280 </r>
       <r>     3.6654     1.4018     1.4557 </r>
       <r>     3.8279     1.5110     1.7012 </r>
       <r>     3.9903     1.2276     1.9006 </r>
       <r>     4.1528     1.3664     2.1226 </r>
       <r>     4.3153     1.5001     2.3663 </r>
       <r>     4.4777     1.2848     2.5750 </r>
       <r>     4.6402     0.9627     2.7314 </r>
       <r>     4.8026     0.5077     2.8139 </r>
       <r>     4.9651     0.2774     2.8589 </r>
       <r>     5.1275     0.4293     2.9287 </r>
       <r>     5.2900     0.4233     2.9974 </r>
       <r>     5.4524     0.2445     3.0371 </r>
       <r>     5.6149     0.2778     3.0823 </r>
       <r>     5.7773     0.6124     3.1817 </r>
       <r>     5.9398     1.0718     3.3559 </r>
       <r>     6.1022     1.0489     3.5262 </r>
       <r>     6.2647     1.3888     3.7519 </r>
       <r>     6.4271     1.5863     4.0096 </r>
       <r>     6.5896     1.9880     4.3325 </r>
       <r>     6.7520     2.6238     4.7588 </r>
       <r>     6.9145     1.8410     5.0578 </r>
       <r>     7.0769     0.8523     5.1963 </r>
       <r>     7.2394     0.5631     5.2878 </r>
       <r>     7.4018     0.3632     5.3468 </r>
       <r>     7.5643     0.2329     5.3846 </r>
       <r>     7.7267     0.4037     5.4502 </r>
       <r>     7.8892     0.3030     5.4994 </r>
       <r>     8.0517     0.1619     5.5257 </r>
       <r>     8.2141     0.0935     5.5409 </r>
       <r>     8.3766     0.2334     5.5788 </r>
       <r>     8.5390     0.2332     5.6167 </r>
       <r>     8.7015     0.1082     5.6343 </r>
       <r>     8.8639     0.1750     5.6627 </r>
       <r>     9.0264     0.1559     5.6880 </r>
       <r>     9.1888     0.1600     5.7140 </r>
       <r>     9.3513     0.0797     5.7270 </r>
       <r>     9.5137     0.2345     5.7651 </r>
       <r>     9.6762     0.2900     5.8122 </r>
       <r>     9.8386     0.1599     5.8382 </r>
       <r>    10.0011     0.0411     5.8448 </r>
       <r>    10.1635     0.0038     5.8455 </r>
       <r>    10.3260     0.0379     5.8516 </r>
       <r>    10.4884     0.0339     5.8571 </r>
       <r>    10.6509     0.1224     5.8770 </r>
       <r>    10.8133     0.1448     5.9005 </r>
       <r>    10.9758     0.0811     5.9137 </r>
       <r>    11.1382     0.1183     5.9329 </r>
       <r>    11.3007     0.0985     5.9489 </r>
       <r>    11.4631     0.0281     5.9535 </r>
       <r>    11.6256     0.0717     5.9651 </r>
       <r>    11.7881     0.0727     5.9769 </r>
       <r>    11.9505     0.0568     5.9862 </r>
       <r>    12.1130     0.0359     5.9920 </r>
       <r>    12.2754    -0.0105     5.9903 </r>
       <r>    12.4379     0.0427     5.9972 </r>
       <r>    12.6003     0.2522     6.0382 </r>
       <r>    12.7628     0.2566     6.0799 </r>
       <r>    12.9252     0.1319     6.1013 </r>
       <r>    13.0877     0.3301     6.1550 </r>
       <r>    13.2501     0.3640     6.2141 </r>
       <r>    13.4126     0.2736     6.2585 </r>
       <r>    13.5750     0.2323     6.2963 </r>
       <r>    13.7375     0.2164     6.3314 </r>
       <r>    13.8999     0.1533     6.3563 </r>
       <r>    14.0624     0.0641     6.3667 </r>
       <r>    14.2248     0.1117     6.3849 </r>
       <r>    14.3873     0.3209     6.4370 </r>
       <r>    14.5497     0.3517     6.4941 </r>
       <r>    14.7122     0.1820     6.5237 </r>
       <r>    14.8746     0.2869     6.5703 </r>
       <r>    15.0371     0.4157     6.6378 </r>
       <r>    15.1995     0.1038     6.6547 </r>
       <r>    15.3620     0.0747     6.6668 </r>
       <r>    15.5245     0.1296     6.6879 </r>
       <r>    15.6869     0.1341     6.7097 </r>
       <r>    15.8494     0.2558     6.7512 </r>
       <r>    16.0118     0.3901     6.8146 </r>
       <r>    16.1743     0.2520     6.8556 </r>
       <r>    16.3367     0.2510     6.8963 </r>
       <r>    16.4992     0.1815     6.9258 </r>
       <r>    16.6616     0.0700     6.9372 </r>
       <r>    16.8241     0.0008     6.9373 </r>
       <r>    16.9865     0.0974     6.9531 </r>
       <r>    17.1490     0.3166     7.0046 </r>
       <r>    17.3114     0.2954     7.0526 </r>
       <r>    17.4739     0.1062     7.0698 </r>
       <r>    17.6363     0.1670     7.0969 </r>
       <r>    17.7988     0.2723     7.1412 </r>
       <r>    17.9612     0.2266     7.1780 </r>
       <r>    18.1237     0.3724     7.2385 </r>
       <r>    18.2861     0.3857     7.3011 </r>
       <r>    18.4486     0.1221     7.3210 </r>
       <r>    18.6110     0.0721     7.3327 </r>
       <r>    18.7735     0.0750     7.3449 </r>
       <r>    18.9359     0.1301     7.3660 </r>
       <r>    19.0984     0.3429     7.4217 </r>
       <r>    19.2609     0.2157     7.4568 </r>
       <r>    19.4233     0.0678     7.4678 </r>
       <r>    19.5858     0.0320     7.4730 </r>
       <r>    19.7482     0.1918     7.5041 </r>
       <r>    19.9107     0.2575     7.5460 </r>
       <r>    20.0731     0.1639     7.5726 </r>
       <r>    20.2356     0.0361     7.5785 </r>
       <r>    20.3980     0.0638     7.5888 </r>
       <r>    20.5605     0.1942     7.6204 </r>
       <r>    20.7229     0.2807     7.6660 </r>
       <r>    20.8854     0.4136     7.7331 </r>
       <r>    21.0478     0.3237     7.7857 </r>
       <r>    21.2103     0.2713     7.8298 </r>
       <r>    21.3727     0.3415     7.8853 </r>
       <r>    21.5352     0.3260     7.9382 </r>
       <r>    21.6976     0.2957     7.9863 </r>
       <r>    21.8601     0.0978     8.0022 </r>
       <r>    22.0225     0.2921     8.0496 </r>
       <r>    22.1850     0.4161     8.1172 </r>
       <r>    22.3474     0.2827     8.1631 </r>
       <r>    22.5099     0.3389     8.2182 </r>
       <r>    22.6723     0.2165     8.2534 </r>
       <r>    22.8348     0.0853     8.2672 </r>
       <r>    22.9973     0.2597     8.3094 </r>
       <r>    23.1597     0.2292     8.3466 </r>
       <r>    23.3222     0.2230     8.3829 </r>
       <r>    23.4846     0.2623     8.4255 </r>
       <r>    23.6471     0.3153     8.4767 </r>
       <r>    23.8095     0.3739     8.5374 </r>
       <r>    23.9720     0.2280     8.5745 </r>
       <r>    24.1344     0.4260     8.6437 </r>
       <r>    24.2969     0.3804     8.7055 </r>
       <r>    24.4593     0.2744     8.7500 </r>
       <r>    24.6218     0.4360     8.8209 </r>
       <r>    24.7842     0.2342     8.8589 </r>
       <r>    24.9467    -0.0033     8.8584 </r>
       <r>    25.1091     0.0227     8.8621 </r>
       <r>    25.2716     0.1242     8.8823 </r>
       <r>    25.4340     0.1104     8.9002 </r>
       <r>    25.5965     0.2850     8.9465 </r>
       <r>    25.7589     0.3293     9.0000 </r>
       <r>    25.9214     0.2533     9.0411 </r>
       <r>    26.0838     0.1343     9.0630 </r>
       <r>    26.2463    -0.0094     9.0614 </r>
       <r>    26.4087     0.0690     9.0726 </r>
       <r>    26.5712     0.1941     9.1042 </r>
       <r>    26.7337     0.2381     9.1429 </r>
       <r>    26.8961     0.2648     9.1859 </r>
       <r>    27.0586     0.1749     9.2143 </r>
       <r>    27.2210     0.1906     9.2452 </r>
       <r>    27.3835     0.2298     9.2826 </r>
       <r>    27.5459     0.0481     9.2904 </r>
       <r>    27.7084     0.0897     9.3050 </r>
       <r>    27.8708     0.2453     9.3448 </r>
       <r>    28.0333     0.3871     9.4077 </r>
       <r>    28.1957     0.6280     9.5097 </r>
       <r>    28.3582     0.5436     9.5980 </r>
       <r>    28.5206     0.3210     9.6502 </r>
       <r>    28.6831     0.2612     9.6926 </r>
       <r>    28.8455     0.1128     9.7109 </r>
       <r>    29.0080     0.1583     9.7367 </r>
       <r>    29.1704     0.1623     9.7630 </r>
       <r>    29.3329     0.0830     9.7765 </r>
       <r>    29.4953     0.0158     9.7791 </r>
       <r>    29.6578     0.0429     9.7860 </r>
       <r>    29.8202     0.0576     9.7954 </r>
       <r>    29.9827     0.1156     9.8142 </r>
       <r>    30.1451     0.1974     9.8463 </r>
       <r>    30.3076     0.3233     9.8988 </r>
       <r>    30.4701     0.5882     9.9943 </r>
       <r>    30.6325     0.5762    10.0879 </r>
       <r>    30.7950     0.2062    10.1214 </r>
       <r>    30.9574     0.1483    10.1455 </r>
       <r>    31.1199     0.6479    10.2508 </r>
       <r>    31.2823     0.6251    10.3523 </r>
       <r>    31.4448     0.1052    10.3694 </r>
       <r>    31.6072     0.1087    10.3871 </r>
       <r>    31.7697     0.2887    10.4340 </r>
       <r>    31.9321     0.2117    10.4684 </r>
       <r>    32.0946     0.2229    10.5046 </r>
       <r>    32.2570     0.4327    10.5749 </r>
       <r>    32.4195     0.2242    10.6113 </r>
       <r>    32.5819     0.1859    10.6415 </r>
       <r>    32.7444     0.1510    10.6660 </r>
       <r>    32.9068     0.0567    10.6752 </r>
       <r>    33.0693     0.1263    10.6957 </r>
       <r>    33.2317     0.2440    10.7354 </r>
       <r>    33.3942     0.3114    10.7860 </r>
       <r>    33.5566     0.2564    10.8276 </r>
       <r>    33.7191     0.2673    10.8711 </r>
       <r>    33.8815     0.2951    10.9190 </r>
       <r>    34.0440     0.3904    10.9824 </r>
       <r>    34.2065     0.5265    11.0680 </r>
       <r>    34.3689     0.5048    11.1500 </r>
       <r>    34.5314     0.2372    11.1885 </r>
       <r>    34.6938     0.1716    11.2164 </r>
       <r>    34.8563     0.1053    11.2335 </r>
       <r>    35.0187     0.0767    11.2459 </r>
       <r>    35.1812     0.1787    11.2749 </r>
       <r>    35.3436     0.4020    11.3403 </r>
       <r>    35.5061     0.4779    11.4179 </r>
       <r>    35.6685     0.3499    11.4747 </r>
       <r>    35.8310     0.1926    11.5060 </r>
       <r>    35.9934     0.1960    11.5379 </r>
       <r>    36.1559     0.2237    11.5742 </r>
       <r>    36.3183     0.2157    11.6092 </r>
       <r>    36.4808     0.0841    11.6229 </r>
       <r>    36.6432     0.0697    11.6342 </r>
       <r>    36.8057     0.0756    11.6465 </r>
       <r>    36.9681     0.1140    11.6650 </r>
       <r>    37.1306     0.0485    11.6729 </r>
       <r>    37.2930     0.1548    11.6981 </r>
       <r>    37.4555     0.3692    11.7580 </r>
       <r>    37.6179     0.1576    11.7836 </r>
       <r>    37.7804    -0.0089    11.7822 </r>
       <r>    37.9429     0.0707    11.7937 </r>
       <r>    38.1053     0.1566    11.8191 </r>
       <r>    38.2678     0.1162    11.8380 </r>
       <r>    38.4302     0.0247    11.8420 </r>
       <r>    38.5927     0.0363    11.8479 </r>
       <r>    38.7551     0.1159    11.8667 </r>
       <r>    38.9176     0.1350    11.8887 </r>
       <r>    39.0800     0.1097    11.9065 </r>
       <r>    39.2425     0.0132    11.9086 </r>
       <r>    39.4049     0.0053    11.9095 </r>
       <r>    39.5674     0.0340    11.9150 </r>
       <r>    39.7298     0.0835    11.9286 </r>
       <r>    39.8923     0.1249    11.9489 </r>
       <r>    40.0547     0.0875    11.9631 </r>
       <r>    40.2172     0.0102    11.9647 </r>
       <r>    40.3796    -0.0041    11.9641 </r>
       <r>    40.5421    -0.0005    11.9640 </r>
       <r>    40.7045    -0.0005    11.9639 </r>
       <r>    40.8670    -0.0015    11.9637 </r>
       <r>    41.0294     0.0095    11.9652 </r>
       <r>    41.1919     0.0569    11.9744 </r>
       <r>    41.3543     0.1071    11.9918 </r>
       <r>    41.5168     0.0511    12.0001 </r>
       <r>    41.6793     0.0013    12.0004 </r>
       <r>    41.8417    -0.0020    12.0000 </r>
       <r>    42.0042    -0.0002    12.0000 </r>
       <r>    42.1666    -0.0000    12.0000 </r>
       <r>    42.3291    -0.0000    12.0000 </r>
       <r>    42.4915    -0.0000    12.0000 </r>
       <r>    42.6540    -0.0000    12.0000 </r>
       <r>    42.8164     0.0000    12.0000 </r>
       <r>    42.9789     0.0000    12.0000 </r>
       <r>    43.1413     0.0000    12.0000 </r>
       <r>    43.3038     0.0000    12.0000 </r>
       <r>    43.4662     0.0000    12.0000 </r>
       <r>    43.6287     0.0000    12.0000 </r>
      </set>
     </set>
    </array>
   </total>
  </dos>
 </calculation>
 <structure name="finalpos" >
  <crystal>
   <varray name="basis" >
    <v>      -1.47500000       1.47500000       1.47500000 </v>
    <v>       1.47500000      -1.47500000       1.47500000 </v>
    <v>       1.47500000       1.47500000      -1.47500000 </v>
   </varray>
   <i name="volume">     12.83618750 </i>
   <varray name="rec_basis" >
    <v>       0.00000000       0.33898305       0.33898305 </v>
    <v>       0.33898305       0.00000000       0.33898305 </v>
    <v>       0.33898305       0.33898305       0.00000000 </v>
   </varray>
  </crystal>
  <varray name="positions" >
   <v>       0.00000000       0.00000000       0.00000000 </v>
  </varray>
 </structure>
</modeling>
