    1    1    1    2
  0.1157456E+02  0.2468172E-09  0.2468172E-09  0.2468172E-09  0.5000000E-15
  1.000000000000000E-004
  CAR 
 bcc Fe                                  
      8     44     12
 
  0.5000000E-01  0.5000000E-01  0.5000000E-01  0.8000000E-02
    1       -2.099582     -1.903001   1.000000   1.000000
    2        3.198767      5.271058   1.000000   1.010796
    3        3.198767      5.271058   1.000000   1.010796
    4        3.699329      5.839329   1.000000  -0.017480
    5        4.521504      7.292781   1.000000  -0.000000
    6        4.521504      7.292781   1.000000  -0.000000
    7       27.897456     28.025796   0.000000   0.000000
    8       27.897456     28.025796   0.000000   0.000000
    9       31.016808     30.772750   0.000000   0.000000
   10       32.107510     33.040791   0.000000   0.000000
   11       35.797501     36.149700   0.000000   0.000000
   12       35.797501     36.149701   0.000000   0.000000
 
  0.1500000E+00  0.5000000E-01  0.5000000E-01  0.2400000E-01
    1       -0.995619     -0.767488   1.000000   1.000000
    2        2.908829      4.916466   1.000000   1.000001
    3        3.055911      5.057305   1.000000   1.000109
    4        4.353979      6.543263   1.000000  -0.000000
    5        4.420403      7.119953   1.000000  -0.000000
    6        4.600790      7.389912   1.000000  -0.000000
    7       23.671435     24.173739   0.000000   0.000000
    8       25.984404     26.266338   0.000000   0.000000
    9       28.759674     29.602439   0.000000   0.000000
   10       31.279886     31.194124   0.000000   0.000000
   11       35.505425     36.181650   0.000000   0.000000
   12       35.879482     36.184078   0.000000   0.000000
 
  0.2500000E+00  0.5000000E-01  0.5000000E-01  0.2400000E-01
    1        0.354214      0.811388   1.000000   1.000000
    2        2.586186      4.522695   1.000000   1.000000
    3        3.135852      4.843381   1.000000   1.000000
    4        4.478430      7.128068   1.000000  -0.000000
    5        4.676357      7.488948   1.000000  -0.000000
    6        5.269138      7.495506   1.010491  -0.000000
    7       19.064400     19.875997   0.000000   0.000000
    8       24.262962     24.565365   0.000000   0.000000
    9       26.370836     27.132440   0.000000   0.000000
   10       30.834971     31.011842   0.000000   0.000000
   11       34.576514     35.196021   0.000000   0.000000
   12       37.848685     38.107642   0.000000   0.000000
 
  0.3500000E+00  0.5000000E-01  0.5000000E-01  0.2400000E-01
    1        0.909953      2.025413   1.000000   1.000000
    2        2.346377      4.231138   1.000000   1.000000
    3        4.176443      5.244478   1.000000   1.007105
    4        4.617141      7.238206   1.000000  -0.000000
    5        4.740839      7.589870   1.000000  -0.000000
    6        6.388753      8.439769  -0.000001  -0.000000
    7       14.958277     16.096621   0.000000   0.000000
    8       23.083349     23.354900   0.000000   0.000000
    9       24.760942     25.450794   0.000000   0.000000
   10       30.452835     30.780957   0.000000   0.000000
   11       34.247594     34.875479   0.000000   0.000000
   12       40.108112     40.252724   0.000000   0.000000
 
  0.4500000E+00  0.5000000E-01  0.5000000E-01  0.1200000E-01
    1        0.934892      2.315900   1.000000   1.000000
    2        2.257332      4.123755   1.000000   1.000000
    3        4.633636      5.864661   1.000000  -0.030620
    4        4.766392      7.283404   1.000000  -0.000000
    5        4.922070      7.629164   1.000002  -0.000000
    6        7.341918      8.966023  -0.000000  -0.000000
    7       12.843999     14.299061   0.000000   0.000000
    8       22.664108     22.917806   0.000000   0.000000
    9       24.169860     24.823139   0.000000   0.000000
   10       30.307081     30.684721   0.000000   0.000000
   11       34.214777     34.859011   0.000000   0.000000
   12       40.016685     40.077040   0.000000   0.000000
 
 -0.5000000E-01  0.5000000E-01  0.5000000E-01  0.6000000E-02
    1       -2.497563     -2.304666   1.000000   1.000000
    2        3.322759      5.420776   1.000000   1.034622
    3        3.322892      5.420957   1.000000   1.034600
    4        3.375161      5.488485   1.000000   0.994014
    5        4.484409      7.250120   1.000000  -0.000000
    6        4.613664      7.416211   1.000000  -0.000000
    7       29.239430     29.130018   0.000000   0.000000
    8       30.247894     30.110523   0.000000   0.000000
    9       30.247909     30.110537   0.000000   0.000000
   10       33.783896     34.172249   0.000000   0.000000
   11       35.617521     36.503291   0.000000   0.000000
   12       35.617600     36.503473   0.000000   0.000000
 
  0.1500000E+00  0.1500000E+00  0.5000000E-01  0.2400000E-01
    1        0.252352      0.581298   1.000000   1.000000
    2        2.689438      4.616531   1.000000   1.000000
    3        2.718142      4.624928   1.000000   1.000000
    4        4.442040      7.124247   1.000000  -0.000000
    5        4.684875      7.451848   1.000000  -0.000000
    6        5.326185      7.540359   1.021802  -0.000000
    7       21.382441     21.998294   0.000000   0.000000
    8       22.255416     22.843953   0.000000   0.000000
    9       25.615841     26.327090   0.000000   0.000000
   10       32.584933     32.500420   0.000000   0.000000
   11       36.431486     36.822102   0.000000   0.000000
   12       37.939310     38.407413   0.000000   0.000000
 
  0.2500000E+00  0.1500000E+00  0.5000000E-01  0.4800000E-01
    1        1.263064      2.068937   1.000000   1.000000
    2        2.411800      4.258471   1.000000   1.000000
    3        2.948424      4.509496   1.000000   1.000000
    4        4.536123      7.201352   1.000000  -0.000000
    5        4.785222      7.592346   1.000000  -0.000000
    6        6.692322      8.712838  -0.000000  -0.000000
    7       17.297603     18.185044   0.000000   0.000000
    8       20.423198     21.052355   0.000000   0.000000
    9       23.863642     24.485458   0.000000   0.000000
   10       32.791039     32.877798   0.000000   0.000000
   11       37.218880     37.562050   0.000000   0.000000
   12       38.610874     39.050495   0.000000   0.000000
 
  0.3500000E+00  0.1500000E+00  0.5000000E-01  0.4800000E-01
    1        1.364789      2.741659   1.000000   1.000000
    2        2.277474      4.090556   1.000000   1.000000
    3        3.675433      4.956968   1.000000   1.000005
    4        4.644213      7.313415   1.000000  -0.000000
    5        4.876171      7.650218   1.000000  -0.000000
    6        8.473633     10.010230  -0.000000  -0.000000
    7       13.698508     14.932035   0.000000   0.000000
    8       19.593618     20.216900   0.000000   0.000000
    9       22.970615     23.550707   0.000000   0.000000
   10       32.641698     32.835972   0.000000   0.000000
   11       37.892728     38.336814   0.000000   0.000000
   12       38.872587     39.080377   0.000000   0.000000
 
 -0.1500000E+00  0.1500000E+00  0.5000000E-01  0.2400000E-01
    1       -1.715646     -1.512093   1.000000   1.000000
    2        3.142902      5.199414   1.000000   1.003145
    3        3.289480      5.350217   1.000000   1.027326
    4        3.777909      5.929920   1.000000  -0.032088
    5        4.290587      6.981084   1.000000  -0.000000
    6        4.672817      7.485068   1.000000  -0.000000
    7       25.949867     26.257706   0.000000   0.000000
    8       28.615630     28.709672   0.000000   0.000000
    9       29.344280     29.559674   0.000000   0.000000
   10       32.988744     33.377339   0.000000   0.000000
   11       33.202320     33.935122   0.000000   0.000000
   12       34.180110     34.772265   0.000000   0.000000
 
  0.2500000E+00  0.2500000E+00  0.5000000E-01  0.2400000E-01
    1        1.796242      3.140463   1.000000   1.000000
    2        2.340583      4.037189   1.000000   1.000000
    3        2.925824      4.394709   1.000000   1.000000
    4        4.633230      7.310508   1.000000  -0.000000
    5        4.861580      7.627603   1.000000  -0.000000
    6        8.833458     10.449988  -0.000000  -0.000000
    7       15.676689     16.629610   0.000000   0.000000
    8       16.672742     17.506480   0.000000   0.000000
    9       22.776104     23.376702   0.000000   0.000000
   10       34.139670     34.214180   0.000000   0.000000
   11       36.980718     37.196205   0.000000   0.000000
   12       42.869212     43.176067   0.000000   0.000000
 
  0.3500000E+00  0.2500000E+00  0.5000000E-01  0.2400000E-01
    1        1.842318      3.412007   1.000000   1.000000
    2        2.383311      4.049146   1.000000   1.000000
    3        2.994496      4.443679   1.000000   1.000000
    4        4.725343      7.418338   1.000000  -0.000000
    5        4.865202      7.594893   1.000000  -0.000000
    6       10.945203     12.163085  -0.000000   0.000000
    7       13.149361     14.344845   0.000000   0.000000
    8       15.954445     16.819360   0.000000   0.000000
    9       22.434867     23.039866   0.000000   0.000000
   10       34.671632     34.783002   0.000000   0.000000
   11       36.974932     37.055806   0.000000   0.000000
   12       42.501736     43.043296   0.000000   0.000000
 
 -0.2500000E+00  0.2500000E+00  0.5000000E-01  0.2400000E-01
    1       -0.385343     -0.090412   1.000000   1.000000
    2        2.834852      4.825230   1.000000   1.000000
    3        3.194400      5.108015   1.000000   1.000413
    4        4.286297      6.733579   1.000000  -0.000000
    5        4.498110      6.885555   1.000000  -0.000000
    6        4.747874      7.559502   1.000000  -0.000000
    7       21.322893     22.005742   0.000000   0.000000
    8       26.472640     26.617003   0.000000   0.000000
    9       27.847073     28.430423   0.000000   0.000000
   10       31.153489     31.703542   0.000000   0.000000
   11       32.830517     33.404538   0.000000   0.000000
   12       34.947757     35.243982   0.000000   0.000000
 
 -0.1500000E+00  0.2500000E+00  0.5000000E-01  0.2400000E-01
    1       -0.659646     -0.410877   1.000000   1.000000
    2        3.077025      5.074358   1.000000   1.000174
    3        3.077453      5.109691   1.000000   1.000431
    4        4.104626      6.513531   1.000000  -0.000000
    5        4.322793      6.686951   1.000000  -0.000000
    6        4.818253      7.630734   1.000000  -0.000000
    7       23.546617     24.039227   0.000000   0.000000
    8       24.752742     25.287723   0.000000   0.000000
    9       29.453981     29.653469   0.000000   0.000000
   10       30.273794     30.893162   0.000000   0.000000
   11       32.971929     33.368091   0.000000   0.000000
   12       36.201263     36.634324   0.000000   0.000000
 
 -0.3500000E+00  0.3500000E+00  0.5000000E-01  0.2400000E-01
    1        0.664402      1.442074   1.000000   1.000000
    2        2.539194      4.469892   1.000000   1.000000
    3        3.657391      5.082523   1.000000   1.000216
    4        4.518801      7.043875   1.000000  -0.000000
    5        4.981787      7.644495   1.000012  -0.000000
    6        5.300930      7.667363   1.016272  -0.000000
    7       16.849927     17.831462   0.000000   0.000000
    8       24.781862     24.911711   0.000000   0.000000
    9       26.107795     26.789203   0.000000   0.000000
   10       30.159302     30.679111   0.000000   0.000000
   11       32.743730     33.344594   0.000000   0.000000
   12       36.777540     37.055772   0.000000   0.000000
 
 -0.2500000E+00  0.3500000E+00  0.5000000E-01  0.4800000E-01
    1        0.616363      1.113630   1.000000   1.000000
    2        2.728021      4.678753   1.000000   1.000000
    3        3.040277      4.873217   1.000000   1.000000
    4        4.225307      6.725602   1.000000  -0.000000
    5        4.874563      7.382571   1.000000  -0.000000
    6        5.392961      7.838077   1.034794  -0.000000
    7       19.337356     20.135530   0.000000   0.000000
    8       22.484230     23.058915   0.000000   0.000000
    9       27.620778     28.057354   0.000000   0.000000
   10       30.055023     30.454239   0.000000   0.000000
   11       33.477813     33.895903   0.000000   0.000000
   12       36.789296     37.232284   0.000000   0.000000
 
 -0.4500000E+00  0.4500000E+00  0.5000000E-01  0.2400000E-01
    1        0.855782      2.176271   1.000000   1.000000
    2        2.361275      4.258005   1.000000   1.000000
    3        4.290308      5.752649   1.000000   0.127235
    4        4.584007      7.168938   1.000000  -0.000000
    5        5.845725      7.939361  -0.021759  -0.000000
    6        6.229953      8.276360  -0.000169  -0.000000
    7       13.428746     14.788651   0.000000   0.000000
    8       23.866005     23.970112   0.000000   0.000000
    9       24.965673     25.607219   0.000000   0.000000
   10       29.776341     30.336250   0.000000   0.000000
   11       32.863049     33.514732   0.000000   0.000000
   12       38.050822     38.174798   0.000000   0.000000
 
 -0.3500000E+00  0.4500000E+00  0.5000000E-01  0.4800000E-01
    1        1.142694      2.304509   1.000000   1.000000
    2        2.535455      4.426106   1.000000   1.000000
    3        3.397650      4.923380   1.000000   1.000002
    4        4.455899      6.965976   1.000000  -0.000000
    5        5.237527      7.767865   1.006319  -0.000000
    6        6.826537      8.749012  -0.000000  -0.000000
    7       15.173099     16.272960   0.000000   0.000000
    8       21.242702     21.820549   0.000000   0.000000
    9       26.028124     26.418776   0.000000   0.000000
   10       30.227420     30.712132   0.000000   0.000000
   11       34.597706     34.926688   0.000000   0.000000
   12       36.577537     37.036990   0.000000   0.000000
 
 -0.2500000E+00  0.4500000E+00  0.5000000E-01  0.2400000E-01
    1        1.495655      2.449877   1.000000   1.000000
    2        2.396618      4.257555   1.000000   1.000000
    3        3.036149      4.775295   1.000000   1.000000
    4        4.348910      6.829616   1.000000  -0.000000
    5        5.021347      7.636885   1.000039  -0.000000
    6        7.062947      9.012073  -0.000000  -0.000000
    7       17.506482     18.403834   0.000000   0.000000
    8       18.283614     19.050581   0.000000   0.000000
    9       27.196262     27.700614   0.000000   0.000000
   10       29.851543     30.094181   0.000000   0.000000
   11       33.405186     33.804614   0.000000   0.000000
   12       41.032983     41.417494   0.000000   0.000000
 
 -0.4500000E+00 -0.4500000E+00  0.5000000E-01  0.2400000E-01
    1        1.152397      2.593497   1.000000   1.000000
    2        2.470828      4.354543   1.000000   1.000000
    3        3.637802      5.186769   1.000000   1.002446
    4        4.486120      7.039274   1.000000  -0.000000
    5        5.525661      7.961500   0.933049  -0.000000
    6        8.138432      9.554475  -0.000000  -0.000000
    7       12.899879     14.310584   0.000000   0.000000
    8       20.792595     21.362127   0.000000   0.000000
    9       25.466491     25.828531   0.000000   0.000000
   10       30.259076     30.788638   0.000000   0.000000
   11       35.772809     35.892438   0.000000   0.000000
   12       35.919214     36.487537   0.000000   0.000000
 
 -0.3500000E+00 -0.4500000E+00  0.5000000E-01  0.4800000E-01
    1        1.712977      3.195990   1.000000   1.000000
    2        2.432671      4.208587   1.000000   1.000000
    3        2.958767      4.600950   1.000000   1.000000
    4        4.565510      7.068984   1.000000  -0.000000
    5        5.163747      7.685461   1.001510  -0.000000
    6        9.393199     10.837939  -0.000000  -0.000000
    7       13.988636     15.136472   0.000000   0.000000
    8       17.137914     17.938708   0.000000   0.000000
    9       26.518119     27.002115   0.000000   0.000000
   10       30.507769     30.816773   0.000000   0.000000
   11       33.591119     33.800721   0.000000   0.000000
   12       40.038757     40.779309   0.000000   0.000000
 
 -0.3500000E+00 -0.3500000E+00  0.5000000E-01  0.8000000E-02
    1        2.156320      3.865350   1.000000   1.000000
    2        2.453266      4.110079   1.000000   1.000000
    3        2.453321      4.110121   1.000000   1.000000
    4        4.893639      7.400479   1.000001  -0.000000
    5        4.893770      7.400658   1.000001  -0.000000
    6       12.334009     13.494172   0.000000   0.000000
    7       12.334078     13.494270   0.000000   0.000000
    8       14.888428     15.875515   0.000000   0.000000
    9       26.628709     27.191730   0.000000   0.000000
   10       31.912072     32.105661   0.000000   0.000000
   11       31.912088     32.105808   0.000000   0.000000
   12       39.562529     40.524281   0.000000   0.000000
 
  0.1500000E+00  0.1500000E+00  0.1500000E+00  0.8000000E-02
    1        1.476559      1.997933   1.000000   1.000000
    2        2.407051      4.230998   1.000000   1.000000
    3        2.407051      4.230998   1.000000   1.000000
    4        4.652726      7.432065   1.000000  -0.000000
    5        4.652726      7.432065   1.000000  -0.000000
    6        6.708267      8.750946  -0.000000  -0.000000
    7       19.720774     20.391262   0.000000   0.000000
    8       19.720774     20.391262   0.000000   0.000000
    9       21.331795     22.119996   0.000000   0.000000
   10       35.441605     35.204604   0.000000   0.000000
   11       39.288861     39.586554   0.000000   0.000000
   12       39.288861     39.586554   0.000000   0.000000
 
  0.2500000E+00  0.1500000E+00  0.1500000E+00  0.2400000E-01
    1        1.893301      3.124093   1.000000   1.000000
    2        2.248705      4.001874   1.000000   1.000000
    3        2.849206      4.229107   1.000000   1.000000
    4        4.705435      7.472972   1.000000  -0.000000
    5        4.758316      7.603503   1.000000  -0.000000
    6        8.635054     10.301276  -0.000000  -0.000000
    7       15.841219     16.775407   0.000000   0.000000
    8       18.673007     19.361562   0.000000   0.000000
    9       19.656351     20.382967   0.000000   0.000000
   10       36.470426     36.399679   0.000000   0.000000
   11       40.212033     40.527022   0.000000   0.000000
   12       41.540156     41.638491   0.000000   0.000000
 
  0.3500000E+00  0.1500000E+00  0.1500000E+00  0.1200000E-01
    1        1.808933      3.277036   1.000000   1.000000
    2        2.200348      3.928046   1.000000   1.000000
    3        3.286452      4.607561   1.000000   1.000000
    4        4.739773      7.504838   1.000000  -0.000000
    5        4.785906      7.655400   1.000000  -0.000000
    6       10.434880     11.665434  -0.000000   0.000000
    7       13.231149     14.469828   0.000000   0.000000
    8       18.316679     19.007784   0.000000   0.000000
    9       19.189317     19.898217   0.000000   0.000000
   10       36.476831     36.489076   0.000000   0.000000
   11       40.808746     41.293236   0.000000   0.000000
   12       41.649698     41.729084   0.000000   0.000000
 
 -0.1500000E+00  0.1500000E+00  0.1500000E+00  0.6000000E-02
    1       -0.985365     -0.759432   1.000000   1.000000
    2        3.384528      5.436023   1.000000   1.031458
    3        3.384650      5.436186   1.000000   1.031409
    4        3.794788      5.956036   1.000000  -0.026669
    5        3.815188      6.380026   1.000000  -0.000002
    6        4.882081      7.706103   1.000000  -0.000000
    7       25.532126     25.762725   0.000000   0.000000
    8       27.122256     27.656949   0.000000   0.000000
    9       27.122342     27.656986   0.000000   0.000000
   10       28.822010     29.263029   0.000000   0.000000
   11       35.561642     35.944431   0.000000   0.000000
   12       35.561676     35.944436   0.000000   0.000000
 
  0.2500000E+00  0.2500000E+00  0.1500000E+00  0.2400000E-01
    1        2.089053      3.671202   1.000000   1.000000
    2        2.392768      3.970701   1.000000   1.000000
    3        2.753611      4.154504   1.000000   1.000000
    4        4.766654      7.585301   1.000000  -0.000000
    5        4.795589      7.646128   1.000000  -0.000000
    6       11.235569     12.490030   0.000000   0.000000
    7       14.532064     15.507959   0.000000   0.000000
    8       15.675162     16.561909   0.000000   0.000000
    9       18.537715     19.251886   0.000000   0.000000
   10       39.052818     38.993515   0.000000   0.000000
   11       40.809144     40.860098   0.000000   0.000000
   12       44.290693     44.403854   0.000000   0.000000
 
 -0.2500000E+00  0.2500000E+00  0.1500000E+00  0.2400000E-01
    1        0.219409      0.572832   1.000000   1.000000
    2        3.095717      5.196696   1.000000   1.002982
    3        3.237389      5.253176   1.000000   1.008190
    4        3.834795      6.159007   1.000000  -0.000981
    5        4.412759      6.637441   1.000000  -0.000000
    6        5.160534      7.886641   1.001408  -0.000000
    7       21.889655     22.556584   0.000000   0.000000
    8       24.962663     25.587974   0.000000   0.000000
    9       25.216559     25.630067   0.000000   0.000000
   10       28.793818     29.253317   0.000000   0.000000
   11       34.955059     35.423248   0.000000   0.000000
   12       36.273677     36.654490   0.000000   0.000000
 
 -0.3500000E+00  0.3500000E+00  0.1500000E+00  0.2400000E-01
    1        1.137324      1.996688   1.000000   1.000000
    2        2.846606      4.711067   1.000000   1.000000
    3        2.997230      4.965368   1.000000   1.000007
    4        4.211164      6.535578   1.000000  -0.000000
    5        5.228301      7.559722   1.005382  -0.000000
    6        6.044850      8.287923  -0.008912  -0.000000
    7       17.372285     18.302082   0.000000   0.000000
    8       23.185962     23.866461   0.000000   0.000000
    9       23.993227     24.364684   0.000000   0.000000
   10       30.366467     30.766047   0.000000   0.000000
   11       33.893870     34.402458   0.000000   0.000000
   12       36.139128     36.596420   0.000000   0.000000
 
 -0.2500000E+00  0.3500000E+00  0.1500000E+00  0.2400000E-01
    1        1.191458      1.879580   1.000000   1.000000
    2        2.582324      4.656399   1.000000   1.000000
    3        3.365513      5.329730   1.000000   1.022617
    4        3.972325      6.213453   1.000000  -0.000261
    5        4.915592      7.262409   1.000001  -0.000000
    6        6.030230      8.323094  -0.011129  -0.000000
    7       19.895250     20.691131   0.000000   0.000000
    8       20.540632     21.243738   0.000000   0.000000
    9       26.082429     26.524136   0.000000   0.000000
   10       27.518930     27.984435   0.000000   0.000000
   11       34.485805     34.974836   0.000000   0.000000
   12       39.684001     40.057007   0.000000   0.000000
 
 -0.4500000E+00  0.4500000E+00  0.1500000E+00  0.2400000E-01
    1        1.258628      2.699319   1.000000   1.000000
    2        2.843158      4.711380   1.000000   1.000000
    3        3.042376      4.783206   1.000000   1.000000
    4        4.283083      6.696783   1.000000  -0.000000
    5        5.794560      8.217368   0.035189  -0.000000
    6        7.955046      9.404666  -0.000000  -0.000000
    7       13.697081     14.955488   0.000000   0.000000
    8       22.123436     22.767219   0.000000   0.000000
    9       23.320877     23.694848   0.000000   0.000000
   10       32.414831     32.690707   0.000000   0.000000
   11       33.315545     33.848088   0.000000   0.000000
   12       35.085645     35.623370   0.000000   0.000000
 
 -0.3500000E+00  0.4500000E+00  0.1500000E+00  0.4800000E-01
    1        1.619154      2.928620   1.000000   1.000000
    2        2.356073      4.201749   1.000000   1.000000
    3        3.175627      5.121774   1.000000   1.000579
    4        4.304791      6.600973   1.000000  -0.000000
    5        5.384534      7.780879   1.033834  -0.000000
    6        8.025492      9.674363  -0.000000  -0.000000
    7       15.847270     16.837946   0.000000   0.000000
    8       18.997418     19.733883   0.000000   0.000000
    9       25.520756     25.958666   0.000000   0.000000
   10       28.981099     29.374566   0.000000   0.000000
   11       33.473224     33.963916   0.000000   0.000000
   12       38.075107     38.807016   0.000000   0.000000
 
 -0.4500000E+00 -0.4500000E+00  0.1500000E+00  0.2400000E-01
    1        1.574417      3.212056   1.000000   1.000000
    2        2.519990      4.222757   1.000000   1.000000
    3        2.996323      4.929773   1.000000   1.000002
    4        4.396947      6.720365   1.000000  -0.000000
    5        5.636829      8.043663   0.562620  -0.000000
    6        9.976195     11.174113  -0.000000   0.000000
    7       13.157096     14.420023   0.000000   0.000000
    8       18.520963     19.241400   0.000000   0.000000
    9       25.159910     25.593999   0.000000   0.000000
   10       30.764545     31.001020   0.000000   0.000000
   11       32.214087     32.801148   0.000000   0.000000
   12       36.759169     37.572777   0.000000   0.000000
 
 -0.3500000E+00 -0.4500000E+00  0.1500000E+00  0.2400000E-01
    1        2.003032      3.672429   1.000000   1.000000
    2        2.046376      3.837086   1.000000   1.000000
    3        2.917689      4.788373   1.000000   1.000000
    4        4.789145      7.108824   1.000000  -0.000000
    5        5.294744      7.674508   1.015029  -0.000000
    6       10.846817     12.096000  -0.000000   0.000000
    7       14.349247     15.387325   0.000000   0.000000
    8       15.607699     16.482393   0.000000   0.000000
    9       27.547882     27.911277   0.000000   0.000000
   10       28.481434     28.864853   0.000000   0.000000
   11       31.421358     31.967907   0.000000   0.000000
   12       36.706006     37.569731   0.000000   0.000000
 
  0.2500000E+00  0.2500000E+00  0.2500000E+00  0.2000000E-02
    1        2.434657      3.965744   1.000000   1.000000
    2        2.434657      3.965744   1.000000   1.000000
    3        2.434783      3.965856   1.000000   1.000000
    4        4.806578      7.678839   1.000000  -0.000000
    5        4.806578      7.678839   1.000000  -0.000000
    6       14.142518     15.124083   0.000000   0.000000
    7       14.142518     15.124083   0.000000   0.000000
    8       14.142660     15.124295   0.000000   0.000000
    9       16.233454     17.037749   0.000000   0.000000
   10       44.275000     44.056864   0.000000   0.000000
   11       44.275005     44.056864   0.000000   0.000000
   12       44.275030     44.056936   0.000000   0.000000
 
 -0.2500000E+00  0.2500000E+00  0.2500000E+00  0.6000000E-02
    1        1.057998      1.663313   1.000000   1.000000
    2        2.723325      4.992161   1.000000   1.000016
    3        3.757397      5.793496   1.000000   0.036985
    4        3.757535      5.793681   1.000000   0.036670
    5        4.472147      6.719333   1.000000  -0.000000
    6        5.835403      8.249261  -0.014495  -0.000000
    7       22.484656     23.183932   0.000000   0.000000
    8       22.484712     23.183946   0.000000   0.000000
    9       23.054580     23.631563   0.000000   0.000000
   10       25.316304     25.791084   0.000000   0.000000
   11       39.198803     39.559557   0.000000   0.000000
   12       39.198822     39.559637   0.000000   0.000000
 
 -0.3500000E+00  0.3500000E+00  0.2500000E+00  0.2400000E-01
    1        1.551574      2.693032   1.000000   1.000000
    2        2.176113      4.242634   1.000000   1.000000
    3        3.796633      5.839484   1.000000  -0.017591
    4        4.128985      6.257856   1.000000  -0.000078
    5        5.125998      7.445079   1.000640  -0.000000
    6        7.344474      9.120169  -0.000000  -0.000000
    7       18.322089     19.140015   0.000000   0.000000
    8       20.538617     21.208282   0.000000   0.000000
    9       23.008814     23.627959   0.000000   0.000000
   10       25.855299     26.362805   0.000000   0.000000
   11       36.864073     37.589313   0.000000   0.000000
   12       38.106463     38.591768   0.000000   0.000000
 
 -0.4500000E+00  0.4500000E+00  0.2500000E+00  0.2400000E-01
    1        1.540325      3.222552   1.000000   1.000000
    2        2.029784      3.829250   1.000000   1.000000
    3        3.717781      5.750292   1.000000   0.133720
    4        4.294909      6.465346   1.000000  -0.000000
    5        5.710687      8.121546   0.261935  -0.000000
    6        9.858464     11.062569  -0.000000  -0.000000
    7       14.367803     15.406843   0.000000   0.000000
    8       19.404712     20.016373   0.000000   0.000000
    9       22.692374     23.338587   0.000000   0.000000
   10       27.849477     28.241906   0.000000   0.000000
   11       33.435170     34.296434   0.000000   0.000000
   12       37.466510     37.951564   0.000000   0.000000
 
 -0.3500000E+00  0.4500000E+00  0.2500000E+00  0.2400000E-01
    1        1.639453      3.206655   1.000000   1.000000
    2        1.734366      3.699975   1.000000   1.000000
    3        3.873763      5.902901   1.000000  -0.035312
    4        4.652873      6.835444   1.000000  -0.000000
    5        5.436539      7.798430   1.031303  -0.000000
    6        9.667463     10.926066  -0.000000  -0.000000
    7       16.713379     17.553441   0.000000   0.000000
    8       17.209433     17.924443   0.000000   0.000000
    9       23.872711     24.475295   0.000000   0.000000
   10       25.483466     26.016147   0.000000   0.000000
   11       32.958021     33.786558   0.000000   0.000000
   12       38.312583     38.816729   0.000000   0.000000
 
 -0.4500000E+00 -0.4500000E+00  0.2500000E+00  0.2400000E-01
    1        1.532457      3.381991   1.000000   1.000000
    2        1.679845      3.480213   1.000000   1.000000