 vasp.5.4.4.18Apr17-6-g9f103f2a35 (build May 18 2018 14:42:58) complex          
  
 executed on             LinuxIFC date 2020.06.30  16:50:56
 running on    4 total cores
 distrk:  each k-point on    4 cores,    1 groups
 distr:  one band on NCORES_PER_BAND=   1 cores,    4 groups


--------------------------------------------------------------------------------------------------------


 INCAR:
 POTCAR:    PAW_PBE Fe 06Sep2000                  
 POTCAR:    PAW_PBE Fe 06Sep2000                  
   VRHFIN =Fe:  d7 s1                                                           
   LEXCH  = PE                                                                  
   EATOM  =   594.3153 eV,   43.6809 Ry                                         
                                                                                
   TITEL  = PAW_PBE Fe 06Sep2000                                                
   LULTRA =        F    use ultrasoft PP ?                                      
   IUNSCR =        1    unscreen: 0-lin 1-nonlin 2-no                           
   RPACOR =    2.000    partial core radius                                     
   POMASS =   55.847; ZVAL   =    8.000    mass and valenz                      
   RCORE  =    2.300    outmost cutoff radius                                   
   RWIGS  =    2.460; RWIGS  =    1.302    wigner-seitz radius (au A)           
   ENMAX  =  267.882; ENMIN  =  200.911 eV                                      
   RCLOC  =    1.701    cutoff for local pot                                    
   LCOR   =        T    correct aug charges                                     
   LPAW   =        T    paw PP                                                  
   EAUG   =  511.368                                                            
   DEXC   =    0.000                                                            
   RMAX   =    2.356    core radius for proj-oper                               
   RAUG   =    1.300    factor for augmentation sphere                          
   RDEP   =    2.442    radius for radial grids                                 
   RDEPT  =    1.890    core radius for aug-charge                              
                                                                                
   Atomic configuration                                                         
    9 entries                                                                   
     n  l   j            E        occ.                                          
     1  0  0.50     -6993.8440   2.0000                                         
     2  0  0.50      -814.6047   2.0000                                         
     2  1  1.50      -693.3689   6.0000                                         
     3  0  0.50       -89.4732   2.0000                                         
     3  1  1.50       -55.6373   6.0000                                         
     3  2  2.50        -3.8151   7.0000                                         
     4  0  0.50        -4.2551   1.0000                                         
     4  1  1.50        -3.4015   0.0000                                         
     4  3  2.50        -1.3606   0.0000                                         
   Description                                                                  
     l       E           TYP  RCUT    TYP  RCUT                                 
     2     -3.8151135     23  2.300                                             
     2     -5.1756961     23  2.300                                             
     0     -4.2550963     23  2.300                                             
     0      7.2035603     23  2.300                                             
     1     -2.7211652     23  2.300                                             
     1     18.4316424     23  2.300                                             
  local pseudopotential read in
  partial core-charges read in
  partial kinetic energy density read in
  atomic valenz-charges read in
  non local Contribution for L=           2  read in
    real space projection operators read in
  non local Contribution for L=           2  read in
    real space projection operators read in
  non local Contribution for L=           0  read in
    real space projection operators read in
  non local Contribution for L=           0  read in
    real space projection operators read in
  non local Contribution for L=           1  read in
    real space projection operators read in
  non local Contribution for L=           1  read in
    real space projection operators read in
    PAW grid and wavefunctions read in
 
   number of l-projection  operators is LMAX  =           6
   number of lm-projection operators is LMMAX =          18
 
  PAW_PBE Fe 06Sep2000                  :
 energy of atom  1       EATOM= -594.3153
 kinetic energy error for atom=    0.0345 (will be added to EATOM!!)
 
 
 POSCAR: BCC Fe Bulk                             
  positions in direct lattice
  No initial velocities read in
 exchange correlation table for  LEXCH =        8
   RHO(1)=    0.500       N(1)  =     2000
   RHO(2)=  100.500       N(2)  =     4000
 


--------------------------------------------------------------------------------------------------------


 ion  position               nearest neighbor table
   1  0.000  0.000  0.000-
 
  LATTYP: Found a body centered cubic cell.
 ALAT       =     2.8500000000
  
  Lattice vectors:
  
 A1 = (  -1.4250000000,   1.4250000000,   1.4250000000)
 A2 = (   1.4250000000,  -1.4250000000,   1.4250000000)
 A3 = (   1.4250000000,   1.4250000000,  -1.4250000000)


Analysis of symmetry for initial positions (statically):
=====================================================================
 Subroutine PRICEL returns:
 Original cell was already a primitive cell.
 

 Routine SETGRP: Setting up the symmetry group for a 
 body centered cubic supercell.


 Subroutine GETGRP returns: Found 48 space group operations
 (whereof 48 operations were pure point group operations)
 out of a pool of 48 trial point group operations.


The static configuration has the point symmetry O_h .


Analysis of symmetry for dynamics (positions and initial velocities):
=====================================================================
 Subroutine PRICEL returns:
 Original cell was already a primitive cell.
 

 Routine SETGRP: Setting up the symmetry group for a 
 body centered cubic supercell.


 Subroutine GETGRP returns: Found 48 space group operations
 (whereof 48 operations were pure point group operations)
 out of a pool of 48 trial point group operations.


The dynamic configuration has the point symmetry O_h .


Analysis of structural, dynamic, and magnetic symmetry:
=====================================================================
 Subroutine PRICEL returns:
 Original cell was already a primitive cell.
 

 Routine SETGRP: Setting up the symmetry group for a 
 body centered cubic supercell.


 Subroutine GETGRP returns: Found 48 space group operations
 (whereof 48 operations were pure point group operations)
 out of a pool of 48 trial point group operations.


The magnetic configuration has the point symmetry O_h .


 Subroutine INISYM returns: Found 48 space group operations
 (whereof 48 operations are pure point group operations),
 and found     1 'primitive' translations

 
 
 KPOINTS: 10x10x10                                

Automatic generation of k-mesh.
Space group operators:
 irot       det(A)        alpha          n_x          n_y          n_z        tau_x        tau_y        tau_z
    1     1.000000     0.000000     1.000000     0.000000     0.000000     0.000000     0.000000     0.000000
    2    -1.000000     0.000000     1.000000     0.000000     0.000000     0.000000     0.000000     0.000000
    3     1.000000   120.000000    -0.577350    -0.577350    -0.577350     0.000000     0.000000     0.000000
    4    -1.000000   120.000000    -0.577350    -0.577350    -0.577350     0.000000     0.000000     0.000000
    5     1.000000   120.000000     0.577350     0.577350     0.577350     0.000000     0.000000     0.000000
    6    -1.000000   120.000000     0.577350     0.577350     0.577350     0.000000     0.000000     0.000000
    7     1.000000    90.000000     0.000000     0.000000    -1.000000     0.000000     0.000000     0.000000
    8    -1.000000    90.000000     0.000000     0.000000    -1.000000     0.000000     0.000000     0.000000
    9     1.000000   180.000000     0.000000     0.707107     0.707107     0.000000     0.000000     0.000000
   10    -1.000000   180.000000     0.000000     0.707107     0.707107     0.000000     0.000000     0.000000
   11     1.000000    90.000000     0.000000     1.000000     0.000000     0.000000     0.000000     0.000000
   12    -1.000000    90.000000     0.000000     1.000000     0.000000     0.000000     0.000000     0.000000
   13     1.000000   179.999999     0.000000     0.000000     1.000000     0.000000     0.000000     0.000000
   14    -1.000000   179.999999     0.000000     0.000000     1.000000     0.000000     0.000000     0.000000
   15     1.000000   120.000000    -0.577350     0.577350     0.577350     0.000000     0.000000     0.000000
   16    -1.000000   120.000000    -0.577350     0.577350     0.577350     0.000000     0.000000     0.000000
   17     1.000000   120.000000    -0.577350     0.577350    -0.577350     0.000000     0.000000     0.000000
   18    -1.000000   120.000000    -0.577350     0.577350    -0.577350     0.000000     0.000000     0.000000
   19     1.000000    90.000000     0.000000     0.000000     1.000000     0.000000     0.000000     0.000000
   20    -1.000000    90.000000     0.000000     0.000000     1.000000     0.000000     0.000000     0.000000
   21     1.000000    90.000000    -1.000000     0.000000     0.000000     0.000000     0.000000     0.000000
   22    -1.000000    90.000000    -1.000000     0.000000     0.000000     0.000000     0.000000     0.000000
   23     1.000000   180.000000     0.707107     0.000000     0.707107     0.000000     0.000000     0.000000
   24    -1.000000   180.000000     0.707107     0.000000     0.707107     0.000000     0.000000     0.000000
   25     1.000000   120.000000     0.577350    -0.577350     0.577350     0.000000     0.000000     0.000000
   26    -1.000000   120.000000     0.577350    -0.577350     0.577350     0.000000     0.000000     0.000000
   27     1.000000   120.000000    -0.577350    -0.577350     0.577350     0.000000     0.000000     0.000000
   28    -1.000000   120.000000    -0.577350    -0.577350     0.577350     0.000000     0.000000     0.000000
   29     1.000000   180.000000     1.000000     0.000000     0.000000     0.000000     0.000000     0.000000
   30    -1.000000   180.000000     1.000000     0.000000     0.000000     0.000000     0.000000     0.000000
   31     1.000000    90.000000     0.000000    -1.000000     0.000000     0.000000     0.000000     0.000000
   32    -1.000000    90.000000     0.000000    -1.000000     0.000000     0.000000     0.000000     0.000000
   33     1.000000   180.000000     0.707107     0.707107     0.000000     0.000000     0.000000     0.000000
   34    -1.000000   180.000000     0.707107     0.707107     0.000000     0.000000     0.000000     0.000000
   35     1.000000    90.000000     1.000000     0.000000     0.000000     0.000000     0.000000     0.000000
   36    -1.000000    90.000000     1.000000     0.000000     0.000000     0.000000     0.000000     0.000000
   37     1.000000   120.000000     0.577350    -0.577350    -0.577350     0.000000     0.000000     0.000000
   38    -1.000000   120.000000     0.577350    -0.577350    -0.577350     0.000000     0.000000     0.000000
   39     1.000000   180.000000     0.000000     1.000000     0.000000     0.000000     0.000000     0.000000
   40    -1.000000   180.000000     0.000000     1.000000     0.000000     0.000000     0.000000     0.000000
   41     1.000000   120.000000     0.577350     0.577350    -0.577350     0.000000     0.000000     0.000000
   42    -1.000000   120.000000     0.577350     0.577350    -0.577350     0.000000     0.000000     0.000000
   43     1.000000   180.000000     0.000000    -0.707107     0.707107     0.000000     0.000000     0.000000
   44    -1.000000   180.000000     0.000000    -0.707107     0.707107     0.000000     0.000000     0.000000
   45     1.000000   180.000000     0.707107    -0.707107     0.000000     0.000000     0.000000     0.000000
   46    -1.000000   180.000000     0.707107    -0.707107     0.000000     0.000000     0.000000     0.000000
   47     1.000000   180.000000     0.707107     0.000000    -0.707107     0.000000     0.000000     0.000000
   48    -1.000000   180.000000     0.707107     0.000000    -0.707107     0.000000     0.000000     0.000000
 
 Subroutine IBZKPT returns following result:
 ===========================================
 
 Found     44 irreducible k-points:
 
 Following reciprocal coordinates:
            Coordinates               Weight
  0.050000  0.050000  0.050000      8.000000
  0.150000  0.050000  0.050000     24.000000
  0.250000  0.050000  0.050000     24.000000
  0.350000  0.050000  0.050000     24.000000
  0.450000  0.050000  0.050000     12.000000
 -0.050000  0.050000  0.050000      6.000000
  0.150000  0.150000  0.050000     24.000000
  0.250000  0.150000  0.050000     48.000000
  0.350000  0.150000  0.050000     48.000000
 -0.150000  0.150000  0.050000     24.000000
  0.250000  0.250000  0.050000     24.000000
  0.350000  0.250000  0.050000     24.000000
 -0.250000  0.250000  0.050000     24.000000
 -0.150000  0.250000  0.050000     24.000000
 -0.350000  0.350000  0.050000     24.000000
 -0.250000  0.350000  0.050000     48.000000
 -0.450000  0.450000  0.050000     24.000000
 -0.350000  0.450000  0.050000     48.000000
 -0.250000  0.450000  0.050000     24.000000
 -0.450000 -0.450000  0.050000     24.000000
 -0.350000 -0.450000  0.050000     48.000000
 -0.350000 -0.350000  0.050000      8.000000
  0.150000  0.150000  0.150000      8.000000
  0.250000  0.150000  0.150000     24.000000
  0.350000  0.150000  0.150000     12.000000
 -0.150000  0.150000  0.150000      6.000000
  0.250000  0.250000  0.150000     24.000000
 -0.250000  0.250000  0.150000     24.000000
 -0.350000  0.350000  0.150000     24.000000
 -0.250000  0.350000  0.150000     24.000000
 -0.450000  0.450000  0.150000     24.000000
 -0.350000  0.450000  0.150000     48.000000
 -0.450000 -0.450000  0.150000     24.000000
 -0.350000 -0.450000  0.150000     24.000000
  0.250000  0.250000  0.250000      2.000000
 -0.250000  0.250000  0.250000      6.000000
 -0.350000  0.350000  0.250000     24.000000
 -0.450000  0.450000  0.250000     24.000000
 -0.350000  0.450000  0.250000     24.000000
 -0.450000 -0.450000  0.250000     24.000000
 -0.350000  0.350000  0.350000      6.000000
 -0.450000  0.450000  0.350000     24.000000
 -0.450000 -0.450000  0.350000      8.000000
 -0.450000  0.450000  0.450000      6.000000
 
 Following cartesian coordinates:
            Coordinates               Weight
  0.100000  0.100000  0.100000      8.000000
  0.100000  0.200000  0.200000     24.000000
  0.100000  0.300000  0.300000     24.000000
  0.100000  0.400000  0.400000     24.000000
  0.100000  0.500000  0.500000     12.000000
  0.100000  0.000000  0.000000      6.000000
  0.200000  0.200000  0.300000     24.000000
  0.200000  0.300000  0.400000     48.000000
  0.200000  0.400000  0.500000     48.000000
  0.200000 -0.100000  0.000000     24.000000
  0.300000  0.300000  0.500000     24.000000
  0.300000  0.400000  0.600000     24.000000
  0.300000 -0.200000  0.000000     24.000000
  0.300000 -0.100000  0.100000     24.000000
  0.400000 -0.300000  0.000000     24.000000
  0.400000 -0.200000  0.100000     48.000000
  0.500000 -0.400000  0.000000     24.000000
  0.500000 -0.300000  0.100000     48.000000
  0.500000 -0.200000  0.200000     24.000000
 -0.400000 -0.400000 -0.900000     24.000000
 -0.400000 -0.300000 -0.800000     48.000000
 -0.300000 -0.300000 -0.700000      8.000000
  0.300000  0.300000  0.300000      8.000000
  0.300000  0.400000  0.400000     24.000000
  0.300000  0.500000  0.500000     12.000000
  0.300000  0.000000  0.000000      6.000000
  0.400000  0.400000  0.500000     24.000000
  0.400000 -0.100000  0.000000     24.000000
  0.500000 -0.200000  0.000000     24.000000
  0.500000 -0.100000  0.100000     24.000000
  0.600000 -0.300000  0.000000     24.000000
  0.600000 -0.200000  0.100000     48.000000
 -0.300000 -0.300000 -0.900000     24.000000
 -0.300000 -0.200000 -0.800000     24.000000
  0.500000  0.500000  0.500000      2.000000
  0.500000  0.000000  0.000000      6.000000
  0.600000 -0.100000  0.000000     24.000000
  0.700000 -0.200000  0.000000     24.000000
  0.700000 -0.100000  0.100000     24.000000
 -0.200000 -0.200000 -0.900000     24.000000
  0.700000  0.000000  0.000000      6.000000
  0.800000 -0.100000  0.000000     24.000000
 -0.100000 -0.100000 -0.900000      8.000000
  0.900000  0.000000  0.000000      6.000000
 


--------------------------------------------------------------------------------------------------------




 Dimension of arrays:
   k-points           NKPTS =     44   k-points in BZ     NKDIM =     44   number of bands    NBANDS=     12
   number of dos      NEDOS =    301   number of ions     NIONS =      1
   non local maximal  LDIM  =      6   non local SUM 2l+1 LMDIM =     18
   total plane-waves  NPLWV =   1000
   max r-space proj   IRMAX =      1   max aug-charges    IRDMAX=   3277
   dimension x,y,z NGX =    10 NGY =   10 NGZ =   10
   dimension x,y,z NGXF=    20 NGYF=   20 NGZF=   20
   support grid    NGXF=    20 NGYF=   20 NGZF=   20
   ions per type =               1
   NGX,Y,Z   is equivalent  to a cutoff of   6.74,  6.74,  6.74 a.u.
   NGXF,Y,Z  is equivalent  to a cutoff of  13.47, 13.47, 13.47 a.u.

 SYSTEM =  bcc Fe                                  
 POSCAR =  BCC Fe Bulk                             

 Startparameter for this run:
   NWRITE =      2    write-flag & timer
   PREC   = normal    normal or accurate (medium, high low for compatibility)
   ISTART =      0    job   : 0-new  1-cont  2-samecut
   ICHARG =      2    charge: 1-file 2-atom 10-const
   ISPIN  =      2    spin polarized calculation?
   LNONCOLLINEAR =      F non collinear calculations
   LSORBIT =      F    spin-orbit coupling
   INIWAV =      1    electr: 0-lowe 1-rand  2-diag
   LASPH  =      F    aspherical Exc in radial PAW
   METAGGA=      F    non-selfconsistent MetaGGA calc.

 Electronic Relaxation 1
   ENCUT  =  268.0 eV  19.70 Ry    4.44 a.u.   3.29  3.29  3.29*2*pi/ulx,y,z
   ENINI  =  268.0     initial cutoff
   ENAUG  =  511.4 eV  augmentation charge cutoff
   NELM   =     60;   NELMIN=  2; NELMDL= -5     # of ELM steps 
   EDIFF  = 0.1E-03   stopping-criterion for ELM
   LREAL  =      F    real-space projection
   NLSPLINE    = F    spline interpolate recip. space projectors
   LCOMPAT=      F    compatible to vasp.4.4
   GGA_COMPAT  = T    GGA compatible to vasp.4.4-vasp.4.6
   LMAXPAW     = -100 max onsite density
   LMAXMIX     =    2 max onsite mixed and CHGCAR
   VOSKOWN=      0    Vosko Wilk Nusair interpolation
   ROPT   =    0.00000
 Ionic relaxation
   EDIFFG = 0.1E-02   stopping-criterion for IOM
   NSW    =      0    number of steps for IOM
   NBLOCK =      1;   KBLOCK =      1    inner block; outer block 
   IBRION =     -1    ionic relax: 0-MD 1-quasi-New 2-CG
   NFREE  =      0    steps in history (QN), initial steepest desc. (CG)
   ISIF   =      2    stress and relaxation
   IWAVPR =     10    prediction:  0-non 1-charg 2-wave 3-comb
   ISYM   =      2    0-nonsym 1-usesym 2-fastsym
   LCORR  =      T    Harris-Foulkes like correction to forces

   POTIM  = 0.5000    time-step for ionic-motion
   TEIN   =    0.0    initial temperature
   TEBEG  =    0.0;   TEEND  =   0.0 temperature during run
   SMASS  =  -3.00    Nose mass-parameter (am)
   estimated Nose-frequenzy (Omega)   =  0.10E-29 period in steps =****** mass=  -0.139E-27a.u.
   SCALEE = 1.0000    scale energy and forces
   NPACO  =    256;   APACO  = 16.0  distance and # of slots for P.C.
   PSTRESS=    0.0 pullay stress

  Mass of Ions in am
   POMASS =  55.85
  Ionic Valenz
   ZVAL   =   8.00
  Atomic Wigner-Seitz radii
   RWIGS  =   1.30
  virtual crystal weights 
   VCA    =   1.00
   NELECT =       8.0000    total number of electrons
   NUPDOWN=      -1.0000    fix difference up-down

 DOS related values:
   EMIN   =  10.00;   EMAX   =-10.00  energy-range for DOS
   EFERMI =   0.00
   ISMEAR =     1;   SIGMA  =   0.20  broadening in eV -4-tet -1-fermi 0-gaus

 Electronic relaxation 2 (details)
   IALGO  =     38    algorithm
   LDIAG  =      T    sub-space diagonalisation (order eigenvalues)
   LSUBROT=      F    optimize rotation matrix (better conditioning)
   TURBO    =      0    0=normal 1=particle mesh
   IRESTART =      0    0=no restart 2=restart with 2 vectors
   NREBOOT  =      0    no. of reboots
   NMIN     =      0    reboot dimension
   EREF     =   0.00    reference energy to select bands
   IMIX   =      4    mixing-type and parameters
     AMIX     =   0.40;   BMIX     =  1.00
     AMIX_MAG =   1.60;   BMIX_MAG =  1.00
     AMIN     =   0.10
     WC   =   100.;   INIMIX=   1;  MIXPRE=   1;  MAXMIX= -45

 Intra band minimization:
   WEIMIN = 0.0000     energy-eigenvalue tresh-hold
   EBREAK =  0.21E-05  absolut break condition
   DEPER  =   0.30     relativ break condition  

   TIME   =   0.40     timestep for ELM

  volume/ion in A,a.u.               =      11.57        78.11
  Fermi-wavevector in a.u.,A,eV,Ry     =   1.447449  2.735282 28.505687  2.095109
  Thomas-Fermi vector in A             =   2.565403
 
 Write flags
   LWAVE        =      T    write WAVECAR
   LDOWNSAMPLE  =      F    k-point downsampling of WAVECAR
   LCHARG       =      T    write CHGCAR
   LVTOT        =      F    write LOCPOT, total local potential
   LVHAR        =      F    write LOCPOT, Hartree potential only
   LELF         =      F    write electronic localiz. function (ELF)
   LORBIT       =      0    0 simple, 1 ext, 2 COOP (PROOUT), +10 PAW based schemes


 Dipole corrections
   LMONO  =      F    monopole corrections only (constant potential shift)
   LDIPOL =      F    correct potential (dipole corrections)
   IDIPOL =      0    1-x, 2-y, 3-z, 4-all directions 
   EPSILON=  1.0000000 bulk dielectric constant

 Exchange correlation treatment:
   GGA     =    --    GGA type
   LEXCH   =     8    internal setting for exchange type
   VOSKOWN=      0    Vosko Wilk Nusair interpolation
   LHFCALC =     F    Hartree Fock is set to
   LHFONE  =     F    Hartree Fock one center treatment
   AEXX    =    0.0000 exact exchange contribution

 Linear response parameters
   LEPSILON=     F    determine dielectric tensor
   LRPA    =     F    only Hartree local field effects (RPA)
   LNABLA  =     F    use nabla operator in PAW spheres
   LVEL    =     F    velocity operator in full k-point grid
   LINTERFAST=   F  fast interpolation
   KINTER  =     0    interpolate to denser k-point grid
   CSHIFT  =0.1000    complex shift for real part using Kramers Kronig
   OMEGAMAX=  -1.0    maximum frequency
   DEG_THRESHOLD= 0.2000000E-02 threshold for treating states as degnerate
   RTIME   =   -0.100 relaxation time in fs
  (WPLASMAI=    0.000 imaginary part of plasma frequency in eV, 0.658/RTIME)
   DFIELD  = 0.0000000 0.0000000 0.0000000 field for delta impulse in time
 
 Orbital magnetization related:
   ORBITALMAG=     F  switch on orbital magnetization
   LCHIMAG   =     F  perturbation theory with respect to B field
   DQ        =  0.001000  dq finite difference perturbation B field
   LLRAUG    =     F  two centre corrections for induced B field



--------------------------------------------------------------------------------------------------------


 Static calculation
 charge density and potential will be updated during run
 spin polarized calculation
 Variant of blocked Davidson
 Davidson routine will perform the subspace rotation
 perform sub-space diagonalisation
    after iterative eigenvector-optimisation
 modified Broyden-mixing scheme, WC =      100.0
 initial mixing is a Kerker type mixing with AMIX =  0.4000 and BMIX =      1.0000
 Hartree-type preconditioning will be used
 using additional bands            8
 reciprocal scheme for non local part
 use partial core corrections
 calculate Harris-corrections to forces 
   (improved forces if not selfconsistent)
 use gradient corrections 
 use of overlap-Matrix (Vanderbilt PP)
 Methfessel and Paxton  Order N= 1 SIGMA  =   0.20


--------------------------------------------------------------------------------------------------------


  energy-cutoff  :      268.00
  volume of cell :       11.57
      direct lattice vectors                 reciprocal lattice vectors
    -1.425000000  1.425000000  1.425000000     0.000000000  0.350877193  0.350877193
     1.425000000 -1.425000000  1.425000000     0.350877193  0.000000000  0.350877193
     1.425000000  1.425000000 -1.425000000     0.350877193  0.350877193  0.000000000

  length of vectors
     2.468172401  2.468172401  2.468172401     0.496215285  0.496215285  0.496215285


 
 k-points in units of 2pi/SCALE and weight: 10x10x10                                
   0.10000000  0.10000000  0.10000000       0.008
   0.10000000  0.20000000  0.20000000       0.024
   0.10000000  0.30000000  0.30000000       0.024
   0.10000000  0.40000000  0.40000000       0.024
   0.10000000  0.50000000  0.50000000       0.012
   0.10000000  0.00000000  0.00000000       0.006
   0.20000000  0.20000000  0.30000000       0.024
   0.20000000  0.30000000  0.40000000       0.048
   0.20000000  0.40000000  0.50000000       0.048
   0.20000000 -0.10000000  0.00000000       0.024
   0.30000000  0.30000000  0.50000000       0.024
   0.30000000  0.40000000  0.60000000       0.024
   0.30000000 -0.20000000  0.00000000       0.024
   0.30000000 -0.10000000  0.10000000       0.024
   0.40000000 -0.30000000  0.00000000       0.024
   0.40000000 -0.20000000  0.10000000       0.048
   0.50000000 -0.40000000  0.00000000       0.024
   0.50000000 -0.30000000  0.10000000       0.048
   0.50000000 -0.20000000  0.20000000       0.024
  -0.40000000 -0.40000000 -0.90000000       0.024
  -0.40000000 -0.30000000 -0.80000000       0.048
  -0.30000000 -0.30000000 -0.70000000       0.008
   0.30000000  0.30000000  0.30000000       0.008
   0.30000000  0.40000000  0.40000000       0.024
   0.30000000  0.50000000  0.50000000       0.012
   0.30000000  0.00000000  0.00000000       0.006
   0.40000000  0.40000000  0.50000000       0.024
   0.40000000 -0.10000000  0.00000000       0.024
   0.50000000 -0.20000000  0.00000000       0.024
   0.50000000 -0.10000000  0.10000000       0.024
   0.60000000 -0.30000000  0.00000000       0.024
   0.60000000 -0.20000000  0.10000000       0.048
  -0.30000000 -0.30000000 -0.90000000       0.024
  -0.30000000 -0.20000000 -0.80000000       0.024
   0.50000000  0.50000000  0.50000000       0.002
   0.50000000  0.00000000  0.00000000       0.006
   0.60000000 -0.10000000  0.00000000       0.024
   0.70000000 -0.20000000  0.00000000       0.024
   0.70000000 -0.10000000  0.10000000       0.024
  -0.20000000 -0.20000000 -0.90000000       0.024
   0.70000000  0.00000000  0.00000000       0.006
   0.80000000 -0.10000000  0.00000000       0.024
  -0.10000000 -0.10000000 -0.90000000       0.008
   0.90000000  0.00000000  0.00000000       0.006
 
 k-points in reciprocal lattice and weights: 10x10x10                                
   0.05000000  0.05000000  0.05000000       0.008
   0.15000000  0.05000000  0.05000000       0.024
   0.25000000  0.05000000  0.05000000       0.024
   0.35000000  0.05000000  0.05000000       0.024
   0.45000000  0.05000000  0.05000000       0.012
  -0.05000000  0.05000000  0.05000000       0.006
   0.15000000  0.15000000  0.05000000       0.024
   0.25000000  0.15000000  0.05000000       0.048
   0.35000000  0.15000000  0.05000000       0.048
  -0.15000000  0.15000000  0.05000000       0.024
   0.25000000  0.25000000  0.05000000       0.024
   0.35000000  0.25000000  0.05000000       0.024
  -0.25000000  0.25000000  0.05000000       0.024
  -0.15000000  0.25000000  0.05000000       0.024
  -0.35000000  0.35000000  0.05000000       0.024
  -0.25000000  0.35000000  0.05000000       0.048
  -0.45000000  0.45000000  0.05000000       0.024
  -0.35000000  0.45000000  0.05000000       0.048
  -0.25000000  0.45000000  0.05000000       0.024
  -0.45000000 -0.45000000  0.05000000       0.024
  -0.35000000 -0.45000000  0.05000000       0.048
  -0.35000000 -0.35000000  0.05000000       0.008
   0.15000000  0.15000000  0.15000000       0.008
   0.25000000  0.15000000  0.15000000       0.024
   0.35000000  0.15000000  0.15000000       0.012
  -0.15000000  0.15000000  0.15000000       0.006
   0.25000000  0.25000000  0.15000000       0.024
  -0.25000000  0.25000000  0.15000000       0.024
  -0.35000000  0.35000000  0.15000000       0.024
  -0.25000000  0.35000000  0.15000000       0.024
  -0.45000000  0.45000000  0.15000000       0.024
  -0.35000000  0.45000000  0.15000000       0.048
  -0.45000000 -0.45000000  0.15000000       0.024
  -0.35000000 -0.45000000  0.15000000       0.024
   0.25000000  0.25000000  0.25000000       0.002
  -0.25000000  0.25000000  0.25000000       0.006
  -0.35000000  0.35000000  0.25000000       0.024
  -0.45000000  0.45000000  0.25000000       0.024
  -0.35000000  0.45000000  0.25000000       0.024
  -0.45000000 -0.45000000  0.25000000       0.024
  -0.35000000  0.35000000  0.35000000       0.006
  -0.45000000  0.45000000  0.35000000       0.024
  -0.45000000 -0.45000000  0.35000000       0.008
  -0.45000000  0.45000000  0.45000000       0.006
 
 position of ions in fractional coordinates (direct lattice) 
   0.00000000  0.00000000  0.00000000
 
 position of ions in cartesian coordinates  (Angst):
   0.00000000  0.00000000  0.00000000
 


--------------------------------------------------------------------------------------------------------


 k-point  1 :   0.0500 0.0500 0.0500  plane waves:     123
 k-point  2 :   0.1500 0.0500 0.0500  plane waves:     115
 k-point  3 :   0.2500 0.0500 0.0500  plane waves:     114
 k-point  4 :   0.3500 0.0500 0.0500  plane waves:     114
 k-point  5 :   0.4500 0.0500 0.0500  plane waves:     114
 k-point  6 :  -0.0500 0.0500 0.0500  plane waves:     127
 k-point  7 :   0.1500 0.1500 0.0500  plane waves:     113
 k-point  8 :   0.2500 0.1500 0.0500  plane waves:     114
 k-point  9 :   0.3500 0.1500 0.0500  plane waves:     118
 k-point 10 :  -0.1500 0.1500 0.0500  plane waves:     118
 k-point 11 :   0.2500 0.2500 0.0500  plane waves:     120
 k-point 12 :   0.3500 0.2500 0.0500  plane waves:     117
 k-point 13 :  -0.2500 0.2500 0.0500  plane waves:     116
 k-point 14 :  -0.1500 0.2500 0.0500  plane waves:     112
 k-point 15 :  -0.3500 0.3500 0.0500  plane waves:     116
 k-point 16 :  -0.2500 0.3500 0.0500  plane waves:     114
 k-point 17 :  -0.4500 0.4500 0.0500  plane waves:     116
 k-point 18 :  -0.3500 0.4500 0.0500  plane waves:     115
 k-point 19 :  -0.2500 0.4500 0.0500  plane waves:     116
 k-point 20 :  -0.4500-0.4500 0.0500  plane waves:     118
 k-point 21 :  -0.3500-0.4500 0.0500  plane waves:     113
 k-point 22 :  -0.3500-0.3500 0.0500  plane waves:     119
 k-point 23 :   0.1500 0.1500 0.1500  plane waves:     119
 k-point 24 :   0.2500 0.1500 0.1500  plane waves:     119
 k-point 25 :   0.3500 0.1500 0.1500  plane waves:     118
 k-point 26 :  -0.1500 0.1500 0.1500  plane waves:     112
 k-point 27 :   0.2500 0.2500 0.1500  plane waves:     117
 k-point 28 :  -0.2500 0.2500 0.1500  plane waves:     114
 k-point 29 :  -0.3500 0.3500 0.1500  plane waves:     113
 k-point 30 :  -0.2500 0.3500 0.1500  plane waves:     116
 k-point 31 :  -0.4500 0.4500 0.1500  plane waves:     118
 k-point 32 :  -0.3500 0.4500 0.1500  plane waves:     116
 k-point 33 :  -0.4500-0.4500 0.1500  plane waves:     113
 k-point 34 :  -0.3500-0.4500 0.1500  plane waves:     115
 k-point 35 :   0.2500 0.2500 0.2500  plane waves:     104
 k-point 36 :  -0.2500 0.2500 0.2500  plane waves:     116
 k-point 37 :  -0.3500 0.3500 0.2500  plane waves:     115
 k-point 38 :  -0.4500 0.4500 0.2500  plane waves:     113
 k-point 39 :  -0.3500 0.4500 0.2500  plane waves:     110
 k-point 40 :  -0.4500-0.4500 0.2500  plane waves:     110
 k-point 41 :  -0.3500 0.3500 0.3500  plane waves:     112
 k-point 42 :  -0.4500 0.4500 0.3500  plane waves:     115
 k-point 43 :  -0.4500-0.4500 0.3500  plane waves:     116
 k-point 44 :  -0.4500 0.4500 0.4500  plane waves:     116

 maximum and minimum number of plane-waves per node :       127      104

 maximum number of plane-waves:       127
 maximum index in each direction: 
   IXMAX=    3   IYMAX=    3   IZMAX=    3
   IXMIN=   -3   IYMIN=   -3   IZMIN=   -3


 serial   3D FFT for wavefunctions
 parallel 3D FFT for charge:
    minimum data exchange during FFTs selected (reduces bandwidth)


 total amount of memory used by VASP MPI-rank0    31931. kBytes
=======================================================================

   base      :      30000. kBytes
   nonl-proj :        813. kBytes
   fftplans  :        142. kBytes
   grid      :        320. kBytes
   one-center:         31. kBytes
   wavefun   :        625. kBytes
 
     INWAV:  cpu time    0.0001: real time    0.0002
 Broyden mixing: mesh for mixing (old mesh)
   NGX =  7   NGY =  7   NGZ =  7
  (NGX  = 20   NGY  = 20   NGZ  = 20)
  gives a total of    343 points

 initial charge density was supplied:
 charge density of overlapping atoms calculated
 number of electron       8.0000000 magnetization       3.0000000
 keeping initial charge density in first step


--------------------------------------------------------------------------------------------------------


 Maximum index for augmentation-charges          749 (set IRDMAX)


--------------------------------------------------------------------------------------------------------


 First call to EWALD:  gamma=   0.784
 Maximum number of real-space cells 3x 3x 3
 Maximum number of reciprocal cells 3x 3x 3

    FEWALD:  cpu time    0.0014: real time    0.0014


--------------------------------------- Iteration      1(   1)  ---------------------------------------


    POTLOK:  cpu time    0.0047: real time    0.0057
    SETDIJ:  cpu time    0.0053: real time    0.0055
     EDDAV:  cpu time    0.1954: real time    0.1995
       DOS:  cpu time    0.0012: real time    0.0012
    --------------------------------------------
      LOOP:  cpu time    0.2066: real time    0.2119

 eigenvalue-minimisations  :  2432
 total energy-change (2. order) : 0.1026256E+02  (-0.2664725E+03)
 number of electron       8.0000000 magnetization       3.0000000
 augmentation part        8.0000000 magnetization       3.0000000

 Free energy of the ion-electron system (eV)
  ---------------------------------------------------
  alpha Z        PSCENC =        59.71178263
  Ewald energy   TEWEN  =      -588.39789044
  -Hartree energ DENC   =      -112.96750486
  -exchange      EXHF   =         0.00000000
  -V(xc)+E(xc)   XCENC  =         5.02024070
  PAW double counting   =       553.75926685     -561.48528711
  entropy T*S    EENTRO =        -0.00110229
  eigenvalues    EBANDS =        60.34221059
  atomic energy  EATOM  =       594.28084496
  Solvation  Ediel_sol  =         0.00000000
  ---------------------------------------------------
  free energy    TOTEN  =        10.26256104 eV

  energy without entropy =       10.26366333  energy(sigma->0) =       10.26292847


--------------------------------------------------------------------------------------------------------




--------------------------------------- Iteration      1(   2)  ---------------------------------------


     EDDAV:  cpu time    0.1905: real time    0.1953
       DOS:  cpu time    0.0013: real time    0.0013
    --------------------------------------------
      LOOP:  cpu time    0.1918: real time    0.1966

 eigenvalue-minimisations  :  2204
 total energy-change (2. order) :-0.1906338E+02  (-0.1759134E+02)
 number of electron       8.0000000 magnetization       3.0000000
 augmentation part        8.0000000 magnetization       3.0000000

 Free energy of the ion-electron system (eV)
  ---------------------------------------------------
  alpha Z        PSCENC =        59.71178263
  Ewald energy   TEWEN  =      -588.39789044
  -Hartree energ DENC   =      -112.96750486
  -exchange      EXHF   =         0.00000000
  -V(xc)+E(xc)   XCENC  =         5.02024070
  PAW double counting   =       553.75926685     -561.48528711
  entropy T*S    EENTRO =         0.00028601
  eigenvalues    EBANDS =        41.27743906
  atomic energy  EATOM  =       594.28084496
  Solvation  Ediel_sol  =         0.00000000
  ---------------------------------------------------
  free energy    TOTEN  =        -8.80082219 eV

  energy without entropy =       -8.80110820  energy(sigma->0) =       -8.80091753


--------------------------------------------------------------------------------------------------------




--------------------------------------- Iteration      1(   3)  ---------------------------------------


     EDDAV:  cpu time    0.2088: real time    0.2132
       DOS:  cpu time    0.0014: real time    0.0014
    --------------------------------------------
      LOOP:  cpu time    0.2101: real time    0.2146

 eigenvalue-minimisations  :  2460
 total energy-change (2. order) :-0.3341613E+00  (-0.3335103E+00)
 number of electron       8.0000000 magnetization       3.0000000
 augmentation part        8.0000000 magnetization       3.0000000

 Free energy of the ion-electron system (eV)
  ---------------------------------------------------
  alpha Z        PSCENC =        59.71178263
  Ewald energy   TEWEN  =      -588.39789044
  -Hartree energ DENC   =      -112.96750486
  -exchange      EXHF   =         0.00000000
  -V(xc)+E(xc)   XCENC  =         5.02024070
  PAW double counting   =       553.75926685     -561.48528711
  entropy T*S    EENTRO =         0.00101027
  eigenvalues    EBANDS =        40.94255349
  atomic energy  EATOM  =       594.28084496
  Solvation  Ediel_sol  =         0.00000000
  ---------------------------------------------------
  free energy    TOTEN  =        -9.13498349 eV

  energy without entropy =       -9.13599376  energy(sigma->0) =       -9.13532024


--------------------------------------------------------------------------------------------------------




--------------------------------------- Iteration      1(   4)  ---------------------------------------


     EDDAV:  cpu time    0.2100: real time    0.2147
       DOS:  cpu time    0.0014: real time    0.0014
    --------------------------------------------
      LOOP:  cpu time    0.2114: real time    0.2161

 eigenvalue-minimisations  :  2356
 total energy-change (2. order) :-0.8210140E-03  (-0.8209818E-03)
 number of electron       8.0000000 magnetization       3.0000000
 augmentation part        8.0000000 magnetization       3.0000000

 Free energy of the ion-electron system (eV)
  ---------------------------------------------------
  alpha Z        PSCENC =        59.71178263
  Ewald energy   TEWEN  =      -588.39789044
  -Hartree energ DENC   =      -112.96750486
  -exchange      EXHF   =         0.00000000
  -V(xc)+E(xc)   XCENC  =         5.02024070
  PAW double counting   =       553.75926685     -561.48528711
  entropy T*S    EENTRO =         0.00101036
  eigenvalues    EBANDS =        40.94173240
  atomic energy  EATOM  =       594.28084496
  Solvation  Ediel_sol  =         0.00000000
  ---------------------------------------------------
  free energy    TOTEN  =        -9.13580450 eV

  energy without entropy =       -9.13681486  energy(sigma->0) =       -9.13614129


--------------------------------------------------------------------------------------------------------




--------------------------------------- Iteration      1(   5)  ---------------------------------------


     EDDAV:  cpu time    0.1856: real time    0.1903
       DOS:  cpu time    0.0014: real time    0.0014
    CHARGE:  cpu time    0.0035: real time    0.0035
    MIXING:  cpu time    0.0005: real time    0.0004
    --------------------------------------------
      LOOP:  cpu time    0.1910: real time    0.1957

 eigenvalue-minimisations  :  1940
 total energy-change (2. order) :-0.3692628E-05  (-0.3693844E-05)
 number of electron       8.0000064 magnetization       1.8765072
 augmentation part        3.6265972 magnetization       1.2388951

 Broyden mixing:
  rms(total) = 0.11046E+01    rms(broyden)= 0.11041E+01
  rms(prec ) = 0.33802E+01
  weight for this iteration     100.00

 Free energy of the ion-electron system (eV)
  ---------------------------------------------------
  alpha Z        PSCENC =        59.71178263
  Ewald energy   TEWEN  =      -588.39789044
  -Hartree energ DENC   =      -112.96750486
  -exchange      EXHF   =         0.00000000
  -V(xc)+E(xc)   XCENC  =         5.02024070
  PAW double counting   =       553.75926685     -561.48528711
  entropy T*S    EENTRO =         0.00101036
  eigenvalues    EBANDS =        40.94172871
  atomic energy  EATOM  =       594.28084496
  Solvation  Ediel_sol  =         0.00000000
  ---------------------------------------------------
  free energy    TOTEN  =        -9.13580819 eV

  energy without entropy =       -9.13681855  energy(sigma->0) =       -9.13614498


--------------------------------------------------------------------------------------------------------




--------------------------------------- Iteration      1(   6)  ---------------------------------------


    POTLOK:  cpu time    0.0044: real time    0.0046
    SETDIJ:  cpu time    0.0053: real time    0.0053
     EDDAV:  cpu time    0.2107: real time    0.2153
       DOS:  cpu time    0.0015: real time    0.0014
    CHARGE:  cpu time    0.0033: real time    0.0033
    MIXING:  cpu time    0.0005: real time    0.0005
    --------------------------------------------
      LOOP:  cpu time    0.2257: real time    0.2306

 eigenvalue-minimisations  :  2364
 total energy-change (2. order) : 0.8250131E+00  (-0.1052989E+01)
 number of electron       8.0000076 magnetization       2.2116612
 augmentation part        4.2858862 magnetization       1.8257868

 Broyden mixing:
  rms(total) = 0.51357E+00    rms(broyden)= 0.51334E+00
  rms(prec ) = 0.76151E+00
  weight for this iteration     100.00

 eigenvalues of (default mixing * dielectric matrix)
  average eigenvalue GAMMA=   0.6829
  0.6829

 Free energy of the ion-electron system (eV)
  ---------------------------------------------------
  alpha Z        PSCENC =        59.71178263
  Ewald energy   TEWEN  =      -588.39789044
  -Hartree energ DENC   =       -96.29655504
  -exchange      EXHF   =         0.00000000
  -V(xc)+E(xc)   XCENC  =         3.91087801
  PAW double counting   =       603.86763507     -609.53216517
  entropy T*S    EENTRO =        -0.00190148
  eigenvalues    EBANDS =        24.14657637
  atomic energy  EATOM  =       594.28084496
  Solvation  Ediel_sol  =         0.00000000
  ---------------------------------------------------
  free energy    TOTEN  =        -8.31079508 eV

  energy without entropy =       -8.30889360  energy(sigma->0) =       -8.31016126


--------------------------------------------------------------------------------------------------------




--------------------------------------- Iteration      1(   7)  ---------------------------------------


    POTLOK:  cpu time    0.0041: real time    0.0042
    SETDIJ:  cpu time    0.0049: real time    0.0049
     EDDAV:  cpu time    0.2097: real time    0.2142
       DOS:  cpu time    0.0013: real time    0.0013
    CHARGE:  cpu time    0.0033: real time    0.0033
    MIXING:  cpu time    0.0005: real time    0.0005
    --------------------------------------------
      LOOP:  cpu time    0.2239: real time    0.2284

 eigenvalue-minimisations  :  2436
 total energy-change (2. order) : 0.6696335E-01  (-0.6106357E-01)
 number of electron       8.0000073 magnetization       2.2825321
 augmentation part        4.1370391 magnetization       1.8654396

 Broyden mixing:
  rms(total) = 0.30407E+00    rms(broyden)= 0.30406E+00
  rms(prec ) = 0.38056E+00
  weight for this iteration     100.00

 eigenvalues of (default mixing * dielectric matrix)
  average eigenvalue GAMMA=   0.7699
  0.9651  0.5746

 Free energy of the ion-electron system (eV)
  ---------------------------------------------------
  alpha Z        PSCENC =        59.71178263
  Ewald energy   TEWEN  =      -588.39789044
  -Hartree energ DENC   =       -98.64278423
  -exchange      EXHF   =         0.00000000
  -V(xc)+E(xc)   XCENC  =         4.31969819
  PAW double counting   =       640.57050471     -647.95597714
  entropy T*S    EENTRO =        -0.00154504
  eigenvalues    EBANDS =        27.87153463
  atomic energy  EATOM  =       594.28084496
  Solvation  Ediel_sol  =         0.00000000
  ---------------------------------------------------
  free energy    TOTEN  =        -8.24383173 eV

  energy without entropy =       -8.24228669  energy(sigma->0) =       -8.24331672


--------------------------------------------------------------------------------------------------------




--------------------------------------- Iteration      1(   8)  ---------------------------------------


    POTLOK:  cpu time    0.0040: real time    0.0042
    SETDIJ:  cpu time    0.0050: real time    0.0050
     EDDAV:  cpu time    0.2111: real time    0.2158
       DOS:  cpu time    0.0013: real time    0.0013
    CHARGE:  cpu time    0.0032: real time    0.0032
    MIXING:  cpu time    0.0005: real time    0.0004
    --------------------------------------------
      LOOP:  cpu time    0.2252: real time    0.2300

 eigenvalue-minimisations  :  2416
 total energy-change (2. order) : 0.3011241E-02  (-0.7025031E-03)
 number of electron       8.0000073 magnetization       2.3972125
 augmentation part        4.1460623 magnetization       1.9725824

 Broyden mixing:
  rms(total) = 0.14818E+00    rms(broyden)= 0.14816E+00
  rms(prec ) = 0.20448E+00
  weight for this iteration     100.00

 eigenvalues of (default mixing * dielectric matrix)
  average eigenvalue GAMMA=   1.1908
  2.1842  0.7751  0.6130

 Free energy of the ion-electron system (eV)
  ---------------------------------------------------
  alpha Z        PSCENC =        59.71178263
  Ewald energy   TEWEN  =      -588.39789044
  -Hartree energ DENC   =       -97.95834953
  -exchange      EXHF   =         0.00000000
  -V(xc)+E(xc)   XCENC  =         4.36529677
  PAW double counting   =       663.52851470     -671.47953744
  entropy T*S    EENTRO =         0.00026177
  eigenvalues    EBANDS =        27.70825609
  atomic energy  EATOM  =       594.28084496
  Solvation  Ediel_sol  =         0.00000000
  ---------------------------------------------------
  free energy    TOTEN  =        -8.24082049 eV

  energy without entropy =       -8.24108226  energy(sigma->0) =       -8.24090775


--------------------------------------------------------------------------------------------------------




--------------------------------------- Iteration      1(   9)  ---------------------------------------


    POTLOK:  cpu time    0.0040: real time    0.0041
    SETDIJ:  cpu time    0.0050: real time    0.0050
     EDDAV:  cpu time    0.2254: real time    0.2300
       DOS:  cpu time    0.0013: real time    0.0013
    CHARGE:  cpu time    0.0037: real time    0.0037
    MIXING:  cpu time    0.0005: real time    0.0005
    --------------------------------------------
      LOOP:  cpu time    0.2408: real time    0.2447

 eigenvalue-minimisations  :  2736
 total energy-change (2. order) : 0.6273372E-02  (-0.9512366E-03)
 number of electron       8.0000074 magnetization       2.3733431
 augmentation part        4.1575142 magnetization       1.9476291

 Broyden mixing:
  rms(total) = 0.41617E-01    rms(broyden)= 0.41571E-01
  rms(prec ) = 0.42554E-01
  weight for this iteration     100.00

 eigenvalues of (default mixing * dielectric matrix)
  average eigenvalue GAMMA=   1.0480
  2.1908  0.7297  0.7297  0.5417

 Free energy of the ion-electron system (eV)
  ---------------------------------------------------
  alpha Z        PSCENC =        59.71178263
  Ewald energy   TEWEN  =      -588.39789044
  -Hartree energ DENC   =       -96.78434870
  -exchange      EXHF   =         0.00000000
  -V(xc)+E(xc)   XCENC  =         4.46712164
  PAW double counting   =       708.23324846     -717.22123525
  entropy T*S    EENTRO =         0.00302028
  eigenvalues    EBANDS =        27.47290929
  atomic energy  EATOM  =       594.28084496
  Solvation  Ediel_sol  =         0.00000000
  ---------------------------------------------------
  free energy    TOTEN  =        -8.23454712 eV

  energy without entropy =       -8.23756740  energy(sigma->0) =       -8.23555388


--------------------------------------------------------------------------------------------------------




--------------------------------------- Iteration      1(  10)  ---------------------------------------


    POTLOK:  cpu time    0.0042: real time    0.0043
    SETDIJ:  cpu time    0.0051: real time    0.0051
     EDDAV:  cpu time    0.1772: real time    0.1812
       DOS:  cpu time    0.0013: real time    0.0013
    CHARGE:  cpu time    0.0034: real time    0.0033
    MIXING:  cpu time    0.0004: real time    0.0005
    --------------------------------------------
      LOOP:  cpu time    0.1908: real time    0.1957

 eigenvalue-minimisations  :  2020
 total energy-change (2. order) :-0.6783389E-03  (-0.1782364E-04)
 number of electron       8.0000074 magnetization       2.3404678
 augmentation part        4.1562273 magnetization       1.9142318

 Broyden mixing:
  rms(total) = 0.26651E-01    rms(broyden)= 0.26649E-01
  rms(prec ) = 0.27338E-01
  weight for this iteration     100.00

 eigenvalues of (default mixing * dielectric matrix)
  average eigenvalue GAMMA=   1.2136
  2.6737  1.2719  0.6458  0.6458  0.8308

 Free energy of the ion-electron system (eV)
  ---------------------------------------------------
  alpha Z        PSCENC =        59.71178263
  Ewald energy   TEWEN  =      -588.39789044
  -Hartree energ DENC   =       -96.77867791
  -exchange      EXHF   =         0.00000000
  -V(xc)+E(xc)   XCENC  =         4.44401358
  PAW double counting   =       709.72889216     -718.73606551
  entropy T*S    EENTRO =         0.00275657
  eigenvalues    EBANDS =        27.50911850
  atomic energy  EATOM  =       594.28084496
  Solvation  Ediel_sol  =         0.00000000
  ---------------------------------------------------
  free energy    TOTEN  =        -8.23522546 eV

  energy without entropy =       -8.23798202  energy(sigma->0) =       -8.23614431


--------------------------------------------------------------------------------------------------------




--------------------------------------- Iteration      1(  11)  ---------------------------------------


    POTLOK:  cpu time    0.0040: real time    0.0041
    SETDIJ:  cpu time    0.0047: real time    0.0047
     EDDAV:  cpu time    0.1768: real time    0.1805
       DOS:  cpu time    0.0013: real time    0.0013
    CHARGE:  cpu time    0.0033: real time    0.0033
    MIXING:  cpu time    0.0005: real time    0.0004
    --------------------------------------------
      LOOP:  cpu time    0.1906: real time    0.1943

 eigenvalue-minimisations  :  2304
 total energy-change (2. order) :-0.4314956E-03  (-0.9228479E-04)
 number of electron       8.0000074 magnetization       2.3377231
 augmentation part        4.1557805 magnetization       1.9092518

 Broyden mixing:
  rms(total) = 0.37395E-02    rms(broyden)= 0.37292E-02
  rms(prec ) = 0.51042E-02
  weight for this iteration     100.00

 eigenvalues of (default mixing * dielectric matrix)
  average eigenvalue GAMMA=   1.1167
  2.5908  1.3051  0.8405  0.6745  0.6745  0.6148

 Free energy of the ion-electron system (eV)
  ---------------------------------------------------
  alpha Z        PSCENC =        59.71178263
  Ewald energy   TEWEN  =      -588.39789044
  -Hartree energ DENC   =       -96.70846860
  -exchange      EXHF   =         0.00000000
  -V(xc)+E(xc)   XCENC  =         4.40277704
  PAW double counting   =       714.49949719     -723.54920876
  entropy T*S    EENTRO =         0.00210493
  eigenvalues    EBANDS =        27.52290409
  atomic energy  EATOM  =       594.28084496
  Solvation  Ediel_sol  =         0.00000000
  ---------------------------------------------------
  free energy    TOTEN  =        -8.23565695 eV

  energy without entropy =       -8.23776188  energy(sigma->0) =       -8.23635859


--------------------------------------------------------------------------------------------------------




--------------------------------------- Iteration      1(  12)  ---------------------------------------


    POTLOK:  cpu time    0.0037: real time    0.0039
    SETDIJ:  cpu time    0.0047: real time    0.0047
     EDDAV:  cpu time    0.1286: real time    0.1322
       DOS:  cpu time    0.0013: real time    0.0013
    --------------------------------------------
      LOOP:  cpu time    0.1385: real time    0.1422

 eigenvalue-minimisations  :  1152
 total energy-change (2. order) : 0.3022179E-05  (-0.1319613E-05)
 number of electron       8.0000074 magnetization       2.3377231
 augmentation part        4.1557805 magnetization       1.9092518

 Free energy of the ion-electron system (eV)
  ---------------------------------------------------
  alpha Z        PSCENC =        59.71178263
  Ewald energy   TEWEN  =      -588.39789044
  -Hartree energ DENC   =       -96.72791329
  -exchange      EXHF   =         0.00000000
  -V(xc)+E(xc)   XCENC  =         4.40063348
  PAW double counting   =       713.99057102     -723.01707082
  entropy T*S    EENTRO =         0.00205631
  eigenvalues    EBANDS =        27.52133221
  atomic energy  EATOM  =       594.28084496
  Solvation  Ediel_sol  =         0.00000000
  ---------------------------------------------------
  free energy    TOTEN  =        -8.23565393 eV

  energy without entropy =       -8.23771024  energy(sigma->0) =       -8.23633937


--------------------------------------------------------------------------------------------------------




 average (electrostatic) potential at core
  the test charge radii are     1.0103
  (the norm of the test charge is              1.0000)
       1 -43.4402
 
 
 
 E-fermi :   5.6517     XC(G=0): -13.0042     alpha+bet :-13.3918


 spin component 1

 k-point     1 :       0.0500    0.0500    0.0500
  band No.  band energies     occupation 
      1      -2.0996      1.00000
      2       3.1988      1.00000
      3       3.1988      1.00000
      4       3.6993      1.00000
      5       4.5215      1.00000
      6       4.5215      1.00000
      7      27.8975      0.00000
      8      27.8975      0.00000
      9      31.0168      0.00000
     10      32.1075      0.00000
     11      35.7975      0.00000
     12      35.7975      0.00000

 k-point     2 :       0.1500    0.0500    0.0500
  band No.  band energies     occupation 
      1      -0.9956      1.00000
      2       2.9088      1.00000
      3       3.0559      1.00000
      4       4.3540      1.00000
      5       4.4204      1.00000
      6       4.6008      1.00000
      7      23.6714      0.00000
      8      25.9844      0.00000
      9      28.7597      0.00000
     10      31.2799      0.00000
     11      35.5054      0.00000
     12      35.8795      0.00000

 k-point     3 :       0.2500    0.0500    0.0500
  band No.  band energies     occupation 
      1       0.3542      1.00000
      2       2.5862      1.00000
      3       3.1359      1.00000
      4       4.4784      1.00000
      5       4.6764      1.00000
      6       5.2691      1.01049
      7      19.0644      0.00000
      8      24.2630      0.00000
      9      26.3708      0.00000
     10      30.8350      0.00000
     11      34.5765      0.00000
     12      37.8487      0.00000

 k-point     4 :       0.3500    0.0500    0.0500
  band No.  band energies     occupation 
      1       0.9100      1.00000
      2       2.3464      1.00000
      3       4.1764      1.00000
      4       4.6171      1.00000
      5       4.7408      1.00000
      6       6.3888     -0.00000
      7      14.9583      0.00000
      8      23.0833      0.00000
      9      24.7609      0.00000
     10      30.4528      0.00000
     11      34.2476      0.00000
     12      40.1081      0.00000

 k-point     5 :       0.4500    0.0500    0.0500
  band No.  band energies     occupation 
      1       0.9349      1.00000
      2       2.2573      1.00000
      3       4.6336      1.00000
      4       4.7664      1.00000
      5       4.9221      1.00000
      6       7.3419     -0.00000
      7      12.8440      0.00000
      8      22.6641      0.00000
      9      24.1699      0.00000
     10      30.3071      0.00000
     11      34.2148      0.00000
     12      40.0167      0.00000

 k-point     6 :      -0.0500    0.0500    0.0500
  band No.  band energies     occupation 
      1      -2.4976      1.00000
      2       3.3228      1.00000
      3       3.3229      1.00000
      4       3.3752      1.00000
      5       4.4844      1.00000
      6       4.6137      1.00000
      7      29.2394      0.00000
      8      30.2479      0.00000
      9      30.2479      0.00000
     10      33.7839      0.00000
     11      35.6175      0.00000
     12      35.6176      0.00000

 k-point     7 :       0.1500    0.1500    0.0500
  band No.  band energies     occupation 
      1       0.2524      1.00000
      2       2.6894      1.00000
      3       2.7181      1.00000
      4       4.4420      1.00000
      5       4.6849      1.00000
      6       5.3262      1.02180
      7      21.3824      0.00000
      8      22.2554      0.00000
      9      25.6158      0.00000
     10      32.5849      0.00000
     11      36.4315      0.00000
     12      37.9393      0.00000

 k-point     8 :       0.2500    0.1500    0.0500
  band No.  band energies     occupation 
      1       1.2631      1.00000
      2       2.4118      1.00000
      3       2.9484      1.00000
      4       4.5361      1.00000
      5       4.7852      1.00000
      6       6.6923     -0.00000
      7      17.2976      0.00000
      8      20.4232      0.00000
      9      23.8636      0.00000
     10      32.7910      0.00000
     11      37.2189      0.00000
     12      38.6109      0.00000

 k-point     9 :       0.3500    0.1500    0.0500
  band No.  band energies     occupation 
      1       1.3648      1.00000
      2       2.2775      1.00000
      3       3.6754      1.00000
      4       4.6442      1.00000
      5       4.8762      1.00000
      6       8.4736     -0.00000
      7      13.6985      0.00000
      8      19.5936      0.00000
      9      22.9706      0.00000
     10      32.6417      0.00000
     11      37.8927      0.00000
     12      38.8726      0.00000

 k-point    10 :      -0.1500    0.1500    0.0500
  band No.  band energies     occupation 
      1      -1.7156      1.00000
      2       3.1429      1.00000
      3       3.2895      1.00000
      4       3.7779      1.00000
      5       4.2906      1.00000
      6       4.6728      1.00000
      7      25.9499      0.00000
      8      28.6156      0.00000
      9      29.3443      0.00000
     10      32.9887      0.00000
     11      33.2023      0.00000
     12      34.1801      0.00000

 k-point    11 :       0.2500    0.2500    0.0500
  band No.  band energies     occupation 
      1       1.7962      1.00000
      2       2.3406      1.00000
      3       2.9258      1.00000
      4       4.6332      1.00000
      5       4.8616      1.00000
      6       8.8335     -0.00000
      7      15.6767      0.00000
      8      16.6727      0.00000
      9      22.7761      0.00000
     10      34.1397      0.00000
     11      36.9807      0.00000
     12      42.8692      0.00000

 k-point    12 :       0.3500    0.2500    0.0500
  band No.  band energies     occupation 
      1       1.8423      1.00000
      2       2.3833      1.00000
      3       2.9945      1.00000
      4       4.7253      1.00000
      5       4.8652      1.00000
      6      10.9452     -0.00000
      7      13.1494      0.00000
      8      15.9544      0.00000
      9      22.4349      0.00000
     10      34.6716      0.00000
     11      36.9749      0.00000
     12      42.5017      0.00000

 k-point    13 :      -0.2500    0.2500    0.0500
  band No.  band energies     occupation 
      1      -0.3853      1.00000
      2       2.8349      1.00000
      3       3.1944      1.00000
      4       4.2863      1.00000
      5       4.4981      1.00000
      6       4.7479      1.00000
      7      21.3229      0.00000
      8      26.4726      0.00000
      9      27.8471      0.00000
     10      31.1535      0.00000
     11      32.8305      0.00000
     12      34.9478      0.00000

 k-point    14 :      -0.1500    0.2500    0.0500
  band No.  band energies     occupation 
      1      -0.6596      1.00000
      2       3.0770      1.00000
      3       3.0775      1.00000
      4       4.1046      1.00000
      5       4.3228      1.00000
      6       4.8183      1.00000
      7      23.5466      0.00000
      8      24.7527      0.00000
      9      29.4540      0.00000
     10      30.2738      0.00000
     11      32.9719      0.00000
     12      36.2013      0.00000

 k-point    15 :      -0.3500    0.3500    0.0500
  band No.  band energies     occupation 
      1       0.6644      1.00000
      2       2.5392      1.00000
      3       3.6574      1.00000
      4       4.5188      1.00000
      5       4.9818      1.00001
      6       5.3009      1.01627
      7      16.8499      0.00000
      8      24.7819      0.00000
      9      26.1078      0.00000
     10      30.1593      0.00000
     11      32.7437      0.00000
     12      36.7775      0.00000

 k-point    16 :      -0.2500    0.3500    0.0500
  band No.  band energies     occupation 
      1       0.6164      1.00000
      2       2.7280      1.00000
      3       3.0403      1.00000
      4       4.2253      1.00000
      5       4.8746      1.00000
      6       5.3930      1.03479
      7      19.3374      0.00000
      8      22.4842      0.00000
      9      27.6208      0.00000
     10      30.0550      0.00000
     11      33.4778      0.00000
     12      36.7893      0.00000

 k-point    17 :      -0.4500    0.4500    0.0500
  band No.  band energies     occupation 
      1       0.8558      1.00000
      2       2.3613      1.00000
      3       4.2903      1.00000
      4       4.5840      1.00000
      5       5.8457     -0.02176
      6       6.2300     -0.00017
      7      13.4287      0.00000
      8      23.8660      0.00000
      9      24.9657      0.00000
     10      29.7763      0.00000
     11      32.8630      0.00000
     12      38.0508      0.00000

 k-point    18 :      -0.3500    0.4500    0.0500
  band No.  band energies     occupation 
      1       1.1427      1.00000
      2       2.5355      1.00000
      3       3.3977      1.00000
      4       4.4559      1.00000
      5       5.2375      1.00632
      6       6.8265     -0.00000
      7      15.1731      0.00000
      8      21.2427      0.00000
      9      26.0281      0.00000
     10      30.2274      0.00000
     11      34.5977      0.00000
     12      36.5775      0.00000

 k-point    19 :      -0.2500    0.4500    0.0500
  band No.  band energies     occupation 
      1       1.4957      1.00000
      2       2.3966      1.00000
      3       3.0361      1.00000
      4       4.3489      1.00000
      5       5.0213      1.00004
      6       7.0629     -0.00000
      7      17.5065      0.00000
      8      18.2836      0.00000
      9      27.1963      0.00000
     10      29.8515      0.00000
     11      33.4052      0.00000
     12      41.0330      0.00000

 k-point    20 :      -0.4500   -0.4500    0.0500
  band No.  band energies     occupation 
      1       1.1524      1.00000
      2       2.4708      1.00000
      3       3.6378      1.00000
      4       4.4861      1.00000
      5       5.5257      0.93305
      6       8.1384     -0.00000
      7      12.8999      0.00000
      8      20.7926      0.00000
      9      25.4665      0.00000
     10      30.2591      0.00000
     11      35.7728      0.00000
     12      35.9192      0.00000

 k-point    21 :      -0.3500   -0.4500    0.0500
  band No.  band energies     occupation 
      1       1.7130      1.00000
      2       2.4327      1.00000
      3       2.9588      1.00000
      4       4.5655      1.00000
      5       5.1637      1.00151
      6       9.3932     -0.00000
      7      13.9886      0.00000
      8      17.1379      0.00000
      9      26.5181      0.00000
     10      30.5078      0.00000
     11      33.5911      0.00000
     12      40.0388      0.00000

 k-point    22 :      -0.3500   -0.3500    0.0500
  band No.  band energies     occupation 
      1       2.1563      1.00000
      2       2.4533      1.00000
      3       2.4533      1.00000
      4       4.8936      1.00000
      5       4.8938      1.00000
      6      12.3340      0.00000
      7      12.3341      0.00000
      8      14.8884      0.00000
      9      26.6287      0.00000
     10      31.9121      0.00000
     11      31.9121      0.00000
     12      39.5625      0.00000

 k-point    23 :       0.1500    0.1500    0.1500
  band No.  band energies     occupation 
      1       1.4766      1.00000
      2       2.4071      1.00000
      3       2.4071      1.00000
      4       4.6527      1.00000
      5       4.6527      1.00000
      6       6.7083     -0.00000
      7      19.7208      0.00000
      8      19.7208      0.00000
      9      21.3318      0.00000
     10      35.4416      0.00000
     11      39.2889      0.00000
     12      39.2889      0.00000

 k-point    24 :       0.2500    0.1500    0.1500
  band No.  band energies     occupation 
      1       1.8933      1.00000
      2       2.2487      1.00000
      3       2.8492      1.00000
      4       4.7054      1.00000
      5       4.7583      1.00000
      6       8.6351     -0.00000
      7      15.8412      0.00000
      8      18.6730      0.00000
      9      19.6564      0.00000
     10      36.4704      0.00000
     11      40.2120      0.00000
     12      41.5402      0.00000

 k-point    25 :       0.3500    0.1500    0.1500
  band No.  band energies     occupation 
      1       1.8089      1.00000
      2       2.2003      1.00000
      3       3.2865      1.00000
      4       4.7398      1.00000
      5       4.7859      1.00000
      6      10.4349     -0.00000
      7      13.2311      0.00000
      8      18.3167      0.00000
      9      19.1893      0.00000
     10      36.4768      0.00000
     11      40.8087      0.00000
     12      41.6497      0.00000

 k-point    26 :      -0.1500    0.1500    0.1500
  band No.  band energies     occupation 
      1      -0.9854      1.00000
      2       3.3845      1.00000
      3       3.3847      1.00000
      4       3.7948      1.00000
      5       3.8152      1.00000
      6       4.8821      1.00000
      7      25.5321      0.00000
      8      27.1223      0.00000
      9      27.1223      0.00000
     10      28.8220      0.00000
     11      35.5616      0.00000
     12      35.5617      0.00000

 k-point    27 :       0.2500    0.2500    0.1500
  band No.  band energies     occupation 
      1       2.0891      1.00000
      2       2.3928      1.00000
      3       2.7536      1.00000
      4       4.7667      1.00000
      5       4.7956      1.00000
      6      11.2356      0.00000
      7      14.5321      0.00000
      8      15.6752      0.00000
      9      18.5377      0.00000
     10      39.0528      0.00000
     11      40.8091      0.00000
     12      44.2907      0.00000

 k-point    28 :      -0.2500    0.2500    0.1500
  band No.  band energies     occupation 
      1       0.2194      1.00000
      2       3.0957      1.00000
      3       3.2374      1.00000
      4       3.8348      1.00000
      5       4.4128      1.00000
      6       5.1605      1.00141
      7      21.8897      0.00000
      8      24.9627      0.00000
      9      25.2166      0.00000
     10      28.7938      0.00000
     11      34.9551      0.00000
     12      36.2737      0.00000

 k-point    29 :      -0.3500    0.3500    0.1500
  band No.  band energies     occupation 
      1       1.1373      1.00000
      2       2.8466      1.00000
      3       2.9972      1.00000
      4       4.2112      1.00000
      5       5.2283      1.00538
      6       6.0449     -0.00891
      7      17.3723      0.00000
      8      23.1860      0.00000
      9      23.9932      0.00000
     10      30.3665      0.00000
     11      33.8939      0.00000
     12      36.1391      0.00000

 k-point    30 :      -0.2500    0.3500    0.1500
  band No.  band energies     occupation 
      1       1.1915      1.00000
      2       2.5823      1.00000
      3       3.3655      1.00000
      4       3.9723      1.00000
      5       4.9156      1.00000
      6       6.0302     -0.01113
      7      19.8953      0.00000
      8      20.5406      0.00000
      9      26.0824      0.00000
     10      27.5189      0.00000
     11      34.4858      0.00000
     12      39.6840      0.00000

 k-point    31 :      -0.4500    0.4500    0.1500
  band No.  band energies     occupation 
      1       1.2586      1.00000
      2       2.8432      1.00000
      3       3.0424      1.00000
      4       4.2831      1.00000
      5       5.7946      0.03519
      6       7.9550     -0.00000
      7      13.6971      0.00000
      8      22.1234      0.00000
      9      23.3209      0.00000
     10      32.4148      0.00000
     11      33.3155      0.00000
     12      35.0856      0.00000

 k-point    32 :      -0.3500    0.4500    0.1500
  band No.  band energies     occupation 
      1       1.6192      1.00000
      2       2.3561      1.00000
      3       3.1756      1.00000
      4       4.3048      1.00000
      5       5.3845      1.03383
      6       8.0255     -0.00000
      7      15.8473      0.00000
      8      18.9974      0.00000
      9      25.5208      0.00000
     10      28.9811      0.00000
     11      33.4732      0.00000
     12      38.0751      0.00000

 k-point    33 :      -0.4500   -0.4500    0.1500
  band No.  band energies     occupation 
      1       1.5744      1.00000
      2       2.5200      1.00000
      3       2.9963      1.00000
      4       4.3969      1.00000
      5       5.6368      0.56262
      6       9.9762     -0.00000
      7      13.1571      0.00000
      8      18.5210      0.00000
      9      25.1599      0.00000
     10      30.7645      0.00000
     11      32.2141      0.00000
     12      36.7592      0.00000

 k-point    34 :      -0.3500   -0.4500    0.1500
  band No.  band energies     occupation 
      1       2.0030      1.00000
      2       2.0464      1.00000
      3       2.9177      1.00000
      4       4.7891      1.00000
      5       5.2947      1.01503
      6      10.8468     -0.00000
      7      14.3492      0.00000
      8      15.6077      0.00000
      9      27.5479      0.00000
     10      28.4814      0.00000
     11      31.4214      0.00000
     12      36.7060      0.00000

 k-point    35 :       0.2500    0.2500    0.2500
  band No.  band energies     occupation 
      1       2.4347      1.00000
      2       2.4347      1.00000
      3       2.4348      1.00000
      4       4.8066      1.00000
      5       4.8066      1.00000
      6      14.1425      0.00000
      7      14.1425      0.00000
      8      14.1427      0.00000
      9      16.2335      0.00000
     10      44.2750      0.00000
     11      44.2750      0.00000
     12      44.2750      0.00000

 k-point    36 :      -0.2500    0.2500    0.2500
  band No.  band energies     occupation 
      1       1.0580      1.00000
      2       2.7233      1.00000
      3       3.7574      1.00000
      4       3.7575      1.00000
      5       4.4721      1.00000
      6       5.8354     -0.01450
      7      22.4847      0.00000
      8      22.4847      0.00000
      9      23.0546      0.00000
     10      25.3163      0.00000
     11      39.1988      0.00000
     12      39.1988      0.00000

 k-point    37 :      -0.3500    0.3500    0.2500
  band No.  band energies     occupation 
      1       1.5516      1.00000
      2       2.1761      1.00000
      3       3.7966      1.00000
      4       4.1290      1.00000
      5       5.1260      1.00064
      6       7.3445     -0.00000
      7      18.3221      0.00000
      8      20.5386      0.00000
      9      23.0088      0.00000
     10      25.8553      0.00000
     11      36.8641      0.00000
     12      38.1065      0.00000

 k-point    38 :      -0.4500    0.4500    0.2500
  band No.  band energies     occupation 
      1       1.5403      1.00000
      2       2.0298      1.00000
      3       3.7178      1.00000
      4       4.2949      1.00000
      5       5.7107      0.26194
      6       9.8585     -0.00000
      7      14.3678      0.00000
      8      19.4047      0.00000
      9      22.6924      0.00000
     10      27.8495      0.00000
     11      33.4352      0.00000
     12      37.4665      0.00000

 k-point    39 :      -0.3500    0.4500    0.2500
  band No.  band energies     occupation 
      1       1.6395      1.00000
      2       1.7344      1.00000
      3       3.8738      1.00000
      4       4.6529      1.00000
      5       5.4365      1.03130
      6       9.6675     -0.00000
      7      16.7134      0.00000
      8      17.2094      0.00000
      9      23.8727      0.00000
     10      25.4835      0.00000
     11      32.9580      0.00000
     12      38.3126      0.00000

 k-point    40 :      -0.4500   -0.4500    0.2500
  band No.  band energies     occupation 
      1       1.5325      1.00000
      2       1.6798      1.00000
      3       3.8205      1.00000
      4       4.9185      1.00000
      5       5.5918      0.74116
      6      12.1999      0.00000
      7      13.7745      0.00000
      8      16.4893      0.00000
      9      24.1160      0.00000
     10      26.4231      0.00000
     11      30.7741      0.00000
     12      38.1273      0.00000

 k-point    41 :      -0.3500    0.3500    0.3500
  band No.  band energies     occupation 
      1       1.4699      1.00000
      2       1.6480      1.00000
      3       4.5899      1.00000
      4       4.5901      1.00000
      5       5.1688      1.00168
      6       9.2105     -0.00000
      7      18.4218      0.00000
      8      18.4218      0.00000
      9      21.7394      0.00000
     10      23.6890      0.00000
     11      32.7302      0.00000
     12      41.5747      0.00000

 k-point    42 :      -0.4500    0.4500    0.3500
  band No.  band energies     occupation 
      1       1.2917      1.00000
      2       1.3430      1.00000
      3       4.7506      1.00000
      4       4.9408      1.00000
      5       5.6282      0.59874
      6      11.8722      0.00000
      7      15.4298      0.00000
      8      17.1640      0.00000
      9      21.9912      0.00000
     10      24.1078      0.00000
     11      29.3936      0.00000
     12      41.6126      0.00000

 k-point    43 :      -0.4500   -0.4500    0.3500
  band No.  band energies     occupation 
      1       1.1690      1.00000
      2       1.1690      1.00000
      3       4.8505      1.00000
      4       5.5265      0.93128
      5       5.5268      0.93070
      6      14.4788      0.00000
      7      14.4789      0.00000
      8      15.2849      0.00000
      9      22.9189      0.00000
     10      22.9189      0.00000
     11      27.7422      0.00000
     12      42.1735      0.00000

 k-point    44 :      -0.4500    0.4500    0.4500
  band No.  band energies     occupation 
      1       0.9990      1.00000
      2       1.0004      1.00000
      3       5.5008      0.97737
      4       5.5011      0.97705
      5       5.6061      0.68745
      6      14.0831      0.00000
      7      15.8031      0.00000
      8      15.8032      0.00000
      9      21.2023      0.00000
     10      22.0819      0.00000
     11      26.6702      0.00000
     12      44.1520      0.00000

 spin component 2

 k-point     1 :       0.0500    0.0500    0.0500
  band No.  band energies     occupation 
      1      -1.9030      1.00000
      2       5.2711      1.01080
      3       5.2711      1.01080
      4       5.8393     -0.01748
      5       7.2928     -0.00000
      6       7.2928     -0.00000
      7      28.0258      0.00000
      8      28.0258      0.00000
      9      30.7727      0.00000
     10      33.0408      0.00000
     11      36.1497      0.00000
     12      36.1497      0.00000

 k-point     2 :       0.1500    0.0500    0.0500
  band No.  band energies     occupation 
      1      -0.7675      1.00000
      2       4.9165      1.00000
      3       5.0573      1.00011
      4       6.5433     -0.00000
      5       7.1200     -0.00000
      6       7.3899     -0.00000
      7      24.1737      0.00000
      8      26.2663      0.00000
      9      29.6024      0.00000
     10      31.1941      0.00000
     11      36.1817      0.00000
     12      36.1841      0.00000

 k-point     3 :       0.2500    0.0500    0.0500
  band No.  band energies     occupation 
      1       0.8114      1.00000
      2       4.5227      1.00000
      3       4.8434      1.00000
      4       7.1281     -0.00000
      5       7.4889     -0.00000
      6       7.4955     -0.00000
      7      19.8760      0.00000
      8      24.5654      0.00000
      9      27.1324      0.00000
     10      31.0118      0.00000
     11      35.1960      0.00000
     12      38.1076      0.00000

 k-point     4 :       0.3500    0.0500    0.0500
  band No.  band energies     occupation 
      1       2.0254      1.00000
      2       4.2311      1.00000
      3       5.2445      1.00710
      4       7.2382     -0.00000
      5       7.5899     -0.00000
      6       8.4398     -0.00000
      7      16.0966      0.00000
      8      23.3549      0.00000
      9      25.4508      0.00000
     10      30.7810      0.00000
     11      34.8755      0.00000
     12      40.2527      0.00000

 k-point     5 :       0.4500    0.0500    0.0500
  band No.  band energies     occupation 
      1       2.3159      1.00000
      2       4.1238      1.00000
      3       5.8647     -0.03062
      4       7.2834     -0.00000
      5       7.6292     -0.00000
      6       8.9660     -0.00000
      7      14.2991      0.00000
      8      22.9178      0.00000
      9      24.8231      0.00000
     10      30.6847      0.00000
     11      34.8590      0.00000
     12      40.0770      0.00000

 k-point     6 :      -0.0500    0.0500    0.0500
  band No.  band energies     occupation 
      1      -2.3047      1.00000
      2       5.4208      1.03462
      3       5.4210      1.03460
      4       5.4885      0.99401
      5       7.2501     -0.00000
      6       7.4162     -0.00000
      7      29.1300      0.00000
      8      30.1105      0.00000
      9      30.1105      0.00000
     10      34.1722      0.00000
     11      36.5033      0.00000
     12      36.5035      0.00000

[...]
      7      15.4068      0.00000
      8      20.0164      0.00000
      9      23.3386      0.00000
     10      28.2419      0.00000
     11      34.2964      0.00000
     12      37.9516      0.00000

 k-point    39 :      -0.3500    0.4500    0.2500
  band No.  band energies     occupation 
      1       3.2067      1.00000
      2       3.7000      1.00000
      3       5.9029     -0.03531
      4       6.8354     -0.00000
      5       7.7984     -0.00000
      6      10.9261     -0.00000
      7      17.5534      0.00000
      8      17.9244      0.00000
      9      24.4753      0.00000
     10      26.0161      0.00000
     11      33.7866      0.00000
     12      38.8167      0.00000

 k-point    40 :      -0.4500   -0.4500    0.2500
  band No.  band energies     occupation 
      1       3.3820      1.00000
      2       3.4802      1.00000
      3       5.8098      0.01239
      4       7.1546     -0.00000
      5       7.9706     -0.00000
      6      13.1593      0.00000
      7      14.7599      0.00000
      8      17.2089      0.00000
      9      24.7034      0.00000
     10      26.8567      0.00000
     11      31.7400      0.00000
     12      38.6331      0.00000

 k-point    41 :      -0.3500    0.3500    0.3500
  band No.  band energies     occupation 
      1       3.0111      1.00000
      2       3.6653      1.00000
      3       6.7193     -0.00000
      4       6.7196     -0.00000
      5       7.5088     -0.00000
      6      10.4494     -0.00000
      7      19.0273      0.00000
      8      19.0274      0.00000
      9      22.5942      0.00000
     10      24.3427      0.00000
     11      33.5677      0.00000
     12      42.0070      0.00000

 k-point    42 :      -0.4500    0.4500    0.3500
  band No.  band energies     occupation 
      1       3.0894      1.00000
      2       3.2371      1.00000
      3       6.9373     -0.00000
      4       7.1306     -0.00000
      5       8.0281     -0.00000
      6      12.7443      0.00000
      7      16.1294      0.00000
      8      17.6774      0.00000
      9      22.8318      0.00000
     10      24.7390      0.00000
     11      30.3802      0.00000
     12      42.0249      0.00000

 k-point    43 :      -0.4500   -0.4500    0.3500
  band No.  band energies     occupation 
      1       3.0314      1.00000
      2       3.0314      1.00000
      3       7.0350     -0.00000
      4       7.8853     -0.00000
      5       7.8857     -0.00000
      6      15.1236      0.00000
      7      15.1238      0.00000
      8      15.8584      0.00000
      9      23.6519      0.00000
     10      23.6520      0.00000
     11      28.8305      0.00000
     12      42.5730      0.00000

 k-point    44 :      -0.4500    0.4500    0.4500
  band No.  band energies     occupation 
      1       2.8473      1.00000
      2       2.8828      1.00000
      3       7.8520     -0.00000
      4       7.8523     -0.00000
      5       8.0074     -0.00000
      6      14.6062      0.00000
      7      16.1760      0.00000
      8      16.1762      0.00000
      9      22.2026      0.00000
     10      22.9410      0.00000
     11      27.7868      0.00000
     12      44.4562      0.00000


--------------------------------------------------------------------------------------------------------


 soft charge-density along one line, spin component           1
         0         1         2         3         4         5         6         7         8         9
 total charge-density along one line
 
 soft charge-density along one line, spin component           2
         0         1         2         3         4         5         6         7         8         9
 total charge-density along one line
 
 pseudopotential strength for first ion, spin component:           1
 -5.744   0.000   0.000   0.000   0.000   0.000   0.000   0.000   0.000   0.000  -6.270   0.000   0.000   0.000   0.000   0.000
  0.000   0.000  -5.744   0.000  -0.000   0.000   0.000   0.000   0.000   0.000   0.000   0.000  -6.270   0.000  -0.000   0.000
  0.000   0.000  -0.000   0.000  -5.889   0.000  -0.000   0.000  -0.000   0.000   0.000   0.000  -0.000   0.000  -6.412   0.000
  0.000   0.000   0.000   0.000  -0.000   0.000  -5.744   0.000  -0.000   0.000   0.000   0.000   0.000   0.000  -0.000   0.000
  0.000   0.000   0.000   0.000  -0.000   0.000  -0.000   0.000  -5.889   0.000   0.000   0.000   0.000   0.000  -0.000   0.000
 -6.270   0.000   0.000   0.000   0.000   0.000   0.000   0.000   0.000   0.000  -6.755   0.000   0.000   0.000   0.000   0.000
  0.000   0.000  -6.270   0.000  -0.000   0.000   0.000   0.000   0.000   0.000   0.000   0.000  -6.755   0.000  -0.000   0.000
  0.000   0.000  -0.000   0.000  -6.412   0.000  -0.000   0.000  -0.000   0.000   0.000   0.000  -0.000   0.000  -6.892   0.000
  0.000   0.000   0.000   0.000  -0.000   0.000  -6.270   0.000  -0.000   0.000   0.000   0.000   0.000   0.000  -0.000   0.000
  0.000   0.000   0.000   0.000  -0.000   0.000  -0.000   0.000  -6.412   0.000   0.000   0.000   0.000   0.000  -0.000   0.000
 -0.000   0.000  -0.000   0.000  -0.000   0.000  -0.000   0.000  -0.000   0.000  -0.000   0.000  -0.000   0.000  -0.000   0.000
 -0.000   0.000  -0.000   0.000  -0.000   0.000  -0.000   0.000  -0.000   0.000  -0.000   0.000  -0.000   0.000  -0.000   0.000
 -0.000   0.000  -0.000   0.000   0.000   0.000  -0.000   0.000   0.000   0.000  -0.000   0.000  -0.000   0.000   0.000   0.000
 -0.000   0.000  -0.000   0.000  -0.000   0.000  -0.000   0.000   0.000   0.000  -0.000   0.000  -0.000   0.000  -0.000   0.000
 -0.000   0.000  -0.000   0.000   0.000   0.000  -0.000   0.000  -0.000   0.000  -0.000   0.000  -0.000   0.000   0.000   0.000
 -0.000   0.000  -0.000   0.000   0.000   0.000  -0.000   0.000   0.000   0.000  -0.000   0.000  -0.000   0.000   0.000   0.000
 -0.000   0.000  -0.000   0.000  -0.000   0.000  -0.000   0.000   0.000   0.000  -0.000   0.000  -0.000   0.000  -0.000   0.000
 -0.000   0.000  -0.000   0.000   0.000   0.000  -0.000   0.000  -0.000   0.000  -0.000   0.000  -0.000   0.000   0.000   0.000
 pseudopotential strength for first ion, spin component:           2
 -4.155   0.000  -0.000   0.000   0.000   0.000  -0.000   0.000   0.000   0.000  -4.731   0.000  -0.000   0.000   0.000   0.000
 -0.000   0.000  -4.155   0.000  -0.000   0.000  -0.000   0.000   0.000   0.000  -0.000   0.000  -4.731   0.000  -0.000   0.000
  0.000   0.000  -0.000   0.000  -3.965   0.000  -0.000   0.000  -0.000   0.000   0.000   0.000  -0.000   0.000  -4.545   0.000
 -0.000   0.000  -0.000   0.000  -0.000   0.000  -4.155   0.000  -0.000   0.000  -0.000   0.000  -0.000   0.000  -0.000   0.000
  0.000   0.000   0.000   0.000  -0.000   0.000  -0.000   0.000  -3.965   0.000   0.000   0.000   0.000   0.000  -0.000   0.000
 -4.731   0.000  -0.000   0.000   0.000   0.000  -0.000   0.000   0.000   0.000  -5.265   0.000  -0.000   0.000   0.000   0.000
 -0.000   0.000  -4.731   0.000  -0.000   0.000  -0.000   0.000   0.000   0.000  -0.000   0.000  -5.265   0.000  -0.000   0.000
  0.000   0.000  -0.000   0.000  -4.545   0.000  -0.000   0.000  -0.000   0.000   0.000   0.000  -0.000   0.000  -5.083   0.000
 -0.000   0.000  -0.000   0.000  -0.000   0.000  -4.731   0.000  -0.000   0.000  -0.000   0.000  -0.000   0.000  -0.000   0.000
  0.000   0.000   0.000   0.000  -0.000   0.000  -0.000   0.000  -4.545   0.000   0.000   0.000   0.000   0.000  -0.000   0.000
  0.000   0.000   0.000   0.000   0.000   0.000   0.000   0.000  -0.000   0.000   0.000   0.000   0.000   0.000   0.000   0.000
  0.000   0.000   0.000   0.000   0.000   0.000   0.000   0.000  -0.000   0.000   0.000   0.000   0.000   0.000   0.000   0.000
 -0.000   0.000  -0.000   0.000   0.000   0.000  -0.000   0.000   0.000   0.000  -0.000   0.000  -0.000   0.000   0.000   0.000
 -0.000   0.000  -0.000   0.000  -0.000   0.000  -0.000   0.000  -0.000   0.000  -0.000   0.000  -0.000   0.000  -0.000   0.000
 -0.000   0.000  -0.000   0.000   0.000   0.000  -0.000   0.000  -0.000   0.000  -0.000   0.000  -0.000   0.000   0.000   0.000
 -0.000   0.000  -0.000   0.000   0.000   0.000  -0.000   0.000   0.000   0.000  -0.000   0.000  -0.000   0.000   0.000   0.000
 -0.000   0.000  -0.000   0.000  -0.000   0.000  -0.000   0.000  -0.000   0.000  -0.000   0.000  -0.000   0.000  -0.000   0.000
 -0.000   0.000  -0.000   0.000   0.000   0.000  -0.000   0.000  -0.000   0.000  -0.000   0.000  -0.000   0.000   0.000   0.000
 total augmentation occupancy for first ion, spin component:           1
  2.395  -0.000   0.000   0.000   0.000  -1.345   0.000  -0.000   0.000  -0.000  -0.000   0.000   0.000   0.000   0.000   0.000
 -0.000   2.395   0.000   0.000   0.000  -0.000  -1.345   0.000   0.000   0.000   0.000   0.000   0.000   0.000   0.000   0.000
  0.000  -0.000   3.401  -0.000   0.000  -0.000  -0.000  -2.159   0.000   0.000  -0.000   0.000   0.000   0.000   0.000   0.000
  0.000   0.000  -0.000   2.395   0.000   0.000  -0.000   0.000  -1.345  -0.000  -0.000  -0.000   0.000   0.000   0.000   0.000
  0.000   0.000   0.000   0.000   3.401  -0.000  -0.000   0.000   0.000  -2.159   0.000   0.000   0.000   0.000   0.000   0.000
 -1.345  -0.000   0.000   0.000  -0.000   1.694   0.000   0.000   0.000   0.000   0.000   0.000   0.000   0.000   0.000   0.000
  0.000  -1.345  -0.000  -0.000  -0.000  -0.000   1.694  -0.000   0.000  -0.000   0.000   0.000   0.000   0.000   0.000   0.000
 -0.000  -0.000  -2.159  -0.000   0.000   0.000  -0.000   2.175  -0.000   0.000   0.000  -0.000   0.000   0.000   0.000   0.000
  0.000  -0.000  -0.000  -1.345   0.000  -0.000  -0.000  -0.000   1.694  -0.000   0.000   0.000   0.000   0.000   0.000   0.000
  0.000   0.000   0.000   0.000  -2.159   0.000   0.000   0.000  -0.000   2.175  -0.000   0.000   0.000   0.000   0.000   0.000
  0.000  -0.000  -0.000  -0.000   0.000   0.000   0.000   0.000   0.000  -0.000   2.389  -0.279   0.000   0.000   0.000   0.000
  0.000   0.000   0.000  -0.000   0.000   0.000   0.000   0.000   0.000   0.000  -0.279   0.038   0.000   0.000   0.000   0.000
  0.000   0.000   0.000   0.000   0.000   0.000   0.000   0.000   0.000   0.000   0.000   0.000   0.283  -0.000  -0.000  -0.025
  0.000   0.000   0.000   0.000   0.000   0.000   0.000   0.000   0.000   0.000   0.000   0.000   0.000   0.283   0.000  -0.000
  0.000   0.000   0.000   0.000   0.000   0.000   0.000   0.000   0.000   0.000   0.000   0.000  -0.000   0.000   0.283   0.000
  0.000   0.000   0.000   0.000   0.000   0.000   0.000   0.000   0.000   0.000   0.000   0.000  -0.025  -0.000   0.000   0.002
  0.000   0.000   0.000   0.000   0.000   0.000   0.000   0.000   0.000   0.000   0.000   0.000   0.000  -0.025  -0.000  -0.000
  0.000   0.000   0.000   0.000   0.000   0.000   0.000   0.000   0.000   0.000   0.000   0.000   0.000  -0.000  -0.025   0.000
 total augmentation occupancy for first ion, spin component:           2
  2.052   0.000  -0.000   0.000  -0.000  -0.851   0.000   0.000   0.000  -0.000   0.000   0.000   0.000   0.000   0.000   0.000
  0.000   2.052   0.000  -0.000   0.000   0.000  -0.851  -0.000   0.000   0.000  -0.000  -0.000   0.000   0.000   0.000   0.000
 -0.000   0.000   2.881  -0.000   0.000   0.000   0.000  -1.220  -0.000   0.000   0.000  -0.000   0.000   0.000   0.000   0.000
  0.000  -0.000   0.000   2.052   0.000   0.000   0.000   0.000  -0.851   0.000   0.000   0.000   0.000   0.000   0.000   0.000
 -0.000   0.000   0.000   0.000   2.881  -0.000   0.000   0.000   0.000  -1.220   0.000  -0.000   0.000   0.000   0.000   0.000
 -0.851   0.000   0.000   0.000  -0.000   0.105   0.000   0.000   0.000  -0.000  -0.000  -0.000   0.000   0.000   0.000   0.000
  0.000  -0.851  -0.000   0.000   0.000   0.000   0.105   0.000  -0.000   0.000   0.000   0.000   0.000   0.000   0.000   0.000
  0.000  -0.000  -1.220  -0.000   0.000   0.000   0.000   0.273  -0.000  -0.000  -0.000   0.000   0.000   0.000   0.000   0.000
  0.000   0.000   0.000  -0.851   0.000   0.000  -0.000  -0.000   0.105  -0.000   0.000   0.000   0.000   0.000   0.000   0.000
 -0.000   0.000   0.000   0.000  -1.220  -0.000   0.000   0.000   0.000   0.273  -0.000  -0.000   0.000   0.000   0.000   0.000
 -0.000  -0.000   0.000   0.000   0.000   0.000   0.000  -0.000   0.000   0.000  -0.344   0.104   0.000   0.000   0.000   0.000
  0.000  -0.000  -0.000   0.000  -0.000  -0.000   0.000   0.000   0.000  -0.000   0.104  -0.018   0.000   0.000   0.000   0.000
  0.000   0.000   0.000   0.000   0.000   0.000   0.000   0.000   0.000   0.000   0.000   0.000  -0.035   0.000   0.000   0.006
  0.000   0.000   0.000   0.000   0.000   0.000   0.000   0.000   0.000   0.000   0.000   0.000   0.000  -0.035   0.000   0.000
  0.000   0.000   0.000   0.000   0.000   0.000   0.000   0.000   0.000   0.000   0.000   0.000   0.000   0.000  -0.035  -0.000
  0.000   0.000   0.000   0.000   0.000   0.000   0.000   0.000   0.000   0.000   0.000   0.000   0.006   0.000   0.000  -0.001
  0.000   0.000   0.000   0.000   0.000   0.000   0.000   0.000   0.000   0.000   0.000   0.000   0.000   0.006  -0.000  -0.000
  0.000   0.000   0.000   0.000   0.000   0.000   0.000   0.000   0.000   0.000   0.000   0.000  -0.000   0.000   0.006  -0.000


------------------------ aborting loop because EDIFF is reached ----------------------------------------


    CHARGE:  cpu time    0.0034: real time    0.0034
    FORLOC:  cpu time    0.0000: real time    0.0001
    FORNL :  cpu time    0.0068: real time    0.0075
    STRESS:  cpu time    0.0260: real time    0.0261
    FORCOR:  cpu time    0.0030: real time    0.0030
    FORHAR:  cpu time    0.0005: real time    0.0005
    MIXING:  cpu time    0.0005: real time    0.0004
    OFIELD:  cpu time    0.0000: real time    0.0000

  FORCE on cell =-STRESS in cart. coord.  units (eV):
  Direction    XX          YY          ZZ          XY          YZ          ZX
  --------------------------------------------------------------------------------------
  Alpha Z    59.71178    59.71178    59.71178
  Ewald    -196.13262  -196.13262  -196.13262    -0.00000     0.00000     0.00000
  Hartree    32.25049    32.25049    32.25049    -0.00000    -0.00000    -0.00000
  E(xc)     -39.77593   -39.77593   -39.77593     0.00014     0.00014     0.00014
  Local      58.49695    58.49695    58.49695    -0.00027    -0.00027    -0.00027
  n-local   -27.51314   -26.53399   -25.59292     1.15721    -0.68981    -1.36247
  augment    38.77026    38.77026    38.77026     0.00053     0.00053     0.00053
  Kinetic    73.33879    72.67879    72.38584    -2.44939     1.97116     1.42543
  Fock        0.00000     0.00000     0.00000     0.00000     0.00000     0.00000
  -------------------------------------------------------------------------------------
  Total      -0.42461    -0.42461    -0.42461     0.00000    -0.00000    -0.00000
  in kB     -58.77493   -58.77493   -58.77493     0.00000    -0.00000    -0.00000
  external pressure =      -58.77 kB  Pullay stress =        0.00 kB


 VOLUME and BASIS-vectors are now :
 -----------------------------------------------------------------------------
  energy-cutoff  :      268.00
  volume of cell :       11.57
      direct lattice vectors                 reciprocal lattice vectors
    -1.425000000  1.425000000  1.425000000     0.000000000  0.350877193  0.350877193
     1.425000000 -1.425000000  1.425000000     0.350877193  0.000000000  0.350877193
     1.425000000  1.425000000 -1.425000000     0.350877193  0.350877193  0.000000000

  length of vectors
     2.468172401  2.468172401  2.468172401     0.496215285  0.496215285  0.496215285


 FORCES acting on ions
    electron-ion (+dipol)            ewald-force                    non-local-force                 convergence-correction
 -----------------------------------------------------------------------------------------------
   0.766E-14 0.948E-14 0.500E-14   0.131E-16 0.134E-14 -.680E-15   0.496E-23 0.496E-23 -.165E-23   0.112E-13 0.810E-14 0.148E-13
 -----------------------------------------------------------------------------------------------
   0.766E-14 0.948E-14 0.500E-14   0.131E-16 0.134E-14 -.680E-15   0.496E-23 0.496E-23 -.165E-23   0.112E-13 0.810E-14 0.148E-13
 
 
 POSITION                                       TOTAL-FORCE (eV/Angst)
 -----------------------------------------------------------------------------------
      0.00000      0.00000      0.00000         0.000000      0.000000      0.000000
 -----------------------------------------------------------------------------------
    total drift:                                0.000000      0.000000      0.000000


--------------------------------------------------------------------------------------------------------



  FREE ENERGIE OF THE ION-ELECTRON SYSTEM (eV)
  ---------------------------------------------------
  free  energy   TOTEN  =        -8.23565393 eV

  energy  without entropy=       -8.23771024  energy(sigma->0) =       -8.23633937
 


--------------------------------------------------------------------------------------------------------


    POTLOK:  cpu time    0.0085: real time    0.0086


--------------------------------------------------------------------------------------------------------


 writing wavefunctions
     LOOP+:  cpu time    2.5709: real time    2.6283
    4ORBIT:  cpu time    0.0000: real time    0.0000

volume of typ            1:    79.9 %
 
total charge     
 
# of ion       s       p       d       tot
------------------------------------------
    1        0.405   0.427   6.156   6.987
 
magnetization (x)
 
# of ion       s       p       d       tot
------------------------------------------
    1       -0.008  -0.041   2.421   2.373
 
orbital moment (x)
 
# of ion     s             p             d             tot
-----------------------------------------------------------------
    1     0.000000E+00  0.777180E-09 -0.340972E-09  0.436209E-09
 
orbital moment (y)
 
# of ion     s             p             d             tot
-----------------------------------------------------------------
    1     0.000000E+00  0.744192E-09 -0.452437E-09  0.291755E-09
 
orbital moment (z)
 
# of ion     s             p             d             tot
-----------------------------------------------------------------
    1     0.000000E+00 -0.296672E-08  0.956177E-09 -0.201055E-08
 
orbital moment (x)
 
# of ion     s             p             d             tot
-----------------------------------------------------------------
    1     0.000000E+00  0.131032E-08 -0.117776E-08  0.132567E-09
 
orbital moment (y)
 
# of ion     s             p             d             tot
-----------------------------------------------------------------
    1     0.000000E+00  0.501032E-09 -0.426049E-08 -0.375945E-08
 
orbital moment (z)
 
# of ion     s             p             d             tot
-----------------------------------------------------------------
    1     0.000000E+00  0.584727E-09  0.439937E-09  0.102466E-08
 

 total amount of memory used by VASP MPI-rank0    31931. kBytes
=======================================================================

   base      :      30000. kBytes
   nonl-proj :        813. kBytes
   fftplans  :        142. kBytes
   grid      :        320. kBytes
   one-center:         31. kBytes
   wavefun   :        625. kBytes
 
  
  
 General timing and accounting informations for this job:
 ========================================================
  
                  Total CPU time used (sec):        3.041
                            User time (sec):        2.465
                          System time (sec):        0.576
                         Elapsed time (sec):        3.147
  
                   Maximum memory used (kb):       56784.
                   Average memory used (kb):           0.
  
                          Minor page faults:        21351
                          Major page faults:            0
                 Voluntary context switches:         1384
