PROCAR new format
# of k-points:   44         # of bands:   12         # of ions:    1

 k-point     1 :    0.05000000 0.05000000 0.05000000     weight = 0.00800000

band     1 # energy   -2.09958179 # occ.  1.00000000
 
ion      s      p      d    tot
    1  0.568  0.034  0.003  0.605
 
band     2 # energy    3.19876686 # occ.  1.00000000
 
ion      s      p      d    tot
    1  0.000  0.001  0.961  0.963
 
band     3 # energy    3.19876686 # occ.  1.00000000
 
ion      s      p      d    tot
    1  0.000  0.001  0.961  0.963
 
band     4 # energy    3.69932886 # occ.  1.00000000
 
ion      s      p      d    tot
    1  0.001  0.005  0.963  0.969
 
band     5 # energy    4.52150419 # occ.  1.00000000
 
ion      s      p      d    tot
    1  0.000  0.000  0.968  0.968
 
band     6 # energy    4.52150419 # occ.  1.00000000
 
ion      s      p      d    tot
    1  0.000  0.000  0.968  0.968
 
band     7 # energy   27.89745552 # occ.  0.00000000
 
ion      s      p      d    tot
    1  0.000  0.068  0.215  0.282
 
band     8 # energy   27.89745552 # occ.  0.00000000
 
ion      s      p      d    tot
    1  0.000  0.068  0.215  0.282
 
band     9 # energy   31.01680768 # occ.  0.00000000
 
ion      s      p      d    tot
    1  0.000  0.000  0.000  0.000
 
band    10 # energy   32.10750985 # occ.  0.00000000
 
ion      s      p      d    tot
    1  0.053  0.482  0.252  0.788
 
band    11 # energy   35.79750052 # occ.  0.00000000
 
ion      s      p      d    tot
    1  0.000  0.339  0.047  0.386
 
band    12 # energy   35.79750054 # occ.  0.00000000
 
ion      s      p      d    tot
    1  0.000  0.339  0.047  0.386
 

 k-point     2 :    0.15000000 0.05000000 0.05000000     weight = 0.02400000

band     1 # energy   -0.99561861 # occ.  1.00000000
 
ion      s      p      d    tot
    1  0.496  0.089  0.031  0.615
 
band     2 # energy    2.90882940 # occ.  1.00000000
 
ion      s      p      d    tot
    1  0.000  0.002  0.951  0.953
 
band     3 # energy    3.05591076 # occ.  1.00000000
 
ion      s      p      d    tot
    1  0.003  0.014  0.923  0.940
 
band     4 # energy    4.35397870 # occ.  1.00000000
 
ion      s      p      d    tot
    1  0.005  0.014  0.946  0.965
 
band     5 # energy    4.42040256 # occ.  1.00000000
 
ion      s      p      d    tot
    1  0.000  0.001  0.967  0.968
 
band     6 # energy    4.60079019 # occ.  1.00000000
 
ion      s      p      d    tot
    1  0.000  0.000  0.972  0.972
 
band     7 # energy   23.67143500 # occ.  0.00000000
 
ion      s      p      d    tot
    1  0.029  0.185  0.289  0.503
 
band     8 # energy   25.98440398 # occ.  0.00000000
 
ion      s      p      d    tot
    1  0.000  0.148  0.232  0.380
 
band     9 # energy   28.75967373 # occ.  0.00000000
 
ion      s      p      d    tot
    1  0.096  0.470  0.175  0.740
 
band    10 # energy   31.27988578 # occ.  0.00000000
 
ion      s      p      d    tot
    1  0.000  0.003  0.130  0.133
 
band    11 # energy   35.50542501 # occ.  0.00000000
 
ion      s      p      d    tot
    1  0.027  0.324  0.253  0.605
 
band    12 # energy   35.87948159 # occ.  0.00000000
 
ion      s      p      d    tot
    1  0.000  0.252  0.099  0.351
 

 k-point     3 :    0.25000000 0.05000000 0.05000000     weight = 0.02400000

band     1 # energy    0.35421416 # occ.  1.00000000
 
ion      s      p      d    tot
    1  0.338  0.108  0.234  0.680
 
band     2 # energy    2.58618576 # occ.  1.00000000
 
ion      s      p      d    tot
    1  0.000  0.003  0.942  0.945
 
band     3 # energy    3.13585239 # occ.  1.00000000
 
ion      s      p      d    tot
    1  0.043  0.091  0.727  0.862
 
band     4 # energy    4.47843038 # occ.  1.00000000
 
ion      s      p      d    tot
    1  0.001  0.001  0.971  0.973
 
band     5 # energy    4.67635667 # occ.  1.00000000
 
ion      s      p      d    tot
    1  0.000  0.000  0.977  0.977
 
band     6 # energy    5.26913822 # occ.  1.01049144
 
ion      s      p      d    tot
    1  0.016  0.035  0.902  0.953
 
band     7 # energy   19.06439974 # occ.  0.00000000
 
ion      s      p      d    tot
    1  0.117  0.230  0.293  0.640
 
band     8 # energy   24.26296153 # occ.  0.00000000
 
ion      s      p      d    tot
    1  0.000  0.204  0.191  0.395
 
band     9 # energy   26.37083615 # occ.  0.00000000
 
ion      s      p      d    tot
    1  0.098  0.489  0.122  0.708
 
band    10 # energy   30.83497120 # occ.  0.00000000
 
ion      s      p      d    tot
    1  0.000  0.011  0.325  0.336
 
band    11 # energy   34.57651396 # occ.  0.00000000
 
ion      s      p      d    tot
    1  0.081  0.223  0.271  0.575
 
band    12 # energy   37.84868521 # occ.  0.00000000
 
ion      s      p      d    tot
    1  0.000  0.227  0.083  0.311
 

 k-point     4 :    0.35000000 0.05000000 0.05000000     weight = 0.02400000

band     1 # energy    0.90995300 # occ.  1.00000000
 
ion      s      p      d    tot
    1  0.150  0.032  0.625  0.807
 
band     2 # energy    2.34637651 # occ.  1.00000000
 
ion      s      p      d    tot
    1  0.000  0.004  0.936  0.939
 
band     3 # energy    4.17644337 # occ.  1.00000000
 
ion      s      p      d    tot
    1  0.064  0.218  0.500  0.782
 
band     4 # energy    4.61714077 # occ.  1.00000000
 
ion      s      p      d    tot
    1  0.000  0.018  0.950  0.969
 
band     5 # energy    4.74083924 # occ.  1.00000000
 
ion      s      p      d    tot
    1  0.000  0.000  0.981  0.982
 
band     6 # energy    6.38875312 # occ. -0.00000122
 
ion      s      p      d    tot
    1  0.039  0.135  0.702  0.876
 
band     7 # energy   14.95827687 # occ.  0.00000000
 
ion      s      p      d    tot
    1  0.252  0.152  0.328  0.732
 
band     8 # energy   23.08334871 # occ.  0.00000000
 
ion      s      p      d    tot
    1  0.000  0.233  0.150  0.383
 
band     9 # energy   24.76094216 # occ.  0.00000000
 
ion      s      p      d    tot
    1  0.091  0.533  0.062  0.687
 
band    10 # energy   30.45283483 # occ.  0.00000000
 
ion      s      p      d    tot
    1  0.000  0.012  0.436  0.448
 
band    11 # energy   34.24759362 # occ.  0.00000000
 
ion      s      p      d    tot
    1  0.138  0.134  0.310  0.582
 
band    12 # energy   40.10811151 # occ.  0.00000000
 
ion      s      p      d    tot
    1  0.029  0.039  0.084  0.152
 

 k-point     5 :    0.45000000 0.05000000 0.05000000     weight = 0.01200000

band     1 # energy    0.93489232 # occ.  1.00000000
 
ion      s      p      d    tot
    1  0.104  0.008  0.727  0.839
 
band     2 # energy    2.25733167 # occ.  1.00000000
 
ion      s      p      d    tot
    1  0.000  0.004  0.934  0.938
 
band     3 # energy    4.63363558 # occ.  1.00000000
 
ion      s      p      d    tot
    1  0.010  0.000  0.967  0.978
 
band     4 # energy    4.76639180 # occ.  1.00000000
 
ion      s      p      d    tot
    1  0.000  0.000  0.984  0.984
 
band     5 # energy    4.92206988 # occ.  1.00000159
 
ion      s      p      d    tot
    1  0.000  0.225  0.594  0.819
 
band     6 # energy    7.34191763 # occ. -0.00000000
 
ion      s      p      d    tot
    1  0.000  0.339  0.405  0.744
 
band     7 # energy   12.84399893 # occ.  0.00000000
 
ion      s      p      d    tot
    1  0.388  0.009  0.408  0.805
 
band     8 # energy   22.66410831 # occ.  0.00000000
 
ion      s      p      d    tot
    1  0.000  0.242  0.134  0.376
 
band     9 # energy   24.16986010 # occ.  0.00000000
 
ion      s      p      d    tot
    1  0.088  0.554  0.034  0.676
 
band    10 # energy   30.30708107 # occ.  0.00000000
 
ion      s      p      d    tot
    1  0.000  0.011  0.472  0.484
 
band    11 # energy   34.21477704 # occ.  0.00000000
 
ion      s      p      d    tot
    1  0.164  0.095  0.334  0.593
 
band    12 # energy   40.01668548 # occ.  0.00000000
 
ion      s      p      d    tot
    1  0.000  0.072  0.003  0.075
 

 k-point     6 :   -0.05000000 0.05000000 0.05000000     weight = 0.00600000

band     1 # energy   -2.49756282 # occ.  1.00000000
 
ion      s      p      d    tot
    1  0.591  0.012  0.000  0.603
 
band     2 # energy    3.32275895 # occ.  1.00000000
 
ion      s      p      d    tot
    1  0.000  0.001  0.966  0.967
 
band     3 # energy    3.32289212 # occ.  1.00000000
 
ion      s      p      d    tot
    1  0.000  0.001  0.966  0.967
 
band     4 # energy    3.37516095 # occ.  1.00000000
 
ion      s      p      d    tot
    1  0.000  0.000  0.969  0.969
 
band     5 # energy    4.48440891 # occ.  1.00000000
 
ion      s      p      d    tot
    1  0.000  0.000  0.966  0.966
 
band     6 # energy    4.61366438 # occ.  1.00000000
 
ion      s      p      d    tot
    1  0.000  0.000  0.971  0.971
 
band     7 # energy   29.23942958 # occ.  0.00000000
 
ion      s      p      d    tot
    1  0.000  0.000  0.105  0.105
 
band     8 # energy   30.24789390 # occ.  0.00000000
 
ion      s      p      d    tot
    1  0.000  0.010  0.083  0.094
 
band     9 # energy   30.24790904 # occ.  0.00000000
 
ion      s      p      d    tot
    1  0.000  0.010  0.083  0.094
 
band    10 # energy   33.78389577 # occ.  0.00000000
 
ion      s      p      d    tot
    1  0.012  0.270  0.171  0.452
 
band    11 # energy   35.61752146 # occ.  0.00000000
 
ion      s      p      d    tot
    1  0.000  0.455  0.275  0.731
 
band    12 # energy   35.61760040 # occ.  0.00000000
 
ion      s      p      d    tot
    1  0.000  0.456  0.275  0.731
 

 k-point     7 :    0.15000000 0.15000000 0.05000000     weight = 0.02400000

band     1 # energy    0.25235218 # occ.  1.00000000
 
ion      s      p      d    tot
    1  0.390  0.135  0.119  0.644
 
band     2 # energy    2.68943832 # occ.  1.00000000
 
ion      s      p      d    tot
    1  0.000  0.017  0.909  0.926
 
band     3 # energy    2.71814172 # occ.  1.00000000
 
ion      s      p      d    tot
    1  0.006  0.017  0.910  0.933
 
band     4 # energy    4.44204004 # occ.  1.00000000
 
ion      s      p      d    tot
    1  0.000  0.000  0.970  0.970
 
band     5 # energy    4.68487462 # occ.  1.00000000
 
ion      s      p      d    tot
    1  0.002  0.000  0.975  0.977
 
band     6 # energy    5.32618525 # occ.  1.02180177
 
ion      s      p      d    tot
    1  0.024  0.042  0.880  0.946
 
band     7 # energy   21.38244098 # occ.  0.00000000
 
ion      s      p      d    tot
    1  0.000  0.230  0.317  0.548
 
band     8 # energy   22.25541579 # occ.  0.00000000
 
ion      s      p      d    tot
    1  0.102  0.248  0.221  0.571
 
band     9 # energy   25.61584063 # occ.  0.00000000
 
ion      s      p      d    tot
    1  0.131  0.398  0.131  0.660
 
band    10 # energy   32.58493345 # occ.  0.00000000
 
ion      s      p      d    tot
    1  0.000  0.017  0.115  0.132
 
band    11 # energy   36.43148575 # occ.  0.00000000
 
ion      s      p      d    tot
    1  0.018  0.128  0.300  0.446
 
band    12 # energy   37.93931036 # occ.  0.00000000
 
ion      s      p      d    tot
    1  0.000  0.242  0.223  0.466
 

 k-point     8 :    0.25000000 0.15000000 0.05000000     weight = 0.04800000

band     1 # energy    1.26306404 # occ.  1.00000000
 
ion      s      p      d    tot
    1  0.192  0.092  0.481  0.765
 
band     2 # energy    2.41179996 # occ.  1.00000000
 
ion      s      p      d    tot
    1  0.000  0.019  0.905  0.924
 
band     3 # energy    2.94842431 # occ.  1.00000000
 
ion      s      p      d    tot
    1  0.046  0.116  0.684  0.845
 
band     4 # energy    4.53612314 # occ.  1.00000000
 
ion      s      p      d    tot
    1  0.001  0.002  0.972  0.975
 
band     5 # energy    4.78522236 # occ.  1.00000001
 
ion      s      p      d    tot
    1  0.005  0.002  0.972  0.980
 
band     6 # energy    6.69232156 # occ. -0.00000000
 
ion      s      p      d    tot
    1  0.062  0.110  0.715  0.887
 
band     7 # energy   17.29760349 # occ.  0.00000000
 
ion      s      p      d    tot
    1  0.135  0.240  0.289  0.664
 
band     8 # energy   20.42319753 # occ.  0.00000000
 
ion      s      p      d    tot
    1  0.100  0.268  0.218  0.587
 
band     9 # energy   23.86364227 # occ.  0.00000000
 
ion      s      p      d    tot
    1  0.118  0.380  0.119  0.617
 
band    10 # energy   32.79103889 # occ.  0.00000000
 
ion      s      p      d    tot
    1  0.006  0.025  0.232  0.262
 
band    11 # energy   37.21888030 # occ.  0.00000000
 
ion      s      p      d    tot
    1  0.003  0.114  0.296  0.413
 
band    12 # energy   38.61087389 # occ.  0.00000000
 
ion      s      p      d    tot
    1  0.065  0.168  0.191  0.424
 

 k-point     9 :    0.35000000 0.15000000 0.05000000     weight = 0.04800000

band     1 # energy    1.36478935 # occ.  1.00000000
 
ion      s      p      d    tot
    1  0.085  0.033  0.726  0.845
 
band     2 # energy    2.27747380 # occ.  1.00000000
 
ion      s      p      d    tot
    1  0.000  0.019  0.907  0.926
 
band     3 # energy    3.67543323 # occ.  1.00000000
 
ion      s      p      d    tot
    1  0.012  0.173  0.648  0.833
 
band     4 # energy    4.64421262 # occ.  1.00000000
 
ion      s      p      d    tot
    1  0.005  0.002  0.971  0.978
 
band     5 # energy    4.87617142 # occ.  1.00000030
 
ion      s      p      d    tot
    1  0.003  0.014  0.958  0.975
 
band     6 # energy    8.47363276 # occ. -0.00000000
 
ion      s      p      d    tot
    1  0.042  0.278  0.451  0.771
 
band     7 # energy   13.69850799 # occ.  0.00000000
 
ion      s      p      d    tot
    1  0.296  0.114  0.343  0.753
 
band     8 # energy   19.59361774 # occ.  0.00000000
 
ion      s      p      d    tot
    1  0.106  0.287  0.197  0.590
 
band     9 # energy   22.97061458 # occ.  0.00000000
 
ion      s      p      d    tot
    1  0.111  0.387  0.104  0.601
 
band    10 # energy   32.64169806 # occ.  0.00000000
 
ion      s      p      d    tot
    1  0.012  0.019  0.307  0.339
 
band    11 # energy   37.89272831 # occ.  0.00000000
 
ion      s      p      d    tot
    1  0.040  0.147  0.294  0.481
 
band    12 # energy   38.87258681 # occ.  0.00000000
 
ion      s      p      d    tot
    1  0.032  0.066  0.138  0.236
 

 k-point    10 :   -0.15000000 0.15000000 0.05000000     weight = 0.02400000

band     1 # energy   -1.71564640 # occ.  1.00000000
 
ion      s      p      d    tot
    1  0.544  0.055  0.008  0.607
 
band     2 # energy    3.14290195 # occ.  1.00000000
 
ion      s      p      d    tot
    1  0.000  0.001  0.960  0.961
 
band     3 # energy    3.28948047 # occ.  1.00000000
 
ion      s      p      d    tot
    1  0.001  0.008  0.945  0.955
 
band     4 # energy    3.77790867 # occ.  1.00000000
 
ion      s      p      d    tot
    1  0.000  0.004  0.965  0.969
 
band     5 # energy    4.29058698 # occ.  1.00000000
 
ion      s      p      d    tot
    1  0.000  0.000  0.959  0.959
 
band     6 # energy    4.67281742 # occ.  1.00000000
 
ion      s      p      d    tot
    1  0.002  0.000  0.971  0.973
 
band     7 # energy   25.94986692 # occ.  0.00000000
 
ion      s      p      d    tot
    1  0.012  0.113  0.268  0.393
 
band     8 # energy   28.61563040 # occ.  0.00000000
 
ion      s      p      d    tot
    1  0.014  0.106  0.131  0.251
 
band     9 # energy   29.34428045 # occ.  0.00000000
 
ion      s      p      d    tot
    1  0.000  0.099  0.277  0.376
 
band    10 # energy   32.98874426 # occ.  0.00000000
 
ion      s      p      d    tot
    1  0.006  0.305  0.138  0.449
 
band    11 # energy   33.20232033 # occ.  0.00000000
 
ion      s      p      d    tot
    1  0.000  0.414  0.227  0.641
 
band    12 # energy   34.18011020 # occ.  0.00000000
 
ion      s      p      d    tot
    1  0.065  0.345  0.070  0.480
 

 k-point    11 :    0.25000000 0.25000000 0.05000000     weight = 0.02400000

band     1 # energy    1.79624176 # occ.  1.00000000
 
ion      s      p      d    tot
    1  0.071  0.039  0.754  0.865
 
band     2 # energy    2.34058290 # occ.  1.00000000
 
ion      s      p      d    tot
    1  0.000  0.063  0.822  0.885
 
band     3 # energy    2.92582377 # occ.  1.00000000
 
ion      s      p      d    tot
    1  0.026  0.131  0.690  0.847
 
band     4 # energy    4.63322980 # occ.  1.00000000
 
ion      s      p      d    tot
    1  0.000  0.003  0.974  0.977
 
band     5 # energy    4.86157983 # occ.  1.00000017
 
ion      s      p      d    tot
    1  0.006  0.006  0.967  0.979
 
band     6 # energy    8.83345799 # occ. -0.00000000
 
ion      s      p      d    tot
    1  0.088  0.217  0.492  0.797
 
band     7 # energy   15.67668890 # occ.  0.00000000
 
ion      s      p      d    tot
    1  0.000  0.332  0.332  0.664
 
band     8 # energy   16.67274223 # occ.  0.00000000
 
ion      s      p      d    tot
    1  0.376  0.146  0.166  0.689
 
band     9 # energy   22.77610373 # occ.  0.00000000
 
ion      s      p      d    tot
    1  0.112  0.352  0.141  0.605
 
band    10 # energy   34.13966953 # occ.  0.00000000
 
ion      s      p      d    tot
    1  0.000  0.047  0.192  0.238
 
band    11 # energy   36.98071823 # occ.  0.00000000
 
ion      s      p      d    tot
    1  0.021  0.055  0.238  0.313
 
band    12 # energy   42.86921240 # occ.  0.00000000
 
ion      s      p      d    tot
    1  0.000  0.174  0.169  0.343
 

 k-point    12 :    0.35000000 0.25000000 0.05000000     weight = 0.02400000

band     1 # energy    1.84231814 # occ.  1.00000000
 
ion      s      p      d    tot
    1  0.044  0.025  0.818  0.887
 
band     2 # energy    2.38331054 # occ.  1.00000000
 
ion      s      p      d    tot
    1  0.000  0.070  0.815  0.885
 
band     3 # energy    2.99449553 # occ.  1.00000000
 
ion      s      p      d    tot
    1  0.000  0.137  0.714  0.851
 
band     4 # energy    4.72534263 # occ.  1.00000000
 
ion      s      p      d    tot
    1  0.002  0.004  0.973  0.979
 
band     5 # energy    4.86520236 # occ.  1.00000020
 
ion      s      p      d    tot
    1  0.000  0.010  0.970  0.980
 
band     6 # energy   10.94520337 # occ. -0.00000000
 
ion      s      p      d    tot
    1  0.000  0.362  0.355  0.717
 
band     7 # energy   13.14936079 # occ.  0.00000000
 
ion      s      p      d    tot
    1  0.199  0.193  0.343  0.735
 
band     8 # energy   15.95444508 # occ.  0.00000000
 
ion      s      p      d    tot
    1  0.330  0.162  0.196  0.688
 
band     9 # energy   22.43486736 # occ.  0.00000000
 
ion      s      p      d    tot
    1  0.112  0.348  0.148  0.607
 
band    10 # energy   34.67163176 # occ.  0.00000000
 
ion      s      p      d    tot
    1  0.005  0.045  0.211  0.261
 
band    11 # energy   36.97493151 # occ.  0.00000000
 
ion      s      p      d    tot
    1  0.000  0.053  0.157  0.210
 
band    12 # energy   42.50173555 # occ.  0.00000000
 
ion      s      p      d    tot
    1  0.000  0.132  0.368  0.500
 

 k-point    13 :   -0.25000000 0.25000000 0.05000000     weight = 0.02400000

band     1 # energy   -0.38534341 # occ.  1.00000000
 
ion      s      p      d    tot
    1  0.435  0.108  0.092  0.634
 
band     2 # energy    2.83485205 # occ.  1.00000000
 
ion      s      p      d    tot
    1  0.000  0.001  0.951  0.953
 
band     3 # energy    3.19439950 # occ.  1.00000000
 
ion      s      p      d    tot
    1  0.020  0.047  0.835  0.902
 
band     4 # energy    4.28629735 # occ.  1.00000000
 
ion      s      p      d    tot
    1  0.000  0.003  0.961  0.964
 
band     5 # energy    4.49811034 # occ.  1.00000000
 
ion      s      p      d    tot
    1  0.000  0.007  0.965  0.972
 
band     6 # energy    4.74787387 # occ.  1.00000000
 
ion      s      p      d    tot
    1  0.007  0.002  0.964  0.974
 
band     7 # energy   21.32289324 # occ.  0.00000000
 
ion      s      p      d    tot
    1  0.074  0.220  0.296  0.590
 
band     8 # energy   26.47263996 # occ.  0.00000000
 
ion      s      p      d    tot
    1  0.019  0.167  0.093  0.280
 
band     9 # energy   27.84707294 # occ.  0.00000000
 
ion      s      p      d    tot
    1  0.000  0.313  0.310  0.623
 
band    10 # energy   31.15348856 # occ.  0.00000000
 
ion      s      p      d    tot
    1  0.000  0.262  0.298  0.560
 
band    11 # energy   32.83051745 # occ.  0.00000000
 
ion      s      p      d    tot
    1  0.061  0.277  0.209  0.546
 
band    12 # energy   34.94775729 # occ.  0.00000000
 
ion      s      p      d    tot
    1  0.088  0.155  0.078  0.321
 

 k-point    14 :   -0.15000000 0.25000000 0.05000000     weight = 0.02400000

band     1 # energy   -0.65964619 # occ.  1.00000000
 
ion      s      p      d    tot
    1  0.467  0.106  0.047  0.619
 
band     2 # energy    3.07702457 # occ.  1.00000000
 
ion      s      p      d    tot
    1  0.003  0.010  0.936  0.949
 
band     3 # energy    3.07745281 # occ.  1.00000000
 
ion      s      p      d    tot
    1  0.000  0.011  0.927  0.939
 
band     4 # energy    4.10462571 # occ.  1.00000000
 
ion      s      p      d    tot
    1  0.000  0.001  0.955  0.956
 
band     5 # energy    4.32279296 # occ.  1.00000000
 
ion      s      p      d    tot
    1  0.002  0.012  0.952  0.967
 
band     6 # energy    4.81825280 # occ.  1.00000003
 
ion      s      p      d    tot
    1  0.012  0.003  0.958  0.973
 
band     7 # energy   23.54661723 # occ.  0.00000000
 
ion      s      p      d    tot
    1  0.000  0.162  0.321  0.483
 
band     8 # energy   24.75274200 # occ.  0.00000000
 
ion      s      p      d    tot
    1  0.085  0.258  0.212  0.555
 
band     9 # energy   29.45398102 # occ.  0.00000000
 
ion      s      p      d    tot
    1  0.000  0.093  0.249  0.341
 
band    10 # energy   30.27379424 # occ.  0.00000000
 
ion      s      p      d    tot
    1  0.002  0.471  0.119  0.592
 
band    11 # energy   32.97192935 # occ.  0.00000000
 
ion      s      p      d    tot
    1  0.084  0.126  0.220  0.430
 
band    12 # energy   36.20126345 # occ.  0.00000000
 
ion      s      p      d    tot
    1  0.000  0.343  0.053  0.395
 

 k-point    15 :   -0.35000000 0.35000000 0.05000000     weight = 0.02400000

band     1 # energy    0.66440191 # occ.  1.00000000
 
ion      s      p      d    tot
    1  0.232  0.065  0.454  0.750
 
band     2 # energy    2.53919400 # occ.  1.00000000
 
ion      s      p      d    tot
    1  0.000  0.001  0.944  0.945
 
band     3 # energy    3.65739061 # occ.  1.00000000
 
ion      s      p      d    tot
    1  0.067  0.157  0.581  0.806
 
band     4 # energy    4.51880122 # occ.  1.00000000
 
ion      s      p      d    tot
    1  0.000  0.022  0.942  0.964
 
band     5 # energy    4.98178726 # occ.  1.00001160
 
ion      s      p      d    tot
    1  0.038  0.060  0.828  0.926
 
band     6 # energy    5.30093034 # occ.  1.01627208
 
ion      s      p      d    tot
    1  0.000  0.006  0.975  0.981
 
band     7 # energy   16.84992707 # occ.  0.00000000
 
ion      s      p      d    tot
    1  0.183  0.203  0.307  0.693
 
band     8 # energy   24.78186152 # occ.  0.00000000
 
ion      s      p      d    tot
    1  0.018  0.206  0.054  0.278
 
band     9 # energy   26.10779472 # occ.  0.00000000
 
ion      s      p      d    tot
    1  0.000  0.500  0.188  0.688
 
band    10 # energy   30.15930221 # occ.  0.00000000
 
ion      s      p      d    tot
    1  0.000  0.132  0.444  0.576
 
band    11 # energy   32.74373033 # occ.  0.00000000
 
ion      s      p      d    tot
    1  0.146  0.136  0.275  0.558
 
band    12 # energy   36.77753995 # occ.  0.00000000
 
ion      s      p      d    tot
    1  0.068  0.099  0.153  0.320
 

 k-point    16 :   -0.25000000 0.35000000 0.05000000     weight = 0.04800000

band     1 # energy    0.61636317 # occ.  1.00000000
 
ion      s      p      d    tot
    1  0.309  0.122  0.254  0.686
 
band     2 # energy    2.72802117 # occ.  1.00000000
 
ion      s      p      d    tot
    1  0.001  0.015  0.911  0.927
 
band     3 # energy    3.04027696 # occ.  1.00000000
 
ion      s      p      d    tot
    1  0.022  0.058  0.813  0.894
 
band     4 # energy    4.22530655 # occ.  1.00000000
 
ion      s      p      d    tot
    1  0.000  0.007  0.955  0.962
 
band     5 # energy    4.87456300 # occ.  1.00000028
 
ion      s      p      d    tot
    1  0.009  0.002  0.967  0.978
 
band     6 # energy    5.39296150 # occ.  1.03479437
 
ion      s      p      d    tot
    1  0.043  0.051  0.839  0.933
 
band     7 # energy   19.33735636 # occ.  0.00000000
 
ion      s      p      d    tot
    1  0.097  0.244  0.295  0.636
 
band     8 # energy   22.48422994 # occ.  0.00000000
 
ion      s      p      d    tot
    1  0.083  0.264  0.218  0.565
 
band     9 # energy   27.62077814 # occ.  0.00000000
 
ion      s      p      d    tot
    1  0.001  0.390  0.103  0.494
 
band    10 # energy   30.05502324 # occ.  0.00000000
 
ion      s      p      d    tot
    1  0.025  0.147  0.289  0.462
 
band    11 # energy   33.47781304 # occ.  0.00000000
 
ion      s      p      d    tot
    1  0.056  0.115  0.293  0.464
 
band    12 # energy   36.78929586 # occ.  0.00000000
 
ion      s      p      d    tot
    1  0.070  0.189  0.167  0.426
 

 k-point    17 :   -0.45000000 0.45000000 0.05000000     weight = 0.02400000

band     1 # energy    0.85578219 # occ.  1.00000000
 
ion      s      p      d    tot
    1  0.118  0.008  0.703  0.830
 
band     2 # energy    2.36127541 # occ.  1.00000000
 
ion      s      p      d    tot
    1  0.000  0.001  0.940  0.941
 
band     3 # energy    4.29030756 # occ.  1.00000000
 
ion      s      p      d    tot
    1  0.011  0.088  0.798  0.898
 
band     4 # energy    4.58400684 # occ.  1.00000000
 
ion      s      p      d    tot
    1  0.007  0.008  0.957  0.972
 
band     5 # energy    5.84572493 # occ. -0.02175897
 
ion      s      p      d    tot
    1  0.000  0.001  0.989  0.990
 
band     6 # energy    6.22995258 # occ. -0.00016921
 
ion      s      p      d    tot
    1  0.034  0.404  0.250  0.688
 
band     7 # energy   13.42874619 # occ.  0.00000000
 
ion      s      p      d    tot
    1  0.341  0.061  0.380  0.783
 
band     8 # energy   23.86600456 # occ.  0.00000000
 
ion      s      p      d    tot
    1  0.016  0.224  0.030  0.271
 
band     9 # energy   24.96567341 # occ.  0.00000000
 
ion      s      p      d    tot
    1  0.000  0.580  0.099  0.679
 
band    10 # energy   29.77634098 # occ.  0.00000000
 
ion      s      p      d    tot
    1  0.000  0.088  0.525  0.613
 
band    11 # energy   32.86304936 # occ.  0.00000000
 
ion      s      p      d    tot
    1  0.204  0.045  0.340  0.590
 
band    12 # energy   38.05082156 # occ.  0.00000000
 
ion      s      p      d    tot
    1  0.014  0.065  0.119  0.198
 

 k-point    18 :   -0.35000000 0.45000000 0.05000000     weight = 0.04800000

band     1 # energy    1.14269429 # occ.  1.00000000
 
ion      s      p      d    tot
    1  0.130  0.042  0.638  0.811
 
band     2 # energy    2.53545533 # occ.  1.00000000
 
ion      s      p      d    tot
    1  0.001  0.011  0.921  0.933
 
band     3 # energy    3.39765048 # occ.  1.00000000
 
ion      s      p      d    tot
    1  0.025  0.129  0.686  0.841
 
band     4 # energy    4.45589901 # occ.  1.00000000
 
ion      s      p      d    tot
    1  0.003  0.009  0.955  0.967
 
band     5 # energy    5.23752744 # occ.  1.00631902
 
ion      s      p      d    tot
    1  0.015  0.029  0.917  0.962
 
band     6 # energy    6.82653659 # occ. -0.00000000
 
ion      s      p      d    tot
    1  0.071  0.190  0.571  0.832
 
band     7 # energy   15.17309873 # occ.  0.00000000
 
ion      s      p      d    tot
    1  0.229  0.180  0.316  0.724
 
band     8 # energy   21.24270169 # occ.  0.00000000
 
ion      s      p      d    tot
    1  0.081  0.302  0.191  0.574
 
band     9 # energy   26.02812437 # occ.  0.00000000
 
ion      s      p      d    tot
    1  0.001  0.428  0.045  0.474
 
band    10 # energy   30.22741965 # occ.  0.00000000
 
ion      s      p      d    tot
    1  0.055  0.057  0.419  0.530
 
band    11 # energy   34.59770627 # occ.  0.00000000
 
ion      s      p      d    tot
    1  0.004  0.148  0.256  0.408
 
band    12 # energy   36.57753707 # occ.  0.00000000
 
ion      s      p      d    tot
    1  0.109  0.084  0.254  0.447
 

 k-point    19 :   -0.25000000 0.45000000 0.05000000     weight = 0.02400000

band     1 # energy    1.49565452 # occ.  1.00000000
 
ion      s      p      d    tot
    1  0.155  0.088  0.541  0.784
 
band     2 # energy    2.39661800 # occ.  1.00000000
 
ion      s      p      d    tot
    1  0.000  0.038  0.852  0.890
 
band     3 # energy    3.03614904 # occ.  1.00000000
 
ion      s      p      d    tot
    1  0.013  0.076  0.801  0.891
 
band     4 # energy    4.34891036 # occ.  1.00000000
 
ion      s      p      d    tot
    1  0.000  0.007  0.959  0.966
 
band     5 # energy    5.02134686 # occ.  1.00003902
 
ion      s      p      d    tot
    1  0.019  0.008  0.947  0.974
 
band     6 # energy    7.06294656 # occ. -0.00000000
 
ion      s      p      d    tot
    1  0.093  0.151  0.609  0.853
 
band     7 # energy   17.50648239 # occ.  0.00000000
 
ion      s      p      d    tot
    1  0.000  0.316  0.337  0.652
 
band     8 # energy   18.28361417 # occ.  0.00000000
 
ion      s      p      d    tot
    1  0.288  0.212  0.167  0.668
 
band     9 # energy   27.19626163 # occ.  0.00000000
 
ion      s      p      d    tot
    1  0.019  0.443  0.077  0.539
 
band    10 # energy   29.85154261 # occ.  0.00000000
 
ion      s      p      d    tot
    1  0.000  0.090  0.272  0.361
 
band    11 # energy   33.40518585 # occ.  0.00000000
 
ion      s      p      d    tot
    1  0.085  0.028  0.342  0.455
 
band    12 # energy   41.03298261 # occ.  0.00000000
 
ion      s      p      d    tot
    1  0.000  0.243  0.140  0.383
 

 k-point    20 :   -0.45000000-0.45000000 0.05000000     weight = 0.02400000

band     1 # energy    1.15239727 # occ.  1.00000000
 
ion      s      p      d    tot
    1  0.087  0.016  0.740  0.843
 
band     2 # energy    2.47082830 # occ.  1.00000000
 
ion      s      p      d    tot
    1  0.001  0.009  0.926  0.936
 