<?xml version="1.0" encoding="ISO-8859-1"?>
<modeling>
 <generator>
  <i name="program" type="string">vasp </i>
  <i name="version" type="string">5.4.4.18Apr17-6-g9f103f2a35  </i>
  <i name="subversion" type="string">(build May 18 2018 14:42:58) complex            parallel </i>
  <i name="platform" type="string">LinuxIFC </i>
  <i name="date" type="string">2020 06 30 </i>
  <i name="time" type="string">16:50:56 </i>
 </generator>
 <incar>
  <i type="string" name="SYSTEM"> bcc Fe</i>
  <i type="string" name="PREC">normal</i>
  <i type="int" name="ISPIN">     2</i>
  <i name="EDIFF">      0.00010000</i>
  <i name="ENCUT">    268.00000000</i>
  <v name="RWIGS">      1.30200000</v>
  <v name="MAGMOM">      3.00000000</v>
  <v type="int" name="KPOINT_BSE">    -1     0     0     0</v>
 </incar>
 <structure name="primitive_cell" >
  <crystal>
   <varray name="basis" >
    <v>      -1.42500000       1.42500000       1.42500000 </v>
    <v>       1.42500000      -1.42500000       1.42500000 </v>
    <v>       1.42500000       1.42500000      -1.42500000 </v>
   </varray>
   <i name="volume">     11.57456250 </i>
   <varray name="rec_basis" >
    <v>       0.00000000       0.35087719       0.35087719 </v>
    <v>       0.35087719       0.00000000       0.35087719 </v>
    <v>       0.35087719       0.35087719       0.00000000 </v>
   </varray>
  </crystal>
  <varray name="positions" >
   <v>       0.00000000       0.00000000       0.00000000 </v>
  </varray>
 </structure>
 <varray name="primitive_index" >
  <v type="int" >        1 </v>
 </varray>
 <kpoints>
  <generation param="Monkhorst-Pack">
   <v type="int" name="divisions">      10       10       10 </v>
   <v name="usershift">      0.00000000       0.00000000       0.00000000 </v>
   <v name="genvec1">      0.10000000       0.00000000       0.00000000 </v>
   <v name="genvec2">      0.00000000       0.10000000       0.00000000 </v>
   <v name="genvec3">      0.00000000       0.00000000       0.10000000 </v>
   <v name="shift">      0.50000000       0.50000000       0.50000000 </v>
  </generation>
  <varray name="kpointlist" >
   <v>       0.05000000       0.05000000       0.05000000 </v>
   <v>       0.15000000       0.05000000       0.05000000 </v>
   <v>       0.25000000       0.05000000       0.05000000 </v>
   <v>       0.35000000       0.05000000       0.05000000 </v>
   <v>       0.45000000       0.05000000       0.05000000 </v>
   <v>      -0.05000000       0.05000000       0.05000000 </v>
   <v>       0.15000000       0.15000000       0.05000000 </v>
   <v>       0.25000000       0.15000000       0.05000000 </v>
   <v>       0.35000000       0.15000000       0.05000000 </v>
   <v>      -0.15000000       0.15000000       0.05000000 </v>
   <v>       0.25000000       0.25000000       0.05000000 </v>
   <v>       0.35000000       0.25000000       0.05000000 </v>
   <v>      -0.25000000       0.25000000       0.05000000 </v>
   <v>      -0.15000000       0.25000000       0.05000000 </v>
   <v>      -0.35000000       0.35000000       0.05000000 </v>
   <v>      -0.25000000       0.35000000       0.05000000 </v>
   <v>      -0.45000000       0.45000000       0.05000000 </v>
   <v>      -0.35000000       0.45000000       0.05000000 </v>
   <v>      -0.25000000       0.45000000       0.05000000 </v>
   <v>      -0.45000000      -0.45000000       0.05000000 </v>
   <v>      -0.35000000      -0.45000000       0.05000000 </v>
   <v>      -0.35000000      -0.35000000       0.05000000 </v>
   <v>       0.15000000       0.15000000       0.15000000 </v>
   <v>       0.25000000       0.15000000       0.15000000 </v>
   <v>       0.35000000       0.15000000       0.15000000 </v>
   <v>      -0.15000000       0.15000000       0.15000000 </v>
   <v>       0.25000000       0.25000000       0.15000000 </v>
   <v>      -0.25000000       0.25000000       0.15000000 </v>
   <v>      -0.35000000       0.35000000       0.15000000 </v>
   <v>      -0.25000000       0.35000000       0.15000000 </v>
   <v>      -0.45000000       0.45000000       0.15000000 </v>
   <v>      -0.35000000       0.45000000       0.15000000 </v>
   <v>      -0.45000000      -0.45000000       0.15000000 </v>
   <v>      -0.35000000      -0.45000000       0.15000000 </v>
   <v>       0.25000000       0.25000000       0.25000000 </v>
   <v>      -0.25000000       0.25000000       0.25000000 </v>
   <v>      -0.35000000       0.35000000       0.25000000 </v>
   <v>      -0.45000000       0.45000000       0.25000000 </v>
   <v>      -0.35000000       0.45000000       0.25000000 </v>
   <v>      -0.45000000      -0.45000000       0.25000000 </v>
   <v>      -0.35000000       0.35000000       0.35000000 </v>
   <v>      -0.45000000       0.45000000       0.35000000 </v>
   <v>      -0.45000000      -0.45000000       0.35000000 </v>
   <v>      -0.45000000       0.45000000       0.45000000 </v>
  </varray>
  <varray name="weights" >
   <v>       0.00800000 </v>
   <v>       0.02400000 </v>
   <v>       0.02400000 </v>
   <v>       0.02400000 </v>
   <v>       0.01200000 </v>
   <v>       0.00600000 </v>
   <v>       0.02400000 </v>
   <v>       0.04800000 </v>
   <v>       0.04800000 </v>
   <v>       0.02400000 </v>
   <v>       0.02400000 </v>
   <v>       0.02400000 </v>
   <v>       0.02400000 </v>
   <v>       0.02400000 </v>
   <v>       0.02400000 </v>
   <v>       0.04800000 </v>
   <v>       0.02400000 </v>
   <v>       0.04800000 </v>
   <v>       0.02400000 </v>
   <v>       0.02400000 </v>
   <v>       0.04800000 </v>
   <v>       0.00800000 </v>
   <v>       0.00800000 </v>
   <v>       0.02400000 </v>
   <v>       0.01200000 </v>
   <v>       0.00600000 </v>
   <v>       0.02400000 </v>
   <v>       0.02400000 </v>
   <v>       0.02400000 </v>
   <v>       0.02400000 </v>
   <v>       0.02400000 </v>
   <v>       0.04800000 </v>
   <v>       0.02400000 </v>
   <v>       0.02400000 </v>
   <v>       0.00200000 </v>
   <v>       0.00600000 </v>
   <v>       0.02400000 </v>
   <v>       0.02400000 </v>
   <v>       0.02400000 </v>
   <v>       0.02400000 </v>
   <v>       0.00600000 </v>
   <v>       0.02400000 </v>
   <v>       0.00800000 </v>
   <v>       0.00600000 </v>
  </varray>
 </kpoints>
 <parameters>
  <separator name="general" >
   <i type="string" name="SYSTEM">bcc Fe</i>
   <i type="logical" name="LCOMPAT"> F  </i>
  </separator>
  <separator name="electronic" >
   <i type="string" name="PREC">normal</i>
   <i name="ENMAX">    268.00000000</i>
   <i name="ENAUG">    511.36800000</i>
   <i name="EDIFF">      0.00010000</i>
   <i type="int" name="IALGO">    38</i>
   <i type="int" name="IWAVPR">    10</i>
   <i type="int" name="NBANDS">    12</i>
   <i name="NELECT">      8.00000000</i>
   <i type="int" name="TURBO">     0</i>
   <i type="int" name="IRESTART">     0</i>
   <i type="int" name="NREBOOT">     0</i>
   <i type="int" name="NMIN">     0</i>
   <i name="EREF">      0.00000000</i>
   <separator name="electronic smearing" >
    <i type="int" name="ISMEAR">     1</i>
    <i name="SIGMA">      0.20000000</i>
    <i name="KSPACING">      0.50000000</i>
    <i type="logical" name="KGAMMA"> T  </i>
   </separator>
   <separator name="electronic projectors" >
    <i type="logical" name="LREAL"> F  </i>
    <v name="ROPT">      0.00000000</v>
    <i type="int" name="LMAXPAW">  -100</i>
    <i type="int" name="LMAXMIX">     2</i>
    <i type="logical" name="NLSPLINE"> F  </i>
   </separator>
   <separator name="electronic startup" >
    <i type="int" name="ISTART">     0</i>
    <i type="int" name="ICHARG">     2</i>
    <i type="int" name="INIWAV">     1</i>
   </separator>
   <separator name="electronic spin" >
    <i type="int" name="ISPIN">     2</i>
    <i type="logical" name="LNONCOLLINEAR"> F  </i>
    <v name="MAGMOM">      3.00000000</v>
    <i name="NUPDOWN">     -1.00000000</i>
    <i type="logical" name="LSORBIT"> F  </i>
    <v name="SAXIS">      0.00000000      0.00000000      1.00000000</v>
    <i type="logical" name="LSPIRAL"> F  </i>
    <v name="QSPIRAL">      0.00000000      0.00000000      0.00000000</v>
    <i type="logical" name="LZEROZ"> F  </i>
   </separator>
   <separator name="electronic exchange-correlation" >
    <i type="logical" name="LASPH"> F  </i>
    <i type="logical" name="LMETAGGA"> F  </i>
   </separator>
   <separator name="electronic convergence" >
    <i type="int" name="NELM">    60</i>
    <i type="int" name="NELMDL">    -5</i>
    <i type="int" name="NELMIN">     2</i>
    <i name="ENINI">    268.00000000</i>
    <separator name="electronic convergence detail" >
     <i type="logical" name="LDIAG"> T  </i>
     <i type="logical" name="LSUBROT"> F  </i>
     <i name="WEIMIN">      0.00000000</i>
     <i name="EBREAK">      0.00000208</i>
     <i name="DEPER">      0.30000000</i>
     <i type="int" name="NRMM">     4</i>
     <i name="TIME">      0.40000000</i>
    </separator>
   </separator>
   <separator name="electronic mixer" >
    <i name="AMIX">      0.40000000</i>
    <i name="BMIX">      1.00000000</i>
    <i name="AMIN">      0.10000000</i>
    <i name="AMIX_MAG">      1.60000000</i>
    <i name="BMIX_MAG">      1.00000000</i>
    <separator name="electronic mixer details" >
     <i type="int" name="IMIX">     4</i>
     <i type="logical" name="MIXFIRST"> F  </i>
     <i type="int" name="MAXMIX">   -45</i>
     <i name="WC">    100.00000000</i>
     <i type="int" name="INIMIX">     1</i>
     <i type="int" name="MIXPRE">     1</i>
     <i type="int" name="MREMOVE">     5</i>
    </separator>
   </separator>
   <separator name="electronic dipolcorrection" >
    <i type="logical" name="LDIPOL"> F  </i>
    <i type="logical" name="LMONO"> F  </i>
    <i type="int" name="IDIPOL">     0</i>
    <i name="EPSILON">      1.00000000</i>
    <v name="DIPOL">   -100.00000000   -100.00000000   -100.00000000</v>
    <i name="EFIELD">      0.00000000</i>
   </separator>
  </separator>
  <separator name="grids" >
   <i type="int" name="NGX">    10</i>
   <i type="int" name="NGY">    10</i>
   <i type="int" name="NGZ">    10</i>
   <i type="int" name="NGXF">    20</i>
   <i type="int" name="NGYF">    20</i>
   <i type="int" name="NGZF">    20</i>
   <i type="logical" name="ADDGRID"> F  </i>
  </separator>
  <separator name="ionic" >
   <i type="int" name="NSW">     0</i>
   <i type="int" name="IBRION">    -1</i>
   <i type="int" name="MDALGO">     0</i>
   <i type="int" name="ISIF">     2</i>
   <i name="PSTRESS">      0.00000000</i>
   <i name="EDIFFG">      0.00100000</i>
   <i type="int" name="NFREE">     0</i>
   <i name="POTIM">      0.50000000</i>
   <i name="SMASS">     -3.00000000</i>
   <i name="SCALEE">      1.00000000</i>
  </separator>
  <separator name="ionic md" >
   <i name="TEBEG">      0.00010000</i>
   <i name="TEEND">      0.00010000</i>
   <i type="int" name="NBLOCK">     1</i>
   <i type="int" name="KBLOCK">     1</i>
   <i type="int" name="NPACO">   256</i>
   <i name="APACO">     16.00000000</i>
  </separator>
  <separator name="symmetry" >
   <i type="int" name="ISYM">     2</i>
   <i name="SYMPREC">      0.00001000</i>
  </separator>
  <separator name="dos" >
   <i type="int" name="LORBIT">     0</i>
   <v name="RWIGS">      1.30200000</v>
   <i type="int" name="NEDOS">   301</i>
   <i name="EMIN">     10.00000000</i>
   <i name="EMAX">    -10.00000000</i>
   <i name="EFERMI">      0.00000000</i>
  </separator>
  <separator name="writing" >
   <i type="int" name="NWRITE">     2</i>
   <i type="logical" name="LWAVE"> T  </i>
   <i type="logical" name="LDOWNSAMPLE"> F  </i>
   <i type="logical" name="LCHARG"> T  </i>
   <i type="logical" name="LPARD"> F  </i>
   <i type="logical" name="LVTOT"> F  </i>
   <i type="logical" name="LVHAR"> F  </i>
   <i type="logical" name="LELF"> F  </i>
   <i type="logical" name="LOPTICS"> F  </i>
   <v name="STM">      0.00000000      0.00000000      0.00000000      0.00000000      0.00000000      0.00000000      0.00000000</v>
  </separator>
  <separator name="performance" >
   <i type="int" name="NPAR">     4</i>
   <i type="int" name="NSIM">     4</i>
   <i type="int" name="NBLK">    -1</i>
   <i type="logical" name="LPLANE"> T  </i>
   <i type="logical" name="LSCALAPACK"> T  </i>
   <i type="logical" name="LSCAAWARE"> F  </i>
   <i type="logical" name="LSCALU"> F  </i>
   <i type="logical" name="LASYNC"> F  </i>
   <i type="logical" name="LORBITALREAL"> F  </i>
  </separator>
  <separator name="miscellaneous" >
   <i type="int" name="IDIOT">     3</i>
   <i type="int" name="ISPECIAL">     0</i>
   <i type="logical" name="LMUSIC"> F  </i>
   <v name="POMASS">     55.84700000</v>
   <v name="DARWINR">      0.00000000</v>
   <v name="DARWINV">      1.00000000</v>
   <i type="logical" name="LCORR"> T  </i>
  </separator>
  <i type="logical" name="GGA_COMPAT"> T  </i>
  <i type="logical" name="LBERRY"> F  </i>
  <i type="int" name="ICORELEVEL">     0</i>
  <i type="logical" name="LDAU"> F  </i>
  <i type="int" name="I_CONSTRAINED_M">     0</i>
  <separator name="electronic exchange-correlation" >
   <i type="string" name="GGA">--</i>
   <i type="int" name="VOSKOWN">     0</i>
   <i type="logical" name="LHFCALC"> F  </i>
   <i type="string" name="PRECFOCK"></i>
   <i type="logical" name="LSYMGRAD"> F  </i>
   <i type="logical" name="LHFONE"> F  </i>
   <i type="logical" name="LRHFCALC"> F  </i>
   <i type="logical" name="LTHOMAS"> F  </i>
   <i type="logical" name="LMODELHF"> F  </i>
   <i name="ENCUT4O">     -1.00000000</i>
   <i type="int" name="EXXOEP">     0</i>
   <i type="int" name="FOURORBIT">     0</i>
   <i name="AEXX">      0.00000000</i>
   <i name="HFALPHA">      0.00000000</i>
   <i name="MCALPHA">      0.00000000</i>
   <i name="ALDAX">      1.00000000</i>
   <i name="AGGAX">      1.00000000</i>
   <i name="ALDAC">      1.00000000</i>
   <i name="AGGAC">      1.00000000</i>
   <i type="int" name="NKREDX">     1</i>
   <i type="int" name="NKREDY">     1</i>
   <i type="int" name="NKREDZ">     1</i>
   <i type="logical" name="SHIFTRED"> F  </i>
   <i type="logical" name="ODDONLY"> F  </i>
   <i type="logical" name="EVENONLY"> F  </i>
   <i type="int" name="LMAXFOCK">     0</i>
   <i type="int" name="NMAXFOCKAE">     0</i>
   <i type="logical" name="LFOCKAEDFT"> F  </i>
   <i name="HFSCREEN">      0.00000000</i>
   <i name="HFSCREENC">      0.00000000</i>
   <i type="int" name="NBANDSGWLOW">     0</i>
  </separator>
  <separator name="vdW DFT" >
   <i type="logical" name="LUSE_VDW"> F  </i>
   <i name="Zab_VDW">     -0.84910000</i>
   <i name="PARAM1">      0.12340000</i>
   <i name="PARAM2">      1.00000000</i>
   <i name="PARAM3">      0.00000000</i>
  </separator>
  <separator name="model GW" >
   <i type="int" name="MODEL_GW">     0</i>
   <i name="MODEL_EPS0">      6.94473750</i>
   <i name="MODEL_ALPHA">      1.00000000</i>
  </separator>
  <separator name="linear response parameters" >
   <i type="logical" name="LEPSILON"> F  </i>
   <i type="logical" name="LRPA"> F  </i>
   <i type="logical" name="LNABLA"> F  </i>
   <i type="logical" name="LVEL"> F  </i>
   <i type="int" name="KINTER">     0</i>
   <i name="CSHIFT">      0.10000000</i>
   <i name="OMEGAMAX">     -1.00000000</i>
   <i name="DEG_THRESHOLD">      0.00200000</i>
   <i name="RTIME">     -0.10000000</i>
   <i name="WPLASMAI">      0.00000000</i>
   <v name="DFIELD">      0.00000000      0.00000000      0.00000000</v>
   <v name="WPLASMA">      0.00000000      0.00000000      0.00000000      0.00000000      0.00000000      0.00000000      0.00000000      0.00000000      0.00000000</v>
  </separator>
  <separator name="orbital magnetization" >
   <i type="logical" name="NUCIND"> F  </i>
   <v name="MAGPOS">      0.00000000      0.00000000      0.00000000</v>
   <i type="logical" name="LNICSALL"> T  </i>
   <i type="logical" name="ORBITALMAG"> F  </i>
   <i type="logical" name="LMAGBLOCH"> F  </i>
   <i type="logical" name="LCHIMAG"> F  </i>
   <i type="logical" name="LGAUGE"> T  </i>
   <i type="int" name="MAGATOM">     0</i>
   <v name="MAGDIPOL">      0.00000000      0.00000000      0.00000000</v>
   <v name="AVECCONST">      0.00000000      0.00000000      0.00000000</v>
  </separator>
  <separator name="response functions" >
   <i type="logical" name="LADDER"> F  </i>
   <i type="logical" name="LRPAFORCE"> F  </i>
   <i type="logical" name="LFXC"> F  </i>
   <i type="logical" name="LHARTREE"> T  </i>
   <i type="int" name="IBSE">     0</i>
   <v type="int" name="KPOINT">    -1     0     0     0</v>
   <i type="logical" name="LTCTE"> F  </i>
   <i type="logical" name="LTETE"> F  </i>
   <i type="logical" name="LTRIPLET"> F  </i>
   <i type="logical" name="LFXCEPS"> F  </i>
   <i type="logical" name="LFXHEG"> F  </i>
   <i type="int" name="NATURALO">     2</i>
   <i type="logical" name="L2ORDER"> F  </i>
   <i type="logical" name="LMP2LT"> F  </i>
   <i type="logical" name="LUSEW"> F  </i>
   <i name="ENCUTGW">     -2.00000000</i>
   <i name="ENCUTGWSOFT">     -2.00000000</i>
   <i name="ENCUTLF">     -1.00000000</i>
   <i type="int" name="LMAXMP2">    -1</i>
   <i name="SCISSOR">      0.00000000</i>
   <i type="int" name="NOMEGA">     0</i>
   <i type="int" name="NOMEGAR">     0</i>
   <i type="int" name="NBANDSGW">    -1</i>
   <i type="int" name="NBANDSO">    -1</i>
   <i type="int" name="NBANDSV">    -1</i>
   <i type="int" name="NELM">     1</i>
   <i type="int" name="NELMHF">     1</i>
   <i type="int" name="DIM">     3</i>
   <i type="int" name="ANTIRES">     0</i>
   <i name="OMEGAMAX">    -30.00000000</i>
   <i name="OMEGAMIN">    -30.00000000</i>
   <i name="OMEGATL">   -200.00000000</i>
   <i type="int" name="OMEGAGRID">   140</i>
   <i name="CSHIFT">     -0.10000000</i>
   <i type="logical" name="SELFENERGY"> F  </i>
   <i type="logical" name="LSPECTRAL"> F  </i>
   <i type="logical" name="LSPECTRALGW"> F  </i>
   <i type="logical" name="LSINGLES"> F  </i>
   <i type="logical" name="LFERMIGW"> F  </i>
   <i type="logical" name="ODDONLYGW"> F  </i>
   <i type="logical" name="EVENONLYGW"> F  </i>
   <i type="int" name="NKREDLFX">     1</i>
   <i type="int" name="NKREDLFY">     1</i>
   <i type="int" name="NKREDLFZ">     1</i>
   <i type="int" name="MAXMEM">  2800</i>
   <i type="int" name="TELESCOPE">     0</i>
   <i type="int" name="TAUPAR">     1</i>
   <i type="int" name="OMEGAPAR">    -1</i>
   <i name="LAMBDA">      1.00000000</i>
  </separator>
  <separator name="External order field" >
   <i name="OFIELD_KAPPA">      0.00000000</i>
   <v name="OFIELD_K">      0.00000000      0.00000000      0.00000000</v>
   <i name="OFIELD_Q6_NEAR">      0.00000000</i>
   <i name="OFIELD_Q6_FAR">      0.00000000</i>
   <i name="OFIELD_A">      0.00000000</i>
  </separator>
 </parameters>
 <atominfo>
  <atoms>       1 </atoms>
  <types>       1 </types>
  <array name="atoms" >
   <dimension dim="1">ion</dimension>
   <field type="string">element</field>
   <field type="int">atomtype</field>
   <set>
    <rc><c>Fe</c><c>   1</c></rc>
   </set>
  </array>
  <array name="atomtypes" >
   <dimension dim="1">type</dimension>
   <field type="int">atomspertype</field>
   <field type="string">element</field>
   <field>mass</field>
   <field>valence</field>
   <field type="string">pseudopotential</field>
   <set>
    <rc><c>   1</c><c>Fe</c><c>     55.84700000</c><c>      8.00000000</c><c>  PAW_PBE Fe 06Sep2000                  </c></rc>
   </set>
  </array>
 </atominfo>
 <structure name="initialpos" >
  <crystal>
   <varray name="basis" >
    <v>      -1.42500000       1.42500000       1.42500000 </v>
    <v>       1.42500000      -1.42500000       1.42500000 </v>
    <v>       1.42500000       1.42500000      -1.42500000 </v>
   </varray>
   <i name="volume">     11.57456250 </i>
   <varray name="rec_basis" >
    <v>       0.00000000       0.35087719       0.35087719 </v>
    <v>       0.35087719       0.00000000       0.35087719 </v>
    <v>       0.35087719       0.35087719       0.00000000 </v>
   </varray>
  </crystal>
  <varray name="positions" >
   <v>       0.00000000       0.00000000       0.00000000 </v>
  </varray>
 </structure>
 <calculation>
  <scstep>
   <time name="dav">    0.20    0.20</time>
   <time name="total">    0.21    0.21</time>
   <energy>
    <i name="alphaZ">     59.71178263 </i>
    <i name="ewald">   -588.39789044 </i>
    <i name="hartreedc">   -112.96750486 </i>
    <i name="XCdc">      5.02024070 </i>
    <i name="pawpsdc">    553.75926685 </i>
    <i name="pawaedc">   -561.48528711 </i>
    <i name="eentropy">     -0.00110229 </i>
    <i name="bandstr">     60.34221059 </i>
    <i name="atom">    594.28084496 </i>
    <i name="e_fr_energy">     10.26256104 </i>
    <i name="e_wo_entrp">     10.26366333 </i>
    <i name="e_0_energy">     10.26292847 </i>
   </energy>
  </scstep>
  <scstep>
   <time name="dav">    0.19    0.20</time>
   <time name="total">    0.19    0.20</time>
   <energy>
    <i name="e_fr_energy">     -8.80082219 </i>
    <i name="e_wo_entrp">     -8.80110820 </i>
    <i name="e_0_energy">     -8.80091753 </i>
   </energy>
  </scstep>
  <scstep>
   <time name="dav">    0.21    0.21</time>
   <time name="total">    0.21    0.21</time>
   <energy>
    <i name="e_fr_energy">     -9.13498349 </i>
    <i name="e_wo_entrp">     -9.13599376 </i>
    <i name="e_0_energy">     -9.13532024 </i>
   </energy>
  </scstep>
  <scstep>
   <time name="dav">    0.21    0.21</time>
   <time name="total">    0.21    0.22</time>
   <energy>
    <i name="e_fr_energy">     -9.13580450 </i>
    <i name="e_wo_entrp">     -9.13681486 </i>
    <i name="e_0_energy">     -9.13614129 </i>
   </energy>
  </scstep>
  <scstep>
   <time name="dav">    0.19    0.19</time>
   <time name="total">    0.19    0.20</time>
   <energy>
    <i name="e_fr_energy">     -9.13580819 </i>
    <i name="e_wo_entrp">     -9.13681855 </i>
    <i name="e_0_energy">     -9.13614498 </i>
   </energy>
  </scstep>
  <scstep>
   <time name="dav">    0.21    0.22</time>
   <time name="total">    0.23    0.23</time>
   <energy>
    <i name="e_fr_energy">     -8.31079508 </i>
    <i name="e_wo_entrp">     -8.30889360 </i>
    <i name="e_0_energy">     -8.31016126 </i>
   </energy>
  </scstep>
  <scstep>
   <time name="dav">    0.21    0.21</time>
   <time name="total">    0.22    0.23</time>
   <energy>
    <i name="e_fr_energy">     -8.24383173 </i>
    <i name="e_wo_entrp">     -8.24228669 </i>
    <i name="e_0_energy">     -8.24331672 </i>
   </energy>
  </scstep>
  <scstep>
   <time name="dav">    0.21    0.22</time>
   <time name="total">    0.23    0.23</time>
   <energy>
    <i name="e_fr_energy">     -8.24082049 </i>
    <i name="e_wo_entrp">     -8.24108226 </i>
    <i name="e_0_energy">     -8.24090775 </i>
   </energy>
  </scstep>
  <scstep>
   <time name="dav">    0.23    0.23</time>
   <time name="total">    0.24    0.24</time>
   <energy>
    <i name="e_fr_energy">     -8.23454712 </i>
    <i name="e_wo_entrp">     -8.23756740 </i>
    <i name="e_0_energy">     -8.23555388 </i>
   </energy>
  </scstep>
  <scstep>
   <time name="dav">    0.18    0.18</time>
   <time name="total">    0.19    0.20</time>
   <energy>
    <i name="e_fr_energy">     -8.23522546 </i>
    <i name="e_wo_entrp">     -8.23798202 </i>
    <i name="e_0_energy">     -8.23614431 </i>
   </energy>
  </scstep>
  <scstep>
   <time name="dav">    0.18    0.18</time>
   <time name="total">    0.19    0.19</time>
   <energy>
    <i name="e_fr_energy">     -8.23565695 </i>
    <i name="e_wo_entrp">     -8.23776188 </i>
    <i name="e_0_energy">     -8.23635859 </i>
   </energy>
  </scstep>
  <scstep>
   <time name="dav">    0.13    0.13</time>
   <time name="total">    0.14    0.14</time>
   <energy>
    <i name="alphaZ">     59.71178263 </i>
    <i name="ewald">   -588.39789044 </i>
    <i name="hartreedc">    -96.72791329 </i>
    <i name="XCdc">      4.40063348 </i>
    <i name="pawpsdc">    713.99057102 </i>
    <i name="pawaedc">   -723.01707082 </i>
    <i name="eentropy">      0.00205631 </i>
    <i name="bandstr">     27.52133221 </i>
    <i name="atom">    594.28084496 </i>
    <i name="e_fr_energy">     -8.23565393 </i>
    <i name="e_wo_entrp">     -8.23771024 </i>
    <i name="e_0_energy">     -8.23633937 </i>
   </energy>
  </scstep>
  <structure>
   <crystal>
    <varray name="basis" >
     <v>      -1.42500000       1.42500000       1.42500000 </v>
     <v>       1.42500000      -1.42500000       1.42500000 </v>
     <v>       1.42500000       1.42500000      -1.42500000 </v>
    </varray>
    <i name="volume">     11.57456250 </i>
    <varray name="rec_basis" >
     <v>       0.00000000       0.35087719       0.35087719 </v>
     <v>       0.35087719       0.00000000       0.35087719 </v>
     <v>       0.35087719       0.35087719       0.00000000 </v>
    </varray>
   </crystal>
   <varray name="positions" >
    <v>       0.00000000       0.00000000       0.00000000 </v>
   </varray>
  </structure>
  <varray name="forces" >
   <v>       0.00000000       0.00000000       0.00000000 </v>
  </varray>
  <varray name="stress" >
   <v>     -58.77492741       0.00000000      -0.00000000 </v>
   <v>       0.00000000     -58.77492741       0.00000000 </v>
   <v>       0.00000000      -0.00000000     -58.77492741 </v>
  </varray>
  <energy>
   <i name="e_fr_energy">     -8.23565393 </i>
   <i name="e_wo_entrp">     -8.23633937 </i>
   <i name="e_0_energy">      0.00205631 </i>
  </energy>
  <time name="totalsc">    2.57    2.63</time>
  <eigenvalues>
   <array>
    <dimension dim="1">band</dimension>
    <dimension dim="2">kpoint</dimension>
    <dimension dim="3">spin</dimension>
    <field>eigene</field>
    <field>occ</field>
    <set>
     <set comment="spin 1">
      <set comment="kpoint 1">
       <r>   -2.0996    1.0000 </r>
       <r>    3.1988    1.0000 </r>
       <r>    3.1988    1.0000 </r>
       <r>    3.6993    1.0000 </r>
       <r>    4.5215    1.0000 </r>
       <r>    4.5215    1.0000 </r>
       <r>   27.8975    0.0000 </r>
       <r>   27.8975    0.0000 </r>
       <r>   31.0168    0.0000 </r>
       <r>   32.1075    0.0000 </r>
       <r>   35.7975    0.0000 </r>
       <r>   35.7975    0.0000 </r>
      </set>
      <set comment="kpoint 2">
       <r>   -0.9956    1.0000 </r>
       <r>    2.9088    1.0000 </r>
       <r>    3.0559    1.0000 </r>
       <r>    4.3540    1.0000 </r>
       <r>    4.4204    1.0000 </r>
       <r>    4.6008    1.0000 </r>
       <r>   23.6714    0.0000 </r>
       <r>   25.9844    0.0000 </r>
       <r>   28.7597    0.0000 </r>
       <r>   31.2799    0.0000 </r>
       <r>   35.5054    0.0000 </r>
       <r>   35.8795    0.0000 </r>
      </set>
      <set comment="kpoint 3">
       <r>    0.3542    1.0000 </r>
       <r>    2.5862    1.0000 </r>
       <r>    3.1359    1.0000 </r>
       <r>    4.4784    1.0000 </r>
       <r>    4.6764    1.0000 </r>
       <r>    5.2691    1.0105 </r>
       <r>   19.0644    0.0000 </r>
       <r>   24.2630    0.0000 </r>
       <r>   26.3708    0.0000 </r>
       <r>   30.8350    0.0000 </r>
       <r>   34.5765    0.0000 </r>
       <r>   37.8487    0.0000 </r>
      </set>
      <set comment="kpoint 4">
       <r>    0.9100    1.0000 </r>
       <r>    2.3464    1.0000 </r>
       <r>    4.1764    1.0000 </r>
       <r>    4.6171    1.0000 </r>
       <r>    4.7408    1.0000 </r>
       <r>    6.3888   -0.0000 </r>
       <r>   14.9583    0.0000 </r>
       <r>   23.0833    0.0000 </r>
       <r>   24.7609    0.0000 </r>
       <r>   30.4528    0.0000 </r>
       <r>   34.2476    0.0000 </r>
       <r>   40.1081    0.0000 </r>
      </set>
      <set comment="kpoint 5">
       <r>    0.9349    1.0000 </r>
       <r>    2.2573    1.0000 </r>
       <r>    4.6336    1.0000 </r>
       <r>    4.7664    1.0000 </r>
       <r>    4.9221    1.0000 </r>
       <r>    7.3419   -0.0000 </r>
       <r>   12.8440    0.0000 </r>
       <r>   22.6641    0.0000 </r>
       <r>   24.1699    0.0000 </r>
       <r>   30.3071    0.0000 </r>
       <r>   34.2148    0.0000 </r>
       <r>   40.0167    0.0000 </r>
      </set>
      <set comment="kpoint 6">
       <r>   -2.4976    1.0000 </r>
       <r>    3.3228    1.0000 </r>
       <r>    3.3229    1.0000 </r>
       <r>    3.3752    1.0000 </r>
       <r>    4.4844    1.0000 </r>
       <r>    4.6137    1.0000 </r>
       <r>   29.2394    0.0000 </r>
       <r>   30.2479    0.0000 </r>
       <r>   30.2479    0.0000 </r>
       <r>   33.7839    0.0000 </r>
       <r>   35.6175    0.0000 </r>
       <r>   35.6176    0.0000 </r>
      </set>
      <set comment="kpoint 7">
       <r>    0.2524    1.0000 </r>
       <r>    2.6894    1.0000 </r>
       <r>    2.7181    1.0000 </r>
       <r>    4.4420    1.0000 </r>
       <r>    4.6849    1.0000 </r>
       <r>    5.3262    1.0218 </r>
       <r>   21.3824    0.0000 </r>
       <r>   22.2554    0.0000 </r>
       <r>   25.6158    0.0000 </r>
       <r>   32.5849    0.0000 </r>
       <r>   36.4315    0.0000 </r>
       <r>   37.9393    0.0000 </r>
      </set>
      <set comment="kpoint 8">
       <r>    1.2631    1.0000 </r>
       <r>    2.4118    1.0000 </r>
       <r>    2.9484    1.0000 </r>
       <r>    4.5361    1.0000 </r>
       <r>    4.7852    1.0000 </r>
       <r>    6.6923   -0.0000 </r>
       <r>   17.2976    0.0000 </r>
       <r>   20.4232    0.0000 </r>
       <r>   23.8636    0.0000 </r>
       <r>   32.7910    0.0000 </r>
       <r>   37.2189    0.0000 </r>
       <r>   38.6109    0.0000 </r>
      </set>
      <set comment="kpoint 9">
       <r>    1.3648    1.0000 </r>
       <r>    2.2775    1.0000 </r>
       <r>    3.6754    1.0000 </r>
       <r>    4.6442    1.0000 </r>
       <r>    4.8762    1.0000 </r>
       <r>    8.4736   -0.0000 </r>
       <r>   13.6985    0.0000 </r>
       <r>   19.5936    0.0000 </r>
       <r>   22.9706    0.0000 </r>
       <r>   32.6417    0.0000 </r>
       <r>   37.8927    0.0000 </r>
       <r>   38.8726    0.0000 </r>
      </set>
      <set comment="kpoint 10">
       <r>   -1.7156    1.0000 </r>
       <r>    3.1429    1.0000 </r>
       <r>    3.2895    1.0000 </r>
       <r>    3.7779    1.0000 </r>
       <r>    4.2906    1.0000 </r>
       <r>    4.6728    1.0000 </r>
       <r>   25.9499    0.0000 </r>
       <r>   28.6156    0.0000 </r>
       <r>   29.3443    0.0000 </r>
       <r>   32.9887    0.0000 </r>
       <r>   33.2023    0.0000 </r>
       <r>   34.1801    0.0000 </r>
      </set>
      <set comment="kpoint 11">
       <r>    1.7962    1.0000 </r>
       <r>    2.3406    1.0000 </r>
       <r>    2.9258    1.0000 </r>
       <r>    4.6332    1.0000 </r>
       <r>    4.8616    1.0000 </r>
       <r>    8.8335   -0.0000 </r>
       <r>   15.6767    0.0000 </r>
       <r>   16.6727    0.0000 </r>
       <r>   22.7761    0.0000 </r>
       <r>   34.1397    0.0000 </r>
       <r>   36.9807    0.0000 </r>
       <r>   42.8692    0.0000 </r>
      </set>
      <set comment="kpoint 12">
       <r>    1.8423    1.0000 </r>
       <r>    2.3833    1.0000 </r>
       <r>    2.9945    1.0000 </r>
       <r>    4.7253    1.0000 </r>
       <r>    4.8652    1.0000 </r>
       <r>   10.9452   -0.0000 </r>
       <r>   13.1494    0.0000 </r>
       <r>   15.9544    0.0000 </r>
       <r>   22.4349    0.0000 </r>
       <r>   34.6716    0.0000 </r>
       <r>   36.9749    0.0000 </r>
       <r>   42.5017    0.0000 </r>
      </set>
      <set comment="kpoint 13">
       <r>   -0.3853    1.0000 </r>
       <r>    2.8349    1.0000 </r>
       <r>    3.1944    1.0000 </r>
       <r>    4.2863    1.0000 </r>
       <r>    4.4981    1.0000 </r>
       <r>    4.7479    1.0000 </r>
       <r>   21.3229    0.0000 </r>
       <r>   26.4726    0.0000 </r>
       <r>   27.8471    0.0000 </r>
       <r>   31.1535    0.0000 </r>
       <r>   32.8305    0.0000 </r>
       <r>   34.9478    0.0000 </r>
      </set>
      <set comment="kpoint 14">
       <r>   -0.6596    1.0000 </r>
       <r>    3.0770    1.0000 </r>
       <r>    3.0775    1.0000 </r>
       <r>    4.1046    1.0000 </r>
       <r>    4.3228    1.0000 </r>
       <r>    4.8183    1.0000 </r>
       <r>   23.5466    0.0000 </r>
       <r>   24.7527    0.0000 </r>
       <r>   29.4540    0.0000 </r>
       <r>   30.2738    0.0000 </r>
       <r>   32.9719    0.0000 </r>
       <r>   36.2013    0.0000 </r>
      </set>
      <set comment="kpoint 15">
       <r>    0.6644    1.0000 </r>
       <r>    2.5392    1.0000 </r>
       <r>    3.6574    1.0000 </r>
       <r>    4.5188    1.0000 </r>
       <r>    4.9818    1.0000 </r>
       <r>    5.3009    1.0163 </r>
       <r>   16.8499    0.0000 </r>
       <r>   24.7819    0.0000 </r>
       <r>   26.1078    0.0000 </r>
       <r>   30.1593    0.0000 </r>
       <r>   32.7437    0.0000 </r>
       <r>   36.7775    0.0000 </r>
      </set>
      <set comment="kpoint 16">
       <r>    0.6164    1.0000 </r>
       <r>    2.7280    1.0000 </r>
       <r>    3.0403    1.0000 </r>
       <r>    4.2253    1.0000 </r>
       <r>    4.8746    1.0000 </r>
       <r>    5.3930    1.0348 </r>
       <r>   19.3374    0.0000 </r>
       <r>   22.4842    0.0000 </r>
       <r>   27.6208    0.0000 </r>
       <r>   30.0550    0.0000 </r>
       <r>   33.4778    0.0000 </r>
       <r>   36.7893    0.0000 </r>
      </set>
      <set comment="kpoint 17">
       <r>    0.8558    1.0000 </r>
       <r>    2.3613    1.0000 </r>
       <r>    4.2903    1.0000 </r>
       <r>    4.5840    1.0000 </r>
       <r>    5.8457   -0.0218 </r>
       <r>    6.2300   -0.0002 </r>
       <r>   13.4287    0.0000 </r>
       <r>   23.8660    0.0000 </r>
       <r>   24.9657    0.0000 </r>
       <r>   29.7763    0.0000 </r>
       <r>   32.8630    0.0000 </r>
       <r>   38.0508    0.0000 </r>
      </set>
      <set comment="kpoint 18">
       <r>    1.1427    1.0000 </r>
       <r>    2.5355    1.0000 </r>
       <r>    3.3977    1.0000 </r>
       <r>    4.4559    1.0000 </r>
       <r>    5.2375    1.0063 </r>
       <r>    6.8265   -0.0000 </r>
       <r>   15.1731    0.0000 </r>
       <r>   21.2427    0.0000 </r>
       <r>   26.0281    0.0000 </r>
       <r>   30.2274    0.0000 </r>
       <r>   34.5977    0.0000 </r>
       <r>   36.5775    0.0000 </r>
      </set>
      <set comment="kpoint 19">
       <r>    1.4957    1.0000 </r>
       <r>    2.3966    1.0000 </r>
       <r>    3.0361    1.0000 </r>
       <r>    4.3489    1.0000 </r>
       <r>    5.0213    1.0000 </r>
       <r>    7.0629   -0.0000 </r>
       <r>   17.5065    0.0000 </r>
       <r>   18.2836    0.0000 </r>
       <r>   27.1963    0.0000 </r>
       <r>   29.8515    0.0000 </r>
       <r>   33.4052    0.0000 </r>
       <r>   41.0330    0.0000 </r>
      </set>
      <set comment="kpoint 20">
       <r>    1.1524    1.0000 </r>
       <r>    2.4708    1.0000 </r>
       <r>    3.6378    1.0000 </r>
       <r>    4.4861    1.0000 </r>
       <r>    5.5257    0.9330 </r>
       <r>    8.1384   -0.0000 </r>
       <r>   12.8999    0.0000 </r>
       <r>   20.7926    0.0000 </r>
       <r>   25.4665    0.0000 </r>
       <r>   30.2591    0.0000 </r>
       <r>   35.7728    0.0000 </r>
       <r>   35.9192    0.0000 </r>
      </set>
      <set comment="kpoint 21">
       <r>    1.7130    1.0000 </r>
       <r>    2.4327    1.0000 </r>
       <r>    2.9588    1.0000 </r>
       <r>    4.5655    1.0000 </r>
       <r>    5.1637    1.0015 </r>
       <r>    9.3932   -0.0000 </r>
       <r>   13.9886    0.0000 </r>
       <r>   17.1379    0.0000 </r>
       <r>   26.5181    0.0000 </r>
       <r>   30.5078    0.0000 </r>
       <r>   33.5911    0.0000 </r>
       <r>   40.0388    0.0000 </r>
      </set>
      <set comment="kpoint 22">
       <r>    2.1563    1.0000 </r>
       <r>    2.4533    1.0000 </r>
       <r>    2.4533    1.0000 </r>
       <r>    4.8936    1.0000 </r>
       <r>    4.8938    1.0000 </r>
       <r>   12.3340    0.0000 </r>
       <r>   12.3341    0.0000 </r>
       <r>   14.8884    0.0000 </r>
       <r>   26.6287    0.0000 </r>
       <r>   31.9121    0.0000 </r>
       <r>   31.9121    0.0000 </r>
       <r>   39.5625    0.0000 </r>
      </set>
      <set comment="kpoint 23">
       <r>    1.4766    1.0000 </r>
       <r>    2.4071    1.0000 </r>
       <r>    2.4071    1.0000 </r>
       <r>    4.6527    1.0000 </r>
       <r>    4.6527    1.0000 </r>
       <r>    6.7083   -0.0000 </r>
       <r>   19.7208    0.0000 </r>
       <r>   19.7208    0.0000 </r>
       <r>   21.3318    0.0000 </r>
       <r>   35.4416    0.0000 </r>
       <r>   39.2889    0.0000 </r>
       <r>   39.2889    0.0000 </r>
      </set>
      <set comment="kpoint 24">
       <r>    1.8933    1.0000 </r>
       <r>    2.2487    1.0000 </r>
       <r>    2.8492    1.0000 </r>
       <r>    4.7054    1.0000 </r>
       <r>    4.7583    1.0000 </r>
       <r>    8.6351   -0.0000 </r>
       <r>   15.8412    0.0000 </r>
       <r>   18.6730    0.0000 </r>
       <r>   19.6564    0.0000 </r>
       <r>   36.4704    0.0000 </r>
       <r>   40.2120    0.0000 </r>
       <r>   41.5402    0.0000 </r>
      </set>
      <set comment="kpoint 25">
       <r>    1.8089    1.0000 </r>
       <r>    2.2003    1.0000 </r>
       <r>    3.2865    1.0000 </r>
       <r>    4.7398    1.0000 </r>
       <r>    4.7859    1.0000 </r>
       <r>   10.4349   -0.0000 </r>
       <r>   13.2311    0.0000 </r>
       <r>   18.3167    0.0000 </r>
       <r>   19.1893    0.0000 </r>
       <r>   36.4768    0.0000 </r>
       <r>   40.8087    0.0000 </r>
       <r>   41.6497    0.0000 </r>
      </set>
      <set comment="kpoint 26">
       <r>   -0.9854    1.0000 </r>
       <r>    3.3845    1.0000 </r>
       <r>    3.3847    1.0000 </r>
       <r>    3.7948    1.0000 </r>
       <r>    3.8152    1.0000 </r>
       <r>    4.8821    1.0000 </r>
       <r>   25.5321    0.0000 </r>
       <r>   27.1223    0.0000 </r>
       <r>   27.1223    0.0000 </r>
       <r>   28.8220    0.0000 </r>
       <r>   35.5616    0.0000 </r>
       <r>   35.5617    0.0000 </r>
      </set>
      <set comment="kpoint 27">
       <r>    2.0891    1.0000 </r>
       <r>    2.3928    1.0000 </r>
       <r>    2.7536    1.0000 </r>
       <r>    4.7667    1.0000 </r>
       <r>    4.7956    1.0000 </r>
       <r>   11.2356    0.0000 </r>
       <r>   14.5321    0.0000 </r>
       <r>   15.6752    0.0000 </r>
       <r>   18.5377    0.0000 </r>
       <r>   39.0528    0.0000 </r>
       <r>   40.8091    0.0000 </r>
       <r>   44.2907    0.0000 </r>
      </set>
      <set comment="kpoint 28">
       <r>    0.2194    1.0000 </r>
       <r>    3.0957    1.0000 </r>
       <r>    3.2374    1.0000 </r>
       <r>    3.8348    1.0000 </r>
       <r>    4.4128    1.0000 </r>
       <r>    5.1605    1.0014 </r>
       <r>   21.8897    0.0000 </r>
       <r>   24.9627    0.0000 </r>
       <r>   25.2166    0.0000 </r>
       <r>   28.7938    0.0000 </r>
       <r>   34.9551    0.0000 </r>
       <r>   36.2737    0.0000 </r>
      </set>
      <set comment="kpoint 29">
       <r>    1.1373    1.0000 </r>
       <r>    2.8466    1.0000 </r>
       <r>    2.9972    1.0000 </r>
       <r>    4.2112    1.0000 </r>
       <r>    5.2283    1.0054 </r>
       <r>    6.0449   -0.0089 </r>
       <r>   17.3723    0.0000 </r>
       <r>   23.1860    0.0000 </r>
       <r>   23.9932    0.0000 </r>
       <r>   30.3665    0.0000 </r>
       <r>   33.8939    0.0000 </r>
       <r>   36.1391    0.0000 </r>
      </set>
      <set comment="kpoint 30">
       <r>    1.1915    1.0000 </r>
       <r>    2.5823    1.0000 </r>
       <r>    3.3655    1.0000 </r>
       <r>    3.9723    1.0000 </r>
       <r>    4.9156    1.0000 </r>
       <r>    6.0302   -0.0111 </r>
       <r>   19.8953    0.0000 </r>
       <r>   20.5406    0.0000 </r>
       <r>   26.0824    0.0000 </r>
       <r>   27.5189    0.0000 </r>
       <r>   34.4858    0.0000 </r>
       <r>   39.6840    0.0000 </r>
      </set>
      <set comment="kpoint 31">
       <r>    1.2586    1.0000 </r>
       <r>    2.8432    1.0000 </r>
       <r>    3.0424    1.0000 </r>
       <r>    4.2831    1.0000 </r>
       <r>    5.7946    0.0352 </r>
       <r>    7.9550   -0.0000 </r>
       <r>   13.6971    0.0000 </r>
       <r>   22.1234    0.0000 </r>
       <r>   23.3209    0.0000 </r>
       <r>   32.4148    0.0000 </r>
       <r>   33.3155    0.0000 </r>
       <r>   35.0856    0.0000 </r>
      </set>
      <set comment="kpoint 32">
       <r>    1.6192    1.0000 </r>
       <r>    2.3561    1.0000 </r>
       <r>    3.1756    1.0000 </r>
       <r>    4.3048    1.0000 </r>
       <r>    5.3845    1.0338 </r>
       <r>    8.0255   -0.0000 </r>
       <r>   15.8473    0.0000 </r>
       <r>   18.9974    0.0000 </r>
       <r>   25.5208    0.0000 </r>
       <r>   28.9811    0.0000 </r>
       <r>   33.4732    0.0000 </r>
       <r>   38.0751    0.0000 </r>
      </set>
      <set comment="kpoint 33">
       <r>    1.5744    1.0000 </r>
       <r>    2.5200    1.0000 </r>
       <r>    2.9963    1.0000 </r>
       <r>    4.3969    1.0000 </r>
       <r>    5.6368    0.5626 </r>
       <r>    9.9762   -0.0000 </r>
       <r>   13.1571    0.0000 </r>
       <r>   18.5210    0.0000 </r>
       <r>   25.1599    0.0000 </r>
       <r>   30.7645    0.0000 </r>
       <r>   32.2141    0.0000 </r>
       <r>   36.7592    0.0000 </r>
      </set>
      <set comment="kpoint 34">
       <r>    2.0030    1.0000 </r>
       <r>    2.0464    1.0000 </r>
       <r>    2.9177    1.0000 </r>
       <r>    4.7891    1.0000 </r>
       <r>    5.2947    1.0150 </r>
       <r>   10.8468   -0.0000 </r>
       <r>   14.3492    0.0000 </r>
       <r>   15.6077    0.0000 </r>
       <r>   27.5479    0.0000 </r>
       <r>   28.4814    0.0000 </r>
       <r>   31.4214    0.0000 </r>
       <r>   36.7060    0.0000 </r>
      </set>
      <set comment="kpoint 35">
       <r>    2.4347    1.0000 </r>
       <r>    2.4347    1.0000 </r>
       <r>    2.4348    1.0000 </r>
       <r>    4.8066    1.0000 </r>
       <r>    4.8066    1.0000 </r>
       <r>   14.1425    0.0000 </r>
       <r>   14.1425    0.0000 </r>
       <r>   14.1427    0.0000 </r>
       <r>   16.2335    0.0000 </r>
       <r>   44.2750    0.0000 </r>
       <r>   44.2750    0.0000 </r>
       <r>   44.2750    0.0000 </r>
      </set>
      <set comment="kpoint 36">
       <r>    1.0580    1.0000 </r>
       <r>    2.7233    1.0000 </r>
       <r>    3.7574    1.0000 </r>
       <r>    3.7575    1.0000 </r>
       <r>    4.4721    1.0000 </r>
       <r>    5.8354   -0.0145 </r>
       <r>   22.4847    0.0000 </r>
       <r>   22.4847    0.0000 </r>
       <r>   23.0546    0.0000 </r>
       <r>   25.3163    0.0000 </r>
       <r>   39.1988    0.0000 </r>
       <r>   39.1988    0.0000 </r>
      </set>
      <set comment="kpoint 37">
       <r>    1.5516    1.0000 </r>
       <r>    2.1761    1.0000 </r>
       <r>    3.7966    1.0000 </r>
       <r>    4.1290    1.0000 </r>
       <r>    5.1260    1.0006 </r>
       <r>    7.3445   -0.0000 </r>
       <r>   18.3221    0.0000 </r>
       <r>   20.5386    0.0000 </r>
       <r>   23.0088    0.0000 </r>
       <r>   25.8553    0.0000 </r>
       <r>   36.8641    0.0000 </r>
       <r>   38.1065    0.0000 </r>
      </set>
      <set comment="kpoint 38">
       <r>    1.5403    1.0000 </r>
       <r>    2.0298    1.0000 </r>
       <r>    3.7178    1.0000 </r>
       <r>    4.2949    1.0000 </r>
       <r>    5.7107    0.2619 </r>
       <r>    9.8585   -0.0000 </r>
       <r>   14.3678    0.0000 </r>
       <r>   19.4047    0.0000 </r>
       <r>   22.6924    0.0000 </r>
       <r>   27.8495    0.0000 </r>
       <r>   33.4352    0.0000 </r>
       <r>   37.4665    0.0000 </r>
      </set>
      <set comment="kpoint 39">
       <r>    1.6395    1.0000 </r>
       <r>    1.7344    1.0000 </r>
       <r>    3.8738    1.0000 </r>
       <r>    4.6529    1.0000 </r>
       <r>    5.4365    1.0313 </r>
       <r>    9.6675   -0.0000 </r>
       <r>   16.7134    0.0000 </r>
       <r>   17.2094    0.0000 </r>
       <r>   23.8727    0.0000 </r>
       <r>   25.4835    0.0000 </r>
       <r>   32.9580    0.0000 </r>
       <r>   38.3126    0.0000 </r>
      </set>
      <set comment="kpoint 40">
       <r>    1.5325    1.0000 </r>
       <r>    1.6798    1.0000 </r>
       <r>    3.8205    1.0000 </r>
       <r>    4.9185    1.0000 </r>
       <r>    5.5918    0.7412 </r>
       <r>   12.1999    0.0000 </r>
       <r>   13.7745    0.0000 </r>
       <r>   16.4893    0.0000 </r>
       <r>   24.1160    0.0000 </r>
       <r>   26.4231    0.0000 </r>
       <r>   30.7741    0.0000 </r>
       <r>   38.1273    0.0000 </r>
      </set>
      <set comment="kpoint 41">
       <r>    1.4699    1.0000 </r>
       <r>    1.6480    1.0000 </r>
       <r>    4.5899    1.0000 </r>
       <r>    4.5901    1.0000 </r>
       <r>    5.1688    1.0017 </r>
       <r>    9.2105   -0.0000 </r>
       <r>   18.4218    0.0000 </r>
       <r>   18.4218    0.0000 </r>
       <r>   21.7394    0.0000 </r>
       <r>   23.6890    0.0000 </r>
       <r>   32.7302    0.0000 </r>
       <r>   41.5747    0.0000 </r>
      </set>
      <set comment="kpoint 42">
       <r>    1.2917    1.0000 </r>
       <r>    1.3430    1.0000 </r>
       <r>    4.7506    1.0000 </r>
       <r>    4.9408    1.0000 </r>
       <r>    5.6282    0.5987 </r>
       <r>   11.8722    0.0000 </r>
       <r>   15.4298    0.0000 </r>
       <r>   17.1640    0.0000 </r>
       <r>   21.9912    0.0000 </r>
       <r>   24.1078    0.0000 </r>
       <r>   29.3936    0.0000 </r>
       <r>   41.6126    0.0000 </r>
      </set>
      <set comment="kpoint 43">
       <r>    1.1690    1.0000 </r>
       <r>    1.1690    1.0000 </r>
       <r>    4.8505    1.0000 </r>
       <r>    5.5265    0.9313 </r>
       <r>    5.5268    0.9307 </r>
       <r>   14.4788    0.0000 </r>
       <r>   14.4789    0.0000 </r>
       <r>   15.2849    0.0000 </r>
       <r>   22.9189    0.0000 </r>
       <r>   22.9189    0.0000 </r>
       <r>   27.7422    0.0000 </r>
       <r>   42.1735    0.0000 </r>
      </set>
      <set comment="kpoint 44">
       <r>    0.9990    1.0000 </r>
       <r>    1.0004    1.0000 </r>
       <r>    5.5008    0.9774 </r>
       <r>    5.5011    0.9771 </r>
       <r>    5.6061    0.6875 </r>
       <r>   14.0831    0.0000 </r>
       <r>   15.8031    0.0000 </r>
       <r>   15.8032    0.0000 </r>
       <r>   21.2023    0.0000 </r>
       <r>   22.0819    0.0000 </r>
       <r>   26.6702    0.0000 </r>
       <r>   44.1520    0.0000 </r>
      </set>
     </set>
     <set comment="spin 2">
      <set comment="kpoint 1">
       <r>   -1.9030    1.0000 </r>
       <r>    5.2711    1.0108 </r>
       <r>    5.2711    1.0108 </r>
       <r>    5.8393   -0.0175 </r>
       <r>    7.2928   -0.0000 </r>
       <r>    7.2928   -0.0000 </r>
       <r>   28.0258    0.0000 </r>
       <r>   28.0258    0.0000 </r>
       <r>   30.7727    0.0000 </r>
       <r>   33.0408    0.0000 </r>
       <r>   36.1497    0.0000 </r>
       <r>   36.1497    0.0000 </r>
      </set>
      <set comment="kpoint 2">
       <r>   -0.7675    1.0000 </r>
       <r>    4.9165    1.0000 </r>
       <r>    5.0573    1.0001 </r>
       <r>    6.5433   -0.0000 </r>
       <r>    7.1200   -0.0000 </r>
       <r>    7.3899   -0.0000 </r>
       <r>   24.1737    0.0000 </r>
       <r>   26.2663    0.0000 </r>
       <r>   29.6024    0.0000 </r>
       <r>   31.1941    0.0000 </r>
       <r>   36.1817    0.0000 </r>
       <r>   36.1841    0.0000 </r>
      </set>
      <set comment="kpoint 3">
       <r>    0.8114    1.0000 </r>
       <r>    4.5227    1.0000 </r>
       <r>    4.8434    1.0000 </r>
       <r>    7.1281   -0.0000 </r>
       <r>    7.4889   -0.0000 </r>
       <r>    7.4955   -0.0000 </r>
       <r>   19.8760    0.0000 </r>
       <r>   24.5654    0.0000 </r>
       <r>   27.1324    0.0000 </r>
       <r>   31.0118    0.0000 </r>
       <r>   35.1960    0.0000 </r>
       <r>   38.1076    0.0000 </r>
      </set>
      <set comment="kpoint 4">
       <r>    2.0254    1.0000 </r>
       <r>    4.2311    1.0000 </r>
       <r>    5.2445    1.0071 </r>
       <r>    7.2382   -0.0000 </r>
       <r>    7.5899   -0.0000 </r>
       <r>    8.4398   -0.0000 </r>
       <r>   16.0966    0.0000 </r>
       <r>   23.3549    0.0000 </r>
       <r>   25.4508    0.0000 </r>
       <r>   30.7810    0.0000 </r>
       <r>   34.8755    0.0000 </r>
       <r>   40.2527    0.0000 </r>
      </set>
      <set comment="kpoint 5">
       <r>    2.3159    1.0000 </r>
       <r>    4.1238    1.0000 </r>
       <r>    5.8647   -0.0306 </r>
       <r>    7.2834   -0.0000 </r>
       <r>    7.6292   -0.0000 </r>
       <r>    8.9660   -0.0000 </r>
       <r>   14.2991    0.0000 </r>
       <r>   22.9178    0.0000 </r>
       <r>   24.8231    0.0000 </r>
       <r>   30.6847    0.0000 </r>
       <r>   34.8590    0.0000 </r>
       <r>   40.0770    0.0000 </r>
      </set>
      <set comment="kpoint 6">
       <r>   -2.3047    1.0000 </r>
       <r>    5.4208    1.0346 </r>
       <r>    5.4210    1.0346 </r>
       <r>    5.4885    0.9940 </r>
       <r>    7.2501   -0.0000 </r>
       <r>    7.4162   -0.0000 </r>
       <r>   29.1300    0.0000 </r>
       <r>   30.1105    0.0000 </r>
       <r>   30.1105    0.0000 </r>
       <r>   34.1722    0.0000 </r>
       <r>   36.5033    0.0000 </r>
       <r>   36.5035    0.0000 </r>
      </set>
      <set comment="kpoint 7">
       <r>    0.5813    1.0000 </r>
       <r>    4.6165    1.0000 </r>
       <r>    4.6249    1.0000 </r>
       <r>    7.1242   -0.0000 </r>
       <r>    7.4518   -0.0000 </r>
       <r>    7.5404   -0.0000 </r>
       <r>   21.9983    0.0000 </r>
       <r>   22.8440    0.0000 </r>
       <r>   26.3271    0.0000 </r>
       <r>   32.5004    0.0000 </r>
       <r>   36.8221    0.0000 </r>
       <r>   38.4074    0.0000 </r>
      </set>
      <set comment="kpoint 8">
       <r>    2.0689    1.0000 </r>
       <r>    4.2585    1.0000 </r>
       <r>    4.5095    1.0000 </r>
       <r>    7.2014   -0.0000 </r>
       <r>    7.5923   -0.0000 </r>
       <r>    8.7128   -0.0000 </r>
       <r>   18.1850    0.0000 </r>
       <r>   21.0524    0.0000 </r>
       <r>   24.4855    0.0000 </r>
       <r>   32.8778    0.0000 </r>
       <r>   37.5620    0.0000 </r>
       <r>   39.0505    0.0000 </r>
      </set>
      <set comment="kpoint 9">
       <r>    2.7417    1.0000 </r>
       <r>    4.0906    1.0000 </r>
       <r>    4.9570    1.0000 </r>
       <r>    7.3134   -0.0000 </r>
       <r>    7.6502   -0.0000 </r>
       <r>   10.0102   -0.0000 </r>
       <r>   14.9320    0.0000 </r>
       <r>   20.2169    0.0000 </r>
       <r>   23.5507    0.0000 </r>
       <r>   32.8360    0.0000 </r>
       <r>   38.3368    0.0000 </r>
       <r>   39.0804    0.0000 </r>
      </set>
      <set comment="kpoint 10">
       <r>   -1.5121    1.0000 </r>
       <r>    5.1994    1.0031 </r>
       <r>    5.3502    1.0273 </r>
       <r>    5.9299   -0.0321 </r>
       <r>    6.9811   -0.0000 </r>
       <r>    7.4851   -0.0000 </r>
       <r>   26.2577    0.0000 </r>
       <r>   28.7097    0.0000 </r>
       <r>   29.5597    0.0000 </r>
       <r>   33.3773    0.0000 </r>
       <r>   33.9351    0.0000 </r>
       <r>   34.7723    0.0000 </r>
      </set>
      <set comment="kpoint 11">
       <r>    3.1405    1.0000 </r>
       <r>    4.0372    1.0000 </r>
       <r>    4.3947    1.0000 </r>
       <r>    7.3105   -0.0000 </r>
       <r>    7.6276   -0.0000 </r>
       <r>   10.4500   -0.0000 </r>
       <r>   16.6296    0.0000 </r>
       <r>   17.5065    0.0000 </r>
       <r>   23.3767    0.0000 </r>
       <r>   34.2142    0.0000 </r>
       <r>   37.1962    0.0000 </r>
       <r>   43.1761    0.0000 </r>
      </set>
      <set comment="kpoint 12">
       <r>    3.4120    1.0000 </r>
       <r>    4.0491    1.0000 </r>
       <r>    4.4437    1.0000 </r>
       <r>    7.4183   -0.0000 </r>
       <r>    7.5949   -0.0000 </r>
       <r>   12.1631    0.0000 </r>
       <r>   14.3448    0.0000 </r>
       <r>   16.8194    0.0000 </r>
       <r>   23.0399    0.0000 </r>
       <r>   34.7830    0.0000 </r>
       <r>   37.0558    0.0000 </r>
       <r>   43.0433    0.0000 </r>
      </set>
      <set comment="kpoint 13">
       <r>   -0.0904    1.0000 </r>
       <r>    4.8252    1.0000 </r>
       <r>    5.1080    1.0004 </r>
       <r>    6.7336   -0.0000 </r>
       <r>    6.8856   -0.0000 </r>
       <r>    7.5595   -0.0000 </r>
       <r>   22.0057    0.0000 </r>
       <r>   26.6170    0.0000 </r>
       <r>   28.4304    0.0000 </r>
       <r>   31.7035    0.0000 </r>
       <r>   33.4045    0.0000 </r>
       <r>   35.2440    0.0000 </r>
      </set>
      <set comment="kpoint 14">
       <r>   -0.4109    1.0000 </r>
       <r>    5.0744    1.0002 </r>
       <r>    5.1097    1.0004 </r>
       <r>    6.5135   -0.0000 </r>
       <r>    6.6870   -0.0000 </r>
       <r>    7.6307   -0.0000 </r>
       <r>   24.0392    0.0000 </r>
       <r>   25.2877    0.0000 </r>
       <r>   29.6535    0.0000 </r>
       <r>   30.8932    0.0000 </r>
       <r>   33.3681    0.0000 </r>
       <r>   36.6343    0.0000 </r>
      </set>
      <set comment="kpoint 15">
       <r>    1.4421    1.0000 </r>
       <r>    4.4699    1.0000 </r>
       <r>    5.0825    1.0002 </r>
       <r>    7.0439   -0.0000 </r>
       <r>    7.6445   -0.0000 </r>
       <r>    7.6674   -0.0000 </r>
       <r>   17.8315    0.0000 </r>
       <r>   24.9117    0.0000 </r>
       <r>   26.7892    0.0000 </r>
       <r>   30.6791    0.0000 </r>
       <r>   33.3446    0.0000 </r>
       <r>   37.0558    0.0000 </r>
      </set>
      <set comment="kpoint 16">
       <r>    1.1136    1.0000 </r>
       <r>    4.6788    1.0000 </r>
       <r>    4.8732    1.0000 </r>
       <r>    6.7256   -0.0000 </r>
       <r>    7.3826   -0.0000 </r>
       <r>    7.8381   -0.0000 </r>
       <r>   20.1355    0.0000 </r>
       <r>   23.0589    0.0000 </r>
       <r>   28.0574    0.0000 </r>
       <r>   30.4542    0.0000 </r>
       <r>   33.8959    0.0000 </r>
       <r>   37.2323    0.0000 </r>
      </set>
      <set comment="kpoint 17">
       <r>    2.1763    1.0000 </r>
       <r>    4.2580    1.0000 </r>
       <r>    5.7526    0.1272 </r>
       <r>    7.1689   -0.0000 </r>
       <r>    7.9394   -0.0000 </r>
       <r>    8.2764   -0.0000 </r>
       <r>   14.7887    0.0000 </r>
       <r>   23.9701    0.0000 </r>
       <r>   25.6072    0.0000 </r>
       <r>   30.3362    0.0000 </r>
       <r>   33.5147    0.0000 </r>
       <r>   38.1748    0.0000 </r>
      </set>
      <set comment="kpoint 18">
       <r>    2.3045    1.0000 </r>
       <r>    4.4261    1.0000 </r>
       <r>    4.9234    1.0000 </r>
       <r>    6.9660   -0.0000 </r>
       <r>    7.7679   -0.0000 </r>
       <r>    8.7490   -0.0000 </r>
       <r>   16.2730    0.0000 </r>
       <r>   21.8205    0.0000 </r>
       <r>   26.4188    0.0000 </r>
       <r>   30.7121    0.0000 </r>
       <r>   34.9267    0.0000 </r>
       <r>   37.0370    0.0000 </r>
      </set>
      <set comment="kpoint 19">
       <r>    2.4499    1.0000 </r>
       <r>    4.2576    1.0000 </r>
       <r>    4.7753    1.0000 </r>
       <r>    6.8296   -0.0000 </r>
       <r>    7.6369   -0.0000 </r>
       <r>    9.0121   -0.0000 </r>
       <r>   18.4038    0.0000 </r>
       <r>   19.0506    0.0000 </r>
       <r>   27.7006    0.0000 </r>
       <r>   30.0942    0.0000 </r>
       <r>   33.8046    0.0000 </r>
       <r>   41.4175    0.0000 </r>
      </set>
      <set comment="kpoint 20">
       <r>    2.5935    1.0000 </r>
       <r>    4.3545    1.0000 </r>
       <r>    5.1868    1.0024 </r>
       <r>    7.0393   -0.0000 </r>
       <r>    7.9615   -0.0000 </r>
       <r>    9.5545   -0.0000 </r>
       <r>   14.3106    0.0000 </r>
       <r>   21.3621    0.0000 </r>
       <r>   25.8285    0.0000 </r>
       <r>   30.7886    0.0000 </r>
       <r>   35.8924    0.0000 </r>
       <r>   36.4875    0.0000 </r>
      </set>
      <set comment="kpoint 21">
       <r>    3.1960    1.0000 </r>
       <r>    4.2086    1.0000 </r>
       <r>    4.6009    1.0000 </r>
       <r>    7.0690   -0.0000 </r>
       <r>    7.6855   -0.0000 </r>
       <r>   10.8379   -0.0000 </r>
       <r>   15.1365    0.0000 </r>
       <r>   17.9387    0.0000 </r>
       <r>   27.0021    0.0000 </r>
       <r>   30.8168    0.0000 </r>
       <r>   33.8007    0.0000 </r>
       <r>   40.7793    0.0000 </r>
      </set>
      <set comment="kpoint 22">
       <r>    3.8653    1.0000 </r>
       <r>    4.1101    1.0000 </r>
       <r>    4.1101    1.0000 </r>
       <r>    7.4005   -0.0000 </r>
       <r>    7.4007   -0.0000 </r>
       <r>   13.4942    0.0000 </r>
       <r>   13.4943    0.0000 </r>
       <r>   15.8755    0.0000 </r>
       <r>   27.1917    0.0000 </r>
       <r>   32.1057    0.0000 </r>
       <r>   32.1058    0.0000 </r>
       <r>   40.5243    0.0000 </r>
      </set>
      <set comment="kpoint 23">
       <r>    1.9979    1.0000 </r>
       <r>    4.2310    1.0000 </r>
       <r>    4.2310    1.0000 </r>
       <r>    7.4321   -0.0000 </r>
       <r>    7.4321   -0.0000 </r>
       <r>    8.7509   -0.0000 </r>
       <r>   20.3913    0.0000 </r>
       <r>   20.3913    0.0000 </r>
       <r>   22.1200    0.0000 </r>
       <r>   35.2046    0.0000 </r>
       <r>   39.5866    0.0000 </r>
       <r>   39.5866    0.0000 </r>
      </set>
      <set comment="kpoint 24">
       <r>    3.1241    1.0000 </r>
       <r>    4.0019    1.0000 </r>
       <r>    4.2291    1.0000 </r>
       <r>    7.4730   -0.0000 </r>
       <r>    7.6035   -0.0000 </r>
       <r>   10.3013   -0.0000 </r>
       <r>   16.7754    0.0000 </r>
       <r>   19.3616    0.0000 </r>
       <r>   20.3830    0.0000 </r>
       <r>   36.3997    0.0000 </r>
       <r>   40.5270    0.0000 </r>
       <r>   41.6385    0.0000 </r>
      </set>
      <set comment="kpoint 25">
       <r>    3.2770    1.0000 </r>
       <r>    3.9280    1.0000 </r>
       <r>    4.6076    1.0000 </r>
       <r>    7.5048   -0.0000 </r>
       <r>    7.6554   -0.0000 </r>
       <r>   11.6654    0.0000 </r>
       <r>   14.4698    0.0000 </r>
       <r>   19.0078    0.0000 </r>
       <r>   19.8982    0.0000 </r>
       <r>   36.4891    0.0000 </r>
       <r>   41.2932    0.0000 </r>
       <r>   41.7291    0.0000 </r>
      </set>
      <set comment="kpoint 26">
       <r>   -0.7594    1.0000 </r>
       <r>    5.4360    1.0315 </r>
       <r>    5.4362    1.0314 </r>
       <r>    5.9560   -0.0267 </r>
       <r>    6.3800   -0.0000 </r>
       <r>    7.7061   -0.0000 </r>
       <r>   25.7627    0.0000 </r>
       <r>   27.6569    0.0000 </r>
       <r>   27.6570    0.0000 </r>
       <r>   29.2630    0.0000 </r>
       <r>   35.9444    0.0000 </r>
       <r>   35.9444    0.0000 </r>
      </set>
      <set comment="kpoint 27">
       <r>    3.6712    1.0000 </r>
       <r>    3.9707    1.0000 </r>
       <r>    4.1545    1.0000 </r>
       <r>    7.5853   -0.0000 </r>
       <r>    7.6461   -0.0000 </r>
       <r>   12.4900    0.0000 </r>
       <r>   15.5080    0.0000 </r>
       <r>   16.5619    0.0000 </r>
       <r>   19.2519    0.0000 </r>
       <r>   38.9935    0.0000 </r>
       <r>   40.8601    0.0000 </r>
       <r>   44.4039    0.0000 </r>
      </set>
      <set comment="kpoint 28">
       <r>    0.5728    1.0000 </r>
       <r>    5.1967    1.0030 </r>
       <r>    5.2532    1.0082 </r>
       <r>    6.1590   -0.0010 </r>
       <r>    6.6374   -0.0000 </r>
       <r>    7.8866   -0.0000 </r>
       <r>   22.5566    0.0000 </r>
       <r>   25.5880    0.0000 </r>
       <r>   25.6301    0.0000 </r>
       <r>   29.2533    0.0000 </r>
       <r>   35.4232    0.0000 </r>
       <r>   36.6545    0.0000 </r>
      </set>
      <set comment="kpoint 29">
       <r>    1.9967    1.0000 </r>
       <r>    4.7111    1.0000 </r>
       <r>    4.9654    1.0000 </r>
       <r>    6.5356   -0.0000 </r>
       <r>    7.5597   -0.0000 </r>
       <r>    8.2879   -0.0000 </r>
       <r>   18.3021    0.0000 </r>
       <r>   23.8665    0.0000 </r>
       <r>   24.3647    0.0000 </r>
       <r>   30.7660    0.0000 </r>
       <r>   34.4025    0.0000 </r>
       <r>   36.5964    0.0000 </r>
      </set>
      <set comment="kpoint 30">
       <r>    1.8796    1.0000 </r>
       <r>    4.6564    1.0000 </r>
       <r>    5.3297    1.0226 </r>
       <r>    6.2135   -0.0003 </r>
       <r>    7.2624   -0.0000 </r>
       <r>    8.3231   -0.0000 </r>
       <r>   20.6911    0.0000 </r>
       <r>   21.2437    0.0000 </r>
       <r>   26.5241    0.0000 </r>
       <r>   27.9844    0.0000 </r>
       <r>   34.9748    0.0000 </r>
       <r>   40.0570    0.0000 </r>
      </set>
      <set comment="kpoint 31">
       <r>    2.6993    1.0000 </r>
       <r>    4.7114    1.0000 </r>
       <r>    4.7832    1.0000 </r>
       <r>    6.6968   -0.0000 </r>
       <r>    8.2174   -0.0000 </r>
       <r>    9.4047   -0.0000 </r>
       <r>   14.9555    0.0000 </r>
       <r>   22.7672    0.0000 </r>
       <r>   23.6948    0.0000 </r>
       <r>   32.6907    0.0000 </r>
       <r>   33.8481    0.0000 </r>
       <r>   35.6234    0.0000 </r>
      </set>
      <set comment="kpoint 32">
       <r>    2.9286    1.0000 </r>
       <r>    4.2017    1.0000 </r>
       <r>    5.1218    1.0006 </r>
       <r>    6.6010   -0.0000 </r>
       <r>    7.7809   -0.0000 </r>
       <r>    9.6744   -0.0000 </r>
       <r>   16.8379    0.0000 </r>
       <r>   19.7339    0.0000 </r>
       <r>   25.9587    0.0000 </r>
       <r>   29.3746    0.0000 </r>
       <r>   33.9639    0.0000 </r>
       <r>   38.8070    0.0000 </r>
      </set>
      <set comment="kpoint 33">
       <r>    3.2121    1.0000 </r>
       <r>    4.2228    1.0000 </r>
       <r>    4.9298    1.0000 </r>
       <r>    6.7204   -0.0000 </r>
       <r>    8.0437   -0.0000 </r>
       <r>   11.1741    0.0000 </r>
       <r>   14.4200    0.0000 </r>
       <r>   19.2414    0.0000 </r>
       <r>   25.5940    0.0000 </r>
       <r>   31.0010    0.0000 </r>
       <r>   32.8011    0.0000 </r>
       <r>   37.5728    0.0000 </r>
      </set>
      <set comment="kpoint 34">
       <r>    3.6724    1.0000 </r>
       <r>    3.8371    1.0000 </r>
       <r>    4.7884    1.0000 </r>
       <r>    7.1088   -0.0000 </r>
       <r>    7.6745   -0.0000 </r>
       <r>   12.0960    0.0000 </r>
       <r>   15.3873    0.0000 </r>
       <r>   16.4824    0.0000 </r>
       <r>   27.9113    0.0000 </r>
       <r>   28.8649    0.0000 </r>
       <r>   31.9679    0.0000 </r>
       <r>   37.5697    0.0000 </r>
      </set>
      <set comment="kpoint 35">
       <r>    3.9657    1.0000 </r>
       <r>    3.9657    1.0000 </r>
       <r>    3.9659    1.0000 </r>
       <r>    7.6788   -0.0000 </r>
       <r>    7.6788   -0.0000 </r>
       <r>   15.1241    0.0000 </r>
       <r>   15.1241    0.0000 </r>
       <r>   15.1243    0.0000 </r>
       <r>   17.0377    0.0000 </r>
       <r>   44.0569    0.0000 </r>
       <r>   44.0569    0.0000 </r>
       <r>   44.0569    0.0000 </r>
      </set>
      <set comment="kpoint 36">
       <r>    1.6633    1.0000 </r>
       <r>    4.9922    1.0000 </r>
       <r>    5.7935    0.0370 </r>
       <r>    5.7937    0.0367 </r>
       <r>    6.7193   -0.0000 </r>
       <r>    8.2493   -0.0000 </r>
       <r>   23.1839    0.0000 </r>
       <r>   23.1839    0.0000 </r>
       <r>   23.6316    0.0000 </r>
       <r>   25.7911    0.0000 </r>
       <r>   39.5596    0.0000 </r>
       <r>   39.5596    0.0000 </r>
      </set>
      <set comment="kpoint 37">
       <r>    2.6930    1.0000 </r>
       <r>    4.2426    1.0000 </r>
       <r>    5.8395   -0.0176 </r>
       <r>    6.2579   -0.0001 </r>
       <r>    7.4451   -0.0000 </r>
       <r>    9.1202   -0.0000 </r>
       <r>   19.1400    0.0000 </r>
       <r>   21.2083    0.0000 </r>
       <r>   23.6280    0.0000 </r>
       <r>   26.3628    0.0000 </r>
       <r>   37.5893    0.0000 </r>
       <r>   38.5918    0.0000 </r>
      </set>
      <set comment="kpoint 38">
       <r>    3.2226    1.0000 </r>
       <r>    3.8293    1.0000 </r>
       <r>    5.7503    0.1337 </r>
       <r>    6.4653   -0.0000 </r>
       <r>    8.1215   -0.0000 </r>
       <r>   11.0626   -0.0000 </r>
       <r>   15.4068    0.0000 </r>
       <r>   20.0164    0.0000 </r>
       <r>   23.3386    0.0000 </r>
       <r>   28.2419    0.0000 </r>
       <r>   34.2964    0.0000 </r>
       <r>   37.9516    0.0000 </r>
      </set>
      <set comment="kpoint 39">
       <r>    3.2067    1.0000 </r>
       <r>    3.7000    1.0000 </r>
       <r>    5.9029   -0.0353 </r>
       <r>    6.8354   -0.0000 </r>
       <r>    7.7984   -0.0000 </r>
       <r>   10.9261   -0.0000 </r>
       <r>   17.5534    0.0000 </r>
       <r>   17.9244    0.0000 </r>
       <r>   24.4753    0.0000 </r>
       <r>   26.0161    0.0000 </r>
       <r>   33.7866    0.0000 </r>
       <r>   38.8167    0.0000 </r>
      </set>
      <set comment="kpoint 40">
       <r>    3.3820    1.0000 </r>
       <r>    3.4802    1.0000 </r>
       <r>    5.8098    0.0124 </r>
       <r>    7.1546   -0.0000 </r>
       <r>    7.9706   -0.0000 </r>
       <r>   13.1593    0.0000 </r>
       <r>   14.7599    0.0000 </r>
       <r>   17.2089    0.0000 </r>
       <r>   24.7034    0.0000 </r>
       <r>   26.8567    0.0000 </r>
       <r>   31.7400    0.0000 </r>
       <r>   38.6331    0.0000 </r>
      </set>
      <set comment="kpoint 41">
       <r>    3.0111    1.0000 </r>
       <r>    3.6653    1.0000 </r>
       <r>    6.7193   -0.0000 </r>
       <r>    6.7196   -0.0000 </r>
       <r>    7.5088   -0.0000 </r>
       <r>   10.4494   -0.0000 </r>
       <r>   19.0273    0.0000 </r>
       <r>   19.0274    0.0000 </r>
       <r>   22.5942    0.0000 </r>
       <r>   24.3427    0.0000 </r>
       <r>   33.5677    0.0000 </r>
       <r>   42.0070    0.0000 </r>
      </set>
      <set comment="kpoint 42">
       <r>    3.0894    1.0000 </r>
       <r>    3.2371    1.0000 </r>
       <r>    6.9373   -0.0000 </r>
       <r>    7.1306   -0.0000 </r>
       <r>    8.0281   -0.0000 </r>
       <r>   12.7443    0.0000 </r>
       <r>   16.1294    0.0000 </r>
       <r>   17.6774    0.0000 </r>
       <r>   22.8318    0.0000 </r>
       <r>   24.7390    0.0000 </r>
       <r>   30.3802    0.0000 </r>
       <r>   42.0249    0.0000 </r>
      </set>
      <set comment="kpoint 43">
       <r>    3.0314    1.0000 </r>
       <r>    3.0314    1.0000 </r>
       <r>    7.0350   -0.0000 </r>
       <r>    7.8853   -0.0000 </r>
       <r>    7.8857   -0.0000 </r>
       <r>   15.1236    0.0000 </r>
       <r>   15.1238    0.0000 </r>
       <r>   15.8584    0.0000 </r>
       <r>   23.6519    0.0000 </r>
       <r>   23.6520    0.0000 </r>
       <r>   28.8305    0.0000 </r>
       <r>   42.5730    0.0000 </r>
      </set>
      <set comment="kpoint 44">
       <r>    2.8473    1.0000 </r>
       <r>    2.8828    1.0000 </r>
       <r>    7.8520   -0.0000 </r>
       <r>    7.8523   -0.0000 </r>
       <r>    8.0074   -0.0000 </r>
       <r>   14.6062    0.0000 </r>
       <r>   16.1760    0.0000 </r>
       <r>   16.1762    0.0000 </r>
       <r>   22.2026    0.0000 </r>
       <r>   22.9410    0.0000 </r>
       <r>   27.7868    0.0000 </r>
       <r>   44.4562    0.0000 </r>
      </set>
     </set>
    </set>
   </array>
  </eigenvalues>
  <separator name="orbital magnetization" >
   <v name="MAGDIPOLOUT">      0.00000000      0.00000000      0.00000000</v>
  </separator>
  <dos>
   <i name="efermi">      5.65167336 </i>
   <total>
    <array>
     <dimension dim="1">gridpoints</dimension>
     <dimension dim="2">spin</dimension>
     <field>energy</field>
     <field>total</field>
     <field>integrated</field>
     <set>
      <set comment="spin 1">
       <r>    -4.8453     0.0000     0.0000 </r>
       <r>    -4.6731     0.0000     0.0000 </r>
       <r>    -4.5009     0.0000     0.0000 </r>
       <r>    -4.3288     0.0000     0.0000 </r>
       <r>    -4.1566    -0.0000    -0.0000 </r>
       <r>    -3.9844    -0.0000    -0.0000 </r>
       <r>    -3.8123    -0.0000    -0.0000 </r>
       <r>    -3.6401    -0.0000    -0.0000 </r>
       <r>    -3.4679    -0.0000    -0.0000 </r>
       <r>    -3.2958    -0.0000    -0.0000 </r>
       <r>    -3.1236    -0.0000    -0.0000 </r>
       <r>    -2.9514    -0.0001    -0.0000 </r>
       <r>    -2.7793    -0.0010    -0.0002 </r>
       <r>    -2.6071     0.0047     0.0006 </r>
       <r>    -2.4350     0.0217     0.0043 </r>
       <r>    -2.2628     0.0110     0.0062 </r>
       <r>    -2.0906     0.0222     0.0101 </r>
       <r>    -1.9185     0.0197     0.0135 </r>
       <r>    -1.7463     0.0557     0.0231 </r>
       <r>    -1.5741     0.0816     0.0371 </r>
       <r>    -1.4020     0.0074     0.0384 </r>
       <r>    -1.2298    -0.0081     0.0370 </r>
       <r>    -1.0576     0.0473     0.0451 </r>
       <r>    -0.8855     0.1091     0.0639 </r>
       <r>    -0.7133     0.0657     0.0752 </r>
       <r>    -0.5412     0.0887     0.0905 </r>
       <r>    -0.3690     0.0923     0.1064 </r>
       <r>    -0.1968     0.0575     0.1163 </r>
       <r>    -0.0247    -0.0105     0.1145 </r>
       <r>     0.1475     0.0509     0.1232 </r>
       <r>     0.3197     0.2258     0.1621 </r>
       <r>     0.4918     0.1698     0.1913 </r>
       <r>     0.6640     0.2361     0.2320 </r>
       <r>     0.8362     0.2474     0.2745 </r>
       <r>     1.0083     0.2798     0.3227 </r>
       <r>     1.1805     0.6490     0.4345 </r>
       <r>     1.3526     0.8817     0.5863 </r>
       <r>     1.5248     0.7548     0.7162 </r>
       <r>     1.6970     0.9620     0.8818 </r>
       <r>     1.8691     0.7116     1.0043 </r>
       <r>     2.0413     0.4337     1.0790 </r>
       <r>     2.2135     0.5850     1.1797 </r>
       <r>     2.3856     1.3585     1.4136 </r>
       <r>     2.5578     1.5191     1.6752 </r>
       <r>     2.7300     0.8648     1.8241 </r>
       <r>     2.9021     1.1413     2.0205 </r>
       <r>     3.0743     1.7550     2.3227 </r>
       <r>     3.2465     1.3491     2.5550 </r>
       <r>     3.4186     0.6693     2.6702 </r>
       <r>     3.5908     0.3399     2.7287 </r>
       <r>     3.7629     0.7204     2.8527 </r>
       <r>     3.9351     0.6710     2.9683 </r>
       <r>     4.1073     0.3455     3.0277 </r>
       <r>     4.2794     1.0414     3.2070 </r>
       <r>     4.4516     1.7202     3.5032 </r>
       <r>     4.6238     2.0747     3.8604 </r>
       <r>     4.7959     2.4301     4.2788 </r>
       <r>     4.9681     1.8222     4.5925 </r>
       <r>     5.1403     0.8045     4.7310 </r>
       <r>     5.3124     0.9838     4.9004 </r>
       <r>     5.4846     0.9507     5.0640 </r>
       <r>     5.6567     0.6247     5.1716 </r>
       <r>     5.8289     0.4039     5.2411 </r>
       <r>     6.0011     0.2467     5.2836 </r>
       <r>     6.1732     0.2018     5.3183 </r>
       <r>     6.3454     0.1479     5.3438 </r>
       <r>     6.5176     0.0919     5.3596 </r>
       <r>     6.6897     0.1850     5.3915 </r>
       <r>     6.8619     0.3303     5.4483 </r>
       <r>     7.0341     0.1641     5.4766 </r>
       <r>     7.2062     0.0857     5.4914 </r>
       <r>     7.3784     0.1303     5.5138 </r>
       <r>     7.5506     0.0754     5.5268 </r>
       <r>     7.7227    -0.0155     5.5241 </r>
       <r>     7.8949     0.0580     5.5341 </r>
       <r>     8.0670     0.2942     5.5848 </r>
       <r>     8.2392     0.2005     5.6193 </r>
       <r>     8.4114     0.0880     5.6344 </r>
       <r>     8.5835     0.2138     5.6712 </r>
       <r>     8.7557     0.1575     5.6983 </r>
       <r>     8.9279     0.0971     5.7150 </r>
       <r>     9.1000     0.0176     5.7181 </r>
       <r>     9.2722     0.0466     5.7261 </r>
       <r>     9.4444     0.1810     5.7573 </r>
       <r>     9.6165     0.1289     5.7795 </r>
       <r>     9.7887     0.1165     5.7995 </r>
       <r>     9.9608     0.1665     5.8282 </r>
       <r>    10.1330     0.0930     5.8442 </r>
       <r>    10.3052     0.0065     5.8453 </r>
       <r>    10.4773     0.0376     5.8518 </r>
       <r>    10.6495     0.0194     5.8551 </r>
       <r>    10.8217     0.0700     5.8672 </r>
       <r>    10.9938     0.1631     5.8953 </r>
       <r>    11.1660     0.0899     5.9107 </r>
       <r>    11.3382     0.0845     5.9253 </r>
       <r>    11.5103     0.0184     5.9285 </r>
       <r>    11.6825    -0.0049     5.9276 </r>
       <r>    11.8547     0.0591     5.9378 </r>
       <r>    12.0268     0.0771     5.9511 </r>
       <r>    12.1990     0.0822     5.9652 </r>
       <r>    12.3711     0.1238     5.9865 </r>
       <r>    12.5433     0.0329     5.9922 </r>
       <r>    12.7155     0.0009     5.9924 </r>
       <r>    12.8876     0.0970     6.0091 </r>
       <r>    13.0598     0.1502     6.0349 </r>
       <r>    13.2320     0.2188     6.0726 </r>
       <r>    13.4041     0.1412     6.0969 </r>
       <r>    13.5763     0.1132     6.1164 </r>
       <r>    13.7485     0.3167     6.1709 </r>
       <r>    13.9206     0.2873     6.2204 </r>
       <r>    14.0928     0.1990     6.2546 </r>
       <r>    14.2649     0.1188     6.2751 </r>
       <r>    14.4371     0.2360     6.3157 </r>
       <r>    14.6093     0.2069     6.3513 </r>
       <r>    14.7814     0.0374     6.3578 </r>
       <r>    14.9536     0.0826     6.3720 </r>
       <r>    15.1258     0.1761     6.4023 </r>
       <r>    15.2979     0.2057     6.4377 </r>
       <r>    15.4701     0.1299     6.4601 </r>
       <r>    15.6423     0.2275     6.4993 </r>
       <r>    15.8144     0.4290     6.5731 </r>
       <r>    15.9866     0.3771     6.6380 </r>
       <r>    16.1588     0.0728     6.6506 </r>
       <r>    16.3309    -0.0051     6.6497 </r>
       <r>    16.5031     0.0732     6.6623 </r>
       <r>    16.6752     0.1871     6.6945 </r>
       <r>    16.8474     0.2091     6.7305 </r>
       <r>    17.0196     0.1101     6.7495 </r>
       <r>    17.1917     0.3552     6.8106 </r>
       <r>    17.3639     0.4757     6.8925 </r>
       <r>    17.5361     0.2278     6.9317 </r>
       <r>    17.7082     0.0448     6.9395 </r>
       <r>    17.8804    -0.0085     6.9380 </r>
       <r>    18.0526    -0.0132     6.9357 </r>
       <r>    18.2247     0.0701     6.9478 </r>
       <r>    18.3969     0.2747     6.9951 </r>
       <r>    18.5690     0.2966     7.0461 </r>
       <r>    18.7412     0.1747     7.0762 </r>
       <r>    18.9134     0.0900     7.0917 </r>
       <r>    19.0855     0.2547     7.1356 </r>
       <r>    19.2577     0.2239     7.1741 </r>
       <r>    19.4299     0.2733     7.2211 </r>
       <r>    19.6020     0.3031     7.2733 </r>
       <r>    19.7742     0.2849     7.3224 </r>
       <r>    19.9464     0.1310     7.3449 </r>
       <r>    20.1185     0.0264     7.3495 </r>
       <r>    20.2907     0.0092     7.3511 </r>
       <r>    20.4629     0.2319     7.3910 </r>
       <r>    20.6350     0.2899     7.4409 </r>
       <r>    20.8072     0.1185     7.4613 </r>
       <r>    20.9793     0.0391     7.4680 </r>
       <r>    21.1515     0.0611     7.4785 </r>
       <r>    21.3237     0.3376     7.5367 </r>
       <r>    21.4958     0.2470     7.5792 </r>
       <r>    21.6680     0.0131     7.5814 </r>
       <r>    21.8402     0.0607     7.5919 </r>
       <r>    22.0123     0.1935     7.6252 </r>
       <r>    22.1845     0.2084     7.6611 </r>
       <r>    22.3567     0.1908     7.6940 </r>
       <r>    22.5288     0.3252     7.7499 </r>
       <r>    22.7010     0.2752     7.7973 </r>
       <r>    22.8731     0.2551     7.8412 </r>
       <r>    23.0453     0.4172     7.9131 </r>
       <r>    23.2175     0.3258     7.9692 </r>
       <r>    23.3896     0.1428     7.9937 </r>
       <r>    23.5618     0.1115     8.0129 </r>
       <r>    23.7340     0.2063     8.0485 </r>
       <r>    23.9061     0.4100     8.1190 </r>
       <r>    24.0783     0.4106     8.1897 </r>
       <r>    24.2505     0.2931     8.2402 </r>
       <r>    24.4226     0.0930     8.2562 </r>
       <r>    24.5948    -0.0014     8.2560 </r>
       <r>    24.7669     0.2043     8.2911 </r>
       <r>    24.9391     0.3163     8.3456 </r>
       <r>    25.1113     0.2269     8.3847 </r>
       <r>    25.2834     0.1859     8.4167 </r>
       <r>    25.4556     0.2758     8.4642 </r>
       <r>    25.6278     0.4183     8.5362 </r>
       <r>    25.7999     0.1556     8.5630 </r>
       <r>    25.9721     0.3308     8.6199 </r>
       <r>    26.1443     0.4866     8.7037 </r>
       <r>    26.3164     0.1881     8.7361 </r>
       <r>    26.4886     0.3526     8.7968 </r>
       <r>    26.6608     0.3213     8.8521 </r>
       <r>    26.8329     0.0415     8.8592 </r>
       <r>    27.0051    -0.0023     8.8588 </r>
       <r>    27.1772     0.0989     8.8758 </r>
       <r>    27.3494     0.0915     8.8916 </r>
       <r>    27.5216     0.1713     8.9211 </r>
       <r>    27.6937     0.3540     8.9821 </r>
       <r>    27.8659     0.2991     9.0336 </r>
       <r>    28.0381     0.1696     9.0628 </r>
       <r>    28.2102    -0.0038     9.0621 </r>
       <r>    28.3824     0.0106     9.0639 </r>
       <r>    28.5546     0.1227     9.0851 </r>
       <r>    28.7267     0.2139     9.1219 </r>
       <r>    28.8989     0.2703     9.1684 </r>
       <r>    29.0710     0.2093     9.2045 </r>
       <r>    29.2432     0.0890     9.2198 </r>
       <r>    29.4154     0.2273     9.2589 </r>
       <r>    29.5875     0.1739     9.2889 </r>
       <r>    29.7597     0.0842     9.3033 </r>
       <r>    29.9319     0.1720     9.3330 </r>
       <r>    30.1040     0.2845     9.3819 </r>
       <r>    30.2762     0.5866     9.4829 </r>
       <r>    30.4484     0.5376     9.5755 </r>
       <r>    30.6205     0.2835     9.6243 </r>
       <r>    30.7927     0.2306     9.6640 </r>
       <r>    30.9649     0.2036     9.6990 </r>
       <r>    31.1370     0.1048     9.7171 </r>
       <r>    31.3092     0.1751     9.7472 </r>
       <r>    31.4813     0.1490     9.7729 </r>
       <r>    31.6535     0.0330     9.7786 </r>
       <r>    31.8257     0.0108     9.7804 </r>
       <r>    31.9978     0.0626     9.7912 </r>
       <r>    32.1700     0.0924     9.8071 </r>
       <r>    32.3422     0.1176     9.8273 </r>
       <r>    32.5143     0.1444     9.8522 </r>
       <r>    32.6865     0.3769     9.9171 </r>
       <r>    32.8587     0.6063    10.0215 </r>
       <r>    33.0308     0.4726    10.1028 </r>
       <r>    33.2030     0.1745    10.1329 </r>
       <r>    33.3751     0.3229    10.1885 </r>
       <r>    33.5473     0.6706    10.3039 </r>
       <r>    33.7195     0.3433    10.3630 </r>
       <r>    33.8916     0.0808    10.3769 </r>
       <r>    34.0638     0.1171    10.3971 </r>
       <r>    34.2360     0.2745    10.4443 </r>
       <r>    34.4081     0.1994    10.4787 </r>
       <r>    34.5803     0.3063    10.5314 </r>
       <r>    34.7525     0.3292    10.5881 </r>
       <r>    34.9246     0.1575    10.6152 </r>
       <r>    35.0968     0.2224    10.6535 </r>
       <r>    35.2690     0.0727    10.6660 </r>
       <r>    35.4411     0.0593    10.6762 </r>
       <r>    35.6133     0.1862    10.7083 </r>
       <r>    35.7854     0.2305    10.7480 </r>
       <r>    35.9576     0.2786    10.7959 </r>
       <r>    36.1298     0.1855    10.8279 </r>
       <r>    36.3019     0.2414    10.8694 </r>
       <r>    36.4741     0.2964    10.9205 </r>
[...]
      </set>
      <set comment="kpoint 27">
       <set comment="band 1">
        <r>  0.0299  0.0792  0.7378 </r>
       </set>
       <set comment="band 2">
        <r>  0.0000  0.1134  0.7276 </r>
       </set>
       <set comment="band 3">
        <r>  0.0082  0.1678  0.6334 </r>
       </set>
       <set comment="band 4">
        <r>  0.0000  0.0003  0.9802 </r>
       </set>
       <set comment="band 5">
        <r>  0.0002  0.0002  0.9819 </r>
       </set>
       <set comment="band 6">
        <r>  0.0494  0.2291  0.4979 </r>
       </set>
       <set comment="band 7">
        <r>  0.0000  0.2955  0.4005 </r>
       </set>
       <set comment="band 8">
        <r>  0.3603  0.1167  0.2255 </r>
       </set>
       <set comment="band 9">
        <r>  0.2689  0.2483  0.1431 </r>
       </set>
       <set comment="band 10">
        <r>  0.0000  0.0166  0.0876 </r>
       </set>
       <set comment="band 11">
        <r>  0.0013  0.0249  0.1223 </r>
       </set>
       <set comment="band 12">
        <r>  0.0004  0.0541  0.1056 </r>
       </set>
      </set>
      <set comment="kpoint 28">
       <set comment="band 1">
        <r>  0.3876  0.1545  0.0684 </r>
       </set>
       <set comment="band 2">
        <r>  0.0013  0.0278  0.8677 </r>
       </set>
       <set comment="band 3">
        <r>  0.0000  0.0133  0.9263 </r>
       </set>
       <set comment="band 4">
        <r>  0.0001  0.0069  0.9184 </r>
       </set>
       <set comment="band 5">
        <r>  0.0000  0.0066  0.9586 </r>
       </set>
       <set comment="band 6">
        <r>  0.0279  0.0090  0.9323 </r>
       </set>
       <set comment="band 7">
        <r>  0.0440  0.2011  0.3368 </r>
       </set>
       <set comment="band 8">
        <r>  0.0730  0.1063  0.2162 </r>
       </set>
       <set comment="band 9">
        <r>  0.0000  0.3446  0.3137 </r>
       </set>
       <set comment="band 10">
        <r>  0.0518  0.2780  0.1356 </r>
       </set>
       <set comment="band 11">
        <r>  0.0000  0.2285  0.2461 </r>
       </set>
       <set comment="band 12">
        <r>  0.0673  0.2228  0.0764 </r>
       </set>
      </set>
      <set comment="kpoint 29">
       <set comment="band 1">
        <r>  0.2412  0.1537  0.2780 </r>
       </set>
       <set comment="band 2">
        <r>  0.0067  0.0911  0.7257 </r>
       </set>
       <set comment="band 3">
        <r>  0.0000  0.0131  0.9192 </r>
       </set>
       <set comment="band 4">
        <r>  0.0004  0.0209  0.9162 </r>
       </set>
       <set comment="band 5">
        <r>  0.0000  0.0073  0.9679 </r>
       </set>
       <set comment="band 6">
        <r>  0.0605  0.0623  0.8061 </r>
       </set>
       <set comment="band 7">
        <r>  0.1443  0.2176  0.3390 </r>
       </set>
       <set comment="band 8">
        <r>  0.0000  0.4390  0.2456 </r>
       </set>
       <set comment="band 9">
        <r>  0.0828  0.0951  0.2001 </r>
       </set>
       <set comment="band 10">
        <r>  0.0139  0.2401  0.1768 </r>
       </set>
       <set comment="band 11">
        <r>  0.0000  0.1713  0.3616 </r>
       </set>
       <set comment="band 12">
        <r>  0.1267  0.1024  0.2131 </r>
       </set>
      </set>
      <set comment="kpoint 30">
       <set comment="band 1">
        <r>  0.2620  0.1856  0.1986 </r>
       </set>
       <set comment="band 2">
        <r>  0.0000  0.0254  0.8387 </r>
       </set>
       <set comment="band 3">
        <r>  0.0004  0.0346  0.8870 </r>
       </set>
       <set comment="band 4">
        <r>  0.0000  0.0139  0.9227 </r>
       </set>
       <set comment="band 5">
        <r>  0.0010  0.0075  0.9611 </r>
       </set>
       <set comment="band 6">
        <r>  0.0701  0.0505  0.8128 </r>
       </set>
       <set comment="band 7">
        <r>  0.0000  0.2665  0.3779 </r>
       </set>
       <set comment="band 8">
        <r>  0.1615  0.2766  0.2079 </r>
       </set>
       <set comment="band 9">
        <r>  0.0000  0.1328  0.3399 </r>
       </set>
       <set comment="band 10">
        <r>  0.0709  0.3263  0.0688 </r>
       </set>
       <set comment="band 11">
        <r>  0.0547  0.1235  0.3166 </r>
       </set>
       <set comment="band 12">
        <r>  0.0000  0.2686  0.0791 </r>
       </set>
      </set>
      <set comment="kpoint 31">
       <set comment="band 1">
        <r>  0.1161  0.0473  0.6186 </r>
       </set>
       <set comment="band 2">
        <r>  0.0043  0.2116  0.5327 </r>
       </set>
       <set comment="band 3">
        <r>  0.0000  0.0132  0.9151 </r>
       </set>
       <set comment="band 4">
        <r>  0.0142  0.0054  0.9228 </r>
       </set>
       <set comment="band 5">
        <r>  0.0000  0.0014  0.9864 </r>
       </set>
       <set comment="band 6">
        <r>  0.0314  0.2471  0.5495 </r>
       </set>
       <set comment="band 7">
        <r>  0.2799  0.0978  0.4129 </r>
       </set>
       <set comment="band 8">
        <r>  0.0000  0.4958  0.1827 </r>
       </set>
       <set comment="band 9">
        <r>  0.0821  0.1040  0.1896 </r>
       </set>
       <set comment="band 10">
        <r>  0.0003  0.1404  0.2060 </r>
       </set>
       <set comment="band 11">
        <r>  0.0000  0.1487  0.4099 </r>
       </set>
       <set comment="band 12">
        <r>  0.0689  0.1980  0.2520 </r>
       </set>
      </set>
      <set comment="kpoint 32">
       <set comment="band 1">
        <r>  0.1229  0.1316  0.4793 </r>
       </set>
       <set comment="band 2">
        <r>  0.0026  0.0786  0.7360 </r>
       </set>
       <set comment="band 3">
        <r>  0.0015  0.0381  0.8707 </r>
       </set>
       <set comment="band 4">
        <r>  0.0046  0.0159  0.9223 </r>
       </set>
       <set comment="band 5">
        <r>  0.0087  0.0074  0.9581 </r>
       </set>
       <set comment="band 6">
        <r>  0.0829  0.1736  0.5997 </r>
       </set>
       <set comment="band 7">
        <r>  0.1555  0.2343  0.3366 </r>
       </set>
       <set comment="band 8">
        <r>  0.1068  0.3127  0.2394 </r>
       </set>
       <set comment="band 9">
        <r>  0.0271  0.1862  0.2447 </r>
       </set>
       <set comment="band 10">
        <r>  0.0191  0.2295  0.1787 </r>
       </set>
       <set comment="band 11">
        <r>  0.0347  0.1435  0.3322 </r>
       </set>
       <set comment="band 12">
        <r>  0.0504  0.2754  0.2761 </r>
       </set>
      </set>
      <set comment="kpoint 33">
       <set comment="band 1">
        <r>  0.0604  0.0470  0.6970 </r>
       </set>
       <set comment="band 2">
        <r>  0.0000  0.1693  0.5960 </r>
       </set>
       <set comment="band 3">
        <r>  0.0102  0.0197  0.8842 </r>
       </set>
       <set comment="band 4">
        <r>  0.0159  0.0085  0.9187 </r>
       </set>
       <set comment="band 5">
        <r>  0.0000  0.0142  0.9644 </r>
       </set>
       <set comment="band 6">
        <r>  0.0000  0.3463  0.4323 </r>
       </set>
       <set comment="band 7">
        <r>  0.2900  0.0994  0.4034 </r>
       </set>
       <set comment="band 8">
        <r>  0.1039  0.3359  0.2190 </r>
       </set>
       <set comment="band 9">
        <r>  0.0319  0.1985  0.2221 </r>
       </set>
       <set comment="band 10">
        <r>  0.0000  0.0800  0.2602 </r>
       </set>
       <set comment="band 11">
        <r>  0.0040  0.3149  0.2431 </r>
       </set>
       <set comment="band 12">
        <r>  0.1080  0.2458  0.3022 </r>
       </set>
      </set>
      <set comment="kpoint 34">
       <set comment="band 1">
        <r>  0.0329  0.1188  0.6272 </r>
       </set>
       <set comment="band 2">
        <r>  0.0000  0.0755  0.7366 </r>
       </set>
       <set comment="band 3">
        <r>  0.0287  0.0257  0.8397 </r>
       </set>
       <set comment="band 4">
        <r>  0.0000  0.0213  0.9348 </r>
       </set>
       <set comment="band 5">
        <r>  0.0047  0.0169  0.9469 </r>
       </set>
       <set comment="band 6">
        <r>  0.0546  0.2947  0.4367 </r>
       </set>
       <set comment="band 7">
        <r>  0.0000  0.3588  0.3770 </r>
       </set>
       <set comment="band 8">
        <r>  0.3648  0.1383  0.2091 </r>
       </set>
       <set comment="band 9">
        <r>  0.0000  0.0949  0.3257 </r>
       </set>
       <set comment="band 10">
        <r>  0.0145  0.2172  0.1884 </r>
       </set>
       <set comment="band 11">
        <r>  0.0002  0.3495  0.1825 </r>
       </set>
       <set comment="band 12">
        <r>  0.2363  0.1244  0.3108 </r>
       </set>
      </set>
      <set comment="kpoint 35">
       <set comment="band 1">
        <r>  0.0000  0.1236  0.7151 </r>
       </set>
       <set comment="band 2">
        <r>  0.0000  0.1236  0.7151 </r>
       </set>
       <set comment="band 3">
        <r>  0.0000  0.1236  0.7151 </r>
       </set>
       <set comment="band 4">
        <r>  0.0000  0.0000  0.9834 </r>
       </set>
       <set comment="band 5">
        <r>  0.0000  0.0000  0.9834 </r>
       </set>
       <set comment="band 6">
        <r>  0.0000  0.2939  0.4050 </r>
       </set>
       <set comment="band 7">
        <r>  0.0000  0.2939  0.4050 </r>
       </set>
       <set comment="band 8">
        <r>  0.0000  0.2939  0.4051 </r>
       </set>
       <set comment="band 9">
        <r>  0.7330  0.0000  0.0000 </r>
       </set>
       <set comment="band 10">
        <r>  0.0000  0.0000  0.0000 </r>
       </set>
       <set comment="band 11">
        <r>  0.0000  0.0000  0.0000 </r>
       </set>
       <set comment="band 12">
        <r>  0.0000  0.0000  0.0000 </r>
       </set>
      </set>
      <set comment="kpoint 36">
       <set comment="band 1">
        <r>  0.2789  0.1946  0.1582 </r>
       </set>
       <set comment="band 2">
        <r>  0.0000  0.0000  0.8632 </r>
       </set>
       <set comment="band 3">
        <r>  0.0000  0.0312  0.9026 </r>
       </set>
       <set comment="band 4">
        <r>  0.0000  0.0312  0.9026 </r>
       </set>
       <set comment="band 5">
        <r>  0.0000  0.0000  0.9671 </r>
       </set>
       <set comment="band 6">
        <r>  0.0776  0.0337  0.8296 </r>
       </set>
       <set comment="band 7">
        <r>  0.0000  0.4100  0.2790 </r>
       </set>
       <set comment="band 8">
        <r>  0.0000  0.4100  0.2790 </r>
       </set>
       <set comment="band 9">
        <r>  0.0000  0.0000  0.4623 </r>
       </set>
       <set comment="band 10">
        <r>  0.2364  0.1597  0.0345 </r>
       </set>
       <set comment="band 11">
        <r>  0.0000  0.2774  0.0559 </r>
       </set>
       <set comment="band 12">
        <r>  0.0000  0.2774  0.0560 </r>
       </set>
      </set>
      <set comment="kpoint 37">
       <set comment="band 1">
        <r>  0.1386  0.1761  0.3799 </r>
       </set>
       <set comment="band 2">
        <r>  0.0001  0.0164  0.8226 </r>
       </set>
       <set comment="band 3">
        <r>  0.0000  0.0298  0.9033 </r>
       </set>
       <set comment="band 4">
        <r>  0.0034  0.0320  0.8962 </r>
       </set>
       <set comment="band 5">
        <r>  0.0000  0.0053  0.9676 </r>
       </set>
       <set comment="band 6">
        <r>  0.1298  0.1260  0.6111 </r>
       </set>
       <set comment="band 7">
        <r>  0.0775  0.3208  0.2917 </r>
       </set>
       <set comment="band 8">
        <r>  0.0000  0.4691  0.2203 </r>
       </set>
       <set comment="band 9">
        <r>  0.0775  0.0316  0.3847 </r>
       </set>
       <set comment="band 10">
        <r>  0.1266  0.1738  0.1757 </r>
       </set>
       <set comment="band 11">
        <r>  0.0551  0.3405  0.2085 </r>
       </set>
       <set comment="band 12">
        <r>  0.0000  0.1189  0.3461 </r>
       </set>
      </set>
      <set comment="kpoint 38">
       <set comment="band 1">
        <r>  0.0456  0.0726  0.6662 </r>
       </set>
       <set comment="band 2">
        <r>  0.0004  0.0919  0.7012 </r>
       </set>
       <set comment="band 3">
        <r>  0.0000  0.0281  0.9038 </r>
       </set>
       <set comment="band 4">
        <r>  0.0261  0.0178  0.8837 </r>
       </set>
       <set comment="band 5">
        <r>  0.0000  0.0014  0.9843 </r>
       </set>
       <set comment="band 6">
        <r>  0.0707  0.3145  0.3916 </r>
       </set>
       <set comment="band 7">
        <r>  0.2038  0.2189  0.3259 </r>
       </set>
       <set comment="band 8">
        <r>  0.0000  0.5102  0.1653 </r>
       </set>
       <set comment="band 9">
        <r>  0.1121  0.0213  0.3647 </r>
       </set>
       <set comment="band 10">
        <r>  0.0260  0.1171  0.2838 </r>
       </set>
       <set comment="band 11">
        <r>  0.1278  0.4201  0.1300 </r>
       </set>
       <set comment="band 12">
        <r>  0.0000  0.1146  0.3552 </r>
       </set>
      </set>
      <set comment="kpoint 39">
       <set comment="band 1">
        <r>  0.0415  0.1214  0.5942 </r>
       </set>
       <set comment="band 2">
        <r>  0.0000  0.0213  0.8033 </r>
       </set>
       <set comment="band 3">
        <r>  0.0137  0.0290  0.8806 </r>
       </set>
       <set comment="band 4">
        <r>  0.0000  0.0340  0.9099 </r>
       </set>
       <set comment="band 5">
        <r>  0.0059  0.0056  0.9633 </r>
       </set>
       <set comment="band 6">
        <r>  0.1258  0.2575  0.4046 </r>
       </set>
       <set comment="band 7">
        <r>  0.0000  0.4087  0.2947 </r>
       </set>
       <set comment="band 8">
        <r>  0.1653  0.3376  0.1810 </r>
       </set>
       <set comment="band 9">
        <r>  0.0000  0.0864  0.4335 </r>
       </set>
       <set comment="band 10">
        <r>  0.1294  0.1365  0.2181 </r>
       </set>
       <set comment="band 11">
        <r>  0.1603  0.3647  0.1324 </r>
       </set>
       <set comment="band 12">
        <r>  0.0739  0.0622  0.3183 </r>
       </set>
      </set>
      <set comment="kpoint 40">
       <set comment="band 1">
        <r>  0.0074  0.0407  0.7609 </r>
       </set>
       <set comment="band 2">
        <r>  0.0000  0.0789  0.7147 </r>
       </set>
       <set comment="band 3">
        <r>  0.0245  0.0273  0.8653 </r>
       </set>
       <set comment="band 4">
        <r>  0.0057  0.0277  0.9164 </r>
       </set>
       <set comment="band 5">
        <r>  0.0000  0.0115  0.9659 </r>
       </set>
       <set comment="band 6">
        <r>  0.0000  0.4291  0.3010 </r>
       </set>
       <set comment="band 7">
        <r>  0.1956  0.2507  0.2935 </r>
       </set>
       <set comment="band 8">
        <r>  0.1185  0.3758  0.1899 </r>
       </set>
       <set comment="band 9">
        <r>  0.0361  0.0862  0.3880 </r>
       </set>
       <set comment="band 10">
        <r>  0.0000  0.0875  0.3634 </r>
       </set>
       <set comment="band 11">
        <r>  0.2587  0.4215  0.0380 </r>
       </set>
       <set comment="band 12">
        <r>  0.0887  0.0470  0.3188 </r>
       </set>
      </set>
      <set comment="kpoint 41">
       <set comment="band 1">
        <r>  0.0450  0.1204  0.5861 </r>
       </set>
       <set comment="band 2">
        <r>  0.0000  0.0000  0.8295 </r>
       </set>
       <set comment="band 3">
        <r>  0.0000  0.0404  0.8985 </r>
       </set>
       <set comment="band 4">
        <r>  0.0000  0.0405  0.8985 </r>
       </set>
       <set comment="band 5">
        <r>  0.0000  0.0000  0.9758 </r>
       </set>
       <set comment="band 6">
        <r>  0.1680  0.2344  0.3788 </r>
       </set>
       <set comment="band 7">
        <r>  0.0000  0.5098  0.1670 </r>
       </set>
       <set comment="band 8">
        <r>  0.0000  0.5098  0.1670 </r>
       </set>
       <set comment="band 9">
        <r>  0.0000  0.0000  0.5717 </r>
       </set>
       <set comment="band 10">
        <r>  0.2680  0.0227  0.2209 </r>
       </set>
       <set comment="band 11">
        <r>  0.2202  0.2868  0.1524 </r>
       </set>
       <set comment="band 12">
        <r>  0.0000  0.0000  0.3310 </r>
       </set>
      </set>
      <set comment="kpoint 42">
       <set comment="band 1">
        <r>  0.0071  0.0553  0.7321 </r>
       </set>
       <set comment="band 2">
        <r>  0.0001  0.0132  0.8035 </r>
       </set>
       <set comment="band 3">
        <r>  0.0000  0.0301  0.9177 </r>
       </set>
       <set comment="band 4">
        <r>  0.0099  0.0328  0.9008 </r>
       </set>
       <set comment="band 5">
        <r>  0.0000  0.0013  0.9827 </r>
       </set>
       <set comment="band 6">
        <r>  0.0993  0.3820  0.2330 </r>
       </set>
       <set comment="band 7">
        <r>  0.0820  0.4207  0.1820 </r>
       </set>
       <set comment="band 8">
        <r>  0.0000  0.5465  0.1087 </r>
       </set>
       <set comment="band 9">
        <r>  0.0468  0.0070  0.5250 </r>
       </set>
       <set comment="band 10">
        <r>  0.0785  0.0621  0.3829 </r>
       </set>
       <set comment="band 11">
        <r>  0.3983  0.2558  0.0679 </r>
       </set>
       <set comment="band 12">
        <r>  0.0000  0.0465  0.2564 </r>
       </set>
      </set>
      <set comment="kpoint 43">
       <set comment="band 1">
        <r>  0.0000  0.0205  0.7899 </r>
       </set>
       <set comment="band 2">
        <r>  0.0000  0.0205  0.7899 </r>
       </set>
       <set comment="band 3">
        <r>  0.0079  0.0294  0.9077 </r>
       </set>
       <set comment="band 4">
        <r>  0.0000  0.0118  0.9634 </r>
       </set>
       <set comment="band 5">
        <r>  0.0000  0.0118  0.9634 </r>
       </set>
       <set comment="band 6">
        <r>  0.0000  0.5134  0.1572 </r>
       </set>
       <set comment="band 7">
        <r>  0.0000  0.5134  0.1572 </r>
       </set>
       <set comment="band 8">
        <r>  0.1674  0.3918  0.1030 </r>
       </set>
       <set comment="band 9">
        <r>  0.0000  0.0580  0.5022 </r>
       </set>
       <set comment="band 10">
        <r>  0.0000  0.0580  0.5022 </r>
       </set>
       <set comment="band 11">
        <r>  0.5624  0.1896  0.0035 </r>
       </set>
       <set comment="band 12">
        <r>  0.0130  0.0431  0.2109 </r>
       </set>
      </set>
      <set comment="kpoint 44">
       <set comment="band 1">
        <r>  0.0005  0.0138  0.7957 </r>
       </set>
       <set comment="band 2">
        <r>  0.0000  0.0000  0.8161 </r>
       </set>
       <set comment="band 3">
        <r>  0.0000  0.0122  0.9621 </r>
       </set>
       <set comment="band 4">
        <r>  0.0000  0.0122  0.9621 </r>
       </set>
       <set comment="band 5">
        <r>  0.0000  0.0000  0.9844 </r>
       </set>
       <set comment="band 6">
        <r>  0.0536  0.5085  0.0839 </r>
       </set>
       <set comment="band 7">
        <r>  0.0000  0.5902  0.0331 </r>
       </set>
       <set comment="band 8">
        <r>  0.0000  0.5902  0.0331 </r>
       </set>
       <set comment="band 9">
        <r>  0.0000  0.0000  0.6263 </r>
       </set>
       <set comment="band 10">
        <r>  0.0319  0.0205  0.5416 </r>
       </set>
       <set comment="band 11">
        <r>  0.6721  0.0741  0.0114 </r>
       </set>
       <set comment="band 12">
        <r>  0.0000  0.0000  0.0733 </r>
       </set>
      </set>
     </set>
    </set>
   </array>
  </projected>
 </calculation>
 <structure name="finalpos" >
  <crystal>
   <varray name="basis" >
    <v>      -1.42500000       1.42500000       1.42500000 </v>
    <v>       1.42500000      -1.42500000       1.42500000 </v>
    <v>       1.42500000       1.42500000      -1.42500000 </v>
   </varray>
   <i name="volume">     11.57456250 </i>
   <varray name="rec_basis" >
    <v>       0.00000000       0.35087719       0.35087719 </v>
    <v>       0.35087719       0.00000000       0.35087719 </v>
    <v>       0.35087719       0.35087719       0.00000000 </v>
   </varray>
  </crystal>
  <varray name="positions" >
   <v>       0.00000000       0.00000000       0.00000000 </v>
  </varray>
 </structure>
</modeling>
