bcc Fe                                  
           1
    -1.425000    1.425000    1.425000
     1.425000   -1.425000    1.425000
     1.425000    1.425000   -1.425000
   Fe
   1
Direct configuration=     1
   0.00000000  0.00000000  0.00000000
