   1   1   0   0
  0.1097600E+02  0.2424871E-09  0.2424871E-09  0.2424871E-09  0.5000000E-15
  1.000000000000000E-004
  CAR 
 bcc Fe                                  
     48.50893057     -4.66885315  301      6.19405156      1.00000000
     -4.669  0.0000E+00  0.0000E+00  0.0000E+00  0.0000E+00
     -4.492  0.0000E+00  0.0000E+00  0.0000E+00  0.0000E+00
     -4.314  0.0000E+00  0.0000E+00  0.0000E+00  0.0000E+00
     -4.137  0.0000E+00  0.0000E+00  0.0000E+00  0.0000E+00
     -3.960 -0.1709E-32  0.0000E+00 -0.3029E-33  0.0000E+00
     -3.783 -0.2623E-26 -0.1888E-33 -0.4649E-27 -0.3346E-34
     -3.605 -0.8255E-21 -0.3648E-27 -0.1463E-21 -0.6466E-28
     -3.428 -0.5119E-16 -0.1446E-21 -0.9074E-17 -0.2563E-22
     -3.251 -0.6657E-12 -0.1171E-16 -0.1180E-12 -0.2076E-17
     -3.074 -0.1716E-08 -0.1857E-12 -0.3043E-09 -0.3292E-13
     -2.896 -0.8596E-06 -0.6058E-09 -0.1527E-06 -0.1074E-09
     -2.719 -0.7796E-04 -0.3861E-06 -0.1397E-04 -0.6855E-07
     -2.542 -0.9300E-03 -0.4528E-04 -0.1788E-03 -0.8096E-05
     -2.364  0.4257E-02 -0.7678E-03  0.5758E-03 -0.1442E-03
     -2.187  0.2166E-01  0.2243E-02  0.4414E-02  0.2535E-03
     -2.010  0.9913E-02  0.2043E-01  0.6172E-02  0.3874E-02
     -1.833  0.2149E-01  0.1186E-01  0.9980E-02  0.5977E-02
     -1.655  0.1897E-01  0.1763E-01  0.1334E-01  0.9102E-02
     -1.478  0.4996E-01  0.2195E-01  0.2220E-01  0.1299E-01
     -1.301  0.8320E-01  0.3388E-01  0.3695E-01  0.1900E-01
     -1.124  0.8442E-02  0.8996E-01  0.3844E-01  0.3495E-01
     -0.946 -0.8257E-02  0.2136E-01  0.3698E-01  0.3873E-01
     -0.769  0.3836E-01 -0.7770E-02  0.4378E-01  0.3735E-01
     -0.592  0.1095E+00  0.1061E-01  0.6319E-01  0.3923E-01
     -0.415  0.6190E-01  0.1015E+00  0.7416E-01  0.5723E-01
     -0.237  0.8741E-01  0.6898E-01  0.8965E-01  0.6946E-01
     -0.060  0.9071E-01  0.7258E-01  0.1057E+00  0.8233E-01
      0.117  0.5967E-01  0.6915E-01  0.1163E+00  0.9459E-01
      0.294 -0.9848E-02  0.8594E-01  0.1146E+00  0.1098E+00
      0.472  0.4048E-01  0.3878E-01  0.1217E+00  0.1167E+00
      0.649  0.2237E+00 -0.1204E-01  0.1614E+00  0.1146E+00
      0.826  0.1740E+00  0.4224E-01  0.1922E+00  0.1220E+00
      1.003  0.2583E+00  0.1890E+00  0.2380E+00  0.1556E+00
      1.181  0.2931E+00  0.1352E+00  0.2900E+00  0.1795E+00
      1.358  0.3128E+00  0.8850E-01  0.3454E+00  0.1952E+00
      1.535  0.7376E+00  0.1753E+00  0.4762E+00  0.2263E+00
      1.712  0.8194E+00  0.1117E+00  0.6214E+00  0.2461E+00
      1.890  0.7785E+00  0.7233E-01  0.7594E+00  0.2589E+00
      2.067  0.9076E+00  0.1533E-01  0.9203E+00  0.2616E+00
      2.244  0.5540E+00  0.1778E+00  0.1019E+01  0.2931E+00
      2.422  0.4272E+00  0.5158E+00  0.1094E+01  0.3846E+00
      2.599  0.5448E+00  0.4113E+00  0.1191E+01  0.4575E+00
      2.776  0.1338E+01  0.2290E+00  0.1428E+01  0.4981E+00
      2.953  0.1423E+01  0.3631E+00  0.1680E+01  0.5624E+00
      3.131  0.7586E+00  0.4079E+00  0.1815E+01  0.6347E+00
      3.308  0.9805E+00  0.4268E+00  0.1988E+01  0.7104E+00
      3.485  0.1628E+01  0.8316E+00  0.2277E+01  0.8578E+00
      3.662  0.1347E+01  0.6361E+00  0.2516E+01  0.9706E+00
      3.840  0.7564E+00  0.2425E+00  0.2650E+01  0.1014E+01
      4.017  0.3478E+00  0.3350E+00  0.2712E+01  0.1073E+01
      4.194  0.5014E+00  0.4412E+00  0.2801E+01  0.1151E+01
      4.371  0.7532E+00  0.8242E+00  0.2934E+01  0.1297E+01
      4.549  0.3611E+00  0.1473E+01  0.2998E+01  0.1558E+01
      4.726  0.5405E+00  0.1126E+01  0.3094E+01  0.1758E+01
      4.903  0.1329E+01  0.9548E+00  0.3330E+01  0.1927E+01
      5.080  0.1688E+01  0.1138E+01  0.3629E+01  0.2129E+01
      5.258  0.2071E+01  0.1121E+01  0.3996E+01  0.2328E+01
      5.435  0.2233E+01  0.1193E+01  0.4392E+01  0.2539E+01
      5.612  0.1372E+01  0.1003E+01  0.4635E+01  0.2717E+01
      5.789  0.6438E+00  0.5277E+00  0.4749E+01  0.2811E+01
      5.967  0.9691E+00  0.7999E-01  0.4921E+01  0.2825E+01
      6.144  0.8424E+00  0.2569E+00  0.5070E+01  0.2870E+01
      6.321  0.5571E+00  0.5696E+00  0.5169E+01  0.2971E+01
      6.498  0.3844E+00  0.2779E+00  0.5237E+01  0.3020E+01
      6.676  0.2781E+00  0.2229E+00  0.5286E+01  0.3060E+01
      6.853  0.2368E+00  0.2421E+00  0.5328E+01  0.3103E+01
      7.030  0.1048E+00  0.6785E+00  0.5347E+01  0.3223E+01
      7.208  0.6550E-01  0.9482E+00  0.5358E+01  0.3391E+01
      7.385  0.1578E+00  0.7605E+00  0.5386E+01  0.3526E+01
      7.562  0.3467E+00  0.1140E+01  0.5448E+01  0.3728E+01
      7.739  0.1543E+00  0.1310E+01  0.5475E+01  0.3960E+01
      7.917  0.8896E-01  0.1359E+01  0.5491E+01  0.4201E+01
      8.094  0.1316E+00  0.2021E+01  0.5514E+01  0.4560E+01
      8.271  0.7052E-01  0.2024E+01  0.5527E+01  0.4918E+01
      8.448 -0.1343E-01  0.1083E+01  0.5524E+01  0.5110E+01
      8.626  0.5674E-01  0.6102E+00  0.5534E+01  0.5219E+01
      8.803  0.2901E+00  0.3586E+00  0.5586E+01  0.5282E+01
      8.980  0.1983E+00  0.3390E+00  0.5621E+01  0.5342E+01
      9.157  0.6714E-01  0.1340E+00  0.5633E+01  0.5366E+01
      9.335  0.1943E+00  0.3119E+00  0.5667E+01  0.5421E+01
      9.512  0.1437E+00  0.2931E+00  0.5693E+01  0.5473E+01
      9.689  0.1090E+00  0.1507E+00  0.5712E+01  0.5500E+01
      9.866  0.3405E-01  0.1228E+00  0.5718E+01  0.5522E+01
     10.044  0.3241E-01  0.7511E-01  0.5724E+01  0.5535E+01
     10.221  0.1708E+00  0.1668E+00  0.5754E+01  0.5565E+01
     10.398  0.1304E+00  0.2285E+00  0.5777E+01  0.5605E+01
     10.575  0.1144E+00  0.1372E+00  0.5798E+01  0.5629E+01
     10.753  0.1769E+00  0.1680E+00  0.5829E+01  0.5659E+01
     10.930  0.8887E-01  0.9832E-01  0.5845E+01  0.5677E+01
     11.107  0.1478E-02  0.1307E+00  0.5845E+01  0.5700E+01
     11.284  0.3825E-01  0.1169E+00  0.5852E+01  0.5720E+01
     11.462  0.1796E-01  0.4730E-01  0.5855E+01  0.5729E+01
     11.639  0.4858E-01  0.2136E+00  0.5864E+01  0.5767E+01
     11.816  0.1685E+00  0.2378E+00  0.5893E+01  0.5809E+01
     11.994  0.8158E-01  0.1695E+00  0.5908E+01  0.5839E+01
     12.171  0.8291E-01  0.3419E-01  0.5923E+01  0.5845E+01
     12.348  0.3415E-01  0.9890E-02  0.5929E+01  0.5847E+01
     12.525 -0.7041E-02  0.4235E-01  0.5927E+01  0.5854E+01
     12.703  0.4881E-01  0.3726E-02  0.5936E+01  0.5855E+01
     12.880  0.8136E-01  0.8805E-01  0.5950E+01  0.5870E+01
     13.057  0.7702E-01  0.1665E+00  0.5964E+01  0.5900E+01
     13.234  0.1183E+00  0.5949E-01  0.5985E+01  0.5911E+01
     13.412  0.4288E-01  0.8365E-01  0.5993E+01  0.5925E+01
     13.589 -0.6728E-02  0.8430E-01  0.5991E+01  0.5940E+01
     13.766  0.4039E-02  0.6249E-01  0.5992E+01  0.5951E+01
     13.943  0.1078E+00  0.3806E-01  0.6011E+01  0.5958E+01
     14.121  0.2048E+00  0.8488E-01  0.6048E+01  0.5973E+01
     14.298  0.1993E+00  0.4587E-01  0.6083E+01  0.5981E+01
     14.475  0.8380E-01  0.5448E-01  0.6098E+01  0.5991E+01
     14.652  0.1720E+00  0.8471E-02  0.6128E+01  0.5992E+01
     14.830  0.3709E+00 -0.3465E-02  0.6194E+01  0.5992E+01
     15.007  0.2723E+00 -0.1211E-01  0.6242E+01  0.5990E+01
     15.184  0.1499E+00  0.5538E-01  0.6269E+01  0.5999E+01
     15.361  0.1903E+00  0.3032E+00  0.6303E+01  0.6053E+01
     15.539  0.2631E+00  0.2100E+00  0.6349E+01  0.6090E+01
     15.716  0.4358E-01  0.1128E+00  0.6357E+01  0.6110E+01
     15.893  0.5453E-02  0.3147E+00  0.6358E+01  0.6166E+01
     16.070  0.1244E+00  0.4320E+00  0.6380E+01  0.6243E+01
     16.248  0.2257E+00  0.2660E+00  0.6420E+01  0.6290E+01
     16.425  0.1941E+00  0.2439E+00  0.6454E+01  0.6333E+01
     16.602  0.1213E+00  0.1356E+00  0.6476E+01  0.6357E+01
     16.780  0.3417E+00  0.2666E-02  0.6536E+01  0.6358E+01
     16.957  0.4353E+00  0.5770E-01  0.6614E+01  0.6368E+01
     17.134  0.1921E+00  0.2248E+00  0.6648E+01  0.6408E+01
     17.311  0.3576E-02  0.2904E+00  0.6648E+01  0.6459E+01
     17.489  0.3674E-01  0.1810E+00  0.6655E+01  0.6491E+01
     17.666  0.1283E+00  0.2657E+00  0.6678E+01  0.6538E+01
     17.843  0.2063E+00  0.3492E+00  0.6714E+01  0.6600E+01
     18.020  0.1443E+00  0.2628E+00  0.6740E+01  0.6647E+01
     18.198  0.2181E+00  0.6345E-01  0.6778E+01  0.6658E+01
     18.375  0.4791E+00  0.7283E-01  0.6863E+01  0.6671E+01
     18.552  0.3431E+00  0.1183E+00  0.6924E+01  0.6692E+01
     18.729  0.8889E-01  0.2323E+00  0.6940E+01  0.6733E+01
     18.907 -0.8129E-02  0.2116E+00  0.6938E+01  0.6771E+01
     19.084 -0.9461E-02  0.3331E+00  0.6937E+01  0.6830E+01
     19.261  0.1369E-01  0.2532E+00  0.6939E+01  0.6875E+01
     19.438  0.1919E+00  0.2623E+00  0.6973E+01  0.6921E+01
     19.616  0.3006E+00  0.1032E+00  0.7026E+01  0.6939E+01
     19.793  0.2623E+00 -0.1125E-01  0.7073E+01  0.6937E+01
     19.970  0.5999E-01  0.1500E-01  0.7084E+01  0.6940E+01
     20.147  0.1809E+00  0.1607E+00  0.7116E+01  0.6969E+01
     20.325  0.2334E+00  0.3353E+00  0.7157E+01  0.7028E+01
     20.502  0.2664E+00  0.2769E+00  0.7204E+01  0.7077E+01
     20.679  0.3147E+00  0.3382E-01  0.7260E+01  0.7083E+01
     20.856  0.2579E+00  0.1383E+00  0.7306E+01  0.7108E+01
     21.034  0.1947E+00  0.2441E+00  0.7340E+01  0.7151E+01
     21.211  0.5814E-01  0.3359E+00  0.7351E+01  0.7210E+01
     21.388 -0.3933E-02  0.3978E+00  0.7350E+01  0.7281E+01
     21.566  0.1511E+00  0.1595E+00  0.7377E+01  0.7309E+01
     21.743  0.2654E+00  0.1265E+00  0.7424E+01  0.7332E+01
     21.920  0.1968E+00  0.8822E-01  0.7459E+01  0.7347E+01
     22.097  0.5720E-01  0.7445E-01  0.7469E+01  0.7360E+01
     22.275  0.4308E-01  0.2031E+00  0.7476E+01  0.7396E+01
     22.452  0.3091E+00  0.2629E+00  0.7531E+01  0.7443E+01
     22.629  0.2431E+00  0.1513E+00  0.7574E+01  0.7470E+01
     22.806  0.3993E-01  0.8498E-02  0.7581E+01  0.7471E+01
     22.984  0.7033E-01  0.1815E+00  0.7594E+01  0.7504E+01
     23.161  0.1797E+00  0.2687E+00  0.7626E+01  0.7551E+01
     23.338  0.1429E+00  0.1146E+00  0.7651E+01  0.7572E+01
     23.515  0.1800E+00  0.3510E-01  0.7683E+01  0.7578E+01
     23.693  0.3299E+00  0.7867E-01  0.7741E+01  0.7592E+01
     23.870  0.3259E+00  0.1432E+00  0.7799E+01  0.7617E+01
     24.047  0.2321E+00  0.3200E+00  0.7840E+01  0.7674E+01
     24.224  0.4254E+00  0.3273E+00  0.7916E+01  0.7732E+01
     24.402  0.2945E+00  0.3234E+00  0.7968E+01  0.7789E+01
     24.579  0.1755E+00  0.2554E+00  0.7999E+01  0.7834E+01
     24.756  0.1469E+00  0.3561E+00  0.8025E+01  0.7898E+01
     24.933  0.2343E+00  0.4246E+00  0.8067E+01  0.7973E+01
     25.111  0.3156E+00  0.2338E+00  0.8123E+01  0.8014E+01
     25.288  0.4242E+00  0.2145E+00  0.8198E+01  0.8052E+01
     25.465  0.2679E+00  0.1481E+00  0.8245E+01  0.8079E+01
     25.642  0.5664E-01  0.2346E+00  0.8255E+01  0.8120E+01
     25.820  0.5942E-01  0.3795E+00  0.8266E+01  0.8187E+01
     25.997  0.1279E+00  0.3592E+00  0.8288E+01  0.8251E+01
     26.174  0.1710E+00  0.1414E+00  0.8319E+01  0.8276E+01
     26.352  0.3464E+00  0.2324E-01  0.8380E+01  0.8280E+01
     26.529  0.2613E+00  0.5320E-01  0.8426E+01  0.8290E+01
     26.706  0.2813E+00  0.1401E+00  0.8476E+01  0.8315E+01
     26.883  0.2944E+00  0.3659E+00  0.8529E+01  0.8379E+01
     27.061  0.1974E+00  0.3805E+00  0.8564E+01  0.8447E+01
     27.238  0.4401E+00  0.3367E+00  0.8642E+01  0.8507E+01
     27.415  0.3312E+00  0.2663E+00  0.8700E+01  0.8554E+01
     27.592  0.2368E+00  0.2453E+00  0.8742E+01  0.8597E+01
     27.770  0.2579E+00  0.4996E+00  0.8788E+01  0.8686E+01
     27.947  0.2857E+00  0.2469E+00  0.8839E+01  0.8730E+01
     28.124  0.8331E-01  0.1196E+00  0.8853E+01  0.8751E+01
     28.301 -0.5669E-02  0.2291E+00  0.8852E+01  0.8791E+01
     28.479  0.8745E-01  0.1877E+00  0.8868E+01  0.8825E+01
     28.656  0.1372E+00  0.1212E+00  0.8892E+01  0.8846E+01
     28.833  0.1885E+00  0.3638E-01  0.8926E+01  0.8853E+01
     29.010  0.3436E+00  0.9447E-01  0.8986E+01  0.8869E+01
     29.188  0.2673E+00  0.2416E+00  0.9034E+01  0.8912E+01
     29.365  0.1131E+00  0.3130E+00  0.9054E+01  0.8968E+01
     29.542  0.2310E-01  0.2874E+00  0.9058E+01  0.9019E+01
     29.719  0.8204E-01  0.1102E+00  0.9073E+01  0.9038E+01
     29.897  0.1730E+00  0.1447E+00  0.9103E+01  0.9064E+01
     30.074  0.5165E-01  0.1027E+00  0.9112E+01  0.9082E+01
     30.251  0.2063E+00  0.1016E+00  0.9149E+01  0.9100E+01
     30.428  0.3309E+00  0.3615E-01  0.9208E+01  0.9106E+01
     30.606  0.1679E+00  0.1314E+00  0.9237E+01  0.9130E+01
     30.783  0.1403E+00  0.3820E+00  0.9262E+01  0.9197E+01
     30.960  0.2481E-01  0.2298E+00  0.9267E+01  0.9238E+01
     31.138  0.1840E+00  0.8191E-01  0.9299E+01  0.9253E+01
     31.315  0.2523E+00  0.1629E+00  0.9344E+01  0.9281E+01
     31.492  0.2765E+00  0.1022E+00  0.9393E+01  0.9300E+01
     31.669  0.5160E+00  0.5445E-01  0.9484E+01  0.9309E+01
     31.847  0.6186E+00  0.2197E+00  0.9594E+01  0.9348E+01
     32.024  0.2836E+00  0.3992E+00  0.9644E+01  0.9419E+01
     32.201  0.1751E+00  0.8538E+00  0.9675E+01  0.9570E+01
     32.378  0.7451E-01  0.6015E+00  0.9689E+01  0.9677E+01
     32.556  0.1782E+00  0.1800E+00  0.9720E+01  0.9709E+01
     32.733  0.1697E+00 -0.9953E-02  0.9750E+01  0.9707E+01
     32.910  0.8782E-01 -0.9770E-02  0.9766E+01  0.9705E+01
     33.087  0.7018E-01  0.1272E-01  0.9778E+01  0.9708E+01
     33.265  0.5258E-01  0.8320E-01  0.9788E+01  0.9722E+01
     33.442  0.3083E-01  0.1807E+00  0.9793E+01  0.9754E+01
     33.619  0.6156E-02  0.2245E+00  0.9794E+01  0.9794E+01
     33.796  0.2162E+00  0.9852E-01  0.9832E+01  0.9812E+01
     33.974  0.3563E+00  0.3594E-01  0.9896E+01  0.9818E+01
     34.151  0.3246E+00  0.2749E+00  0.9953E+01  0.9867E+01
     34.328  0.2119E+00  0.4461E+00  0.9991E+01  0.9946E+01
     34.505  0.4102E+00  0.1002E+00  0.1006E+02  0.9964E+01
     34.683  0.2379E+00 -0.5442E-02  0.1011E+02  0.9963E+01
     34.860  0.3140E+00  0.2121E+00  0.1016E+02  0.1000E+02
     35.037  0.7297E+00  0.3301E+00  0.1029E+02  0.1006E+02
     35.214  0.3660E+00  0.3401E+00  0.1036E+02  0.1012E+02
     35.392  0.1092E+00  0.5080E+00  0.1037E+02  0.1021E+02
     35.569  0.1644E+00  0.6074E+00  0.1040E+02  0.1032E+02
     35.746  0.9248E-01  0.2813E+00  0.1042E+02  0.1037E+02
     35.924  0.2200E+00  0.6323E-01  0.1046E+02  0.1038E+02
     36.101  0.4224E+00  0.1698E+00  0.1053E+02  0.1041E+02
     36.278  0.3050E+00  0.1668E+00  0.1059E+02  0.1044E+02
     36.455  0.1219E+00  0.3649E+00  0.1061E+02  0.1050E+02
     36.633  0.1937E+00  0.3899E+00  0.1064E+02  0.1057E+02
     36.810  0.1426E+00  0.1888E+00  0.1067E+02  0.1060E+02
     36.987  0.2555E-01  0.1778E+00  0.1067E+02  0.1064E+02
     37.164  0.1369E+00  0.9657E-01  0.1070E+02  0.1065E+02
     37.342  0.2632E+00  0.1611E+00  0.1074E+02  0.1068E+02
     37.519  0.2148E+00  0.1187E+00  0.1078E+02  0.1070E+02
     37.696  0.1809E+00  0.1606E+00  0.1082E+02  0.1073E+02
     37.873  0.3942E+00  0.3082E+00  0.1088E+02  0.1079E+02
     38.051  0.2937E+00  0.1421E+00  0.1094E+02  0.1081E+02
     38.228  0.1854E+00  0.2635E+00  0.1097E+02  0.1086E+02
     38.405  0.3965E+00  0.4013E+00  0.1104E+02  0.1093E+02
     38.582  0.5167E+00  0.2720E+00  0.1113E+02  0.1098E+02
     38.760  0.3927E+00  0.3970E+00  0.1120E+02  0.1105E+02
     38.937  0.1691E+00  0.2925E+00  0.1123E+02  0.1110E+02
     39.114  0.6571E-01  0.1914E+00  0.1124E+02  0.1113E+02
     39.291  0.5631E-01  0.1819E+00  0.1125E+02  0.1117E+02
     39.469  0.1809E+00  0.2736E+00  0.1129E+02  0.1121E+02
     39.646  0.4165E+00  0.2970E+00  0.1136E+02  0.1127E+02
     39.823  0.3524E+00  0.2090E+00  0.1142E+02  0.1130E+02
     40.000  0.3119E+00  0.2114E+00  0.1148E+02  0.1134E+02
     40.178  0.1112E+00  0.2277E+00  0.1150E+02  0.1138E+02
     40.355  0.2270E+00  0.1964E+00  0.1154E+02  0.1142E+02
     40.532  0.3535E+00  0.2760E+00  0.1160E+02  0.1147E+02
     40.710  0.9707E-01  0.5079E+00  0.1162E+02  0.1156E+02
     40.887  0.5686E-01  0.3310E+00  0.1163E+02  0.1161E+02
     41.064  0.7881E-01  0.1081E-01  0.1164E+02  0.1162E+02
     41.241  0.1819E-01  0.7394E-01  0.1164E+02  0.1163E+02
     41.419  0.9837E-01  0.7125E-01  0.1166E+02  0.1164E+02
     41.596  0.1454E+00  0.3877E-01  0.1169E+02  0.1165E+02
     41.773  0.1735E+00  0.1595E+00  0.1172E+02  0.1168E+02
     41.950  0.2807E+00  0.1352E+00  0.1177E+02  0.1170E+02
     42.128  0.9191E-01  0.4389E-01  0.1178E+02  0.1171E+02
     42.305  0.3041E-01  0.9134E-01  0.1179E+02  0.1172E+02
     42.482  0.8648E-01  0.1630E+00  0.1180E+02  0.1175E+02
     42.659  0.7576E-01  0.2395E+00  0.1182E+02  0.1180E+02
     42.837  0.1054E+00  0.6011E-01  0.1184E+02  0.1181E+02
     43.014  0.3428E-01  0.1187E-01  0.1184E+02  0.1181E+02
     43.191  0.1474E+00  0.1681E+00  0.1187E+02  0.1184E+02
     43.368  0.1999E+00  0.1903E+00  0.1190E+02  0.1187E+02
     43.546  0.2834E-01  0.5154E-01  0.1191E+02  0.1188E+02
     43.723 -0.5638E-02  0.1012E+00  0.1191E+02  0.1190E+02
     43.900  0.2474E-01  0.5280E-01  0.1191E+02  0.1191E+02
     44.077  0.1531E-01 -0.4278E-02  0.1192E+02  0.1191E+02
     44.255  0.3018E-01  0.2155E-01  0.1192E+02  0.1191E+02
     44.432  0.8737E-01  0.2234E-01  0.1194E+02  0.1192E+02
     44.609  0.7253E-01 -0.6137E-02  0.1195E+02  0.1191E+02
     44.786  0.7930E-01  0.3794E-01  0.1196E+02  0.1192E+02
     44.964  0.8286E-02  0.1656E+00  0.1196E+02  0.1195E+02
     45.141 -0.3042E-02  0.8088E-01  0.1196E+02  0.1197E+02
     45.318 -0.2590E-03 -0.5527E-02  0.1196E+02  0.1196E+02
     45.496 -0.1636E-02 -0.1188E-02  0.1196E+02  0.1196E+02
     45.673  0.2241E-03  0.1770E-01  0.1196E+02  0.1197E+02
     45.850  0.5237E-01  0.1061E-01  0.1197E+02  0.1197E+02
     46.027  0.1145E+00  0.4787E-01  0.1199E+02  0.1198E+02
     46.205  0.4310E-01  0.1110E+00  0.1200E+02  0.1200E+02
     46.382 -0.4366E-02  0.2063E-01  0.1200E+02  0.1200E+02
     46.559 -0.9860E-03 -0.4596E-02  0.1200E+02  0.1200E+02
     46.736 -0.2021E-04 -0.3764E-03  0.1200E+02  0.1200E+02
     46.914 -0.7186E-07 -0.4087E-05  0.1200E+02  0.1200E+02
     47.091 -0.4899E-10 -0.8052E-08  0.1200E+02  0.1200E+02
     47.268 -0.6644E-14 -0.3087E-11  0.1200E+02  0.1200E+02
     47.445  0.0000E+00 -0.2405E-15  0.1200E+02  0.1200E+02
     47.623  0.0000E+00  0.0000E+00  0.1200E+02  0.1200E+02
     47.800  0.0000E+00  0.0000E+00  0.1200E+02  0.1200E+02
     47.977  0.0000E+00  0.0000E+00  0.1200E+02  0.1200E+02
     48.154  0.0000E+00  0.0000E+00  0.1200E+02  0.1200E+02
     48.332  0.0000E+00  0.0000E+00  0.1200E+02  0.1200E+02
     48.509  0.0000E+00  0.0000E+00  0.1200E+02  0.1200E+02
