    1    1    1    2
  0.1097600E+02  0.2424871E-09  0.2424871E-09  0.2424871E-09  0.5000000E-15
  1.000000000000000E-004
  CAR 
 bcc Fe                                  
      8     44     12
 
  0.5000000E-01  0.5000000E-01  0.5000000E-01  0.8000000E-02
    1       -1.837331     -1.630446   1.000000   1.000000
    2        3.665888      5.585238   1.000000   1.000073
    3        3.665888      5.585238   1.000000   1.000073
    4        4.210583      6.194748   1.000000   0.497055
    5        5.081120      7.766987   1.000000  -0.000000
    6        5.081120      7.766987   1.000000  -0.000000
    7       29.039981     29.180283   0.000000   0.000000
    8       29.039981     29.180283   0.000000   0.000000
    9       32.108307     31.899433   0.000000   0.000000
   10       33.870673     34.764719   0.000000   0.000000
   11       37.366195     37.704488   0.000000   0.000000
   12       37.366195     37.704488   0.000000   0.000000
 
  0.1500000E+00  0.5000000E-01  0.5000000E-01  0.2400000E-01
    1       -0.693485     -0.454788   1.000000   1.000000
    2        3.343428      5.202851   1.000000   1.000000
    3        3.497831      5.358666   1.000000   1.000000
    4        4.912190      6.945940   1.000000  -0.000001
    5        4.969029      7.574517   1.000000  -0.000000
    6        5.159907      7.863622   1.000000  -0.000000
    7       24.825272     25.323659   0.000000   0.000000
    8       27.127394     27.419597   0.000000   0.000000
    9       30.356628     31.171682   0.000000   0.000000
   10       32.446486     32.380639   0.000000   0.000000
   11       37.199935     37.716820   0.000000   0.000000
   12       37.406312     37.865460   0.000000   0.000000
 
  0.2500000E+00  0.5000000E-01  0.5000000E-01  0.2400000E-01
    1        0.678944      1.146384   1.000000   1.000000
    2        2.994316      4.785412   1.000000   1.000000
    3        3.580294      5.165349   1.000000   1.000000
    4        5.035196      7.581458   1.000000  -0.000000
    5        5.244492      7.961142   1.000000  -0.000000
    6        5.898972      7.977643   1.028733  -0.000000
    7       20.182896     20.977818   0.000000   0.000000
    8       25.365859     25.678583   0.000000   0.000000
    9       27.850620     28.586258   0.000000   0.000000
   10       32.116722     32.296639   0.000000   0.000000
   11       36.228656     36.839815   0.000000   0.000000
   12       39.414566     39.682214   0.000000   0.000000
 
  0.3500000E+00  0.5000000E-01  0.5000000E-01  0.2400000E-01
    1        1.206958      2.286190   1.000000   1.000000
    2        2.732691      4.474392   1.000000   1.000000
    3        4.683687      5.680806   1.000000   1.000857
    4        5.187865      7.700062   1.000000  -0.000000
    5        5.318252      8.081578   1.000000  -0.000000
    6        7.074177      8.986248  -0.000000  -0.000000
    7       16.014230     17.115477   0.000000   0.000000
    8       24.140533     24.423546   0.000000   0.000000
    9       26.162748     26.827005   0.000000   0.000000
   10       31.766335     32.096598   0.000000   0.000000
   11       35.904180     36.523640   0.000000   0.000000
   12       41.650986     41.813038   0.000000   0.000000
 
  0.4500000E+00  0.5000000E-01  0.5000000E-01  0.1200000E-01
    1        1.217579      2.525103   1.000000   1.000000
    2        2.636410      4.360582   1.000000   1.000000
    3        5.207732      6.365466   1.000000  -0.003242
    4        5.344068      7.750090   1.000000  -0.000000
    5        5.480128      8.121644   1.000003  -0.000000
    6        8.015938      9.554864  -0.000000  -0.000000
    7       13.886544     15.271974   0.000000   0.000000
    8       23.700933     23.966529   0.000000   0.000000
    9       25.542227     26.170364   0.000000   0.000000
   10       31.635870     32.014342   0.000000   0.000000
   11       35.874611     36.513653   0.000000   0.000000
   12       41.506177     41.587588   0.000000   0.000000
 
 -0.5000000E-01  0.5000000E-01  0.5000000E-01  0.6000000E-02
    1       -2.251681     -2.048649   1.000000   1.000000
    2        3.798963      5.742542   1.000000   1.003191
    3        3.799036      5.742708   1.000000   1.003202
    4        3.861722      5.819299   1.000000   1.011761
    5        5.037990      7.719913   1.000000  -0.000000
    6        5.176394      7.895291   1.000000  -0.000000
    7       30.327462     30.250533   0.000000   0.000000
    8       31.365987     31.245730   0.000000   0.000000
    9       31.366016     31.245743   0.000000   0.000000
   10       35.274760     35.667191   0.000000   0.000000
   11       37.463683     38.318225   0.000000   0.000000
   12       37.463753     38.318419   0.000000   0.000000
 
  0.1500000E+00  0.1500000E+00  0.5000000E-01  0.2400000E-01
    1        0.591426      0.928514   1.000000   1.000000
    2        3.096103      4.892609   1.000000   1.000000
    3        3.134202      4.898518   1.000000   1.000000
    4        4.991787      7.576868   1.000000  -0.000000
    5        5.256475      7.924809   1.000000  -0.000000
    6        5.960990      8.029458   1.034868  -0.000000
    7       22.475935     23.091571   0.000000   0.000000
    8       23.432392     24.002396   0.000000   0.000000
    9       27.039322     27.740914   0.000000   0.000000
   10       33.803473     33.737423   0.000000   0.000000
   11       37.995373     38.384376   0.000000   0.000000
   12       39.605981     40.071345   0.000000   0.000000
 
  0.2500000E+00  0.1500000E+00  0.5000000E-01  0.4800000E-01
    1        1.603110      2.400825   1.000000   1.000000
    2        2.799070      4.514488   1.000000   1.000000
    3        3.381981      4.820547   1.000000   1.000000
    4        5.098713      7.659891   1.000000  -0.000000
    5        5.367653      8.083541   1.000000  -0.000000
    6        7.407833      9.290618  -0.000000  -0.000000
    7       18.374928     19.241758   0.000000   0.000000
    8       21.549841     22.163373   0.000000   0.000000
    9       25.175024     25.788926   0.000000   0.000000
   10       34.100580     34.195243   0.000000   0.000000
   11       38.775573     39.117033   0.000000   0.000000
   12       40.311085     40.749742   0.000000   0.000000
 
  0.3500000E+00  0.1500000E+00  0.5000000E-01  0.4800000E-01
    1        1.680781      2.984882   1.000000   1.000000
    2        2.657606      4.334814   1.000000   1.000000
    3        4.151886      5.361093   1.000000   1.000000
    4        5.219379      7.782353   1.000000  -0.000000
    5        5.469573      8.147821   1.000002  -0.000000
    6        9.228038     10.680222  -0.000000  -0.000000
    7       14.727256     15.912588   0.000000   0.000000
    8       20.695592     21.302457   0.000000   0.000000
    9       24.233539     24.805152   0.000000   0.000000
   10       33.997952     34.197325   0.000000   0.000000
   11       39.549331     39.947545   0.000000   0.000000
   12       40.437306     40.698462   0.000000   0.000000
 
 -0.1500000E+00  0.1500000E+00  0.5000000E-01  0.2400000E-01
    1       -1.438761     -1.224509   1.000000   1.000000
    2        3.603604      5.507058   1.000000   1.000007
    3        3.756639      5.669046   1.000000   1.000651
    4        4.288487      6.285086   1.000000   0.155508
    5        4.823428      7.426886   1.000000  -0.000000
    6        5.243756      7.970980   1.000000  -0.000000
    7       27.097875     27.407247   0.000000   0.000000
    8       29.787511     29.894663   0.000000   0.000000
    9       30.605260     30.795151   0.000000   0.000000
   10       34.473526     34.848617   0.000000   0.000000
   11       34.860079     35.583640   0.000000   0.000000
   12       35.811579     36.428060   0.000000   0.000000
 
  0.2500000E+00  0.2500000E+00  0.5000000E-01  0.2400000E-01
    1        2.149057      3.426989   1.000000   1.000000
    2        2.718294      4.309546   1.000000   1.000000
    3        3.357332      4.711607   1.000000   1.000000
    4        5.213342      7.783661   1.000000  -0.000000
    5        5.459851      8.127349   1.000001  -0.000000
    6        9.633806     11.158626  -0.000000  -0.000000
    7       16.668236     17.601143   0.000000   0.000000
    8       17.796644     18.599239   0.000000   0.000000
    9       24.028590     24.619017   0.000000   0.000000
   10       35.513139     35.594729   0.000000   0.000000
   11       38.502427     38.716606   0.000000   0.000000
   12       44.646637     44.948554   0.000000   0.000000
 
  0.3500000E+00  0.2500000E+00  0.5000000E-01  0.2400000E-01
    1        2.192304      3.656128   1.000000   1.000000
    2        2.765933      4.319702   1.000000   1.000000
    3        3.420234      4.789789   1.000000   1.000000
    4        5.312849      7.898805   1.000000  -0.000000
    5        5.460641      8.086703   1.000001  -0.000000
    6       11.774807     12.947325   0.000000   0.000000
    7       14.125697     15.273731   0.000000   0.000000
    8       17.035402     17.870150   0.000000   0.000000
    9       23.672153     24.266463   0.000000   0.000000
   10       36.069175     36.188130   0.000000   0.000000
   11       38.412969     38.508937   0.000000   0.000000
   12       44.331196     44.856242   0.000000   0.000000
 
 -0.2500000E+00  0.2500000E+00  0.5000000E-01  0.2400000E-01
    1       -0.070030      0.237053   1.000000   1.000000
    2        3.264321      5.105445   1.000000   1.000000
    3        3.642804      5.430195   1.000000   1.000000
    4        4.829645      7.147481   1.000000  -0.000000
    5        5.071152      7.324544   1.000000  -0.000000
    6        5.322973      8.049023   1.000000  -0.000000
    7       22.476817     23.147900   0.000000   0.000000
    8       27.587978     27.754915   0.000000   0.000000
    9       29.238058     29.777665   0.000000   0.000000
   10       32.653203     33.201660   0.000000   0.000000
   11       34.410729     34.980954   0.000000   0.000000
   12       36.467845     36.774975   0.000000   0.000000
 
 -0.1500000E+00  0.2500000E+00  0.5000000E-01  0.2400000E-01
    1       -0.347734     -0.087342   1.000000   1.000000
    2        3.516677      5.372039   1.000000   1.000000
    3        3.523252      5.413672   1.000000   1.000000
    4        4.620020      6.911578   1.000000  -0.000002
    5        4.877972      7.105688   1.000000  -0.000000
    6        5.399579      8.126386   1.000000  -0.000000
    7       24.661548     25.159403   0.000000   0.000000
    8       26.013385     26.525610   0.000000   0.000000
    9       30.683750     30.885636   0.000000   0.000000
   10       31.781838     32.396099   0.000000   0.000000
   11       34.447994     34.845105   0.000000   0.000000
   12       37.800875     38.249559   0.000000   0.000000
 
 -0.3500000E+00  0.3500000E+00  0.5000000E-01  0.2400000E-01
    1        0.970738      1.746589   1.000000   1.000000
    2        2.941312      4.726114   1.000000   1.000000
    3        4.129251      5.470447   1.000000   1.000002
    4        5.086015      7.494705   1.000000  -0.000000
    5        5.574706      8.119985   1.000054  -0.000000
    6        5.939252      8.172132   1.035108  -0.000000
    7       17.942231     18.898317   0.000000   0.000000
    8       25.836332     25.992661   0.000000   0.000000
    9       27.512383     28.162062   0.000000   0.000000
   10       31.568338     32.075614   0.000000   0.000000
   11       34.338731     34.937973   0.000000   0.000000
   12       38.344257     38.624936   0.000000   0.000000
 
 -0.2500000E+00  0.3500000E+00  0.5000000E-01  0.4800000E-01
    1        0.948752      1.455879   1.000000   1.000000
    2        3.137690      4.959710   1.000000   1.000000
    3        3.477336      5.182499   1.000000   1.000000
    4        4.762427      7.148522   1.000000  -0.000000
    5        5.468379      7.844351   1.000002  -0.000000
    6        6.028372      8.360333   0.996960  -0.000000
    7       20.454863     21.239353   0.000000   0.000000
    8       23.669423     24.228212   0.000000   0.000000
    9       28.946056     29.376824   0.000000   0.000000
   10       31.420496     31.826087   0.000000   0.000000
   11       34.984291     35.393698   0.000000   0.000000
   12       38.431594     38.880110   0.000000   0.000000
 
 -0.4500000E+00  0.4500000E+00  0.5000000E-01  0.2400000E-01
    1        1.136603      2.394890   1.000000   1.000000
    2        2.748267      4.501059   1.000000   1.000000
    3        4.814670      6.243776   1.000000   0.296638
    4        5.154869      7.629153   1.000000  -0.000000
    5        6.533196      8.479785  -0.018734  -0.000000
    6        6.821380      8.797851  -0.000043  -0.000000
    7       14.478703     15.781444   0.000000   0.000000
    8       24.882050     25.014297   0.000000   0.000000
    9       26.334331     26.947406   0.000000   0.000000
   10       31.175025     31.719207   0.000000   0.000000
   11       34.492450     35.142607   0.000000   0.000000
   12       39.543880     39.680032   0.000000   0.000000
 
 -0.3500000E+00  0.4500000E+00  0.5000000E-01  0.4800000E-01
    1        1.450695      2.577144   1.000000   1.000000
    2        2.933824      4.688842   1.000000   1.000000
    3        3.847261      5.303186   1.000000   1.000000
    4        5.013733      7.406925   1.000000  -0.000000
    5        5.861623      8.267709   1.020225  -0.000000
    6        7.521783      9.339308  -0.000000  -0.000000
    7       16.224598     17.291284   0.000000   0.000000
    8       22.386419     22.948688   0.000000   0.000000
    9       27.287481     27.681607   0.000000   0.000000
   10       31.614225     32.096625   0.000000   0.000000
   11       36.077071     36.399410   0.000000   0.000000
   12       38.211835     38.683880   0.000000   0.000000
 
 -0.2500000E+00  0.4500000E+00  0.5000000E-01  0.2400000E-01
    1        1.840769      2.775654   1.000000   1.000000
    2        2.770903      4.532404   1.000000   1.000000
    3        3.474065      5.083729   1.000000   1.000000
    4        4.896569      7.256484   1.000000  -0.000000
    5        5.631831      8.129009   1.000258  -0.000000
    6        7.787189      9.627114  -0.000000  -0.000000
    7       18.556241     19.441020   0.000000   0.000000
    8       19.436098     20.175129   0.000000   0.000000
    9       28.553724     29.054407   0.000000   0.000000
   10       31.110843     31.364505   0.000000   0.000000
   11       34.890844     35.282185   0.000000   0.000000
   12       42.762290     43.151841   0.000000   0.000000
 
 -0.4500000E+00 -0.4500000E+00  0.5000000E-01  0.2400000E-01
    1        1.447871      2.814529   1.000000   1.000000
    2        2.866801      4.609235   1.000000   1.000000
    3        4.105692      5.609991   1.000000   1.000145
    4        5.049191      7.488857   1.000000  -0.000000
    5        6.175540      8.476214   0.577958  -0.000000
    6        8.842389     10.208764  -0.000000  -0.000000
    7       13.942809     15.288490   0.000000   0.000000
    8       21.924233     22.477744   0.000000   0.000000
    9       26.697940     27.065464   0.000000   0.000000
   10       31.686906     32.207095   0.000000   0.000000
   11       37.190695     37.324092   0.000000   0.000000
   12       37.598258     38.161990   0.000000   0.000000
 
 -0.3500000E+00 -0.4500000E+00  0.5000000E-01  0.4800000E-01
    1        2.046902      3.455476   1.000000   1.000000
    2        2.815792      4.489699   1.000000   1.000000
    3        3.377425      4.932524   1.000000   1.000000
    4        5.133253      7.514998   1.000000  -0.000000
    5        5.784077      8.177164   1.006782  -0.000000
    6       10.186105     11.570837  -0.000000  -0.000000
    7       14.989929     16.101676   0.000000   0.000000
    8       18.226525     19.002836   0.000000   0.000000
    9       27.840719     28.318792   0.000000   0.000000
   10       31.823907     32.141941   0.000000   0.000000
   11       34.973430     35.191987   0.000000   0.000000
   12       41.874549     42.588968   0.000000   0.000000
 
 -0.3500000E+00 -0.3500000E+00  0.5000000E-01  0.8000000E-02
    1        2.531709      4.112842   1.000000   1.000000
    2        2.830986      4.415181   1.000000   1.000000
    3        2.831012      4.415262   1.000000   1.000000
    4        5.495605      7.873724   1.000005  -0.000000
    5        5.495702      7.873882   1.000005  -0.000000
    6       13.220042     14.350599   0.000000   0.000000
    7       13.220056     14.350750   0.000000   0.000000
    8       15.998302     16.936109   0.000000   0.000000
    9       27.992034     28.548407   0.000000   0.000000
   10       33.247083     33.449309   0.000000   0.000000
   11       33.247181     33.449373   0.000000   0.000000
   12       41.544601     42.488000   0.000000   0.000000
 
  0.1500000E+00  0.1500000E+00  0.1500000E+00  0.8000000E-02
    1        1.854820      2.367617   1.000000   1.000000
    2        2.794177      4.487955   1.000000   1.000000
    3        2.794177      4.487955   1.000000   1.000000
    4        5.228842      7.914723   1.000000  -0.000000
    5        5.228842      7.914723   1.000000  -0.000000
    6        7.434228      9.333702  -0.000000  -0.000000
    7       20.785643     21.450324   0.000000   0.000000
    8       20.785643     21.450324   0.000000   0.000000
    9       22.701635     23.458436   0.000000   0.000000
   10       36.691519     36.489016   0.000000   0.000000
   11       40.938529     41.231738   0.000000   0.000000
   12       40.938529     41.231738   0.000000   0.000000
 
  0.2500000E+00  0.1500000E+00  0.1500000E+00  0.2400000E-01
    1        2.252331      3.434019   1.000000   1.000000
    2        2.627862      4.249721   1.000000   1.000000
    3        3.277242      4.543949   1.000000   1.000000
    4        5.286641      7.957259   1.000000  -0.000000
    5        5.337309      8.094917   1.000000  -0.000000
    6        9.431043     10.994026  -0.000000  -0.000000
    7       16.875810     17.784065   0.000000   0.000000
    8       19.716520     20.394427   0.000000   0.000000
    9       20.918592     21.620023   0.000000   0.000000
   10       37.835694     37.783539   0.000000   0.000000
   11       41.880516     42.181445   0.000000   0.000000
   12       43.154514     43.267344   0.000000   0.000000
 
  0.3500000E+00  0.1500000E+00  0.1500000E+00  0.1200000E-01
    1        2.154348      3.529892   1.000000   1.000000
    2        2.574403      4.170985   1.000000   1.000000
    3        3.741564      4.973502   1.000000   1.000000
    4        5.325262      7.992328   1.000000  -0.000000
    5        5.370935      8.154590   1.000000  -0.000000
    6       11.245545     12.421761  -0.000000   0.000000
    7       14.241898     15.426281   0.000000   0.000000
    8       19.339634     20.020266   0.000000   0.000000
    9       20.424005     21.108471   0.000000   0.000000
   10       37.868035     37.899027   0.000000   0.000000
   11       42.610984     43.079982   0.000000   0.000000
   12       43.201499     43.301384   0.000000   0.000000
 
 -0.1500000E+00  0.1500000E+00  0.1500000E+00  0.6000000E-02
    1       -0.682919     -0.444951   1.000000   1.000000
    2        3.857894      5.758710   1.000000   1.004335
    3        3.857973      5.758888   1.000000   1.004350
    4        4.296952      6.308079   1.000000   0.093836
    5        4.302851      6.778653   1.000000  -0.000143
    6        5.470112      8.208967   1.000002  -0.000000
    7       26.575498     26.844322   0.000000   0.000000
    8       28.445387     28.945965   0.000000   0.000000
    9       28.445390     28.946109   0.000000   0.000000
   10       30.210506     30.653582   0.000000   0.000000
   11       37.121960     37.524889   0.000000   0.000000
   12       37.121972     37.524895   0.000000   0.000000
 
  0.2500000E+00  0.2500000E+00  0.1500000E+00  0.2400000E-01
    1        2.457644      3.929213   1.000000   1.000000
    2        2.778405      4.246908   1.000000   1.000000
    3        3.172014      4.470654   1.000000   1.000000
    4        5.354767      8.081090   1.000000  -0.000000
    5        5.380593      8.143286   1.000000  -0.000000
    6       12.104571     13.301302   0.000000   0.000000
    7       15.477236     16.425462   0.000000   0.000000
    8       16.757742     17.613266   0.000000   0.000000
    9       19.706239     20.397782   0.000000   0.000000
   10       40.502692     40.462526   0.000000   0.000000
   11       42.354003     42.420925   0.000000   0.000000
   12       45.976068     46.091759   0.000000   0.000000
 
 -0.2500000E+00  0.2500000E+00  0.1500000E+00  0.2400000E-01
    1        0.551053      0.918612   1.000000   1.000000
    2        3.522141      5.516344   1.000000   1.000009
    3        3.699390      5.565414   1.000000   1.000041
    4        4.338569      6.540469   1.000000  -0.017172
    5        4.979276      7.044854   1.000000  -0.000000
    6        5.774884      8.412414   1.005794  -0.000000
    7       23.041950     23.700916   0.000000   0.000000
    8       26.290682     26.764503   0.000000   0.000000
    9       26.376588     26.926096   0.000000   0.000000
   10       30.172238     30.627158   0.000000   0.000000
   11       36.538219     36.995846   0.000000   0.000000
   12       37.871630     38.264935   0.000000   0.000000
 
 -0.3500000E+00  0.3500000E+00  0.1500000E+00  0.2400000E-01
    1        1.462008      2.319920   1.000000   1.000000
    2        3.248634      5.033573   1.000000   1.000000
    3        3.438184      5.258953   1.000000   1.000000
    4        4.746447      6.944635   1.000000  -0.000001
    5        5.861256      8.030252   1.020142  -0.000000
    6        6.705745      8.863252  -0.000888  -0.000000
    7       18.467043     19.375839   0.000000   0.000000
    8       24.472519     25.123877   0.000000   0.000000
    9       25.098289     25.488393   0.000000   0.000000
   10       31.748424     32.147450   0.000000   0.000000
   11       35.454992     35.945292   0.000000   0.000000
   12       37.783899     38.250991   0.000000   0.000000
 
 -0.2500000E+00  0.3500000E+00  0.1500000E+00  0.2400000E-01
    1        1.532861      2.227297   1.000000   1.000000
    2        2.960072      4.944158   1.000000   1.000000
    3        3.835969      5.656952   1.000000   1.000486
    4        4.492234      6.596942   1.000000  -0.007628
    5        5.522897      7.714714   1.000011  -0.000000
    6        6.701390      8.903740  -0.000981  -0.000000
    7       21.004091     21.794000   0.000000   0.000000
    8       21.746115     22.423193   0.000000   0.000000
    9       27.286549     27.736630   0.000000   0.000000
   10       28.869812     29.329090   0.000000   0.000000
   11       36.086040     36.561010   0.000000   0.000000
   12       41.360115     41.744833   0.000000   0.000000
 
 -0.4500000E+00  0.4500000E+00  0.1500000E+00  0.2400000E-01
    1        1.557937      2.938744   1.000000   1.000000
    2        3.272061      5.065806   1.000000   1.000000
    3        3.460625      5.082077   1.000000   1.000000
    4        4.828332      7.121771   1.000000  -0.000000
    5        6.478370      8.735389  -0.030956  -0.000000
    6        8.663728     10.073644  -0.000000  -0.000000
    7       14.734650     15.945143   0.000000   0.000000
    8       23.378465     23.994593   0.000000   0.000000
    9       24.408531     24.800145   0.000000   0.000000
   10       33.805483     34.081419   0.000000   0.000000
   11       34.866776     35.377759   0.000000   0.000000
   12       36.726199     37.274202   0.000000   0.000000
 
 -0.3500000E+00  0.4500000E+00  0.1500000E+00  0.4800000E-01
    1        1.946332      3.224541   1.000000   1.000000
    2        2.720402      4.488200   1.000000   1.000000
    3        3.629361      5.438947   1.000000   1.000001
    4        4.851949      7.013159   1.000000  -0.000000
    5        6.029221      8.274291   0.995971  -0.000000
    6        8.777849     10.360360  -0.000000  -0.000000
    7       16.900024     17.866569   0.000000   0.000000
    8       20.133418     20.848987   0.000000   0.000000
    9       26.723877     27.167999   0.000000   0.000000
   10       30.314093     30.706044   0.000000   0.000000
   11       35.016477     35.500267   0.000000   0.000000
   12       39.895914     40.612017   0.000000   0.000000
 
 -0.4500000E+00 -0.4500000E+00  0.1500000E+00  0.2400000E-01
    1        1.884111      3.452721   1.000000   1.000000
    2        2.893570      4.546890   1.000000   1.000000
    3        3.433964      5.227940   1.000000   1.000000
    4        4.951141      7.142997   1.000000  -0.000000
    5        6.301921      8.552514   0.109062  -0.000000
    6       10.755760     11.929251  -0.000000   0.000000
    7       14.172478     15.383857   0.000000   0.000000
    8       19.630852     20.332088   0.000000   0.000000
    9       26.353745     26.793984   0.000000   0.000000
   10       32.055780     32.306050   0.000000   0.000000
   11       33.746166     34.325344   0.000000   0.000000
   12       38.575290     39.369289   0.000000   0.000000
 
 -0.3500000E+00 -0.4500000E+00  0.1500000E+00  0.2400000E-01
    1        2.334540      3.959848   1.000000   1.000000
    2        2.391365      4.099195   1.000000   1.000000
    3        3.351576      5.091003   1.000000   1.000000
    4        5.379100      7.554665   1.000000  -0.000000
    5        5.930044      8.161627   1.034233  -0.000000
    6       11.697138     12.909814   0.000000   0.000000
    7       15.307166     16.326984   0.000000   0.000000
    8       16.702878     17.539770   0.000000   0.000000
    9       28.758303     29.135598   0.000000   0.000000
   10       29.795751     30.175039   0.000000   0.000000
   11       32.921063     33.467360   0.000000   0.000000
   12       38.604231     39.453016   0.000000   0.000000
 
  0.2500000E+00  0.2500000E+00  0.2500000E+00  0.2000000E-02
    1        2.823773      4.244035   1.000000   1.000000
    2        2.823773      4.244035   1.000000   1.000000
    3        2.823842      4.244191   1.000000   1.000000
    4        5.383742      8.171338   1.000000  -0.000000
    5        5.383742      8.171338   1.000000  -0.000000
    6       15.067246     16.018170   0.000000   0.000000
    7       15.067246     16.018170   0.000000   0.000000
    8       15.067323     16.018425   0.000000   0.000000
    9       17.456007     18.221309   0.000000   0.000000
   10       45.843284     45.658497   0.000000   0.000000
   11       45.843327     45.658501   0.000000   0.000000
   12       45.843435     45.658535   0.000000   0.000000
 
 -0.2500000E+00  0.2500000E+00  0.2500000E+00  0.6000000E-02
    1        1.397101      2.016797   1.000000   1.000000
    2        3.105703      5.295793   1.000000   1.000000
    3        4.263348      6.149185   1.000000   0.684653
    4        4.263435      6.149369   1.000000   0.683936
    5        5.040264      7.127207   1.000000  -0.000000
    6        6.503180      8.829193  -0.025579  -0.000000
    7       23.751539     24.420874   0.000000   0.000000
    8       23.751587     24.420945   0.000000   0.000000
    9       24.102536     24.714079   0.000000   0.000000
   10       26.608527     27.079252   0.000000   0.000000
   11       40.855509     41.228784   0.000000   0.000000
   12       40.855657     41.228820   0.000000   0.000000
 
 -0.3500000E+00  0.3500000E+00  0.2500000E+00  0.2400000E-01
    1        1.880060      3.010382   1.000000   1.000000
    2        2.515308      4.505666   1.000000   1.000000
    3        4.303310      6.196109   1.000000   0.491294
    4        4.662960      6.647684   1.000000  -0.003062
    5        5.748559      7.905382   1.003584  -0.000000
    6        8.074212      9.784313  -0.000000  -0.000000
    7       19.433959     20.234245   0.000000   0.000000
    8       21.729610     22.371963   0.000000   0.000000
    9       24.127324     24.763916   0.000000   0.000000
   10       27.145955     27.647245   0.000000   0.000000
   11       38.663414     39.388273   0.000000   0.000000
   12       39.744530     40.216774   0.000000   0.000000
 
 -0.4500000E+00  0.4500000E+00  0.2500000E+00  0.2400000E-01
    1        1.840121      3.470547   1.000000   1.000000
    2        2.362905      4.101157   1.000000   1.000000
    3        4.216529      6.099545   1.000000   0.854642
    4        4.841045      6.873967   1.000000  -0.000008
    5        6.388069      8.633505  -0.021738  -0.000000
    6       10.658068     11.831066  -0.000000   0.000000
    7       15.385900     16.392942   0.000000   0.000000
    8       20.543624     21.131063   0.000000   0.000000
    9       23.822700     24.481943   0.000000   0.000000
   10       29.113114     29.510126   0.000000   0.000000
   11       35.198837     36.056547   0.000000   0.000000
   12       39.104111     39.570358   0.000000   0.000000
 
 -0.3500000E+00  0.4500000E+00  0.2500000E+00  0.2400000E-01
    1        1.948563      3.475468   1.000000   1.000000
    2        2.037252      3.932707   1.000000   1.000000
    3        4.384051      6.267787   1.000000   0.210265
    4        5.228829      7.260607   1.000000  -0.000000
    5        6.088536      8.290044   0.884867  -0.000000
    6       10.472486     11.692186  -0.000000   0.000000
    7       17.746034     18.572683   0.000000   0.000000
    8       18.301077     18.989355   0.000000   0.000000
    9       25.007334     25.625078   0.000000   0.000000
   10       26.747482     27.274824   0.000000   0.000000
   11       34.691372     35.520681   0.000000   0.000000
   12       40.002565     40.496584   0.000000   0.000000
 
 -0.4500000E+00 -0.4500000E+00  0.2500000E+00  0.2400000E-01
    1        1.822400      3.608032   1.000000   1.000000
    2        1.982309      3.725638   1.000000   1.000000