Automatically generated mesh
      44
Reciprocal lattice
    0.05000000000000    0.05000000000000    0.05000000000000             8
    0.15000000000000    0.05000000000000    0.05000000000000            24
    0.25000000000000    0.05000000000000    0.05000000000000            24
    0.35000000000000    0.05000000000000    0.05000000000000            24
    0.45000000000000    0.05000000000000    0.05000000000000            12
   -0.05000000000000    0.05000000000000    0.05000000000000             6
    0.15000000000000    0.15000000000000    0.05000000000000            24
    0.25000000000000    0.15000000000000    0.05000000000000            48
    0.35000000000000    0.15000000000000    0.05000000000000            48
   -0.15000000000000    0.15000000000000    0.05000000000000            24
    0.25000000000000    0.25000000000000    0.05000000000000            24
    0.35000000000000    0.25000000000000    0.05000000000000            24
   -0.25000000000000    0.25000000000000    0.05000000000000            24
   -0.15000000000000    0.25000000000000    0.05000000000000            24
   -0.35000000000000    0.35000000000000    0.05000000000000            24
   -0.25000000000000    0.35000000000000    0.05000000000000            48
   -0.45000000000000    0.45000000000000    0.05000000000000            24
   -0.35000000000000    0.45000000000000    0.05000000000000            48
   -0.25000000000000    0.45000000000000    0.05000000000000            24
   -0.45000000000000   -0.45000000000000    0.05000000000000            24
   -0.35000000000000   -0.45000000000000    0.05000000000000            48
   -0.35000000000000   -0.35000000000000    0.05000000000000             8
    0.15000000000000    0.15000000000000    0.15000000000000             8
    0.25000000000000    0.15000000000000    0.15000000000000            24
    0.35000000000000    0.15000000000000    0.15000000000000            12
   -0.15000000000000    0.15000000000000    0.15000000000000             6
    0.25000000000000    0.25000000000000    0.15000000000000            24
   -0.25000000000000    0.25000000000000    0.15000000000000            24
   -0.35000000000000    0.35000000000000    0.15000000000000            24
   -0.25000000000000    0.35000000000000    0.15000000000000            24
   -0.45000000000000    0.45000000000000    0.15000000000000            24
   -0.35000000000000    0.45000000000000    0.15000000000000            48
   -0.45000000000000   -0.45000000000000    0.15000000000000            24
   -0.35000000000000   -0.45000000000000    0.15000000000000            24
    0.25000000000000    0.25000000000000    0.25000000000000             2
   -0.25000000000000    0.25000000000000    0.25000000000000             6
   -0.35000000000000    0.35000000000000    0.25000000000000            24
   -0.45000000000000    0.45000000000000    0.25000000000000            24
   -0.35000000000000    0.45000000000000    0.25000000000000            24
   -0.45000000000000   -0.45000000000000    0.25000000000000            24
   -0.35000000000000    0.35000000000000    0.35000000000000             6
   -0.45000000000000    0.45000000000000    0.35000000000000            24
   -0.45000000000000   -0.45000000000000    0.35000000000000             8
   -0.45000000000000    0.45000000000000    0.45000000000000             6
