 running on    4 total cores
 distrk:  each k-point on    4 cores,    1 groups
 distr:  one band on    1 cores,    4 groups
 using from now: INCAR     
 vasp.5.4.4.18Apr17-6-g9f103f2a35 (build Jul 01 2019 03:25:34) complex          
  
 POSCAR found type information on POSCAR  Fe
 POSCAR found :  1 types and       1 ions
 scaLAPACK will be used
 LDA part: xc-table for Pade appr. of Perdew
 POSCAR, INCAR and KPOINTS ok, starting setup
 FFT: planning ...
 WAVECAR not read
 entering main loop
       N       E                     dE             d eps       ncg     rms          rms(c)
DAV:   1     0.100158329153E+02    0.10016E+02   -0.26575E+03  2396   0.465E+02
DAV:   2    -0.881854133870E+01   -0.18834E+02   -0.17321E+02  2212   0.933E+01
DAV:   3    -0.909356215156E+01   -0.27502E+00   -0.27439E+00  2484   0.129E+01
DAV:   4    -0.909420434450E+01   -0.64219E-03   -0.64214E-03  2352   0.581E-01
DAV:   5    -0.909420707913E+01   -0.27346E-05   -0.27336E-05  1948   0.397E-02    0.117E+01
DAV:   6    -0.828452488532E+01    0.80968E+00   -0.94413E+00  2376   0.356E+01    0.454E+00
DAV:   7    -0.823683249332E+01    0.47692E-01   -0.42300E-01  2448   0.736E+00    0.290E+00
DAV:   8    -0.822949681772E+01    0.73357E-02   -0.60434E-03  2452   0.470E-01    0.137E+00
DAV:   9    -0.822322575493E+01    0.62711E-02   -0.63776E-03  2796   0.410E-01    0.275E-01
DAV:  10    -0.822327390278E+01   -0.48148E-04   -0.72139E-04  2352   0.313E-01
   1 F= -.82232739E+01 E0= -.82224598E+01  d E =-.244227E-02  mag=     2.1995
 writing wavefunctions
