 vasp.5.4.4.18Apr17-6-g9f103f2a35 (build Jul 01 2019 03:25:34) complex          
  
 executed on             LinuxIFC date 2020.07.08  18:32:07
 running on    4 total cores
 distrk:  each k-point on    4 cores,    1 groups
 distr:  one band on NCORES_PER_BAND=   1 cores,    4 groups


--------------------------------------------------------------------------------------------------------


 INCAR:
 POTCAR:    PAW_PBE Fe 06Sep2000                  
 POTCAR:    PAW_PBE Fe 06Sep2000                  
   VRHFIN =Fe:  d7 s1                                                           
   LEXCH  = PE                                                                  
   EATOM  =   594.3153 eV,   43.6809 Ry                                         
                                                                                
   TITEL  = PAW_PBE Fe 06Sep2000                                                
   LULTRA =        F    use ultrasoft PP ?                                      
   IUNSCR =        1    unscreen: 0-lin 1-nonlin 2-no                           
   RPACOR =    2.000    partial core radius                                     
   POMASS =   55.847; ZVAL   =    8.000    mass and valenz                      
   RCORE  =    2.300    outmost cutoff radius                                   
   RWIGS  =    2.460; RWIGS  =    1.302    wigner-seitz radius (au A)           
   ENMAX  =  267.882; ENMIN  =  200.911 eV                                      
   RCLOC  =    1.701    cutoff for local pot                                    
   LCOR   =        T    correct aug charges                                     
   LPAW   =        T    paw PP                                                  
   EAUG   =  511.368                                                            
   DEXC   =    0.000                                                            
   RMAX   =    2.356    core radius for proj-oper                               
   RAUG   =    1.300    factor for augmentation sphere                          
   RDEP   =    2.442    radius for radial grids                                 
   RDEPT  =    1.890    core radius for aug-charge                              
                                                                                
   Atomic configuration                                                         
    9 entries                                                                   
     n  l   j            E        occ.                                          
     1  0  0.50     -6993.8440   2.0000                                         
     2  0  0.50      -814.6047   2.0000                                         
     2  1  1.50      -693.3689   6.0000                                         
     3  0  0.50       -89.4732   2.0000                                         
     3  1  1.50       -55.6373   6.0000                                         
     3  2  2.50        -3.8151   7.0000                                         
     4  0  0.50        -4.2551   1.0000                                         
     4  1  1.50        -3.4015   0.0000                                         
     4  3  2.50        -1.3606   0.0000                                         
   Description                                                                  
     l       E           TYP  RCUT    TYP  RCUT                                 
     2     -3.8151135     23  2.300                                             
     2     -5.1756961     23  2.300                                             
     0     -4.2550963     23  2.300                                             
     0      7.2035603     23  2.300                                             
     1     -2.7211652     23  2.300                                             
     1     18.4316424     23  2.300                                             
  local pseudopotential read in
  partial core-charges read in
  partial kinetic energy density read in
  atomic valenz-charges read in
  non local Contribution for L=           2  read in
    real space projection operators read in
  non local Contribution for L=           2  read in
    real space projection operators read in
  non local Contribution for L=           0  read in
    real space projection operators read in
  non local Contribution for L=           0  read in
    real space projection operators read in
  non local Contribution for L=           1  read in
    real space projection operators read in
  non local Contribution for L=           1  read in
    real space projection operators read in
    PAW grid and wavefunctions read in
 
   number of l-projection  operators is LMAX  =           6
   number of lm-projection operators is LMMAX =          18
 
  PAW_PBE Fe 06Sep2000                  :
 energy of atom  1       EATOM= -594.3153
 kinetic energy error for atom=    0.0345 (will be added to EATOM!!)
 
 
 POSCAR: BCC Fe Bulk                             
  positions in direct lattice
  No initial velocities read in
 exchange correlation table for  LEXCH =        8
   RHO(1)=    0.500       N(1)  =     2000
   RHO(2)=  100.500       N(2)  =     4000
 


--------------------------------------------------------------------------------------------------------


 ion  position               nearest neighbor table
   1  0.000  0.000  0.000-
 
  LATTYP: Found a body centered cubic cell.
 ALAT       =     2.8000000000
  
  Lattice vectors:
  
 A1 = (  -1.4000000000,   1.4000000000,   1.4000000000)
 A2 = (   1.4000000000,  -1.4000000000,   1.4000000000)
 A3 = (   1.4000000000,   1.4000000000,  -1.4000000000)


Analysis of symmetry for initial positions (statically):
=====================================================================
 Subroutine PRICEL returns:
 Original cell was already a primitive cell.
 

 Routine SETGRP: Setting up the symmetry group for a 
 body centered cubic supercell.


 Subroutine GETGRP returns: Found 48 space group operations
 (whereof 48 operations were pure point group operations)
 out of a pool of 48 trial point group operations.


The static configuration has the point symmetry O_h .


Analysis of symmetry for dynamics (positions and initial velocities):
=====================================================================
 Subroutine PRICEL returns:
 Original cell was already a primitive cell.
 

 Routine SETGRP: Setting up the symmetry group for a 
 body centered cubic supercell.


 Subroutine GETGRP returns: Found 48 space group operations
 (whereof 48 operations were pure point group operations)
 out of a pool of 48 trial point group operations.


The dynamic configuration has the point symmetry O_h .


Analysis of structural, dynamic, and magnetic symmetry:
=====================================================================
 Subroutine PRICEL returns:
 Original cell was already a primitive cell.
 

 Routine SETGRP: Setting up the symmetry group for a 
 body centered cubic supercell.


 Subroutine GETGRP returns: Found 48 space group operations
 (whereof 48 operations were pure point group operations)
 out of a pool of 48 trial point group operations.


The magnetic configuration has the point symmetry O_h .


 Subroutine INISYM returns: Found 48 space group operations
 (whereof 48 operations are pure point group operations),
 and found     1 'primitive' translations

 
 
 KPOINTS: 10x10x10                                

Automatic generation of k-mesh.
Space group operators:
 irot       det(A)        alpha          n_x          n_y          n_z        tau_x        tau_y        tau_z
    1     1.000000     0.000000     1.000000     0.000000     0.000000     0.000000     0.000000     0.000000
    2    -1.000000     0.000000     1.000000     0.000000     0.000000     0.000000     0.000000     0.000000
    3     1.000000   120.000000    -0.577350    -0.577350    -0.577350     0.000000     0.000000     0.000000
    4    -1.000000   120.000000    -0.577350    -0.577350    -0.577350     0.000000     0.000000     0.000000
    5     1.000000   120.000000     0.577350     0.577350     0.577350     0.000000     0.000000     0.000000
    6    -1.000000   120.000000     0.577350     0.577350     0.577350     0.000000     0.000000     0.000000
    7     1.000000    90.000000     0.000000     0.000000    -1.000000     0.000000     0.000000     0.000000
    8    -1.000000    90.000000     0.000000     0.000000    -1.000000     0.000000     0.000000     0.000000
    9     1.000000   180.000000     0.000000     0.707107     0.707107     0.000000     0.000000     0.000000
   10    -1.000000   180.000000     0.000000     0.707107     0.707107     0.000000     0.000000     0.000000
   11     1.000000    90.000000     0.000000     1.000000     0.000000     0.000000     0.000000     0.000000
   12    -1.000000    90.000000     0.000000     1.000000     0.000000     0.000000     0.000000     0.000000
   13     1.000000   180.000000     0.000000     0.000000     1.000000     0.000000     0.000000     0.000000
   14    -1.000000   180.000000     0.000000     0.000000     1.000000     0.000000     0.000000     0.000000
   15     1.000000   120.000000    -0.577350     0.577350     0.577350     0.000000     0.000000     0.000000
   16    -1.000000   120.000000    -0.577350     0.577350     0.577350     0.000000     0.000000     0.000000
   17     1.000000   120.000000    -0.577350     0.577350    -0.577350     0.000000     0.000000     0.000000
   18    -1.000000   120.000000    -0.577350     0.577350    -0.577350     0.000000     0.000000     0.000000
   19     1.000000    90.000000     0.000000     0.000000     1.000000     0.000000     0.000000     0.000000
   20    -1.000000    90.000000     0.000000     0.000000     1.000000     0.000000     0.000000     0.000000
   21     1.000000    90.000000    -1.000000     0.000000     0.000000     0.000000     0.000000     0.000000
   22    -1.000000    90.000000    -1.000000     0.000000     0.000000     0.000000     0.000000     0.000000
   23     1.000000   180.000000     0.707107     0.000000     0.707107     0.000000     0.000000     0.000000
   24    -1.000000   180.000000     0.707107     0.000000     0.707107     0.000000     0.000000     0.000000
   25     1.000000   120.000000     0.577350    -0.577350     0.577350     0.000000     0.000000     0.000000
   26    -1.000000   120.000000     0.577350    -0.577350     0.577350     0.000000     0.000000     0.000000
   27     1.000000   120.000000    -0.577350    -0.577350     0.577350     0.000000     0.000000     0.000000
   28    -1.000000   120.000000    -0.577350    -0.577350     0.577350     0.000000     0.000000     0.000000
   29     1.000000   180.000000     1.000000     0.000000     0.000000     0.000000     0.000000     0.000000
   30    -1.000000   180.000000     1.000000     0.000000     0.000000     0.000000     0.000000     0.000000
   31     1.000000    90.000000     0.000000    -1.000000     0.000000     0.000000     0.000000     0.000000
   32    -1.000000    90.000000     0.000000    -1.000000     0.000000     0.000000     0.000000     0.000000
   33     1.000000   180.000000     0.707107     0.707107     0.000000     0.000000     0.000000     0.000000
   34    -1.000000   180.000000     0.707107     0.707107     0.000000     0.000000     0.000000     0.000000
   35     1.000000    90.000000     1.000000     0.000000     0.000000     0.000000     0.000000     0.000000
   36    -1.000000    90.000000     1.000000     0.000000     0.000000     0.000000     0.000000     0.000000
   37     1.000000   120.000000     0.577350    -0.577350    -0.577350     0.000000     0.000000     0.000000
   38    -1.000000   120.000000     0.577350    -0.577350    -0.577350     0.000000     0.000000     0.000000
   39     1.000000   180.000000     0.000000     1.000000     0.000000     0.000000     0.000000     0.000000
   40    -1.000000   180.000000     0.000000     1.000000     0.000000     0.000000     0.000000     0.000000
   41     1.000000   120.000000     0.577350     0.577350    -0.577350     0.000000     0.000000     0.000000
   42    -1.000000   120.000000     0.577350     0.577350    -0.577350     0.000000     0.000000     0.000000
   43     1.000000   180.000000     0.000000    -0.707107     0.707107     0.000000     0.000000     0.000000
   44    -1.000000   180.000000     0.000000    -0.707107     0.707107     0.000000     0.000000     0.000000
   45     1.000000   180.000000     0.707107    -0.707107     0.000000     0.000000     0.000000     0.000000
   46    -1.000000   180.000000     0.707107    -0.707107     0.000000     0.000000     0.000000     0.000000
   47     1.000000   180.000000     0.707107     0.000000    -0.707107     0.000000     0.000000     0.000000
   48    -1.000000   180.000000     0.707107     0.000000    -0.707107     0.000000     0.000000     0.000000
 
 Subroutine IBZKPT returns following result:
 ===========================================
 
 Found     44 irreducible k-points:
 
 Following reciprocal coordinates:
            Coordinates               Weight
  0.050000  0.050000  0.050000      8.000000
  0.150000  0.050000  0.050000     24.000000
  0.250000  0.050000  0.050000     24.000000
  0.350000  0.050000  0.050000     24.000000
  0.450000  0.050000  0.050000     12.000000
 -0.050000  0.050000  0.050000      6.000000
  0.150000  0.150000  0.050000     24.000000
  0.250000  0.150000  0.050000     48.000000
  0.350000  0.150000  0.050000     48.000000
 -0.150000  0.150000  0.050000     24.000000
  0.250000  0.250000  0.050000     24.000000
  0.350000  0.250000  0.050000     24.000000
 -0.250000  0.250000  0.050000     24.000000
 -0.150000  0.250000  0.050000     24.000000
 -0.350000  0.350000  0.050000     24.000000
 -0.250000  0.350000  0.050000     48.000000
 -0.450000  0.450000  0.050000     24.000000
 -0.350000  0.450000  0.050000     48.000000
 -0.250000  0.450000  0.050000     24.000000
 -0.450000 -0.450000  0.050000     24.000000
 -0.350000 -0.450000  0.050000     48.000000
 -0.350000 -0.350000  0.050000      8.000000
  0.150000  0.150000  0.150000      8.000000
  0.250000  0.150000  0.150000     24.000000
  0.350000  0.150000  0.150000     12.000000
 -0.150000  0.150000  0.150000      6.000000
  0.250000  0.250000  0.150000     24.000000
 -0.250000  0.250000  0.150000     24.000000
 -0.350000  0.350000  0.150000     24.000000
 -0.250000  0.350000  0.150000     24.000000
 -0.450000  0.450000  0.150000     24.000000
 -0.350000  0.450000  0.150000     48.000000
 -0.450000 -0.450000  0.150000     24.000000
 -0.350000 -0.450000  0.150000     24.000000
  0.250000  0.250000  0.250000      2.000000
 -0.250000  0.250000  0.250000      6.000000
 -0.350000  0.350000  0.250000     24.000000
 -0.450000  0.450000  0.250000     24.000000
 -0.350000  0.450000  0.250000     24.000000
 -0.450000 -0.450000  0.250000     24.000000
 -0.350000  0.350000  0.350000      6.000000
 -0.450000  0.450000  0.350000     24.000000
 -0.450000 -0.450000  0.350000      8.000000
 -0.450000  0.450000  0.450000      6.000000
 
 Following cartesian coordinates:
            Coordinates               Weight
  0.100000  0.100000  0.100000      8.000000
  0.100000  0.200000  0.200000     24.000000
  0.100000  0.300000  0.300000     24.000000
  0.100000  0.400000  0.400000     24.000000
  0.100000  0.500000  0.500000     12.000000
  0.100000  0.000000  0.000000      6.000000
  0.200000  0.200000  0.300000     24.000000
  0.200000  0.300000  0.400000     48.000000
  0.200000  0.400000  0.500000     48.000000
  0.200000 -0.100000  0.000000     24.000000
  0.300000  0.300000  0.500000     24.000000
  0.300000  0.400000  0.600000     24.000000
  0.300000 -0.200000  0.000000     24.000000
  0.300000 -0.100000  0.100000     24.000000
  0.400000 -0.300000  0.000000     24.000000
  0.400000 -0.200000  0.100000     48.000000
  0.500000 -0.400000  0.000000     24.000000
  0.500000 -0.300000  0.100000     48.000000
  0.500000 -0.200000  0.200000     24.000000
 -0.400000 -0.400000 -0.900000     24.000000
 -0.400000 -0.300000 -0.800000     48.000000
 -0.300000 -0.300000 -0.700000      8.000000
  0.300000  0.300000  0.300000      8.000000
  0.300000  0.400000  0.400000     24.000000
  0.300000  0.500000  0.500000     12.000000
  0.300000  0.000000  0.000000      6.000000
  0.400000  0.400000  0.500000     24.000000
  0.400000 -0.100000  0.000000     24.000000
  0.500000 -0.200000  0.000000     24.000000
  0.500000 -0.100000  0.100000     24.000000
  0.600000 -0.300000  0.000000     24.000000
  0.600000 -0.200000  0.100000     48.000000
 -0.300000 -0.300000 -0.900000     24.000000
 -0.300000 -0.200000 -0.800000     24.000000
  0.500000  0.500000  0.500000      2.000000
  0.500000  0.000000  0.000000      6.000000
  0.600000 -0.100000  0.000000     24.000000
  0.700000 -0.200000  0.000000     24.000000
  0.700000 -0.100000  0.100000     24.000000
 -0.200000 -0.200000 -0.900000     24.000000
  0.700000  0.000000  0.000000      6.000000
  0.800000 -0.100000  0.000000     24.000000
 -0.100000 -0.100000 -0.900000      8.000000
  0.900000  0.000000  0.000000      6.000000
 


--------------------------------------------------------------------------------------------------------




 Dimension of arrays:
   k-points           NKPTS =     44   k-points in BZ     NKDIM =     44   number of bands    NBANDS=     12
   number of dos      NEDOS =    301   number of ions     NIONS =      1
   non local maximal  LDIM  =      6   non local SUM 2l+1 LMDIM =     18
   total plane-waves  NPLWV =   1000
   max r-space proj   IRMAX =      1   max aug-charges    IRDMAX=   3445
   dimension x,y,z NGX =    10 NGY =   10 NGZ =   10
   dimension x,y,z NGXF=    20 NGYF=   20 NGZF=   20
   support grid    NGXF=    20 NGYF=   20 NGZF=   20
   ions per type =               1
   NGX,Y,Z   is equivalent  to a cutoff of   6.86,  6.86,  6.86 a.u.
   NGXF,Y,Z  is equivalent  to a cutoff of  13.71, 13.71, 13.71 a.u.

 SYSTEM =  bcc Fe                                  
 POSCAR =  BCC Fe Bulk                             

 Startparameter for this run:
   NWRITE =      2    write-flag & timer
   PREC   = normal    normal or accurate (medium, high low for compatibility)
   ISTART =      0    job   : 0-new  1-cont  2-samecut
   ICHARG =      2    charge: 1-file 2-atom 10-const
   ISPIN  =      2    spin polarized calculation?
   LNONCOLLINEAR =      F non collinear calculations
   LSORBIT =      F    spin-orbit coupling
   INIWAV =      1    electr: 0-lowe 1-rand  2-diag
   LASPH  =      F    aspherical Exc in radial PAW
   METAGGA=      F    non-selfconsistent MetaGGA calc.

 Electronic Relaxation 1
   ENCUT  =  268.0 eV  19.70 Ry    4.44 a.u.   3.24  3.24  3.24*2*pi/ulx,y,z
   ENINI  =  268.0     initial cutoff
   ENAUG  =  511.4 eV  augmentation charge cutoff
   NELM   =     60;   NELMIN=  2; NELMDL= -5     # of ELM steps 
   EDIFF  = 0.1E-03   stopping-criterion for ELM
   LREAL  =      F    real-space projection
   NLSPLINE    = F    spline interpolate recip. space projectors
   LCOMPAT=      F    compatible to vasp.4.4
   GGA_COMPAT  = T    GGA compatible to vasp.4.4-vasp.4.6
   LMAXPAW     = -100 max onsite density
   LMAXMIX     =    2 max onsite mixed and CHGCAR
   VOSKOWN=      0    Vosko Wilk Nusair interpolation
   ROPT   =    0.00000
 Ionic relaxation
   EDIFFG = 0.1E-02   stopping-criterion for IOM
   NSW    =      0    number of steps for IOM
   NBLOCK =      1;   KBLOCK =      1    inner block; outer block 
   IBRION =     -1    ionic relax: 0-MD 1-quasi-New 2-CG
   NFREE  =      0    steps in history (QN), initial steepest desc. (CG)
   ISIF   =      2    stress and relaxation
   IWAVPR =     10    prediction:  0-non 1-charg 2-wave 3-comb
   ISYM   =      2    0-nonsym 1-usesym 2-fastsym
   LCORR  =      T    Harris-Foulkes like correction to forces

   POTIM  = 0.5000    time-step for ionic-motion
   TEIN   =    0.0    initial temperature
   TEBEG  =    0.0;   TEEND  =   0.0 temperature during run
   SMASS  =  -3.00    Nose mass-parameter (am)
   estimated Nose-frequenzy (Omega)   =  0.10E-29 period in steps =****** mass=  -0.134E-27a.u.
   SCALEE = 1.0000    scale energy and forces
   NPACO  =    256;   APACO  = 16.0  distance and # of slots for P.C.
   PSTRESS=    0.0 pullay stress

  Mass of Ions in am
   POMASS =  55.85
  Ionic Valenz
   ZVAL   =   8.00
  Atomic Wigner-Seitz radii
   RWIGS  =  -1.00
  virtual crystal weights 
   VCA    =   1.00
   NELECT =       8.0000    total number of electrons
   NUPDOWN=      -1.0000    fix difference up-down

 DOS related values:
   EMIN   =  10.00;   EMAX   =-10.00  energy-range for DOS
   EFERMI =   0.00
   ISMEAR =     1;   SIGMA  =   0.20  broadening in eV -4-tet -1-fermi 0-gaus

 Electronic relaxation 2 (details)
   IALGO  =     38    algorithm
   LDIAG  =      T    sub-space diagonalisation (order eigenvalues)
   LSUBROT=      F    optimize rotation matrix (better conditioning)
   TURBO    =      0    0=normal 1=particle mesh
   IRESTART =      0    0=no restart 2=restart with 2 vectors
   NREBOOT  =      0    no. of reboots
   NMIN     =      0    reboot dimension
   EREF     =   0.00    reference energy to select bands
   IMIX   =      4    mixing-type and parameters
     AMIX     =   0.40;   BMIX     =  1.00
     AMIX_MAG =   1.60;   BMIX_MAG =  1.00
     AMIN     =   0.10
     WC   =   100.;   INIMIX=   1;  MIXPRE=   1;  MAXMIX= -45

 Intra band minimization:
   WEIMIN = 0.0000     energy-eigenvalue tresh-hold
   EBREAK =  0.21E-05  absolut break condition
   DEPER  =   0.30     relativ break condition  

   TIME   =   0.40     timestep for ELM

  volume/ion in A,a.u.               =      10.98        74.07
  Fermi-wavevector in a.u.,A,eV,Ry     =   1.473296  2.784126 29.532837  2.170602
  Thomas-Fermi vector in A             =   2.588207
 
 Write flags
   LWAVE        =      T    write WAVECAR
   LDOWNSAMPLE  =      F    k-point downsampling of WAVECAR
   LCHARG       =      T    write CHGCAR
   LVTOT        =      F    write LOCPOT, total local potential
   LVHAR        =      F    write LOCPOT, Hartree potential only
   LELF         =      F    write electronic localiz. function (ELF)
   LORBIT       =      0    0 simple, 1 ext, 2 COOP (PROOUT), +10 PAW based schemes


 Dipole corrections
   LMONO  =      F    monopole corrections only (constant potential shift)
   LDIPOL =      F    correct potential (dipole corrections)
   IDIPOL =      0    1-x, 2-y, 3-z, 4-all directions 
   EPSILON=  1.0000000 bulk dielectric constant

 Exchange correlation treatment:
   GGA     =    --    GGA type
   LEXCH   =     8    internal setting for exchange type
   VOSKOWN=      0    Vosko Wilk Nusair interpolation
   LHFCALC =     F    Hartree Fock is set to
   LHFONE  =     F    Hartree Fock one center treatment
   AEXX    =    0.0000 exact exchange contribution

 Linear response parameters
   LEPSILON=     F    determine dielectric tensor
   LRPA    =     F    only Hartree local field effects (RPA)
   LNABLA  =     F    use nabla operator in PAW spheres
   LVEL    =     F    velocity operator in full k-point grid
   LINTERFAST=   F  fast interpolation
   KINTER  =     0    interpolate to denser k-point grid
   CSHIFT  =0.1000    complex shift for real part using Kramers Kronig
   OMEGAMAX=  -1.0    maximum frequency
   DEG_THRESHOLD= 0.2000000E-02 threshold for treating states as degnerate
   RTIME   =   -0.100 relaxation time in fs
  (WPLASMAI=    0.000 imaginary part of plasma frequency in eV, 0.658/RTIME)
   DFIELD  = 0.0000000 0.0000000 0.0000000 field for delta impulse in time
 
 Orbital magnetization related:
   ORBITALMAG=     F  switch on orbital magnetization
   LCHIMAG   =     F  perturbation theory with respect to B field
   DQ        =  0.001000  dq finite difference perturbation B field
   LLRAUG    =     F  two centre corrections for induced B field



--------------------------------------------------------------------------------------------------------


 Static calculation
 charge density and potential will be updated during run
 spin polarized calculation
 Variant of blocked Davidson
 Davidson routine will perform the subspace rotation
 perform sub-space diagonalisation
    after iterative eigenvector-optimisation
 modified Broyden-mixing scheme, WC =      100.0
 initial mixing is a Kerker type mixing with AMIX =  0.4000 and BMIX =      1.0000
 Hartree-type preconditioning will be used
 using additional bands            8
 reciprocal scheme for non local part
 use partial core corrections
 calculate Harris-corrections to forces 
   (improved forces if not selfconsistent)
 use gradient corrections 
 use of overlap-Matrix (Vanderbilt PP)
 Methfessel and Paxton  Order N= 1 SIGMA  =   0.20


--------------------------------------------------------------------------------------------------------


  energy-cutoff  :      268.00
  volume of cell :       10.98
      direct lattice vectors                 reciprocal lattice vectors
    -1.400000000  1.400000000  1.400000000     0.000000000  0.357142857  0.357142857
     1.400000000 -1.400000000  1.400000000     0.357142857  0.000000000  0.357142857
     1.400000000  1.400000000 -1.400000000     0.357142857  0.357142857  0.000000000

  length of vectors
     2.424871131  2.424871131  2.424871131     0.505076272  0.505076272  0.505076272


 
 k-points in units of 2pi/SCALE and weight: 10x10x10                                
   0.10000000  0.10000000  0.10000000       0.008
   0.10000000  0.20000000  0.20000000       0.024
   0.10000000  0.30000000  0.30000000       0.024
   0.10000000  0.40000000  0.40000000       0.024
   0.10000000  0.50000000  0.50000000       0.012
   0.10000000  0.00000000  0.00000000       0.006
   0.20000000  0.20000000  0.30000000       0.024
   0.20000000  0.30000000  0.40000000       0.048
   0.20000000  0.40000000  0.50000000       0.048
   0.20000000 -0.10000000  0.00000000       0.024
   0.30000000  0.30000000  0.50000000       0.024
   0.30000000  0.40000000  0.60000000       0.024
   0.30000000 -0.20000000  0.00000000       0.024
   0.30000000 -0.10000000  0.10000000       0.024
   0.40000000 -0.30000000  0.00000000       0.024
   0.40000000 -0.20000000  0.10000000       0.048
   0.50000000 -0.40000000  0.00000000       0.024
   0.50000000 -0.30000000  0.10000000       0.048
   0.50000000 -0.20000000  0.20000000       0.024
  -0.40000000 -0.40000000 -0.90000000       0.024
  -0.40000000 -0.30000000 -0.80000000       0.048
  -0.30000000 -0.30000000 -0.70000000       0.008
   0.30000000  0.30000000  0.30000000       0.008
   0.30000000  0.40000000  0.40000000       0.024
   0.30000000  0.50000000  0.50000000       0.012
   0.30000000  0.00000000  0.00000000       0.006
   0.40000000  0.40000000  0.50000000       0.024
   0.40000000 -0.10000000  0.00000000       0.024
   0.50000000 -0.20000000  0.00000000       0.024
   0.50000000 -0.10000000  0.10000000       0.024
   0.60000000 -0.30000000  0.00000000       0.024
   0.60000000 -0.20000000  0.10000000       0.048
  -0.30000000 -0.30000000 -0.90000000       0.024
  -0.30000000 -0.20000000 -0.80000000       0.024
   0.50000000  0.50000000  0.50000000       0.002
   0.50000000  0.00000000  0.00000000       0.006
   0.60000000 -0.10000000  0.00000000       0.024
   0.70000000 -0.20000000  0.00000000       0.024
   0.70000000 -0.10000000  0.10000000       0.024
  -0.20000000 -0.20000000 -0.90000000       0.024
   0.70000000  0.00000000  0.00000000       0.006
   0.80000000 -0.10000000  0.00000000       0.024
  -0.10000000 -0.10000000 -0.90000000       0.008
   0.90000000  0.00000000  0.00000000       0.006
 
 k-points in reciprocal lattice and weights: 10x10x10                                
   0.05000000  0.05000000  0.05000000       0.008
   0.15000000  0.05000000  0.05000000       0.024
   0.25000000  0.05000000  0.05000000       0.024
   0.35000000  0.05000000  0.05000000       0.024
   0.45000000  0.05000000  0.05000000       0.012
  -0.05000000  0.05000000  0.05000000       0.006
   0.15000000  0.15000000  0.05000000       0.024
   0.25000000  0.15000000  0.05000000       0.048
   0.35000000  0.15000000  0.05000000       0.048
  -0.15000000  0.15000000  0.05000000       0.024
   0.25000000  0.25000000  0.05000000       0.024
   0.35000000  0.25000000  0.05000000       0.024
  -0.25000000  0.25000000  0.05000000       0.024
  -0.15000000  0.25000000  0.05000000       0.024
  -0.35000000  0.35000000  0.05000000       0.024
  -0.25000000  0.35000000  0.05000000       0.048
  -0.45000000  0.45000000  0.05000000       0.024
  -0.35000000  0.45000000  0.05000000       0.048
  -0.25000000  0.45000000  0.05000000       0.024
  -0.45000000 -0.45000000  0.05000000       0.024
  -0.35000000 -0.45000000  0.05000000       0.048
  -0.35000000 -0.35000000  0.05000000       0.008
   0.15000000  0.15000000  0.15000000       0.008
   0.25000000  0.15000000  0.15000000       0.024
   0.35000000  0.15000000  0.15000000       0.012
  -0.15000000  0.15000000  0.15000000       0.006
   0.25000000  0.25000000  0.15000000       0.024
  -0.25000000  0.25000000  0.15000000       0.024
  -0.35000000  0.35000000  0.15000000       0.024
  -0.25000000  0.35000000  0.15000000       0.024
  -0.45000000  0.45000000  0.15000000       0.024
  -0.35000000  0.45000000  0.15000000       0.048
  -0.45000000 -0.45000000  0.15000000       0.024
  -0.35000000 -0.45000000  0.15000000       0.024
   0.25000000  0.25000000  0.25000000       0.002
  -0.25000000  0.25000000  0.25000000       0.006
  -0.35000000  0.35000000  0.25000000       0.024
  -0.45000000  0.45000000  0.25000000       0.024
  -0.35000000  0.45000000  0.25000000       0.024
  -0.45000000 -0.45000000  0.25000000       0.024
  -0.35000000  0.35000000  0.35000000       0.006
  -0.45000000  0.45000000  0.35000000       0.024
  -0.45000000 -0.45000000  0.35000000       0.008
  -0.45000000  0.45000000  0.45000000       0.006
 
 position of ions in fractional coordinates (direct lattice) 
   0.00000000  0.00000000  0.00000000
 
 position of ions in cartesian coordinates  (Angst):
   0.00000000  0.00000000  0.00000000
 


--------------------------------------------------------------------------------------------------------


 k-point  1 :   0.0500 0.0500 0.0500  plane waves:     105
 k-point  2 :   0.1500 0.0500 0.0500  plane waves:     110
 k-point  3 :   0.2500 0.0500 0.0500  plane waves:     109
 k-point  4 :   0.3500 0.0500 0.0500  plane waves:     110
 k-point  5 :   0.4500 0.0500 0.0500  plane waves:     112
 k-point  6 :  -0.0500 0.0500 0.0500  plane waves:     111
 k-point  7 :   0.1500 0.1500 0.0500  plane waves:     109
 k-point  8 :   0.2500 0.1500 0.0500  plane waves:     108
 k-point  9 :   0.3500 0.1500 0.0500  plane waves:     111
 k-point 10 :  -0.1500 0.1500 0.0500  plane waves:     109
 k-point 11 :   0.2500 0.2500 0.0500  plane waves:     106
 k-point 12 :   0.3500 0.2500 0.0500  plane waves:     108
 k-point 13 :  -0.2500 0.2500 0.0500  plane waves:     108
 k-point 14 :  -0.1500 0.2500 0.0500  plane waves:     111
 k-point 15 :  -0.3500 0.3500 0.0500  plane waves:     109
 k-point 16 :  -0.2500 0.3500 0.0500  plane waves:     108
 k-point 17 :  -0.4500 0.4500 0.0500  plane waves:     111
 k-point 18 :  -0.3500 0.4500 0.0500  plane waves:     113
 k-point 19 :  -0.2500 0.4500 0.0500  plane waves:     110
 k-point 20 :  -0.4500-0.4500 0.0500  plane waves:     109
 k-point 21 :  -0.3500-0.4500 0.0500  plane waves:     110
 k-point 22 :  -0.3500-0.3500 0.0500  plane waves:     110
 k-point 23 :   0.1500 0.1500 0.1500  plane waves:     107
 k-point 24 :   0.2500 0.1500 0.1500  plane waves:     110
 k-point 25 :   0.3500 0.1500 0.1500  plane waves:     110
 k-point 26 :  -0.1500 0.1500 0.1500  plane waves:     112
 k-point 27 :   0.2500 0.2500 0.1500  plane waves:     107
 k-point 28 :  -0.2500 0.2500 0.1500  plane waves:     108
 k-point 29 :  -0.3500 0.3500 0.1500  plane waves:     108
 k-point 30 :  -0.2500 0.3500 0.1500  plane waves:     108
 k-point 31 :  -0.4500 0.4500 0.1500  plane waves:     108
 k-point 32 :  -0.3500 0.4500 0.1500  plane waves:     108
 k-point 33 :  -0.4500-0.4500 0.1500  plane waves:     110
 k-point 34 :  -0.3500-0.4500 0.1500  plane waves:     109
 k-point 35 :   0.2500 0.2500 0.2500  plane waves:     104
 k-point 36 :  -0.2500 0.2500 0.2500  plane waves:     108
 k-point 37 :  -0.3500 0.3500 0.2500  plane waves:     109
 k-point 38 :  -0.4500 0.4500 0.2500  plane waves:     107
 k-point 39 :  -0.3500 0.4500 0.2500  plane waves:     108
 k-point 40 :  -0.4500-0.4500 0.2500  plane waves:     110
 k-point 41 :  -0.3500 0.3500 0.3500  plane waves:     108
 k-point 42 :  -0.4500 0.4500 0.3500  plane waves:     112
 k-point 43 :  -0.4500-0.4500 0.3500  plane waves:     110
 k-point 44 :  -0.4500 0.4500 0.4500  plane waves:     116

 maximum and minimum number of plane-waves per node :       116      104

 maximum number of plane-waves:       116
 maximum index in each direction: 
   IXMAX=    3   IYMAX=    3   IZMAX=    3
   IXMIN=   -3   IYMIN=   -3   IZMIN=   -3


 serial   3D FFT for wavefunctions
 parallel 3D FFT for charge:
    minimum data exchange during FFTs selected (reduces bandwidth)


 total amount of memory used by VASP MPI-rank0    31803. kBytes
=======================================================================

   base      :      30000. kBytes
   nonl-proj :        736. kBytes
   fftplans  :        142. kBytes
   grid      :        320. kBytes
   one-center:         31. kBytes
   wavefun   :        574. kBytes
 
     INWAV:  cpu time    0.0000: real time    0.0000
 Broyden mixing: mesh for mixing (old mesh)
   NGX =  7   NGY =  7   NGZ =  7
  (NGX  = 20   NGY  = 20   NGZ  = 20)
  gives a total of    343 points

 initial charge density was supplied:
 charge density of overlapping atoms calculated
 number of electron       8.0000000 magnetization       3.0000000
 keeping initial charge density in first step


--------------------------------------------------------------------------------------------------------


 Maximum index for augmentation-charges          813 (set IRDMAX)


--------------------------------------------------------------------------------------------------------


 First call to EWALD:  gamma=   0.798
 Maximum number of real-space cells 3x 3x 3
 Maximum number of reciprocal cells 3x 3x 3

    FEWALD:  cpu time    0.0011: real time    0.0011


--------------------------------------- Iteration      1(   1)  ---------------------------------------


    POTLOK:  cpu time    0.0032: real time    0.0043
    SETDIJ:  cpu time    0.0039: real time    0.0039
     EDDAV:  cpu time    0.1241: real time    0.1271
       DOS:  cpu time    0.0009: real time    0.0009
    --------------------------------------------
      LOOP:  cpu time    0.1321: real time    0.1362

 eigenvalue-minimisations  :  2396
 total energy-change (2. order) : 0.1001583E+02  (-0.2657523E+03)
 number of electron       8.0000000 magnetization       3.0000000
 augmentation part        8.0000000 magnetization       3.0000000

 Free energy of the ion-electron system (eV)
  ---------------------------------------------------
  alpha Z        PSCENC =        62.96809038
  Ewald energy   TEWEN  =      -598.90499562
  -Hartree energ DENC   =      -108.91249834
  -exchange      EXHF   =         0.00000000
  -V(xc)+E(xc)   XCENC  =         5.18098948
  PAW double counting   =       553.75926685     -561.48528711
  entropy T*S    EENTRO =        -0.00268777
  eigenvalues    EBANDS =        63.13211008
  atomic energy  EATOM  =       594.28084496
  Solvation  Ediel_sol  =         0.00000000
  ---------------------------------------------------
  free energy    TOTEN  =        10.01583292 eV

  energy without entropy =       10.01852068  energy(sigma->0) =       10.01672884


--------------------------------------------------------------------------------------------------------




--------------------------------------- Iteration      1(   2)  ---------------------------------------


     EDDAV:  cpu time    0.1051: real time    0.1075
       DOS:  cpu time    0.0009: real time    0.0008
    --------------------------------------------
      LOOP:  cpu time    0.1060: real time    0.1083

 eigenvalue-minimisations  :  2212
 total energy-change (2. order) :-0.1883437E+02  (-0.1732061E+02)
 number of electron       8.0000000 magnetization       3.0000000
 augmentation part        8.0000000 magnetization       3.0000000

 Free energy of the ion-electron system (eV)
  ---------------------------------------------------
  alpha Z        PSCENC =        62.96809038
  Ewald energy   TEWEN  =      -598.90499562
  -Hartree energ DENC   =      -108.91249834
  -exchange      EXHF   =         0.00000000
  -V(xc)+E(xc)   XCENC  =         5.18098948
  PAW double counting   =       553.75926685     -561.48528711
  entropy T*S    EENTRO =         0.00024763
  eigenvalues    EBANDS =        44.29480043
  atomic energy  EATOM  =       594.28084496
  Solvation  Ediel_sol  =         0.00000000
  ---------------------------------------------------
  free energy    TOTEN  =        -8.81854134 eV

  energy without entropy =       -8.81878897  energy(sigma->0) =       -8.81862388


--------------------------------------------------------------------------------------------------------




--------------------------------------- Iteration      1(   3)  ---------------------------------------


     EDDAV:  cpu time    0.1205: real time    0.1245
       DOS:  cpu time    0.0010: real time    0.0010
    --------------------------------------------
      LOOP:  cpu time    0.1215: real time    0.1255

 eigenvalue-minimisations  :  2484
 total energy-change (2. order) :-0.2750208E+00  (-0.2743943E+00)
 number of electron       8.0000000 magnetization       3.0000000
 augmentation part        8.0000000 magnetization       3.0000000

 Free energy of the ion-electron system (eV)
  ---------------------------------------------------
  alpha Z        PSCENC =        62.96809038
  Ewald energy   TEWEN  =      -598.90499562
  -Hartree energ DENC   =      -108.91249834
  -exchange      EXHF   =         0.00000000
  -V(xc)+E(xc)   XCENC  =         5.18098948
  PAW double counting   =       553.75926685     -561.48528711
  entropy T*S    EENTRO =         0.00114021
  eigenvalues    EBANDS =        44.01888704
  atomic energy  EATOM  =       594.28084496
  Solvation  Ediel_sol  =         0.00000000
  ---------------------------------------------------
  free energy    TOTEN  =        -9.09356215 eV

  energy without entropy =       -9.09470236  energy(sigma->0) =       -9.09394222


--------------------------------------------------------------------------------------------------------




--------------------------------------- Iteration      1(   4)  ---------------------------------------


     EDDAV:  cpu time    0.1180: real time    0.1246
       DOS:  cpu time    0.0009: real time    0.0009
    --------------------------------------------
      LOOP:  cpu time    0.1188: real time    0.1254

 eigenvalue-minimisations  :  2352
 total energy-change (2. order) :-0.6421929E-03  (-0.6421428E-03)
 number of electron       8.0000000 magnetization       3.0000000
 augmentation part        8.0000000 magnetization       3.0000000

 Free energy of the ion-electron system (eV)
  ---------------------------------------------------
  alpha Z        PSCENC =        62.96809038
  Ewald energy   TEWEN  =      -598.90499562
  -Hartree energ DENC   =      -108.91249834
  -exchange      EXHF   =         0.00000000
  -V(xc)+E(xc)   XCENC  =         5.18098948
  PAW double counting   =       553.75926685     -561.48528711
  entropy T*S    EENTRO =         0.00114164
  eigenvalues    EBANDS =        44.01824341
  atomic energy  EATOM  =       594.28084496
  Solvation  Ediel_sol  =         0.00000000
  ---------------------------------------------------
  free energy    TOTEN  =        -9.09420434 eV

  energy without entropy =       -9.09534598  energy(sigma->0) =       -9.09458489


--------------------------------------------------------------------------------------------------------




--------------------------------------- Iteration      1(   5)  ---------------------------------------


     EDDAV:  cpu time    0.0984: real time    0.1009
       DOS:  cpu time    0.0009: real time    0.0009
    CHARGE:  cpu time    0.0021: real time    0.0021
    MIXING:  cpu time    0.0002: real time    0.0002
    --------------------------------------------
      LOOP:  cpu time    0.1017: real time    0.1041

 eigenvalue-minimisations  :  1948
 total energy-change (2. order) :-0.2734636E-05  (-0.2733631E-05)
 number of electron       8.0000137 magnetization       1.7765339
 augmentation part        3.6379726 magnetization       1.1648800

 Broyden mixing:
  rms(total) = 0.11748E+01    rms(broyden)= 0.11743E+01
  rms(prec ) = 0.33931E+01
  weight for this iteration     100.00

 Free energy of the ion-electron system (eV)
  ---------------------------------------------------
  alpha Z        PSCENC =        62.96809038
  Ewald energy   TEWEN  =      -598.90499562
  -Hartree energ DENC   =      -108.91249834
  -exchange      EXHF   =         0.00000000
  -V(xc)+E(xc)   XCENC  =         5.18098948
  PAW double counting   =       553.75926685     -561.48528711
  entropy T*S    EENTRO =         0.00114164
  eigenvalues    EBANDS =        44.01824067
  atomic energy  EATOM  =       594.28084496
  Solvation  Ediel_sol  =         0.00000000
  ---------------------------------------------------
  free energy    TOTEN  =        -9.09420708 eV

  energy without entropy =       -9.09534872  energy(sigma->0) =       -9.09458763


--------------------------------------------------------------------------------------------------------




--------------------------------------- Iteration      1(   6)  ---------------------------------------


    POTLOK:  cpu time    0.0027: real time    0.0028
    SETDIJ:  cpu time    0.0033: real time    0.0033
     EDDAV:  cpu time    0.1100: real time    0.1124
       DOS:  cpu time    0.0009: real time    0.0009
    CHARGE:  cpu time    0.0020: real time    0.0021
    MIXING:  cpu time    0.0002: real time    0.0002
    --------------------------------------------
      LOOP:  cpu time    0.1191: real time    0.1217

 eigenvalue-minimisations  :  2376
 total energy-change (2. order) : 0.8096822E+00  (-0.9441294E+00)
 number of electron       8.0000163 magnetization       2.1345003
 augmentation part        4.2520524 magnetization       1.7659062

 Broyden mixing:
  rms(total) = 0.45386E+00    rms(broyden)= 0.45360E+00
  rms(prec ) = 0.62239E+00
  weight for this iteration     100.00

 eigenvalues of (default mixing * dielectric matrix)
  average eigenvalue GAMMA=   0.7791
  0.7791

 Free energy of the ion-electron system (eV)
  ---------------------------------------------------
  alpha Z        PSCENC =        62.96809038
  Ewald energy   TEWEN  =      -598.90499562
  -Hartree energ DENC   =       -92.84961903
  -exchange      EXHF   =         0.00000000
  -V(xc)+E(xc)   XCENC  =         4.02618349
  PAW double counting   =       616.71709749     -622.55515801
  entropy T*S    EENTRO =         0.00133238
  eigenvalues    EBANDS =        28.03169907
  atomic energy  EATOM  =       594.28084496
  Solvation  Ediel_sol  =         0.00000000
  ---------------------------------------------------
  free energy    TOTEN  =        -8.28452489 eV

  energy without entropy =       -8.28585727  energy(sigma->0) =       -8.28496901


--------------------------------------------------------------------------------------------------------




--------------------------------------- Iteration      1(   7)  ---------------------------------------


    POTLOK:  cpu time    0.0027: real time    0.0027
    SETDIJ:  cpu time    0.0032: real time    0.0032
     EDDAV:  cpu time    0.1120: real time    0.1144
       DOS:  cpu time    0.0009: real time    0.0009
    CHARGE:  cpu time    0.0022: real time    0.0022
    MIXING:  cpu time    0.0003: real time    0.0002
    --------------------------------------------
      LOOP:  cpu time    0.1212: real time    0.1237

 eigenvalue-minimisations  :  2448
 total energy-change (2. order) : 0.4769239E-01  (-0.4230030E-01)
 number of electron       8.0000158 magnetization       2.1447857
 augmentation part        4.1240148 magnetization       1.7567653

 Broyden mixing:
  rms(total) = 0.28988E+00    rms(broyden)= 0.28987E+00
  rms(prec ) = 0.38425E+00
  weight for this iteration     100.00

 eigenvalues of (default mixing * dielectric matrix)
  average eigenvalue GAMMA=   0.7995
  1.0452  0.5538

 Free energy of the ion-electron system (eV)
  ---------------------------------------------------
  alpha Z        PSCENC =        62.96809038
  Ewald energy   TEWEN  =      -598.90499562
  -Hartree energ DENC   =       -94.59871261
  -exchange      EXHF   =         0.00000000
  -V(xc)+E(xc)   XCENC  =         4.38799078
  PAW double counting   =       657.43477961     -664.94487433
  entropy T*S    EENTRO =        -0.00199574
  eigenvalues    EBANDS =        31.14204008
  atomic energy  EATOM  =       594.28084496
  Solvation  Ediel_sol  =         0.00000000
  ---------------------------------------------------
  free energy    TOTEN  =        -8.23683249 eV

  energy without entropy =       -8.23483675  energy(sigma->0) =       -8.23616725


--------------------------------------------------------------------------------------------------------




--------------------------------------- Iteration      1(   8)  ---------------------------------------


    POTLOK:  cpu time    0.0026: real time    0.0028
    SETDIJ:  cpu time    0.0031: real time    0.0031
     EDDAV:  cpu time    0.1138: real time    0.1162
       DOS:  cpu time    0.0009: real time    0.0009
    CHARGE:  cpu time    0.0024: real time    0.0024
    MIXING:  cpu time    0.0002: real time    0.0002
    --------------------------------------------
      LOOP:  cpu time    0.1231: real time    0.1256

 eigenvalue-minimisations  :  2452
 total energy-change (2. order) : 0.7335676E-02  (-0.6043392E-03)
 number of electron       8.0000158 magnetization       2.1950227
 augmentation part        4.1341361 magnetization       1.8035944

 Broyden mixing:
  rms(total) = 0.13680E+00    rms(broyden)= 0.13680E+00
  rms(prec ) = 0.20339E+00
  weight for this iteration     100.00

 eigenvalues of (default mixing * dielectric matrix)
  average eigenvalue GAMMA=   1.1683
  2.1073  0.7741  0.6233

 Free energy of the ion-electron system (eV)
  ---------------------------------------------------
  alpha Z        PSCENC =        62.96809038
  Ewald energy   TEWEN  =      -598.90499562
  -Hartree energ DENC   =       -93.81313647
  -exchange      EXHF   =         0.00000000
  -V(xc)+E(xc)   XCENC  =         4.37795391
  PAW double counting   =       683.14340594     -691.22084728
  entropy T*S    EENTRO =        -0.00236147
  eigenvalues    EBANDS =        30.94154883
  atomic energy  EATOM  =       594.28084496
  Solvation  Ediel_sol  =         0.00000000
  ---------------------------------------------------
  free energy    TOTEN  =        -8.22949682 eV

  energy without entropy =       -8.22713534  energy(sigma->0) =       -8.22870966


--------------------------------------------------------------------------------------------------------




--------------------------------------- Iteration      1(   9)  ---------------------------------------


    POTLOK:  cpu time    0.0027: real time    0.0027
    SETDIJ:  cpu time    0.0031: real time    0.0031
     EDDAV:  cpu time    0.1253: real time    0.1278
       DOS:  cpu time    0.0008: real time    0.0008
    CHARGE:  cpu time    0.0020: real time    0.0020
    MIXING:  cpu time    0.0002: real time    0.0002
    --------------------------------------------
      LOOP:  cpu time    0.1342: real time    0.1368

 eigenvalue-minimisations  :  2796
 total energy-change (2. order) : 0.6271063E-02  (-0.6377588E-03)
 number of electron       8.0000159 magnetization       2.2052939
 augmentation part        4.1492720 magnetization       1.8062623

 Broyden mixing:
  rms(total) = 0.27494E-01    rms(broyden)= 0.27460E-01
  rms(prec ) = 0.32323E-01
  weight for this iteration     100.00

 eigenvalues of (default mixing * dielectric matrix)
  average eigenvalue GAMMA=   1.3212
  2.7503  1.1085  0.8052  0.6210

 Free energy of the ion-electron system (eV)
  ---------------------------------------------------
  alpha Z        PSCENC =        62.96809038
  Ewald energy   TEWEN  =      -598.90499562
  -Hartree energ DENC   =       -92.59141403
  -exchange      EXHF   =         0.00000000
  -V(xc)+E(xc)   XCENC  =         4.40353960
  PAW double counting   =       728.70096649     -737.74464403
  entropy T*S    EENTRO =        -0.00247551
  eigenvalues    EBANDS =        30.66686201
  atomic energy  EATOM  =       594.28084496
  Solvation  Ediel_sol  =         0.00000000
  ---------------------------------------------------
  free energy    TOTEN  =        -8.22322575 eV

  energy without entropy =       -8.22075024  energy(sigma->0) =       -8.22240058


--------------------------------------------------------------------------------------------------------




--------------------------------------- Iteration      1(  10)  ---------------------------------------


    POTLOK:  cpu time    0.0027: real time    0.0028
    SETDIJ:  cpu time    0.0031: real time    0.0032
     EDDAV:  cpu time    0.1092: real time    0.1116
       DOS:  cpu time    0.0009: real time    0.0009
    --------------------------------------------
      LOOP:  cpu time    0.1159: real time    0.1184

 eigenvalue-minimisations  :  2352
 total energy-change (2. order) :-0.4814785E-04  (-0.7213864E-04)
 number of electron       8.0000159 magnetization       2.2052939
 augmentation part        4.1492720 magnetization       1.8062623

 Free energy of the ion-electron system (eV)
  ---------------------------------------------------
  alpha Z        PSCENC =        62.96809038
  Ewald energy   TEWEN  =      -598.90499562
  -Hartree energ DENC   =       -92.51303382
  -exchange      EXHF   =         0.00000000
  -V(xc)+E(xc)   XCENC  =         4.40753714
  PAW double counting   =       738.71448564     -747.94971467
  entropy T*S    EENTRO =        -0.00244227
  eigenvalues    EBANDS =        30.77595436
  atomic energy  EATOM  =       594.28084496
  Solvation  Ediel_sol  =         0.00000000
  ---------------------------------------------------
  free energy    TOTEN  =        -8.22327390 eV

  energy without entropy =       -8.22083164  energy(sigma->0) =       -8.22245981


--------------------------------------------------------------------------------------------------------




 average (electrostatic) potential at core
  the test charge radii are     1.0103
  (the norm of the test charge is              1.0000)
       1 -42.9816
 
 
 
 E-fermi :   6.1941     XC(G=0): -13.3114     alpha+bet :-14.1221


 spin component 1

 k-point     1 :       0.0500    0.0500    0.0500
  band No.  band energies     occupation 
      1      -1.8373      1.00000
      2       3.6659      1.00000
      3       3.6659      1.00000
      4       4.2106      1.00000
      5       5.0811      1.00000
      6       5.0811      1.00000
      7      29.0400      0.00000
      8      29.0400      0.00000
      9      32.1083      0.00000
     10      33.8707      0.00000
     11      37.3662      0.00000
     12      37.3662      0.00000

 k-point     2 :       0.1500    0.0500    0.0500
  band No.  band energies     occupation 
      1      -0.6935      1.00000
      2       3.3434      1.00000
      3       3.4978      1.00000
      4       4.9122      1.00000
      5       4.9690      1.00000
      6       5.1599      1.00000
      7      24.8253      0.00000
      8      27.1274      0.00000
      9      30.3566      0.00000
     10      32.4465      0.00000
     11      37.1999      0.00000
     12      37.4063      0.00000

 k-point     3 :       0.2500    0.0500    0.0500
  band No.  band energies     occupation 
      1       0.6789      1.00000
      2       2.9943      1.00000
      3       3.5803      1.00000
      4       5.0352      1.00000
      5       5.2445      1.00000
      6       5.8990      1.02873
      7      20.1829      0.00000
      8      25.3659      0.00000
      9      27.8506      0.00000
     10      32.1167      0.00000
     11      36.2287      0.00000
     12      39.4146      0.00000

 k-point     4 :       0.3500    0.0500    0.0500
  band No.  band energies     occupation 
      1       1.2070      1.00000
      2       2.7327      1.00000
      3       4.6837      1.00000
      4       5.1879      1.00000
      5       5.3183      1.00000
      6       7.0742     -0.00000
      7      16.0142      0.00000
      8      24.1405      0.00000
      9      26.1627      0.00000
     10      31.7663      0.00000
     11      35.9042      0.00000
     12      41.6510      0.00000

 k-point     5 :       0.4500    0.0500    0.0500
  band No.  band energies     occupation 
      1       1.2176      1.00000
      2       2.6364      1.00000
      3       5.2077      1.00000
      4       5.3441      1.00000
      5       5.4801      1.00000
      6       8.0159     -0.00000
      7      13.8865      0.00000
      8      23.7009      0.00000
      9      25.5422      0.00000
     10      31.6359      0.00000
     11      35.8746      0.00000
     12      41.5062      0.00000

 k-point     6 :      -0.0500    0.0500    0.0500
  band No.  band energies     occupation 
      1      -2.2517      1.00000
      2       3.7990      1.00000
      3       3.7990      1.00000
      4       3.8617      1.00000
      5       5.0380      1.00000
      6       5.1764      1.00000
      7      30.3275      0.00000
      8      31.3660      0.00000
      9      31.3660      0.00000
     10      35.2748      0.00000
     11      37.4637      0.00000
     12      37.4638      0.00000

 k-point     7 :       0.1500    0.1500    0.0500
  band No.  band energies     occupation 
      1       0.5914      1.00000
      2       3.0961      1.00000
      3       3.1342      1.00000
      4       4.9918      1.00000
      5       5.2565      1.00000
      6       5.9610      1.03487
      7      22.4759      0.00000
      8      23.4324      0.00000
      9      27.0393      0.00000
     10      33.8035      0.00000
     11      37.9954      0.00000
     12      39.6060      0.00000

 k-point     8 :       0.2500    0.1500    0.0500
  band No.  band energies     occupation 
      1       1.6031      1.00000
      2       2.7991      1.00000
      3       3.3820      1.00000
      4       5.0987      1.00000
      5       5.3677      1.00000
      6       7.4078     -0.00000
      7      18.3749      0.00000
      8      21.5498      0.00000
      9      25.1750      0.00000
     10      34.1006      0.00000
     11      38.7756      0.00000
     12      40.3111      0.00000

 k-point     9 :       0.3500    0.1500    0.0500
  band No.  band energies     occupation 
      1       1.6808      1.00000
      2       2.6576      1.00000
      3       4.1519      1.00000
      4       5.2194      1.00000
      5       5.4696      1.00000
      6       9.2280     -0.00000
      7      14.7273      0.00000
      8      20.6956      0.00000
      9      24.2335      0.00000
     10      33.9980      0.00000
     11      39.5493      0.00000
     12      40.4373      0.00000

 k-point    10 :      -0.1500    0.1500    0.0500
  band No.  band energies     occupation 
      1      -1.4388      1.00000
      2       3.6036      1.00000
      3       3.7566      1.00000
      4       4.2885      1.00000
      5       4.8234      1.00000
      6       5.2438      1.00000
      7      27.0979      0.00000
      8      29.7875      0.00000
      9      30.6053      0.00000
     10      34.4735      0.00000
     11      34.8601      0.00000
     12      35.8116      0.00000

 k-point    11 :       0.2500    0.2500    0.0500
  band No.  band energies     occupation 
      1       2.1491      1.00000
      2       2.7183      1.00000
      3       3.3573      1.00000
      4       5.2133      1.00000
      5       5.4599      1.00000
      6       9.6338     -0.00000
      7      16.6682      0.00000
      8      17.7966      0.00000
      9      24.0286      0.00000
     10      35.5131      0.00000
     11      38.5024      0.00000
     12      44.6466      0.00000

 k-point    12 :       0.3500    0.2500    0.0500
  band No.  band energies     occupation 
      1       2.1923      1.00000
      2       2.7659      1.00000
      3       3.4202      1.00000
      4       5.3128      1.00000
      5       5.4606      1.00000
      6      11.7748      0.00000
      7      14.1257      0.00000
      8      17.0354      0.00000
      9      23.6722      0.00000
     10      36.0692      0.00000
     11      38.4130      0.00000
     12      44.3312      0.00000

 k-point    13 :      -0.2500    0.2500    0.0500
  band No.  band energies     occupation 
      1      -0.0700      1.00000
      2       3.2643      1.00000
      3       3.6428      1.00000
      4       4.8296      1.00000
      5       5.0712      1.00000
      6       5.3230      1.00000
      7      22.4768      0.00000
      8      27.5880      0.00000
      9      29.2381      0.00000
     10      32.6532      0.00000
     11      34.4107      0.00000
     12      36.4678      0.00000

 k-point    14 :      -0.1500    0.2500    0.0500
  band No.  band energies     occupation 
      1      -0.3477      1.00000
      2       3.5167      1.00000
      3       3.5233      1.00000
      4       4.6200      1.00000
      5       4.8780      1.00000
      6       5.3996      1.00000
      7      24.6615      0.00000
      8      26.0134      0.00000
      9      30.6837      0.00000
     10      31.7818      0.00000
     11      34.4480      0.00000
     12      37.8009      0.00000

 k-point    15 :      -0.3500    0.3500    0.0500
  band No.  band energies     occupation 
      1       0.9707      1.00000
      2       2.9413      1.00000
      3       4.1293      1.00000
      4       5.0860      1.00000
      5       5.5747      1.00005
      6       5.9393      1.03511
      7      17.9422      0.00000
      8      25.8363      0.00000
      9      27.5124      0.00000
     10      31.5683      0.00000
     11      34.3387      0.00000
     12      38.3443      0.00000

 k-point    16 :      -0.2500    0.3500    0.0500
  band No.  band energies     occupation 
      1       0.9488      1.00000
      2       3.1377      1.00000
      3       3.4773      1.00000
      4       4.7624      1.00000
      5       5.4684      1.00000
      6       6.0284      0.99696
      7      20.4549      0.00000
      8      23.6694      0.00000
      9      28.9461      0.00000
     10      31.4205      0.00000
     11      34.9843      0.00000
     12      38.4316      0.00000

 k-point    17 :      -0.4500    0.4500    0.0500
  band No.  band energies     occupation 
      1       1.1366      1.00000
      2       2.7483      1.00000
      3       4.8147      1.00000
      4       5.1549      1.00000
      5       6.5332     -0.01873
      6       6.8214     -0.00004
      7      14.4787      0.00000
      8      24.8821      0.00000
      9      26.3343      0.00000
     10      31.1750      0.00000
     11      34.4924      0.00000
     12      39.5439      0.00000

 k-point    18 :      -0.3500    0.4500    0.0500
  band No.  band energies     occupation 
      1       1.4507      1.00000
      2       2.9338      1.00000
      3       3.8473      1.00000
      4       5.0137      1.00000
      5       5.8616      1.02022
      6       7.5218     -0.00000
      7      16.2246      0.00000
      8      22.3864      0.00000
      9      27.2875      0.00000
     10      31.6142      0.00000
     11      36.0771      0.00000
     12      38.2118      0.00000

 k-point    19 :      -0.2500    0.4500    0.0500
  band No.  band energies     occupation 
      1       1.8408      1.00000
      2       2.7709      1.00000
      3       3.4741      1.00000
      4       4.8966      1.00000
      5       5.6318      1.00026
      6       7.7872     -0.00000
      7      18.5562      0.00000
      8      19.4361      0.00000
      9      28.5537      0.00000
     10      31.1108      0.00000
     11      34.8908      0.00000
     12      42.7623      0.00000

 k-point    20 :      -0.4500   -0.4500    0.0500
  band No.  band energies     occupation 
      1       1.4479      1.00000
      2       2.8668      1.00000
      3       4.1057      1.00000
      4       5.0492      1.00000
      5       6.1755      0.57796
      6       8.8424     -0.00000
      7      13.9428      0.00000
      8      21.9242      0.00000
      9      26.6979      0.00000
     10      31.6869      0.00000
     11      37.1907      0.00000
     12      37.5983      0.00000

 k-point    21 :      -0.3500   -0.4500    0.0500
  band No.  band energies     occupation 
      1       2.0469      1.00000
      2       2.8158      1.00000
      3       3.3774      1.00000
      4       5.1333      1.00000
      5       5.7841      1.00678
      6      10.1861     -0.00000
      7      14.9899      0.00000
      8      18.2265      0.00000
      9      27.8407      0.00000
     10      31.8239      0.00000
     11      34.9734      0.00000
     12      41.8745      0.00000

 k-point    22 :      -0.3500   -0.3500    0.0500
  band No.  band energies     occupation 
      1       2.5317      1.00000
      2       2.8310      1.00000
      3       2.8310      1.00000
      4       5.4956      1.00000
      5       5.4957      1.00000
      6      13.2200      0.00000
      7      13.2201      0.00000
      8      15.9983      0.00000
      9      27.9920      0.00000
     10      33.2471      0.00000
     11      33.2472      0.00000
     12      41.5446      0.00000

 k-point    23 :       0.1500    0.1500    0.1500
  band No.  band energies     occupation 
      1       1.8548      1.00000
      2       2.7942      1.00000
      3       2.7942      1.00000
      4       5.2288      1.00000
      5       5.2288      1.00000
      6       7.4342     -0.00000
      7      20.7856      0.00000
      8      20.7856      0.00000
      9      22.7016      0.00000
     10      36.6915      0.00000
     11      40.9385      0.00000
     12      40.9385      0.00000

 k-point    24 :       0.2500    0.1500    0.1500
  band No.  band energies     occupation 
      1       2.2523      1.00000
      2       2.6279      1.00000
      3       3.2772      1.00000
      4       5.2866      1.00000
      5       5.3373      1.00000
      6       9.4310     -0.00000
      7      16.8758      0.00000
      8      19.7165      0.00000
      9      20.9186      0.00000
     10      37.8357      0.00000
     11      41.8805      0.00000
     12      43.1545      0.00000

 k-point    25 :       0.3500    0.1500    0.1500
  band No.  band energies     occupation 
      1       2.1543      1.00000
      2       2.5744      1.00000
      3       3.7416      1.00000
      4       5.3253      1.00000
      5       5.3709      1.00000
      6      11.2455     -0.00000
      7      14.2419      0.00000
      8      19.3396      0.00000
      9      20.4240      0.00000
     10      37.8680      0.00000
     11      42.6110      0.00000
     12      43.2015      0.00000

 k-point    26 :      -0.1500    0.1500    0.1500
  band No.  band energies     occupation 
      1      -0.6829      1.00000
      2       3.8579      1.00000
      3       3.8580      1.00000
      4       4.2970      1.00000
      5       4.3029      1.00000
      6       5.4701      1.00000
      7      26.5755      0.00000
      8      28.4454      0.00000
      9      28.4454      0.00000
     10      30.2105      0.00000
     11      37.1220      0.00000
     12      37.1220      0.00000

 k-point    27 :       0.2500    0.2500    0.1500
  band No.  band energies     occupation 
      1       2.4576      1.00000
      2       2.7784      1.00000
      3       3.1720      1.00000
      4       5.3548      1.00000
      5       5.3806      1.00000
      6      12.1046      0.00000
      7      15.4772      0.00000
      8      16.7577      0.00000
      9      19.7062      0.00000
     10      40.5027      0.00000
     11      42.3540      0.00000
     12      45.9761      0.00000

 k-point    28 :      -0.2500    0.2500    0.1500
  band No.  band energies     occupation 
      1       0.5511      1.00000
      2       3.5221      1.00000
      3       3.6994      1.00000
      4       4.3386      1.00000
      5       4.9793      1.00000
      6       5.7749      1.00579
      7      23.0419      0.00000
      8      26.2907      0.00000
      9      26.3766      0.00000
     10      30.1722      0.00000
     11      36.5382      0.00000
     12      37.8716      0.00000

 k-point    29 :      -0.3500    0.3500    0.1500
  band No.  band energies     occupation 
      1       1.4620      1.00000
      2       3.2486      1.00000
      3       3.4382      1.00000
      4       4.7464      1.00000
      5       5.8613      1.02014
      6       6.7057     -0.00089
      7      18.4670      0.00000
      8      24.4725      0.00000
      9      25.0983      0.00000
     10      31.7484      0.00000
     11      35.4550      0.00000
     12      37.7839      0.00000

 k-point    30 :      -0.2500    0.3500    0.1500
  band No.  band energies     occupation 
      1       1.5329      1.00000
      2       2.9601      1.00000
      3       3.8360      1.00000
      4       4.4922      1.00000
      5       5.5229      1.00001
      6       6.7014     -0.00098
      7      21.0041      0.00000
      8      21.7461      0.00000
      9      27.2865      0.00000
     10      28.8698      0.00000
     11      36.0860      0.00000
     12      41.3601      0.00000

 k-point    31 :      -0.4500    0.4500    0.1500
  band No.  band energies     occupation 
      1       1.5579      1.00000
      2       3.2721      1.00000
      3       3.4606      1.00000
      4       4.8283      1.00000
      5       6.4784     -0.03096
      6       8.6637     -0.00000
      7      14.7346      0.00000
      8      23.3785      0.00000
      9      24.4085      0.00000
     10      33.8055      0.00000
     11      34.8668      0.00000
     12      36.7262      0.00000

 k-point    32 :      -0.3500    0.4500    0.1500
  band No.  band energies     occupation 
      1       1.9463      1.00000
      2       2.7204      1.00000
      3       3.6294      1.00000
      4       4.8519      1.00000
      5       6.0292      0.99597
      6       8.7778     -0.00000
      7      16.9000      0.00000
      8      20.1334      0.00000
      9      26.7239      0.00000
     10      30.3141      0.00000
     11      35.0165      0.00000
     12      39.8959      0.00000

 k-point    33 :      -0.4500   -0.4500    0.1500
  band No.  band energies     occupation 
      1       1.8841      1.00000
      2       2.8936      1.00000
      3       3.4340      1.00000
      4       4.9511      1.00000
      5       6.3019      0.10906
      6      10.7558     -0.00000
      7      14.1725      0.00000
      8      19.6309      0.00000
      9      26.3537      0.00000
     10      32.0558      0.00000
     11      33.7462      0.00000
     12      38.5753      0.00000

 k-point    34 :      -0.3500   -0.4500    0.1500
  band No.  band energies     occupation 
      1       2.3345      1.00000
      2       2.3914      1.00000
      3       3.3516      1.00000
      4       5.3791      1.00000
      5       5.9300      1.03423
      6      11.6971      0.00000
      7      15.3072      0.00000
      8      16.7029      0.00000
      9      28.7583      0.00000
     10      29.7958      0.00000
     11      32.9211      0.00000
     12      38.6042      0.00000

 k-point    35 :       0.2500    0.2500    0.2500
  band No.  band energies     occupation 
      1       2.8238      1.00000
      2       2.8238      1.00000
      3       2.8238      1.00000
      4       5.3837      1.00000
      5       5.3837      1.00000
      6      15.0672      0.00000
      7      15.0672      0.00000
      8      15.0673      0.00000
      9      17.4560      0.00000
     10      45.8433      0.00000
     11      45.8433      0.00000
     12      45.8434      0.00000

 k-point    36 :      -0.2500    0.2500    0.2500
  band No.  band energies     occupation 
      1       1.3971      1.00000
      2       3.1057      1.00000
      3       4.2633      1.00000
      4       4.2634      1.00000
      5       5.0403      1.00000
      6       6.5032     -0.02558
      7      23.7515      0.00000
      8      23.7516      0.00000
      9      24.1025      0.00000
     10      26.6085      0.00000
     11      40.8555      0.00000
     12      40.8557      0.00000

 k-point    37 :      -0.3500    0.3500    0.2500
  band No.  band energies     occupation 
      1       1.8801      1.00000
      2       2.5153      1.00000
      3       4.3033      1.00000
      4       4.6630      1.00000
      5       5.7486      1.00358
      6       8.0742     -0.00000
      7      19.4340      0.00000
      8      21.7296      0.00000
      9      24.1273      0.00000
     10      27.1460      0.00000
     11      38.6634      0.00000
     12      39.7445      0.00000

 k-point    38 :      -0.4500    0.4500    0.2500
  band No.  band energies     occupation 
      1       1.8401      1.00000
      2       2.3629      1.00000
      3       4.2165      1.00000
      4       4.8410      1.00000
      5       6.3881     -0.02174
      6      10.6581     -0.00000
      7      15.3859      0.00000
      8      20.5436      0.00000
      9      23.8227      0.00000
     10      29.1131      0.00000
     11      35.1988      0.00000
     12      39.1041      0.00000

 k-point    39 :      -0.3500    0.4500    0.2500
  band No.  band energies     occupation 
      1       1.9486      1.00000
      2       2.0373      1.00000
      3       4.3841      1.00000
      4       5.2288      1.00000
      5       6.0885      0.88487
      6      10.4725     -0.00000
      7      17.7460      0.00000
      8      18.3011      0.00000
      9      25.0073      0.00000
     10      26.7475      0.00000
     11      34.6914      0.00000
     12      40.0026      0.00000

 k-point    40 :      -0.4500   -0.4500    0.2500
  band No.  band energies     occupation 
      1       1.8224      1.00000
      2       1.9823      1.00000
      3       4.3254      1.00000
      4       5.5184      1.00001
      5       6.2536      0.26011
      6      13.0625      0.00000
      7      14.7577      0.00000
      8      17.5395      0.00000
      9      25.2719      0.00000
     10      27.6039      0.00000
     11      32.5401      0.00000
     12      39.7952      0.00000

 k-point    41 :      -0.3500    0.3500    0.3500
  band No.  band energies     occupation 
      1       1.7663      1.00000
      2       1.9423      1.00000
      3       5.1640      1.00000
      4       5.1641      1.00000
      5       5.7956      1.00819
      6       9.9972     -0.00000
      7      19.5204      0.00000
      8      19.5205      0.00000
      9      22.8248      0.00000
     10      24.9444      0.00000
     11      34.4644      0.00000
     12      43.2355      0.00000

 k-point    42 :      -0.4500    0.4500    0.3500
  band No.  band energies     occupation 
      1       1.5612      1.00000
      2       1.6175      1.00000
      3       5.3393      1.00000
      4       5.5447      1.00002
      5       6.2975      0.12059
      6      12.7387      0.00000
      7      16.4266      0.00000
      8      18.1998      0.00000
      9      23.1079      0.00000
     10      25.2991      0.00000
     11      31.1345      0.00000
     12      43.2834      0.00000

 k-point    43 :      -0.4500   -0.4500    0.3500
  band No.  band energies     occupation 
      1       1.4285      1.00000
      2       1.4285      1.00000
      3       5.4505      1.00000
      4       6.1887      0.52262
      5       6.1889      0.52168
      6      15.4108      0.00000
      7      15.4109      0.00000
      8      16.2869      0.00000
      9      24.0511      0.00000
     10      24.0511      0.00000
     11      29.5154      0.00000
     12      43.8780      0.00000

 k-point    44 :      -0.4500    0.4500    0.4500
  band No.  band energies     occupation 
      1       1.2421      1.00000
      2       1.2455      1.00000
      3       6.1569      0.65416
      4       6.1571      0.65347
      5       6.2728      0.19365
      6      14.9978      0.00000
      7      16.7639      0.00000
      8      16.7641      0.00000
      9      22.2953      0.00000
     10      23.2038      0.00000
     11      28.4252      0.00000
     12      45.7993      0.00000

 spin component 2

 k-point     1 :       0.0500    0.0500    0.0500
  band No.  band energies     occupation 
      1      -1.6304      1.00000
      2       5.5852      1.00007
      3       5.5852      1.00007
      4       6.1947      0.49706
      5       7.7670     -0.00000
      6       7.7670     -0.00000
      7      29.1803      0.00000
      8      29.1803      0.00000
      9      31.8994      0.00000
     10      34.7647      0.00000
     11      37.7045      0.00000
     12      37.7045      0.00000

 k-point     2 :       0.1500    0.0500    0.0500
  band No.  band energies     occupation 
      1      -0.4548      1.00000
      2       5.2029      1.00000
      3       5.3587      1.00000
      4       6.9459     -0.00000
      5       7.5745     -0.00000
      6       7.8636     -0.00000
      7      25.3237      0.00000
      8      27.4196      0.00000
      9      31.1717      0.00000
     10      32.3806      0.00000
     11      37.7168      0.00000
     12      37.8655      0.00000

 k-point     3 :       0.2500    0.0500    0.0500
  band No.  band energies     occupation 
      1       1.1464      1.00000
      2       4.7854      1.00000
      3       5.1653      1.00000
      4       7.5815     -0.00000
      5       7.9611     -0.00000
      6       7.9776     -0.00000
      7      20.9778      0.00000
      8      25.6786      0.00000
      9      28.5863      0.00000
     10      32.2966      0.00000
     11      36.8398      0.00000
     12      39.6822      0.00000

 k-point     4 :       0.3500    0.0500    0.0500
  band No.  band energies     occupation 
      1       2.2862      1.00000
      2       4.4744      1.00000
      3       5.6808      1.00086
      4       7.7001     -0.00000
      5       8.0816     -0.00000
      6       8.9862     -0.00000
      7      17.1155      0.00000
      8      24.4235      0.00000
      9      26.8270      0.00000
     10      32.0966      0.00000
     11      36.5236      0.00000
     12      41.8130      0.00000

 k-point     5 :       0.4500    0.0500    0.0500
  band No.  band energies     occupation 
      1       2.5251      1.00000
      2       4.3606      1.00000
      3       6.3655     -0.00324
      4       7.7501     -0.00000
      5       8.1216     -0.00000
      6       9.5549     -0.00000
      7      15.2720      0.00000
      8      23.9665      0.00000
      9      26.1704      0.00000
     10      32.0143      0.00000
     11      36.5137      0.00000
     12      41.5876      0.00000

 k-point     6 :      -0.0500    0.0500    0.0500
  band No.  band energies     occupation 
      1      -2.0486      1.00000
      2       5.7425      1.00319
      3       5.7427      1.00320
      4       5.8193      1.01176
      5       7.7199     -0.00000
      6       7.8953     -0.00000
      7      30.2505      0.00000
      8      31.2457      0.00000
      9      31.2457      0.00000
     10      35.6672      0.00000
     11      38.3182      0.00000
     12      38.3184      0.00000

 k-point     7 :       0.1500    0.1500    0.0500
  band No.  band energies     occupation 
      1       0.9285      1.00000
      2       4.8926      1.00000
      3       4.8985      1.00000
      4       7.5769     -0.00000
      5       7.9248     -0.00000
      6       8.0295     -0.00000
      7      23.0916      0.00000
      8      24.0024      0.00000
      9      27.7409      0.00000
     10      33.7374      0.00000
     11      38.3844      0.00000
     12      40.0713      0.00000

 k-point     8 :       0.2500    0.1500    0.0500
  band No.  band energies     occupation 
      1       2.4008      1.00000
      2       4.5145      1.00000
      3       4.8205      1.00000
      4       7.6599     -0.00000
      5       8.0835     -0.00000
      6       9.2906     -0.00000
      7      19.2418      0.00000
      8      22.1634      0.00000
      9      25.7889      0.00000
     10      34.1952      0.00000
     11      39.1170      0.00000
     12      40.7497      0.00000

 k-point     9 :       0.3500    0.1500    0.0500
  band No.  band energies     occupation 
      1       2.9849      1.00000
      2       4.3348      1.00000
      3       5.3611      1.00000
      4       7.7824     -0.00000
      5       8.1478     -0.00000
      6      10.6802     -0.00000
      7      15.9126      0.00000
      8      21.3025      0.00000
      9      24.8052      0.00000
     10      34.1973      0.00000
     11      39.9475      0.00000
     12      40.6985      0.00000

 k-point    10 :      -0.1500    0.1500    0.0500
  band No.  band energies     occupation 
      1      -1.2245      1.00000
      2       5.5071      1.00001
      3       5.6690      1.00065
      4       6.2851      0.15551
      5       7.4269     -0.00000
      6       7.9710     -0.00000
      7      27.4072      0.00000
      8      29.8947      0.00000
      9      30.7952      0.00000
     10      34.8486      0.00000
     11      35.5836      0.00000
     12      36.4281      0.00000

 k-point    11 :       0.2500    0.2500    0.0500
  band No.  band energies     occupation 
      1       3.4270      1.00000
      2       4.3095      1.00000
      3       4.7116      1.00000
      4       7.7837     -0.00000
      5       8.1273     -0.00000
      6      11.1586     -0.00000
      7      17.6011      0.00000
      8      18.5992      0.00000
      9      24.6190      0.00000
     10      35.5947      0.00000
     11      38.7166      0.00000
     12      44.9486      0.00000

 k-point    12 :       0.3500    0.2500    0.0500
  band No.  band energies     occupation 
      1       3.6561      1.00000
      2       4.3197      1.00000
      3       4.7898      1.00000
      4       7.8988     -0.00000
      5       8.0867     -0.00000
      6      12.9473      0.00000
      7      15.2737      0.00000
      8      17.8702      0.00000
      9      24.2665      0.00000
     10      36.1881      0.00000
     11      38.5089      0.00000
     12      44.8562      0.00000

 k-point    13 :      -0.2500    0.2500    0.0500
  band No.  band energies     occupation 
      1       0.2371      1.00000
      2       5.1054      1.00000
      3       5.4302      1.00000
      4       7.1475     -0.00000
      5       7.3245     -0.00000
      6       8.0490     -0.00000
      7      23.1479      0.00000
      8      27.7549      0.00000
      9      29.7777      0.00000
     10      33.2017      0.00000
     11      34.9810      0.00000
     12      36.7750      0.00000

 k-point    14 :      -0.1500    0.2500    0.0500
  band No.  band energies     occupation 
      1      -0.0873      1.00000
      2       5.3720      1.00000
      3       5.4137      1.00000
      4       6.9116     -0.00000
      5       7.1057     -0.00000
      6       8.1264     -0.00000
[...]
      4       8.1713     -0.00000
      5       8.1713     -0.00000
      6      16.0182      0.00000
      7      16.0182      0.00000
      8      16.0184      0.00000
      9      18.2213      0.00000
     10      45.6585      0.00000
     11      45.6585      0.00000
     12      45.6585      0.00000

 k-point    36 :      -0.2500    0.2500    0.2500
  band No.  band energies     occupation 
      1       2.0168      1.00000
      2       5.2958      1.00000
      3       6.1492      0.68465
      4       6.1494      0.68394
      5       7.1272     -0.00000
      6       8.8292     -0.00000
      7      24.4209      0.00000
      8      24.4209      0.00000
      9      24.7141      0.00000
     10      27.0793      0.00000
     11      41.2288      0.00000
     12      41.2288      0.00000

 k-point    37 :      -0.3500    0.3500    0.2500
  band No.  band energies     occupation 
      1       3.0104      1.00000
      2       4.5057      1.00000
      3       6.1961      0.49129
      4       6.6477     -0.00306
      5       7.9054     -0.00000
      6       9.7843     -0.00000
      7      20.2342      0.00000
      8      22.3720      0.00000
      9      24.7639      0.00000
     10      27.6472      0.00000
     11      39.3883      0.00000
     12      40.2168      0.00000

 k-point    38 :      -0.4500    0.4500    0.2500
  band No.  band energies     occupation 
      1       3.4705      1.00000
      2       4.1012      1.00000
      3       6.0995      0.85464
      4       6.8740     -0.00001
      5       8.6335     -0.00000
      6      11.8311      0.00000
      7      16.3929      0.00000
      8      21.1311      0.00000
      9      24.4819      0.00000
     10      29.5101      0.00000
     11      36.0565      0.00000
     12      39.5704      0.00000

 k-point    39 :      -0.3500    0.4500    0.2500
  band No.  band energies     occupation 
      1       3.4755      1.00000
      2       3.9327      1.00000
      3       6.2678      0.21027
      4       7.2606     -0.00000
      5       8.2900     -0.00000
      6      11.6922      0.00000
      7      18.5727      0.00000
      8      18.9894      0.00000
      9      25.6251      0.00000
     10      27.2748      0.00000
     11      35.5207      0.00000
     12      40.4966      0.00000

 k-point    40 :      -0.4500   -0.4500    0.2500
  band No.  band energies     occupation 
      1       3.6080      1.00000
      2       3.7256      1.00000
      3       6.1711      0.59657
      4       7.6032     -0.00000
      5       8.4712     -0.00000
      6      14.0077      0.00000
      7      15.7121      0.00000
      8      18.2356      0.00000
      9      25.8711      0.00000
     10      28.0540      0.00000
     11      33.4902      0.00000
     12      40.2944      0.00000

 k-point    41 :      -0.3500    0.3500    0.3500
  band No.  band energies     occupation 
      1       3.2716      1.00000
      2       3.8882      1.00000
      3       7.1400     -0.00000
      4       7.1402     -0.00000
      5       7.9725     -0.00000
      6      11.1992     -0.00000
      7      20.1032      0.00000
      8      20.1032      0.00000
      9      23.7037      0.00000
     10      25.5902      0.00000
     11      35.3081      0.00000
     12      43.6447      0.00000

 k-point    42 :      -0.4500    0.4500    0.3500
  band No.  band energies     occupation 
      1       3.3068      1.00000
      2       3.4407      1.00000
      3       7.3696     -0.00000
      4       7.5809     -0.00000
      5       8.5323     -0.00000
      6      13.5919      0.00000
      7      17.1074      0.00000
      8      18.6951      0.00000
      9      23.9646      0.00000
     10      25.9346      0.00000
     11      32.1151      0.00000
     12      43.6766      0.00000

 k-point    43 :      -0.4500   -0.4500    0.3500
  band No.  band energies     occupation 
      1       3.2271      1.00000
      2       3.2271      1.00000
      3       7.4789     -0.00000
      4       8.3844     -0.00000
      5       8.3848     -0.00000
      6      16.0445      0.00000
      7      16.0446      0.00000
      8      16.8365      0.00000
      9      24.8002      0.00000
     10      24.8002      0.00000
     11      30.5821      0.00000
     12      44.2561      0.00000

 k-point    44 :      -0.4500    0.4500    0.4500
  band No.  band energies     occupation 
      1       3.0294      1.00000
      2       3.0603      1.00000
      3       8.3452     -0.00000
      4       8.3455     -0.00000
      5       8.5092     -0.00000
      6      15.5096      0.00000
      7      17.1251      0.00000
      8      17.1252      0.00000
      9      23.3165      0.00000
     10      24.0780      0.00000
     11      29.5206      0.00000
     12      46.0826      0.00000


--------------------------------------------------------------------------------------------------------


 soft charge-density along one line, spin component           1
         0         1         2         3         4         5         6         7         8         9
 total charge-density along one line
 
 soft charge-density along one line, spin component           2
         0         1         2         3         4         5         6         7         8         9
 total charge-density along one line
 
 pseudopotential strength for first ion, spin component:           1
 -5.396   0.000   0.000   0.000   0.000   0.000   0.000   0.000   0.000   0.000  -5.932   0.000   0.000   0.000   0.000   0.000
  0.000   0.000  -5.396   0.000  -0.000   0.000   0.000   0.000   0.000   0.000   0.000   0.000  -5.932   0.000  -0.000   0.000
  0.000   0.000  -0.000   0.000  -5.562   0.000  -0.000   0.000   0.000   0.000   0.000   0.000  -0.000   0.000  -6.093   0.000
  0.000   0.000   0.000   0.000  -0.000   0.000  -5.396   0.000  -0.000   0.000   0.000   0.000   0.000   0.000  -0.000   0.000
  0.000   0.000   0.000   0.000   0.000   0.000  -0.000   0.000  -5.562   0.000   0.000   0.000   0.000   0.000   0.000   0.000
 -5.932   0.000   0.000   0.000   0.000   0.000   0.000   0.000   0.000   0.000  -6.426   0.000   0.000   0.000   0.000   0.000
  0.000   0.000  -5.932   0.000  -0.000   0.000   0.000   0.000   0.000   0.000   0.000   0.000  -6.426   0.000  -0.000   0.000
  0.000   0.000  -0.000   0.000  -6.093   0.000  -0.000   0.000   0.000   0.000   0.000   0.000  -0.000   0.000  -6.583   0.000
  0.000   0.000   0.000   0.000  -0.000   0.000  -5.932   0.000  -0.000   0.000   0.000   0.000   0.000   0.000  -0.000   0.000
  0.000   0.000   0.000   0.000   0.000   0.000  -0.000   0.000  -6.093   0.000   0.000   0.000   0.000   0.000   0.000   0.000
  0.000   0.000   0.000   0.000   0.000   0.000   0.000   0.000   0.000   0.000   0.000   0.000   0.000   0.000   0.000   0.000
  0.000   0.000   0.000   0.000   0.000   0.000   0.000   0.000   0.000   0.000   0.000   0.000   0.000   0.000   0.000   0.000
 -0.000   0.000  -0.000   0.000   0.000   0.000  -0.000   0.000   0.000   0.000  -0.000   0.000  -0.000   0.000   0.000   0.000
 -0.000   0.000  -0.000   0.000   0.000   0.000  -0.000   0.000   0.000   0.000  -0.000   0.000  -0.000   0.000   0.000   0.000
 -0.000   0.000  -0.000   0.000   0.000   0.000  -0.000   0.000  -0.000   0.000  -0.000   0.000  -0.000   0.000   0.000   0.000
 -0.000   0.000  -0.000   0.000   0.000   0.000  -0.000   0.000   0.000   0.000  -0.000   0.000  -0.000   0.000   0.000   0.000
 -0.000   0.000  -0.000   0.000   0.000   0.000  -0.000   0.000   0.000   0.000  -0.000   0.000  -0.000   0.000   0.000   0.000
 -0.000   0.000  -0.000   0.000   0.000   0.000  -0.000   0.000  -0.000   0.000  -0.000   0.000  -0.000   0.000   0.000   0.000
 pseudopotential strength for first ion, spin component:           2
 -3.919   0.000   0.000   0.000   0.000   0.000   0.000   0.000   0.000   0.000  -4.501   0.000   0.000   0.000   0.000   0.000
  0.000   0.000  -3.919   0.000  -0.000   0.000   0.000   0.000   0.000   0.000   0.000   0.000  -4.501   0.000  -0.000   0.000
  0.000   0.000  -0.000   0.000  -3.698   0.000  -0.000   0.000  -0.000   0.000   0.000   0.000  -0.000   0.000  -4.285   0.000
  0.000   0.000   0.000   0.000  -0.000   0.000  -3.919   0.000  -0.000   0.000   0.000   0.000   0.000   0.000  -0.000   0.000
  0.000   0.000   0.000   0.000  -0.000   0.000  -0.000   0.000  -3.698   0.000   0.000   0.000   0.000   0.000  -0.000   0.000
 -4.501   0.000   0.000   0.000   0.000   0.000   0.000   0.000   0.000   0.000  -5.041   0.000   0.000   0.000   0.000   0.000
  0.000   0.000  -4.501   0.000  -0.000   0.000   0.000   0.000   0.000   0.000   0.000   0.000  -5.041   0.000  -0.000   0.000
  0.000   0.000  -0.000   0.000  -4.285   0.000  -0.000   0.000  -0.000   0.000   0.000   0.000  -0.000   0.000  -4.829   0.000
  0.000   0.000   0.000   0.000  -0.000   0.000  -4.501   0.000  -0.000   0.000   0.000   0.000   0.000   0.000  -0.000   0.000
  0.000   0.000   0.000   0.000  -0.000   0.000  -0.000   0.000  -4.285   0.000   0.000   0.000   0.000   0.000  -0.000   0.000
  0.000   0.000   0.000   0.000   0.000   0.000   0.000   0.000  -0.000   0.000   0.000   0.000   0.000   0.000   0.000   0.000
  0.000   0.000   0.000   0.000   0.000   0.000   0.000   0.000  -0.000   0.000   0.000   0.000   0.000   0.000   0.000   0.000
 -0.000   0.000  -0.000   0.000   0.000   0.000  -0.000   0.000   0.000   0.000  -0.000   0.000  -0.000   0.000   0.000   0.000
 -0.000   0.000  -0.000   0.000  -0.000   0.000  -0.000   0.000  -0.000   0.000  -0.000   0.000  -0.000   0.000  -0.000   0.000
 -0.000   0.000  -0.000   0.000   0.000   0.000  -0.000   0.000  -0.000   0.000  -0.000   0.000  -0.000   0.000   0.000   0.000
 -0.000   0.000  -0.000   0.000   0.000   0.000  -0.000   0.000   0.000   0.000  -0.000   0.000  -0.000   0.000   0.000   0.000
 -0.000   0.000  -0.000   0.000  -0.000   0.000  -0.000   0.000  -0.000   0.000  -0.000   0.000  -0.000   0.000  -0.000   0.000
 -0.000   0.000  -0.000   0.000   0.000   0.000  -0.000   0.000  -0.000   0.000  -0.000   0.000  -0.000   0.000   0.000   0.000
 total augmentation occupancy for first ion, spin component:           1
  2.289  -0.000  -0.000  -0.000  -0.000  -1.355   0.000   0.000   0.000  -0.000   0.000  -0.000   0.000   0.000   0.000   0.000
 -0.000   2.289   0.000   0.000  -0.000   0.000  -1.355  -0.000  -0.000  -0.000  -0.000   0.000   0.000   0.000   0.000   0.000
 -0.000   0.000   3.576   0.000   0.000   0.000  -0.000  -2.379  -0.000   0.000   0.000  -0.000   0.000   0.000   0.000   0.000
 -0.000   0.000   0.000   2.289   0.000   0.000  -0.000  -0.000  -1.355   0.000  -0.000   0.000   0.000   0.000   0.000   0.000
 -0.000  -0.000   0.000  -0.000   3.576   0.000   0.000   0.000  -0.000  -2.379   0.000   0.000   0.000   0.000   0.000   0.000
 -1.355   0.000   0.000   0.000   0.000   1.821   0.000  -0.000   0.000  -0.000   0.000   0.000   0.000   0.000   0.000   0.000
  0.000  -1.355   0.000  -0.000  -0.000   0.000   1.821  -0.000   0.000   0.000   0.000  -0.000   0.000   0.000   0.000   0.000
  0.000  -0.000  -2.379  -0.000   0.000  -0.000  -0.000   2.445  -0.000   0.000  -0.000   0.000   0.000   0.000   0.000   0.000
  0.000  -0.000   0.000  -1.355  -0.000   0.000   0.000  -0.000   1.821  -0.000   0.000  -0.000   0.000   0.000   0.000   0.000
  0.000  -0.000   0.000   0.000  -2.379  -0.000   0.000   0.000  -0.000   2.445   0.000   0.000   0.000   0.000   0.000   0.000
  0.000  -0.000   0.000  -0.000   0.000  -0.000   0.000  -0.000   0.000   0.000   2.520  -0.298   0.000   0.000   0.000   0.000
  0.000   0.000  -0.000   0.000   0.000  -0.000  -0.000   0.000  -0.000   0.000  -0.298   0.041   0.000   0.000   0.000   0.000
  0.000   0.000   0.000   0.000   0.000   0.000   0.000   0.000   0.000   0.000   0.000   0.000   0.308  -0.000   0.000  -0.027
  0.000   0.000   0.000   0.000   0.000   0.000   0.000   0.000   0.000   0.000   0.000   0.000  -0.000   0.308  -0.000   0.000
  0.000   0.000   0.000   0.000   0.000   0.000   0.000   0.000   0.000   0.000   0.000   0.000  -0.000  -0.000   0.308  -0.000
  0.000   0.000   0.000   0.000   0.000   0.000   0.000   0.000   0.000   0.000   0.000   0.000  -0.027   0.000  -0.000   0.003
  0.000   0.000   0.000   0.000   0.000   0.000   0.000   0.000   0.000   0.000   0.000   0.000   0.000  -0.027   0.000  -0.000
  0.000   0.000   0.000   0.000   0.000   0.000   0.000   0.000   0.000   0.000   0.000   0.000   0.000   0.000  -0.027   0.000
 total augmentation occupancy for first ion, spin component:           2
  1.864  -0.000  -0.000  -0.000  -0.000  -0.761   0.000  -0.000   0.000   0.000   0.000  -0.000   0.000   0.000   0.000   0.000
 -0.000   1.864   0.000  -0.000   0.000   0.000  -0.761  -0.000   0.000   0.000   0.000  -0.000   0.000   0.000   0.000   0.000
 -0.000   0.000   2.947   0.000   0.000   0.000  -0.000  -1.275  -0.000   0.000  -0.000   0.000   0.000   0.000   0.000   0.000
 -0.000  -0.000   0.000   1.864   0.000   0.000   0.000  -0.000  -0.761  -0.000   0.000  -0.000   0.000   0.000   0.000   0.000
 -0.000   0.000   0.000   0.000   2.947   0.000   0.000   0.000  -0.000  -1.275   0.000   0.000   0.000   0.000   0.000   0.000
 -0.761   0.000   0.000   0.000   0.000   0.061  -0.000  -0.000  -0.000  -0.000  -0.000   0.000   0.000   0.000   0.000   0.000
  0.000  -0.761  -0.000   0.000   0.000  -0.000   0.061   0.000   0.000  -0.000  -0.000   0.000   0.000   0.000   0.000   0.000
  0.000  -0.000  -1.275  -0.000   0.000   0.000   0.000   0.310   0.000  -0.000   0.000  -0.000   0.000   0.000   0.000   0.000
  0.000  -0.000  -0.000  -0.761  -0.000  -0.000   0.000   0.000   0.061   0.000  -0.000   0.000   0.000   0.000   0.000   0.000
 -0.000   0.000   0.000  -0.000  -1.275  -0.000  -0.000   0.000   0.000   0.310   0.000   0.000   0.000   0.000   0.000   0.000
  0.000   0.000  -0.000   0.000   0.000  -0.000  -0.000   0.000  -0.000  -0.000  -0.341   0.104   0.000   0.000   0.000   0.000
 -0.000  -0.000   0.000  -0.000   0.000   0.000   0.000  -0.000   0.000   0.000   0.104  -0.018   0.000   0.000   0.000   0.000
  0.000   0.000   0.000   0.000   0.000   0.000   0.000   0.000   0.000   0.000   0.000   0.000  -0.035   0.000   0.000   0.006
  0.000   0.000   0.000   0.000   0.000   0.000   0.000   0.000   0.000   0.000   0.000   0.000   0.000  -0.035   0.000  -0.000
  0.000   0.000   0.000   0.000   0.000   0.000   0.000   0.000   0.000   0.000   0.000   0.000   0.000   0.000  -0.035   0.000
  0.000   0.000   0.000   0.000   0.000   0.000   0.000   0.000   0.000   0.000   0.000   0.000   0.006  -0.000   0.000  -0.001
  0.000   0.000   0.000   0.000   0.000   0.000   0.000   0.000   0.000   0.000   0.000   0.000  -0.000   0.006  -0.000   0.000
  0.000   0.000   0.000   0.000   0.000   0.000   0.000   0.000   0.000   0.000   0.000   0.000   0.000  -0.000   0.006  -0.000


------------------------ aborting loop because EDIFF is reached ----------------------------------------


    CHARGE:  cpu time    0.0022: real time    0.0022
    FORLOC:  cpu time    0.0001: real time    0.0001
    FORNL :  cpu time    0.0047: real time    0.0047
    STRESS:  cpu time    0.0171: real time    0.0172
    FORCOR:  cpu time    0.0020: real time    0.0020
    FORHAR:  cpu time    0.0003: real time    0.0003
    MIXING:  cpu time    0.0002: real time    0.0002
    OFIELD:  cpu time    0.0000: real time    0.0000

  FORCE on cell =-STRESS in cart. coord.  units (eV):
  Direction    XX          YY          ZZ          XY          YZ          ZX
  --------------------------------------------------------------------------------------
  Alpha Z    62.96809    62.96809    62.96809
  Ewald    -199.63499  -199.63499  -199.63499    -0.00000    -0.00000    -0.00000
  Hartree    30.85606    30.85606    30.85606    -0.00000    -0.00000    -0.00000
  E(xc)     -39.88244   -39.88244   -39.88244     0.00012     0.00012     0.00012
  Local      59.89915    59.89915    59.89915    -0.00029    -0.00029    -0.00029
  n-local   -27.33532   -26.21446   -25.20878     1.07316    -0.74172    -1.46838
  augment    38.65096    38.65096    38.65096     0.00033     0.00033     0.00033
  Kinetic    73.96950    73.24846    73.22345    -2.04289     2.01369     1.41507
  Fock        0.00000     0.00000     0.00000     0.00000     0.00000     0.00000
  -------------------------------------------------------------------------------------
  Total       0.08445     0.08445     0.08445     0.00000    -0.00000    -0.00000
  in kB      12.32768    12.32768    12.32768     0.00000    -0.00000    -0.00000
  external pressure =       12.33 kB  Pullay stress =        0.00 kB


 VOLUME and BASIS-vectors are now :
 -----------------------------------------------------------------------------
  energy-cutoff  :      268.00
  volume of cell :       10.98
      direct lattice vectors                 reciprocal lattice vectors
    -1.400000000  1.400000000  1.400000000     0.000000000  0.357142857  0.357142857
     1.400000000 -1.400000000  1.400000000     0.357142857  0.000000000  0.357142857
     1.400000000  1.400000000 -1.400000000     0.357142857  0.357142857  0.000000000

  length of vectors
     2.424871131  2.424871131  2.424871131     0.505076272  0.505076272  0.505076272


 FORCES acting on ions
    electron-ion (+dipol)            ewald-force                    non-local-force                 convergence-correction
 -----------------------------------------------------------------------------------------------
   0.565E-14 0.113E-13 0.140E-13   -.101E-14 -.525E-15 -.290E-15   0.993E-23 -.331E-23 -.331E-23   0.949E-14 0.126E-13 0.104E-13
 -----------------------------------------------------------------------------------------------
   0.565E-14 0.113E-13 0.140E-13   -.101E-14 -.525E-15 -.290E-15   0.993E-23 -.331E-23 -.331E-23   0.949E-14 0.126E-13 0.104E-13
 
 
 POSITION                                       TOTAL-FORCE (eV/Angst)
 -----------------------------------------------------------------------------------
      0.00000      0.00000      0.00000        -0.000000     -0.000000      0.000000
 -----------------------------------------------------------------------------------
    total drift:                                0.000000      0.000000      0.000000


--------------------------------------------------------------------------------------------------------



  FREE ENERGIE OF THE ION-ELECTRON SYSTEM (eV)
  ---------------------------------------------------
  free  energy   TOTEN  =        -8.22327390 eV

  energy  without entropy=       -8.22083164  energy(sigma->0) =       -8.22245981
 


--------------------------------------------------------------------------------------------------------


    POTLOK:  cpu time    0.0059: real time    0.0059


--------------------------------------------------------------------------------------------------------


 writing wavefunctions
     LOOP+:  cpu time    1.2784: real time    1.3144
    4ORBIT:  cpu time    0.0000: real time    0.0000

 total amount of memory used by VASP MPI-rank0    31803. kBytes
=======================================================================

   base      :      30000. kBytes
   nonl-proj :        736. kBytes
   fftplans  :        142. kBytes
   grid      :        320. kBytes
   one-center:         31. kBytes
   wavefun   :        574. kBytes
 
  
  
 General timing and accounting informations for this job:
 ========================================================
  
                  Total CPU time used (sec):        1.518
                            User time (sec):        1.287
                          System time (sec):        0.231
                         Elapsed time (sec):        1.598
  
                   Maximum memory used (kb):       56056.
                   Average memory used (kb):           0.
  
                          Minor page faults:        18305
                          Major page faults:            0
                 Voluntary context switches:         1919
