bcc Fe                                  
   2.95000000000000     
    -0.500000    0.500000    0.500000
     0.500000   -0.500000    0.500000
     0.500000    0.500000   -0.500000
   Fe
     1
Direct
  0.000000  0.000000  0.000000
 
   20   20   20
  109.10      102.30      84.400      61.339      39.163      21.862      11.006      6.0096      4.4678      3.8473    
  3.6758      3.8473      4.4678      6.0096      11.006      21.862      39.163      61.339      84.400      102.30    
  102.30      100.08      86.057      65.132      43.340      25.242      13.060      6.8368      4.7081      3.9398    
  3.6460      3.6979      4.1368      5.1428      8.3393      16.442      30.730      50.458      72.598      91.884    
  84.400      86.057      76.969      60.454      41.702      25.224      13.559      7.1966      4.8076      3.9540    
  3.5618      3.5139      3.7800      4.4777      6.1058      10.981      20.981      36.233      54.790      72.598    
  61.339      65.132      60.454      49.113      34.976      21.891      12.291      6.8651      4.7098      3.8749    
  3.4357      3.3181      3.4506      3.9099      4.7790      7.0259      12.701      22.727      36.233      50.458    
  39.163      43.340      41.702      34.976      25.674      16.650      9.8783      6.0109      4.4298      3.7047    
  3.2815      3.1313      3.1780      3.4440      4.0208      4.9765      7.4014      12.701      20.981      30.730    
  21.862      25.242      25.224      21.891      16.650      11.338      7.3143      5.0400      4.0589      3.4707    
  3.1136      2.9683      2.9717      3.1131      3.4556      4.0617      4.9765      7.0259      10.981      16.442    
  11.006      13.060      13.559      12.291      9.8783      7.3143      5.3734      4.2772      3.6669      3.2178    
  2.9492      2.8351      2.8272      2.9050      3.0957      3.4556      4.0208      4.7790      6.1058      8.3393    
  6.0096      6.8368      7.1966      6.8651      6.0109      5.0400      4.2772      3.7435      3.3060      2.9905    
  2.8078      2.7335      2.7329      2.7875      2.9050      3.1131      3.4440      3.9099      4.4777      5.1428    
  4.4678      4.7081      4.8076      4.7098      4.4298      4.0589      3.6669      3.3060      3.0164      2.8161    
  2.7041      2.6649      2.6788      2.7329      2.8272      2.9717      3.1780      3.4506      3.7800      4.1368    
  3.8473      3.9398      3.9540      3.8749      3.7047      3.4707      3.2178      2.9905      2.8161      2.7020    
  2.6435      2.6332      2.6649      2.7335      2.8351      2.9683      3.1313      3.3181      3.5139      3.6979    
  3.6758      3.6460      3.5618      3.4357      3.2815      3.1136      2.9492      2.8078      2.7041      2.6435    
  2.6240      2.6435      2.7041      2.8078      2.9492      3.1136      3.2815      3.4357      3.5618      3.6460    
  3.8473      3.6979      3.5139      3.3181      3.1313      2.9683      2.8351      2.7335      2.6649      2.6332    
  2.6435      2.7020      2.8161      2.9905      3.2178      3.4707      3.7047      3.8749      3.9540      3.9398    
  4.4678      4.1368      3.7800      3.4506      3.1780      2.9717      2.8272      2.7329      2.6788      2.6649    
  2.7041      2.8161      3.0164      3.3060      3.6669      4.0589      4.4298      4.7098      4.8076      4.7081    
  6.0096      5.1428      4.4777      3.9099      3.4440      3.1131      2.9050      2.7875      2.7329      2.7335    
  2.8078      2.9905      3.3060      3.7435      4.2772      5.0400      6.0109      6.8651      7.1966      6.8368    
  11.006      8.3393      6.1058      4.7790      4.0208      3.4556      3.0957      2.9050      2.8272      2.8351    
  2.9492      3.2178      3.6669      4.2772      5.3734      7.3143      9.8783      12.291      13.559      13.060    
  21.862      16.442      10.981      7.0259      4.9765      4.0617      3.4556      3.1131      2.9717      2.9683    
  3.1136      3.4707      4.0589      5.0400      7.3143      11.338      16.650      21.891      25.224      25.242    
  39.163      30.730      20.981      12.701      7.4014      4.9765      4.0208      3.4440      3.1780      3.1313    
  3.2815      3.7047      4.4298      6.0109      9.8783      16.650      25.674      34.976      41.702      43.340    
  61.339      50.458      36.233      22.727      12.701      7.0259      4.7790      3.9099      3.4506      3.3181    
  3.4357      3.8749      4.7098      6.8651      12.291      21.891      34.976      49.113      60.454      65.132    
  84.400      72.598      54.790      36.233      20.981      10.981      6.1058      4.4777      3.7800      3.5139    
  3.5618      3.9540      4.8076      7.1966      13.559      25.224      41.702      60.454      76.969      86.057    
  102.30      91.884      72.598      50.458      30.730      16.442      8.3393      5.1428      4.1368      3.6979    
  3.6460      3.9398      4.7081      6.8368      13.060      25.242      43.340      65.132      86.057      100.08    
  102.30      100.08      86.057      65.132      43.340      25.242      13.060      6.8368      4.7081      3.9398    
  3.6460      3.6979      4.1368      5.1428      8.3393      16.442      30.730      50.458      72.598      91.884    
  100.08      102.28      91.857      72.579      50.451      30.729      16.441      8.3379      5.1446      4.1408    
  3.6992      3.6428      3.9366      4.7090      6.8401      13.062      25.244      43.348      65.150      86.073    
  86.057      91.857      86.048      70.787      51.165      32.423      18.038      9.2939      5.4704      4.2559    
  3.6946      3.5381      3.6945      4.2560      5.4704      9.2933      18.038      32.427      51.174      70.799    
  65.132      72.579      70.787      60.458      45.256      29.695      17.170      9.2065      5.5015      4.2490    
  3.6304      3.3981      3.4458      3.8023      4.5673      6.3969      11.469      21.171      35.169      51.166    
  43.340      50.451      51.165      45.256      34.980      23.706      14.275      8.1259      5.1861      4.1090    
  3.5089      3.2407      3.2161      3.4124      3.9224      4.8082      7.0435      12.326      21.170      32.421    
  25.242      30.729      32.423      29.695      23.706      16.652      10.574      6.5833      4.6704      3.8606    
  3.3400      3.0823      3.0223      3.1169      3.4166      3.9991      4.9081      7.0455      11.470      18.038    
  13.060      16.441      18.038      17.170      14.275      10.574      7.3149      5.1937      4.1549      3.5566    
  3.1464      2.9347      2.8714      2.9148      3.0793      3.4256      4.0010      4.8111      6.3987      9.2929    
  6.8368      8.3379      9.2939      9.2065      8.1259      6.5833      5.1937      4.2765      3.7030      3.2556    
  2.9595      2.8079      2.7617      2.7881      2.8846      3.0803      3.4183      3.9232      4.5659      5.4671    
  4.7081      5.1446      5.4704      5.5015      5.1861      4.6704      4.1549      3.7030      3.3061      3.0019    
  2.8068      2.7108      2.6881      2.7162      2.7884      2.9152      3.1166      3.4105      3.7991      4.2530    
  3.9398      4.1408      4.2559      4.2490      4.1090      3.8606      3.5566      3.2556      3.0019      2.8163    
  2.7016      2.6498      2.6489      2.6881      2.7616      2.8708      3.0208      3.2143      3.4448      3.6956    
  3.6460      3.6992      3.6946      3.6304      3.5089      3.3400      3.1464      2.9595      2.8068      2.7016    
  2.6436      2.6273      2.6498      2.7106      2.8074      2.9340      3.0819      3.2415      3.4005      3.5417    
  3.6979      3.6428      3.5381      3.3981      3.2407      3.0823      2.9347      2.8079      2.7108      2.6498    
  2.6273      2.6436      2.7016      2.8066      2.9593      3.1467      3.3413      3.5112      3.6329      3.6956    
  4.1368      3.9366      3.6945      3.4458      3.2161      3.0223      2.8714      2.7617      2.6881      2.6489    
  2.6498      2.7016      2.8162      3.0018      3.2561      3.5577      3.8622      4.1100      4.2483      4.2530    
  5.1428      4.7090      4.2560      3.8023      3.4124      3.1169      2.9148      2.7881      2.7162      2.6881    
  2.7106      2.8066      3.0018      3.3065      3.7039      4.1559      4.6705      5.1847      5.4985      5.4671    
  8.3393      6.8401      5.4704      4.5673      3.9224      3.4166      3.0793      2.8846      2.7884      2.7616    
  2.8074      2.9593      3.2561      3.7039      4.2773      5.1936      6.5818      8.1233      9.2040      9.2929    
  16.442      13.062      9.2933      6.3969      4.8082      3.9991      3.4256      3.0803      2.9152      2.8708    
  2.9340      3.1467      3.5577      4.1559      5.1936      7.3135      10.571      14.272      17.168      18.038    
  30.730      25.244      18.038      11.469      7.0435      4.9081      4.0010      3.4183      3.1166      3.0208    
  3.0819      3.3413      3.8622      4.6705      6.5818      10.571      16.649      23.702      29.691      32.421    
  50.458      43.348      32.427      21.171      12.326      7.0455      4.8111      3.9232      3.4105      3.2143    
  3.2415      3.5112      4.1100      5.1847      8.1233      14.272      23.702      34.975      45.252      51.166    
  72.598      65.150      51.174      35.169      21.170      11.470      6.3987      4.5659      3.7991      3.4448    
  3.4005      3.6329      4.2483      5.4985      9.2040      17.168      29.691      45.252      60.459      70.799    
  91.884      86.073      70.799      51.166      32.421      18.038      9.2929      5.4671      4.2530      3.6956    
  3.5417      3.6956      4.2530      5.4671      9.2929      18.038      32.421      51.166      70.799      86.073    
  84.400      86.057      76.969      60.454      41.702      25.224      13.559      7.1966      4.8076      3.9540    
  3.5618      3.5139      3.7800      4.4777      6.1058      10.981      20.981      36.233      54.790      72.598    
  86.057      91.857      86.048      70.787      51.165      32.423      18.038      9.2939      5.4704      4.2559    
  3.6946      3.5381      3.6945      4.2560      5.4704      9.2933      18.038      32.427      51.174      70.799    
  76.969      86.048      84.385      72.584      54.782      36.231      20.983      10.983      6.1060      4.4776    
  3.7801      3.5140      3.5617      3.9541      4.8076      7.1964      13.560      25.227      41.708      60.459    
  60.454      70.787      72.584      65.139      51.170      35.171      21.174      11.472      6.3991      4.5659    
  3.7992      3.4449      3.4004      3.6328      4.2483      5.4984      9.2040      17.169      29.693      45.252    
  41.702      51.165      54.782      51.170      41.711      29.699      18.566      10.532      6.1638      4.4898    
  3.7366      3.3390      3.2290      3.3389      3.7365      4.4898      6.1635      10.531      18.561      29.691    
  25.224      32.423      36.231      35.171      29.699      21.897      14.276      8.6302      5.5162      4.2617    
  3.5918      3.2063      3.0653      3.0979      3.3243      3.8284      4.6330      6.4385      10.530      17.168    
  13.559      18.038      20.983      21.174      18.566      14.276      9.8794      6.5816      4.7661      3.9395    
  3.3877      3.0595      2.9221      2.9172      3.0358      3.3319      3.8640      4.6331      6.1637      9.2040    
  7.1966      9.2939      10.983      11.472      10.532      8.6302      6.5816      5.0379      4.1545      3.5852    
  3.1644      2.9151      2.8058      2.7922      2.8562      3.0200      3.3318      3.8283      4.4899      5.4985    
  4.8076      5.4704      6.1060      6.3991      6.1638      5.5162      4.7661      4.1545      3.6667      3.2561    
  2.9624      2.7913      2.7183      2.7121      2.7562      2.8561      3.0357      3.3241      3.7364      4.2483    
  3.9540      4.2559      4.4776      4.5659      4.4898      4.2617      3.9395      3.5852      3.2561      2.9911    
  2.8069      2.7016      2.6611      2.6683      2.7121      2.7922      2.9172      3.0979      3.3389      3.6329    
  3.5618      3.6946      3.7801      3.7992      3.7366      3.5918      3.3877      3.1644      2.9624      2.8069    
  2.7043      2.6499      2.6372      2.6612      2.7183      2.8059      2.9223      3.0655      3.2292      3.4005    
  3.5139      3.5381      3.5140      3.4449      3.3390      3.2063      3.0595      2.9151      2.7913      2.7016    
  2.6499      2.6334      2.6499      2.7017      2.7913      2.9150      3.0595      3.2063      3.3389      3.4448    
  3.7800      3.6945      3.5617      3.4004      3.2290      3.0653      2.9221      2.8058      2.7183      2.6611    
  2.6372      2.6499      2.7043      2.8069      2.9623      3.1643      3.3876      3.5917      3.7364      3.7991    
  4.4777      4.2560      3.9541      3.6328      3.3389      3.0979      2.9172      2.7922      2.7121      2.6683    
  2.6612      2.7017      2.8069      2.9910      3.2561      3.5853      3.9397      4.2619      4.4899      4.5659    
  6.1058      5.4704      4.8076      4.2483      3.7365      3.3243      3.0358      2.8562      2.7562      2.7121    
  2.7183      2.7913      2.9623      3.2561      3.6671      4.1551      4.7668      5.5165      6.1637      6.3987    
  10.981      9.2933      7.1964      5.4984      4.4898      3.8284      3.3319      3.0200      2.8561      2.7922    
  2.8059      2.9150      3.1643      3.5853      4.1551      5.0388      6.5819      8.6292      10.530      11.470    
  20.981      18.038      13.560      9.2040      6.1635      4.6330      3.8640      3.3318      3.0357      2.9172    
  2.9223      3.0595      3.3876      3.9397      4.7668      6.5819      9.8779      14.272      18.561      21.170    
  36.233      32.427      25.227      17.169      10.531      6.4385      4.6331      3.8283      3.3241      3.0979    
  3.0655      3.2063      3.5917      4.2619      5.5165      8.6292      14.272      21.891      29.693      35.169    
  54.790      51.174      41.708      29.693      18.561      10.530      6.1637      4.4899      3.7364      3.3389    
  3.2292      3.3389      3.7364      4.4899      6.1637      10.530      18.561      29.693      41.708      51.174    
  72.598      70.799      60.459      45.252      29.691      17.168      9.2040      5.4985      4.2483      3.6329    
  3.4005      3.4448      3.7991      4.5659      6.3987      11.470      21.170      35.169      51.174      65.150    
  61.339      65.132      60.454      49.113      34.976      21.891      12.291      6.8651      4.7098      3.8749    
  3.4357      3.3181      3.4506      3.9099      4.7790      7.0259      12.701      22.727      36.233      50.458    
  65.132      72.579      70.787      60.458      45.256      29.695      17.170      9.2065      5.5015      4.2490    
  3.6304      3.3981      3.4458      3.8023      4.5673      6.3969      11.469      21.171      35.169      51.166    
  60.454      70.787      72.584      65.139      51.170      35.171      21.174      11.472      6.3991      4.5659    
  3.7992      3.4449      3.4004      3.6328      4.2483      5.4984      9.2040      17.169      29.693      45.252    
  49.113      60.458      65.139      61.345      50.462      36.236      22.731      12.704      7.0259      4.7760    
  3.9075      3.4514      3.3207      3.4365      3.8727      4.7072      6.8645      12.292      21.891      34.975    
  34.976      45.256      51.170      50.462      43.353      32.432      21.176      12.327      7.0432      4.8078    
  3.9223      3.4125      3.2161      3.2407      3.5089      4.1090      5.1859      8.1249      14.272      23.702    
  21.891      29.695      35.171      36.236      32.432      25.232      17.171      10.529      6.4347      4.6306    
  3.8289      3.3261      3.0984      3.0640      3.2050      3.5924      4.2640      5.5179      8.6292      14.272    
  12.291      17.170      21.174      22.731      21.176      17.171      12.291      8.1210      5.5141      4.3127    
  3.6424      3.1994      2.9790      2.9172      2.9792      3.1995      3.6426      4.3138      5.5165      8.1233    
  6.8651      9.2065      11.472      12.704      12.327      10.529      8.1210      6.0066      4.6684      3.9400    
  3.4046      3.0513      2.8675      2.8042      2.8271      2.9437      3.1996      3.6411      4.2619      5.1847    
  4.7098      5.5015      6.3991      7.0259      7.0432      6.4347      5.5141      4.6684      4.0579      3.5575    
  3.1644      2.9079      2.7728      2.7238      2.7340      2.7999      2.9429      3.1981      3.5917      4.1100    
  3.8749      4.2490      4.5659      4.7760      4.8078      4.6306      4.3127      3.9400      3.5575      3.2188    
  2.9596      2.7911      2.7025      2.6729      2.6851      2.7338      2.8267      2.9793      3.2063      3.5112    
  3.4357      3.6304      3.7992      3.9075      3.9223      3.8289      3.6424      3.4046      3.1644      2.9596    
  2.8079      2.7106      2.6611      2.6508      2.6730      2.7240      2.8048      2.9184      3.0655      3.2415    
  3.3181      3.3981      3.4449      3.4514      3.4125      3.3261      3.1994      3.0513      2.9079      2.7911    
  2.7106      2.6648      2.6489      2.6612      2.7027      2.7732      2.8681      2.9793      3.0979      3.2143    
  3.4506      3.4458      3.4004      3.3207      3.2161      3.0984      2.9790      2.8675      2.7728      2.7025    
  2.6611      2.6489      2.6649      2.7108      2.7912      2.9078      3.0508      3.1981      3.3241      3.4105    
  3.9099      3.8023      3.6328      3.4365      3.2407      3.0640      2.9172      2.8042      2.7238      2.6729    
  2.6508      2.6612      2.7108      2.8079      2.9592      3.1635      3.4033      3.6411      3.8283      3.9232    
  4.7790      4.5673      4.2483      3.8727      3.5089      3.2050      2.9792      2.8271      2.7340      2.6851    
  2.6730      2.7027      2.7912      2.9592      3.2178      3.5566      3.9397      4.3138      4.6331      4.8111    
  7.0259      6.3969      5.4984      4.7072      4.1090      3.5924      3.1995      2.9437      2.7999      2.7338    
  2.7240      2.7732      2.9078      3.1635      3.5566      4.0582      4.6707      5.5179      6.4385      7.0455    
  12.701      11.469      9.2040      6.8645      5.1859      4.2640      3.6426      3.1996      2.9429      2.8267    
  2.8048      2.8681      3.0508      3.4033      3.9397      4.6707      6.0109      8.1249      10.531      12.326    
  22.727      21.171      17.169      12.292      8.1249      5.5179      4.3138      3.6411      3.1981      2.9793    
  2.9184      2.9793      3.1981      3.6411      4.3138      5.5179      8.1249      12.292      17.169      21.171    
  36.233      35.169      29.693      21.891      14.272      8.6292      5.5165      4.2619      3.5917      3.2063    
  3.0655      3.0979      3.3241      3.8283      4.6331      6.4385      10.531      17.169      25.227      32.427    
  50.458      51.166      45.252      34.975      23.702      14.272      8.1233      5.1847      4.1100      3.5112    
  3.2415      3.2143      3.4105      3.9232      4.8111      7.0455      12.326      21.171      32.427      43.348    
  39.163      43.340      41.702      34.976      25.674      16.650      9.8783      6.0109      4.4298      3.7047    
  3.2815      3.1313      3.1780      3.4440      4.0208      4.9765      7.4014      12.701      20.981      30.730    
  43.340      50.451      51.165      45.256      34.980      23.706      14.275      8.1259      5.1861      4.1090    
  3.5089      3.2407      3.2161      3.4124      3.9224      4.8082      7.0435      12.326      21.170      32.421    
  41.702      51.165      54.782      51.170      41.711      29.699      18.566      10.532      6.1638      4.4898    
  3.7366      3.3390      3.2290      3.3389      3.7365      4.4898      6.1635      10.531      18.561      29.691    
  34.976      45.256      51.170      50.462      43.353      32.432      21.176      12.327      7.0432      4.8078    
  3.9223      3.4125      3.2161      3.2407      3.5089      4.1090      5.1859      8.1249      14.272      23.702    
  25.674      34.980      41.711      43.353      39.176      30.739      20.985      12.700      7.3995      4.9751    
  4.0204      3.4440      3.1780      3.1313      3.2816      3.7048      4.4299      6.0109      9.8779      16.649    
  16.650      23.706      29.699      32.432      30.739      25.249      18.038      11.465      7.0396      4.9059    
  4.0004      3.4182      3.1165      3.0208      3.0819      3.3413      3.8622      4.6707      6.5819      10.571    
  9.8783      14.275      18.566      21.176      20.985      18.038      13.555      9.1979      6.1588      4.6309    
  3.8635      3.3318      3.0356      2.9172      2.9223      3.0594      3.3875      3.9397      4.7668      6.5818    
  6.0109      8.1259      10.532      12.327      12.700      11.465      9.1979      6.8586      5.1823      4.2628    
  3.6427      3.1998      2.9429      2.8267      2.8049      2.8681      3.0508      3.4033      3.9397      4.6705    
  4.4298      5.1861      6.1638      7.0432      7.3995      7.0396      6.1588      5.1823      4.4284      3.8624    
  3.3882      3.0511      2.8507      2.7537      2.7260      2.7538      2.8507      3.0508      3.3876      3.8622    
  3.7047      4.1090      4.4898      4.8078      4.9751      4.9059      4.6309      4.2628      3.8624      3.4721    
  3.1470      2.9146      2.7728      2.7017      2.6799      2.6962      2.7538      2.8681      3.0595      3.3413    
  3.2815      3.5089      3.7366      3.9223      4.0204      4.0004      3.8635      3.6427      3.3882      3.1470    
  2.9496      2.8074      2.7181      2.6729      2.6621      2.6799      2.7260      2.8048      2.9223      3.0819    
  3.1313      3.2407      3.3390      3.4125      3.4440      3.4182      3.3318      3.1998      3.0511      2.9146    
  2.8074      2.7331      2.6880      2.6683      2.6729      2.7018      2.7538      2.8267      2.9172      3.0208    
  3.1780      3.2161      3.2290      3.2161      3.1780      3.1165      3.0356      2.9429      2.8507      2.7728    
  2.7181      2.6880      2.6787      2.6880      2.7182      2.7728      2.8507      2.9429      3.0357      3.1166    
  3.4440      3.4124      3.3389      3.2407      3.1313      3.0208      2.9172      2.8267      2.7537      2.7017    
  2.6729      2.6683      2.6880      2.7332      2.8073      2.9143      3.0508      3.1996      3.3318      3.4183    
  4.0208      3.9224      3.7365      3.5089      3.2816      3.0819      2.9223      2.8049      2.7260      2.6799    
  2.6621      2.6729      2.7182      2.8073      2.9491      3.1462      3.3875      3.6426      3.8640      4.0010    
  4.9765      4.8082      4.4898      4.1090      3.7048      3.3413      3.0594      2.8681      2.7538      2.6962    
  2.6799      2.7018      2.7728      2.9143      3.1462      3.4712      3.8622      4.2640      4.6330      4.9081    
  7.4014      7.0435      6.1635      5.1859      4.4299      3.8622      3.3875      3.0508      2.8507      2.7538    
  2.7260      2.7538      2.8507      3.0508      3.3875      3.8622      4.4299      5.1859      6.1635      7.0435    
  12.701      12.326      10.531      8.1249      6.0109      4.6707      3.9397      3.4033      3.0508      2.8681    
  2.8048      2.8267      2.9429      3.1996      3.6426      4.2640      5.1859      6.8645      9.2040      11.469    
  20.981      21.170      18.561      14.272      9.8779      6.5819      4.7668      3.9397      3.3876      3.0595    
  2.9223      2.9172      3.0357      3.3318      3.8640      4.6330      6.1635      9.2040      13.560      18.038    
  30.730      32.421      29.691      23.702      16.649      10.571      6.5818      4.6705      3.8622      3.3413    
  3.0819      3.0208      3.1166      3.4183      4.0010      4.9081      7.0435      11.469      18.038      25.244    
  21.862      25.242      25.224      21.891      16.650      11.338      7.3143      5.0400      4.0589      3.4707    
  3.1136      2.9683      2.9717      3.1131      3.4556      4.0617      4.9765      7.0259      10.981      16.442    
  25.242      30.729      32.423      29.695      23.706      16.652      10.574      6.5833      4.6704      3.8606    
  3.3400      3.0823      3.0223      3.1169      3.4166      3.9991      4.9081      7.0455      11.470      18.038    
  25.224      32.423      36.231      35.171      29.699      21.897      14.276      8.6302      5.5162      4.2617    
  3.5918      3.2063      3.0653      3.0979      3.3243      3.8284      4.6330      6.4385      10.530      17.168    
  21.891      29.695      35.171      36.236      32.432      25.232      17.171      10.529      6.4347      4.6306    
  3.8289      3.3261      3.0984      3.0640      3.2050      3.5924      4.2640      5.5179      8.6292      14.272    
  16.650      23.706      29.699      32.432      30.739      25.249      18.038      11.465      7.0396      4.9059    
  4.0004      3.4182      3.1165      3.0208      3.0819      3.3413      3.8622      4.6707      6.5819      10.571    
  11.338      16.652      21.897      25.232      25.249      21.863      16.436      10.972      7.0194      4.9754    
  4.0635      3.4565      3.1122      2.9707      2.9687      3.1149      3.4712      4.0582      5.0388      7.3135    
  7.3143      10.574      14.276      17.171      18.038      16.436      13.051      9.2834      6.3926      4.8091    
  4.0012      3.4259      3.0793      2.9148      2.8715      2.9347      3.1462      3.5566      4.1551      5.1936    
  5.0400      6.5833      8.6302      10.529      11.465      10.972      9.2834      7.1904      5.4979      4.4926    
  3.8305      3.3320      3.0192      2.8561      2.7927      2.8060      2.9143      3.1635      3.5853      4.1559    
  4.0589      4.6704      5.5162      6.4347      7.0396      7.0194      6.3926      5.4979      4.7101      4.1125    
  3.5941      3.1994      2.9432      2.7999      2.7341      2.7239      2.7728      2.9078      3.1643      3.5577    
  3.4707      3.8606      4.2617      4.6306      4.9059      4.9754      4.8091      4.4926      4.1125      3.7073    
  3.3421      3.0591      2.8677      2.7539      2.6964      2.6799      2.7018      2.7732      2.9150      3.1467    
  3.1136      3.3400      3.5918      3.8289      4.0004      4.0635      4.0012      3.8305      3.5941      3.3421    
  3.1148      2.9342      2.8057      2.7240      2.6800      2.6662      2.6799      2.7240      2.8059      2.9340    
  2.9683      3.0823      3.2063      3.3261      3.4182      3.4565      3.4259      3.3320      3.1994      3.0591    
  2.9342      2.8348      2.7615      2.7122      2.6851      2.6799      2.6962      2.7338      2.7922      2.8708    
  2.9717      3.0223      3.0653      3.0984      3.1165      3.1122      3.0793      3.0192      2.9432      2.8677    
  2.8057      2.7615      2.7328      2.7162      2.7121      2.7239      2.7538      2.7999      2.8561      2.9152    
  3.1131      3.1169      3.0979      3.0640      3.0208      2.9707      2.9148      2.8561      2.7999      2.7539    
  2.7240      2.7122      2.7162      2.7328      2.7617      2.8060      2.8681      2.9437      3.0200      3.0803    
  3.4556      3.4166      3.3243      3.2050      3.0819      2.9687      2.8715      2.7927      2.7341      2.6964    
  2.6800      2.6851      2.7121      2.7617      2.8352      2.9347      3.0594      3.1995      3.3319      3.4256    
  4.0617      3.9991      3.8284      3.5924      3.3413      3.1149      2.9347      2.8060      2.7239      2.6799    
  2.6662      2.6799      2.7239      2.8060      2.9347      3.1149      3.3413      3.5924      3.8284      3.9991    
  4.9765      4.9081      4.6330      4.2640      3.8622      3.4712      3.1462      2.9143      2.7728      2.7018    
  2.6799      2.6962      2.7538      2.8681      3.0594      3.3413      3.7048      4.1090      4.4898      4.8082    
  7.0259      7.0455      6.4385      5.5179      4.6707      4.0582      3.5566      3.1635      2.9078      2.7732    
  2.7240      2.7338      2.7999      2.9437      3.1995      3.5924      4.1090      4.7072      5.4984      6.3969    
  10.981      11.470      10.530      8.6292      6.5819      5.0388      4.1551      3.5853      3.1643      2.9150    
  2.8059      2.7922      2.8561      3.0200      3.3319      3.8284      4.4898      5.4984      7.1964      9.2933    
  16.442      18.038      17.168      14.272      10.571      7.3135      5.1936      4.1559      3.5577      3.1467    
  2.9340      2.8708      2.9152      3.0803      3.4256      3.9991      4.8082      6.3969      9.2933      13.062    
  11.006      13.060      13.559      12.291      9.8783      7.3143      5.3734      4.2772      3.6669      3.2178    
  2.9492      2.8351      2.8272      2.9050      3.0957      3.4556      4.0208      4.7790      6.1058      8.3393    
  13.060      16.441      18.038      17.170      14.275      10.574      7.3149      5.1937      4.1549      3.5566    
  3.1464      2.9347      2.8714      2.9148      3.0793      3.4256      4.0010      4.8111      6.3987      9.2929    
  13.559      18.038      20.983      21.174      18.566      14.276      9.8794      6.5816      4.7661      3.9395    