    1    1    1    2
  0.1283619E+02  0.2554775E-09  0.2554775E-09  0.2554775E-09  0.5000000E-15
  1.000000000000000E-004
  CAR 
 bcc Fe                                  
      8     44     12
 
  0.5000000E-01  0.5000000E-01  0.5000000E-01  0.8000000E-02
    1       -2.523310     -2.377055   1.000000   1.000000
    2        2.368328      4.644417   1.000000   0.573459
    3        2.368328      4.644417   1.000000   0.573459
    4        2.793053      5.141071   1.000000  -0.001819
    5        3.509593      6.408465   1.000000  -0.000000
    6        3.509593      6.408465   1.000000  -0.000000
    7       25.774037     25.855769   0.000000   0.000000
    8       25.774037     25.855769   0.000000   0.000000
    9       28.946733     28.668861   0.000000   0.000000
   10       29.011468     29.894937   0.000000   0.000000
   11       32.867093     33.259426   0.000000   0.000000
   12       32.867094     33.259426   0.000000   0.000000
 
  0.1500000E+00  0.5000000E-01  0.5000000E-01  0.2400000E-01
    1       -1.493635     -1.317063   1.000000   1.000000
    2        2.125550      4.333434   1.000000   1.021133
    3        2.259836      4.452671   1.000000   1.029258
    4        3.358481      5.756308   1.000000  -0.000000
    5        3.421131      6.258279   1.000000  -0.000000
    6        3.572507      6.490637   1.000000  -0.000000
    7       21.557910     22.035114   0.000000   0.000000
    8       23.870458     24.108230   0.000000   0.000000
    9       25.886179     26.725150   0.000000   0.000000
   10       29.111234     28.959382   0.000000   0.000000
   11       32.393069     33.041661   0.000000   0.000000
   12       33.058899     33.333334   0.000000   0.000000
 
  0.2500000E+00  0.5000000E-01  0.5000000E-01  0.2400000E-01
    1       -0.199336      0.204119   1.000000   1.000000
    2        1.855158      3.987701   1.000000   1.000010
    3        2.340742      4.221115   1.000000   1.003921
    4        3.464857      6.263938   1.000000  -0.000000
    5        3.634985      6.576899   1.000000  -0.000000
    6        4.146902      6.582297   1.000824  -0.000000
    7       17.047990     17.843895   0.000000   0.000000
    8       22.245233     22.501266   0.000000   0.000000
    9       23.708551     24.465718   0.000000   0.000000
   10       28.508919     28.636247   0.000000   0.000000
   11       31.552763     32.145289   0.000000   0.000000
   12       34.948115     35.170766   0.000000   0.000000
 
  0.3500000E+00  0.5000000E-01  0.5000000E-01  0.2400000E-01
    1        0.382234      1.516012   1.000000   1.000000
    2        1.651256      3.728993   1.000000   1.000000
    3        3.275849      4.452047   1.000000   1.029495
    4        3.588635      6.360873   1.000000  -0.000000
    5        3.689764      6.665525   1.000000  -0.000000
    6        5.183471      7.403179  -0.000705  -0.000000
    7       13.076555     14.227029   0.000000   0.000000
    8       21.156273     21.381824   0.000000   0.000000
    9       22.243556     22.928732   0.000000   0.000000
   10       28.046333     28.326413   0.000000   0.000000
   11       31.239469     31.838907   0.000000   0.000000
   12       37.269312     37.346806   0.000000   0.000000
 
  0.4500000E+00  0.5000000E-01  0.5000000E-01  0.1200000E-01
    1        0.422173      1.896329   1.000000   1.000000
    2        1.575506      3.633739   1.000000   1.000000
    3        3.597124      4.954203   1.000000  -0.029318
    4        3.708157      6.398709   1.000000  -0.000000
    5        3.926668      6.696896   1.000001  -0.000000
    6        6.177285      7.860618  -0.000000  -0.000000
    7       10.976456     12.501711   0.000000   0.000000
    8       20.771344     20.978893   0.000000   0.000000
    9       21.706173     22.354965   0.000000   0.000000
   10       27.885195     28.214486   0.000000   0.000000
   11       31.168106     31.787294   0.000000   0.000000
   12       37.271963     37.256189   0.000000   0.000000
 
 -0.5000000E-01  0.5000000E-01  0.5000000E-01  0.6000000E-02
    1       -2.891716     -2.748693   1.000000   1.000000
    2        2.470417      4.774350   1.000000   0.097524
    3        2.470510      4.774617   1.000000   0.096877
    4        2.517503      4.837005   1.000000  -0.006974
    5        3.483711      6.375061   1.000000  -0.000000
    6        3.585069      6.513122   1.000000  -0.000000
    7       27.262248     27.059106   0.000000   0.000000
    8       28.176955     27.980898   0.000000   0.000000
    9       28.176999     27.980915   0.000000   0.000000
   10       30.979869     31.371947   0.000000   0.000000
   11       32.342695     33.224687   0.000000   0.000000
   12       32.342697     33.224768   0.000000   0.000000
 
  0.1500000E+00  0.1500000E+00  0.5000000E-01  0.2400000E-01
    1       -0.318242     -0.038244   1.000000   1.000000
    2        1.953284      4.059751   1.000000   1.000088
    3        1.969687      4.070000   1.000000   1.000117
    4        3.436762      6.261609   1.000000  -0.000000
    5        3.644767      6.547507   1.000000  -0.000000
    6        4.197833      6.614953   1.002490  -0.000000
    7       19.391382     19.969822   0.000000   0.000000
    8       20.080021     20.674110   0.000000   0.000000
    9       23.082917     23.754191   0.000000   0.000000
   10       30.328915     30.181165   0.000000   0.000000
   11       33.533748     33.905372   0.000000   0.000000
   12       34.877266     35.307102   0.000000   0.000000
 
  0.2500000E+00  0.1500000E+00  0.5000000E-01  0.4800000E-01
    1        0.669106      1.448497   1.000000   1.000000
    2        1.710600      3.735902   1.000000   1.000000
    3        2.178365      3.914354   1.000000   1.000001
    4        3.511557      6.326269   1.000000  -0.000000
    5        3.723532      6.664158   1.000000  -0.000000
    6        5.427984      7.626804  -0.000000  -0.000000
    7       15.368364     16.243830   0.000000   0.000000
    8       18.371809     18.991686   0.000000   0.000000
    9       21.517234     22.104839   0.000000   0.000000
   10       30.380998     30.419471   0.000000   0.000000
   11       34.318079     34.644399   0.000000   0.000000
   12       35.494173     35.889222   0.000000   0.000000
 
  0.3500000E+00  0.1500000E+00  0.5000000E-01  0.4800000E-01
    1        0.797451      2.260353   1.000000   1.000000
    2        1.595195      3.591881   1.000000   1.000000
    3        2.825989      4.208159   1.000000   1.003058
    4        3.604162      6.424155   1.000000  -0.000000
    5        3.806065      6.715987   1.000000  -0.000000
    6        7.149910      8.769480  -0.000000  -0.000000
    7       11.866090     13.129808   0.000000   0.000000
    8       17.598739     18.211392   0.000000   0.000000
    9       20.715078     21.263625   0.000000   0.000000
   10       30.182956     30.326471   0.000000   0.000000
   11       34.803364     35.268103   0.000000   0.000000
   12       36.042174     36.139335   0.000000   0.000000
 
 -0.1500000E+00  0.1500000E+00  0.5000000E-01  0.2400000E-01
    1       -2.166361     -2.013828   1.000000   1.000000
    2        2.320732      4.581612   1.000000   0.811118
    3        2.451485      4.712244   1.000000   0.294088
    4        2.859203      5.220044   1.000000  -0.000286
    5        3.318698      6.140567   1.000000  -0.000000
    6        3.636202      6.574527   1.000000  -0.000000
    7       23.820552     24.102881   0.000000   0.000000
    8       26.457927     26.503589   0.000000   0.000000
    9       26.975305     27.225009   0.000000   0.000000
   10       30.224979     30.633885   0.000000   0.000000
   11       30.233491     30.901466   0.000000   0.000000
   12       31.262750     31.742729   0.000000   0.000000
 
  0.2500000E+00  0.2500000E+00  0.5000000E-01  0.2400000E-01
    1        1.169058      2.576412   1.000000   1.000000
    2        1.662476      3.503599   1.000000   1.000000
    3        2.163356      3.794432   1.000000   1.000000
    4        3.596961      6.424683   1.000000  -0.000000
    5        3.792975      6.698919   1.000000  -0.000000
    6        7.429203      9.146763  -0.000000  -0.000000
    7       13.924973     14.861135   0.000000   0.000000
    8       14.660122     15.501176   0.000000   0.000000
    9       20.531561     21.106092   0.000000   0.000000
   10       31.678490     31.692051   0.000000   0.000000
   11       34.204705     34.387703   0.000000   0.000000
   12       39.658644     39.924670   0.000000   0.000000
 
  0.3500000E+00  0.2500000E+00  0.5000000E-01  0.2400000E-01
    1        1.215251      2.922144   1.000000   1.000000
    2        1.694673      3.515746   1.000000   1.000000
    3        2.229855      3.788609   1.000000   1.000000
    4        3.674165      6.516947   1.000000  -0.000000
    5        3.793909      6.669183   1.000000  -0.000000
    6        9.480585     10.717362  -0.000000   0.000000
    7       11.408343     12.635954   0.000000   0.000000
    8       14.023644     14.892138   0.000000   0.000000
    9       20.211258     20.792334   0.000000   0.000000
   10       32.138428     32.194175   0.000000   0.000000
   11       34.340251     34.357353   0.000000   0.000000
   12       39.179055     39.721613   0.000000   0.000000
 
 -0.2500000E+00  0.2500000E+00  0.5000000E-01  0.2400000E-01
    1       -0.911982     -0.671864   1.000000   1.000000
    2        2.064415      4.255414   1.000000   1.007195
    3        2.388745      4.479322   1.000000   1.013526
    4        3.309866      5.930554   1.000000  -0.000000
    5        3.484755      6.058075   1.000000  -0.000000
    6        3.699494      6.638548   1.000000  -0.000000
    7       19.238611     19.901084   0.000000   0.000000
    8       24.413582     24.498215   0.000000   0.000000
    9       25.293729     25.910585   0.000000   0.000000
   10       28.497505     28.988793   0.000000   0.000000
   11       29.979388     30.514909   0.000000   0.000000
   12       32.162942     32.412693   0.000000   0.000000
 
 -0.1500000E+00  0.2500000E+00  0.5000000E-01  0.2400000E-01
    1       -1.176970     -0.981253   1.000000   1.000000
    2        2.267845      4.467348   1.000000   1.022035
    3        2.284688      4.501637   1.000000   0.990321
    4        3.157662      5.731294   1.000000  -0.000000
    5        3.331521      5.884147   1.000000  -0.000000
    6        3.758386      6.698687   1.000000  -0.000000
    7       21.501854     21.953774   0.000000   0.000000
    8       22.424687     22.969813   0.000000   0.000000
    9       27.161397     27.325263   0.000000   0.000000
   10       27.533064     28.123049   0.000000   0.000000
   11       30.230573     30.600961   0.000000   0.000000
   12       33.283586     33.640313   0.000000   0.000000
 
 -0.3500000E+00  0.3500000E+00  0.5000000E-01  0.2400000E-01
    1        0.130064      0.869554   1.000000   1.000000
    2        1.813932      3.941737   1.000000   1.000002
    3        2.813533      4.370489   1.000000   1.029527
    4        3.506331      6.192859   1.000000  -0.000000
    5        3.918535      6.722329   1.000001  -0.000000
    6        4.163037      6.726277   1.001189  -0.000000
    7       14.902670     15.878337   0.000000   0.000000
    8       22.836640     22.902135   0.000000   0.000000
    9       23.566628     24.253012   0.000000   0.000000
   10       27.586278     28.080164   0.000000   0.000000
   11       29.858755     30.420447   0.000000   0.000000
   12       33.927245     34.163205   0.000000   0.000000
 
 -0.2500000E+00  0.3500000E+00  0.5000000E-01  0.4800000E-01
    1        0.047696      0.493002   1.000000   1.000000
    2        1.984772      4.112472   1.000000   1.000358
    3        2.256318      4.268213   1.000000   1.008848
    4        3.256008      5.918136   1.000000  -0.000000
    5        3.802541      6.490895   1.000000  -0.000000
    6        4.262456      6.864993   1.008073  -0.000000
    7       17.318991     18.098292   0.000000   0.000000
    8       20.326230     20.892993   0.000000   0.000000
    9       25.200946     25.609313   0.000000   0.000000
   10       27.577338     27.924273   0.000000   0.000000
   11       30.723497     31.120104   0.000000   0.000000
   12       33.790018     34.181557   0.000000   0.000000
 
 -0.4500000E+00  0.4500000E+00  0.5000000E-01  0.2400000E-01
    1        0.350547      1.741002   1.000000   1.000000
    2        1.664599      3.755608   1.000000   1.000000
    3        3.339441      4.864510   1.000000  -0.026453
    4        3.557219      6.297618   1.000000  -0.000000
    5        4.628141      6.942288   0.640416  -0.000000
    6        5.199980      7.276766  -0.000474  -0.000000
    7       11.566576     12.972877   0.000000   0.000000
    8       21.992939     22.030903   0.000000   0.000000
    9       22.502846     23.142152   0.000000   0.000000
   10       27.228101     27.765989   0.000000   0.000000
   11       29.912250     30.526308   0.000000   0.000000
   12       35.320029     35.384702   0.000000   0.000000
 
 -0.3500000E+00  0.4500000E+00  0.5000000E-01  0.4800000E-01
    1        0.592708      1.774813   1.000000   1.000000
    2        1.814673      3.887030   1.000000   1.000000
    3        2.584566      4.222785   1.000000   1.004046
    4        3.450153      6.124542   1.000000  -0.000000
    5        4.118715      6.817376   1.000419  -0.000000
    6        5.597689      7.647496  -0.000000  -0.000000
    7       13.291950     14.397800   0.000000   0.000000
    8       19.158280     19.727792   0.000000   0.000000
    9       23.743727     24.091021   0.000000   0.000000
   10       27.675971     28.125509   0.000000   0.000000
   11       31.873635     32.182757   0.000000   0.000000
   12       33.588487     33.986906   0.000000   0.000000
 
 -0.2500000E+00  0.4500000E+00  0.5000000E-01  0.2400000E-01
    1        0.888416      1.837183   1.000000   1.000000
    2        1.717966      3.720644   1.000000   1.000000
    3        2.251844      4.171426   1.000000   1.001430
    4        3.358824      6.008328   1.000000  -0.000000
    5        3.925966      6.704876   1.000001  -0.000000
    6        5.783427      7.872079  -0.000000  -0.000000
    7       15.649749     16.518003   0.000000   0.000000
    8       16.206327     16.977406   0.000000   0.000000
    9       24.733332     25.208233   0.000000   0.000000
   10       27.528971     27.718629   0.000000   0.000000
   11       30.674837     31.054776   0.000000   0.000000
   12       37.858955     38.190805   0.000000   0.000000
 
 -0.4500000E+00 -0.4500000E+00  0.5000000E-01  0.2400000E-01
    1        0.619545      2.154989   1.000000   1.000000
    2        1.759756      3.834406   1.000000   1.000000
    3        2.793489      4.408070   1.000000   1.035175
    4        3.473657      6.185742   1.000000  -0.000000
    5        4.370862      6.988578   1.029606  -0.000000
    6        6.916977      8.356452  -0.000000  -0.000000
    7       11.052000     12.525019   0.000000   0.000000
    8       18.737016     19.297119   0.000000   0.000000
    9       23.235756     23.552782   0.000000   0.000000
   10       27.696472     28.189696   0.000000   0.000000
   11       32.900553     33.247552   0.000000   0.000000
   12       33.192369     33.428481   0.000000   0.000000
 
 -0.3500000E+00 -0.4500000E+00  0.5000000E-01  0.4800000E-01
    1        1.106778      2.682503   1.000000   1.000000
    2        1.736747      3.647172   1.000000   1.000000
    3        2.201504      3.977334   1.000000   1.000007
    4        3.538315      6.212326   1.000000  -0.000000
    5        4.050349      6.746709   1.000067  -0.000000
    6        7.991906      9.486549  -0.000000  -0.000000
    7       12.192929     13.352584   0.000000   0.000000
    8       15.184748     15.981515   0.000000   0.000000
    9       24.118600     24.576729   0.000000   0.000000
   10       28.082120     28.340719   0.000000   0.000000
   11       31.028651     31.193137   0.000000   0.000000
   12       36.609766     37.372025   0.000000   0.000000
 
 -0.3500000E+00 -0.3500000E+00  0.5000000E-01  0.8000000E-02
    1        1.482814      3.361068   1.000000   1.000000
    2        1.768912      3.529179   1.000000   1.000000
    3        1.768940      3.529257   1.000000   1.000000
    4        3.820126      6.503275   1.000000  -0.000000
    5        3.820228      6.503473   1.000000  -0.000000
    6       10.767077     11.924549   0.000000   0.000000
    7       10.767084     11.924689   0.000000   0.000000
    8       12.903036     13.927393   0.000000   0.000000
    9       24.174228     24.708202   0.000000   0.000000
   10       29.510170     29.643625   0.000000   0.000000
   11       29.510257     29.643793   0.000000   0.000000
   12       35.899919     36.868926   0.000000   0.000000
 
  0.1500000E+00  0.1500000E+00  0.1500000E+00  0.8000000E-02
    1        0.830482      1.328279   1.000000   1.000000
    2        1.708464      3.710465   1.000000   1.000000
    3        1.708464      3.710465   1.000000   1.000000
    4        3.614967      6.529400   1.000000  -0.000000
    5        3.614967      6.529400   1.000000  -0.000000
    6        5.432016      7.661581  -0.000000  -0.000000
    7       17.800210     18.438895   0.000000   0.000000
    8       17.800210     18.438895   0.000000   0.000000
    9       18.883753     19.675813   0.000000   0.000000
   10       33.138706     32.803876   0.000000   0.000000
   11       36.387323     36.630564   0.000000   0.000000
   12       36.387323     36.630564   0.000000   0.000000
 
  0.2500000E+00  0.1500000E+00  0.1500000E+00  0.2400000E-01
    1        1.256498      2.525168   1.000000   1.000000
    2        1.572254      3.502450   1.000000   1.000000
    3        2.093680      3.635223   1.000000   1.000000
    4        3.656674      6.563462   1.000000  -0.000000
    5        3.699785      6.674010   1.000000  -0.000000
    6        7.233481      9.018200  -0.000000  -0.000000
    7       13.997184     14.925501   0.000000   0.000000
    8       16.816093     17.476470   0.000000   0.000000
    9       17.411067     18.133022   0.000000   0.000000
   10       33.974924     33.832400   0.000000   0.000000
   11       37.168891     37.466531   0.000000   0.000000
   12       38.611788     38.649952   0.000000   0.000000
 
  0.3500000E+00  0.1500000E+00  0.1500000E+00  0.1200000E-01
    1        1.187374      2.777949   1.000000   1.000000
    2        1.529160      3.434294   1.000000   1.000000
    3        2.483072      3.919437   1.000000   1.000001
    4        3.685061      6.590541   1.000000  -0.000000
    5        3.720141      6.715790   1.000000  -0.000000
    6        9.012103     10.273885  -0.000000   0.000000
    7       11.418267     12.700577   0.000000   0.000000
    8       16.478216     17.143488   0.000000   0.000000
    9       16.988204     17.692898   0.000000   0.000000
   10       33.931945     33.874477   0.000000   0.000000
   11       37.563421     38.025003   0.000000   0.000000
   12       38.786778     38.790904   0.000000   0.000000
 
 -0.1500000E+00  0.1500000E+00  0.1500000E+00  0.6000000E-02
    1       -1.484000     -1.311107   1.000000   1.000000
    2        2.532920      4.787346   1.000000   0.068037
    3        2.532998      4.787586   1.000000   0.067533
    4        2.872308      5.243637   1.000000  -0.000154
    5        2.927622      5.621191   1.000000  -0.000000
    6        3.816583      6.766642   1.000000  -0.000000
    7       23.608660     23.741826   0.000000   0.000000
    8       24.665577     25.223755   0.000000   0.000000
    9       24.665616     25.223793   0.000000   0.000000
   10       26.250960     26.679830   0.000000   0.000000
   11       32.724100     33.025616   0.000000   0.000000
   12       32.724106     33.025640   0.000000   0.000000
 
  0.2500000E+00  0.2500000E+00  0.1500000E+00  0.2400000E-01
    1        1.433308      3.153546   1.000000   1.000000
    2        1.697289      3.425232   1.000000   1.000000
    3        2.013411      3.554558   1.000000   1.000000
    4        3.710232      6.662245   1.000000  -0.000000
    5        3.728676      6.708616   1.000000  -0.000000
    6        9.704830     11.002205  -0.000000   0.000000
    7       12.836652     13.808096   0.000000   0.000000
    8       13.730732     14.623516   0.000000   0.000000
    9       16.477615     17.181814   0.000000   0.000000
   10       36.378769     36.250357   0.000000   0.000000
   11       37.973269     37.960026   0.000000   0.000000
   12       41.075274     41.265750   0.000000   0.000000
 
 -0.2500000E+00  0.2500000E+00  0.1500000E+00  0.2400000E-01
    1       -0.339965     -0.043062   1.000000   1.000000
    2        2.316072      4.570143   1.000000   0.846483
    3        2.410994      4.627827   1.000000   0.641683
    4        2.927486      5.425053   1.000000  -0.000000
    5        3.409229      5.844981   1.000000  -0.000000
    6        4.047452      6.903582   1.000062  -0.000000
    7       19.789894     20.434911   0.000000   0.000000
    8       22.564394     23.236156   0.000000   0.000000
    9       23.101031     23.411378   0.000000   0.000000
   10       26.268571     26.708443   0.000000   0.000000
   11       32.116395     32.547289   0.000000   0.000000
   12       33.350270     33.672082   0.000000   0.000000
 
 -0.3500000E+00  0.3500000E+00  0.1500000E+00  0.2400000E-01
    1        0.566871      1.394112   1.000000   1.000000
    2        2.112189      4.100819   1.000000   1.000266
    3        2.203922      4.371371   1.000000   1.029712
    4        3.244553      5.745830   1.000000  -0.000000
    5        4.101532      6.648312   1.000271  -0.000000
    6        4.864805      7.223925  -0.026593  -0.000000
    7       15.411765     16.329510   0.000000   0.000000
    8       20.866965     21.544951   0.000000   0.000000
    9       21.958058     22.275069   0.000000   0.000000
   10       27.823847     28.196784   0.000000   0.000000
   11       31.079494     31.566730   0.000000   0.000000
   12       33.152892     33.554107   0.000000   0.000000
 
 -0.2500000E+00  0.3500000E+00  0.1500000E+00  0.2400000E-01
    1        0.599840      1.245553   1.000000   1.000000
    2        1.883518      4.092644   1.000000   1.000215
    3        2.523745      4.682410   1.000000   0.413514
    4        3.042432      5.470696   1.000000  -0.000000
    5        3.836184      6.388448   1.000000  -0.000000
    6        4.835766      7.255649  -0.005769  -0.000000
    7       17.902002     18.664294   0.000000   0.000000
    8       18.366010     19.069605   0.000000   0.000000
    9       23.902289     24.285943   0.000000   0.000000
   10       25.037831     25.492609   0.000000   0.000000
   11       31.646854     32.099994   0.000000   0.000000
   12       36.604896     36.919493   0.000000   0.000000
 
 -0.4500000E+00  0.4500000E+00  0.1500000E+00  0.2400000E-01
    1        0.716639      2.228187   1.000000   1.000000
    2        2.075483      4.025896   1.000000   1.000033
    3        2.283213      4.212184   1.000000   1.003307
    4        3.304257      5.885224   1.000000  -0.000000
    5        4.582735      7.223759   0.807494  -0.000000
    6        6.715110      8.192722  -0.000000  -0.000000
    7       11.856805     13.144864   0.000000   0.000000
    8       19.885432     20.522822   0.000000   0.000000
    9       21.332879     21.652667   0.000000   0.000000
   10       29.863013     30.113254   0.000000   0.000000
   11       30.545122     31.055345   0.000000   0.000000
   12       32.159031     32.626344   0.000000   0.000000
 
 -0.3500000E+00  0.4500000E+00  0.1500000E+00  0.4800000E-01
    1        1.029870      2.364520   1.000000   1.000000
    2        1.689763      3.654488   1.000000   1.000000
    3        2.366117      4.496999   1.000000   0.995996
    4        3.324246      5.805461   1.000000  -0.000000
    5        4.236010      6.834160   1.005151  -0.000000
    6        6.700829      8.423341  -0.000000  -0.000000
    7       13.972161     14.953574   0.000000   0.000000
    8       16.968199     17.692994   0.000000   0.000000
    9       23.329351     23.723313   0.000000   0.000000
   10       26.538959     26.905954   0.000000   0.000000
   11       30.692067     31.145361   0.000000   0.000000
   12       34.782400     35.490977   0.000000   0.000000
 
 -0.4500000E+00 -0.4500000E+00  0.1500000E+00  0.2400000E-01
    1        1.005903      2.739767   1.000000   1.000000
    2        1.831287      3.611571   1.000000   1.000000
    3        2.206573      4.329697   1.000000   1.020287
    4        3.400291      5.904722   1.000000  -0.000000
    5        4.449852      7.065019   1.030285  -0.000000
    6        8.601599      9.790884  -0.000000  -0.000000
    7       11.345497     12.647807   0.000000   0.000000
    8       16.523199     17.231083   0.000000   0.000000
    9       22.984106     23.376305   0.000000   0.000000
   10       28.383220     28.563764   0.000000   0.000000
   11       29.399449     29.966428   0.000000   0.000000
   12       33.423109     34.227545   0.000000   0.000000
 
 -0.3500000E+00 -0.4500000E+00  0.1500000E+00  0.2400000E-01
    1        1.390233      3.124881   1.000000   1.000000
    2        1.417861      3.329815   1.000000   1.000000
    3        2.145541      4.191522   1.000000   1.002189
    4        3.737035      6.251335   1.000000  -0.000000
    5        4.163099      6.741643   1.001191  -0.000000
    6        9.351483     10.614521  -0.000000   0.000000
    7       12.650665     13.668969   0.000000   0.000000
    8       13.659636     14.550915   0.000000   0.000000
    9       25.324902     25.629206   0.000000   0.000000
   10       26.074544     26.442562   0.000000   0.000000
   11       28.709116     29.210576   0.000000   0.000000
   12       33.313431     34.143783   0.000000   0.000000
 
  0.2500000E+00  0.2500000E+00  0.2500000E+00  0.2000000E-02
    1        1.729148      3.413149   1.000000   1.000000
    2        1.729148      3.413149   1.000000   1.000000
    3        1.729239      3.413345   1.000000   1.000000
    4        3.729026      6.728754   1.000000  -0.000000
    5        3.729026      6.728754   1.000000  -0.000000
    6       12.465450     13.448059   0.000000   0.000000
    7       12.465450     13.448059   0.000000   0.000000
    8       12.465529     13.448398   0.000000   0.000000
    9       14.052203     14.878236   0.000000   0.000000
   10       41.378644     41.065273   0.000000   0.000000
   11       41.378667     41.065277   0.000000   0.000000
   12       41.378814     41.065366   0.000000   0.000000
 
 -0.2500000E+00  0.2500000E+00  0.2500000E+00  0.6000000E-02
    1        0.472900      1.024629   1.000000   1.000000
    2        2.011730      4.405251   1.000000   1.034975
    3        2.856233      5.093510   1.000000  -0.004638
    4        2.856327      5.093764   1.000000  -0.004617
    5        3.455373      5.916158   1.000000  -0.000000
    6        4.652468      7.191921   0.539655  -0.000000
    7       20.222242     20.919507   0.000000   0.000000
    8       20.222304     20.919534   0.000000   0.000000
    9       21.148770     21.630970   0.000000   0.000000
   10       22.928042     23.396719   0.000000   0.000000
   11       36.160432     36.461231   0.000000   0.000000
   12       36.160513     36.461280   0.000000   0.000000
 
 -0.3500000E+00  0.3500000E+00  0.2500000E+00  0.2400000E-01
    1        0.967366      2.103527   1.000000   1.000000
    2        1.545554      3.731362   1.000000   1.000000
    3        2.888593      5.133564   1.000000  -0.002128
    4        3.175648      5.499674   1.000000  -0.000000
    5        4.016242      6.550478   1.000025  -0.000000
    6        6.059170      7.915796  -0.000000  -0.000000
    7       16.337081     17.135813   0.000000   0.000000
    8       18.409359     19.071703   0.000000   0.000000
    9       20.971890     21.529248   0.000000   0.000000
   10       23.499528     23.991041   0.000000   0.000000
   11       33.648397     34.325905   0.000000   0.000000
   12       35.113195     35.571263   0.000000   0.000000
 
 -0.4500000E+00  0.4500000E+00  0.2500000E+00  0.2400000E-01
    1        0.986336      2.737985   1.000000   1.000000
    2        1.414609      3.313044   1.000000   1.000000
    3        2.818607      5.053811   1.000000  -0.009084
    4        3.317404      5.674766   1.000000  -0.000000
    5        4.511661      7.140382   0.976413  -0.000000
    6        8.447028      9.662345  -0.000000  -0.000000
    7       12.560207     13.602689   0.000000   0.000000
    8       17.363836     17.964831   0.000000   0.000000
    9       20.631646     21.226765   0.000000   0.000000
   10       25.529180     25.885060   0.000000   0.000000
   11       30.243256     31.070918   0.000000   0.000000
   12       34.496041     34.959537   0.000000   0.000000
 
 -0.3500000E+00  0.4500000E+00  0.2500000E+00  0.2400000E-01
    1        1.066989      2.692340   1.000000   1.000000
    2        1.167697      3.243865   1.000000   1.000000
    3        2.952960      5.179561   1.000000  -0.000773
    4        3.617691      6.004910   1.000000  -0.000000
    5        4.280863      6.854889   1.010736  -0.000000
    6        8.237435      9.519681  -0.000000  -0.000000
    7       14.872388     15.684911   0.000000   0.000000
    8       15.248374     15.961075   0.000000   0.000000
    9       21.815761     22.352365   0.000000   0.000000
   10       23.123339     23.650152   0.000000   0.000000
   11       29.812061     30.600387   0.000000   0.000000
   12       35.237940     35.707044   0.000000   0.000000
 
 -0.4500000E+00 -0.4500000E+00  0.2500000E+00  0.2400000E-01
    1        0.990341      2.939085   1.000000   1.000000
    2        1.115223      3.005641   1.000000   1.000000