       N       E                     dE             d eps       ncg     rms          rms(c)
DAV:   1     0.112911490909E+02    0.11291E+02   -0.26809E+03  2328   0.459E+02
DAV:   2    -0.876094743499E+01   -0.20052E+02   -0.18315E+02  2240   0.938E+01
DAV:   3    -0.908614861007E+01   -0.32520E+00   -0.32351E+00  2472   0.137E+01
DAV:   4    -0.908713973718E+01   -0.99113E-03   -0.99107E-03  2328   0.703E-01
DAV:   5    -0.908714507704E+01   -0.53399E-05   -0.53408E-05  2024   0.535E-02    0.100E+01
DAV:   6    -0.829117852310E+01    0.79597E+00   -0.12813E+01  2364   0.392E+01    0.701E+00
DAV:   7    -0.816649268024E+01    0.12469E+00   -0.11797E+00  2400   0.112E+01    0.337E+00
DAV:   8    -0.816514184486E+01    0.13508E-02   -0.10528E-02  2348   0.652E-01    0.142E+00
DAV:   9    -0.815991105231E+01    0.52308E-02   -0.10400E-02  2664   0.547E-01    0.368E-01
DAV:  10    -0.816024678882E+01   -0.33574E-03   -0.11326E-03  2256   0.207E-01    0.117E-01
DAV:  11    -0.816027612017E+01   -0.29331E-04   -0.19726E-04  1672   0.112E-01
   1 F= -.81602761E+01 E0= -.81609436E+01  d E =0.200248E-02  mag=     2.5069
