PROCAR new format
# of k-points:   44         # of bands:   12         # of ions:    1

 k-point     1 :    0.05000000 0.05000000 0.05000000     weight = 0.00800000

band     1 # energy   -2.52331035 # occ.  1.00000000
 
ion      s      p      d    tot
    1  0.510  0.028  0.002  0.540
 
band     2 # energy    2.36832845 # occ.  1.00000000
 
ion      s      p      d    tot
    1  0.000  0.001  0.953  0.954
 
band     3 # energy    2.36832845 # occ.  1.00000000
 
ion      s      p      d    tot
    1  0.000  0.001  0.953  0.954
 
band     4 # energy    2.79305305 # occ.  1.00000000
 
ion      s      p      d    tot
    1  0.001  0.004  0.957  0.961
 
band     5 # energy    3.50959262 # occ.  1.00000000
 
ion      s      p      d    tot
    1  0.000  0.000  0.966  0.966
 
band     6 # energy    3.50959262 # occ.  1.00000000
 
ion      s      p      d    tot
    1  0.000  0.000  0.966  0.966
 
band     7 # energy   25.77403723 # occ.  0.00000000
 
ion      s      p      d    tot
    1  0.000  0.080  0.199  0.279
 
band     8 # energy   25.77403723 # occ.  0.00000000
 
ion      s      p      d    tot
    1  0.000  0.080  0.199  0.279
 
band     9 # energy   28.94673261 # occ.  0.00000000
 
ion      s      p      d    tot
    1  0.055  0.482  0.207  0.744
 
band    10 # energy   29.01146775 # occ.  0.00000000
 
ion      s      p      d    tot
    1  0.000  0.000  0.000  0.000
 
band    11 # energy   32.86709282 # occ.  0.00000000
 
ion      s      p      d    tot
    1  0.000  0.416  0.012  0.428
 
band    12 # energy   32.86709352 # occ.  0.00000000
 
ion      s      p      d    tot
    1  0.000  0.417  0.012  0.428
 

 k-point     2 :    0.15000000 0.05000000 0.05000000     weight = 0.02400000

band     1 # energy   -1.49363462 # occ.  1.00000000
 
ion      s      p      d    tot
    1  0.448  0.075  0.028  0.550
 
band     2 # energy    2.12555044 # occ.  1.00000000
 
ion      s      p      d    tot
    1  0.000  0.002  0.942  0.944
 
band     3 # energy    2.25983637 # occ.  1.00000000
 
ion      s      p      d    tot
    1  0.003  0.011  0.918  0.932
 
band     4 # energy    3.35848132 # occ.  1.00000000
 
ion      s      p      d    tot
    1  0.004  0.012  0.943  0.959
 
band     5 # energy    3.42113076 # occ.  1.00000000
 
ion      s      p      d    tot
    1  0.000  0.000  0.965  0.965
 
band     6 # energy    3.57250689 # occ.  1.00000000
 
ion      s      p      d    tot
    1  0.000  0.000  0.970  0.970
 
band     7 # energy   21.55790984 # occ.  0.00000000
 
ion      s      p      d    tot
    1  0.034  0.196  0.251  0.480
 
band     8 # energy   23.87045838 # occ.  0.00000000
 
ion      s      p      d    tot
    1  0.000  0.155  0.210  0.365
 
band     9 # energy   25.88617860 # occ.  0.00000000
 
ion      s      p      d    tot
    1  0.092  0.452  0.148  0.693
 
band    10 # energy   29.11123400 # occ.  0.00000000
 
ion      s      p      d    tot
    1  0.000  0.006  0.130  0.136
 
band    11 # energy   32.39306879 # occ.  0.00000000
 
ion      s      p      d    tot
    1  0.029  0.318  0.211  0.559
 
band    12 # energy   33.05889854 # occ.  0.00000000
 
ion      s      p      d    tot
    1  0.000  0.271  0.083  0.353
 

 k-point     3 :    0.25000000 0.05000000 0.05000000     weight = 0.02400000

band     1 # energy   -0.19933605 # occ.  1.00000000
 
ion      s      p      d    tot
    1  0.312  0.094  0.217  0.623
 
band     2 # energy    1.85515770 # occ.  1.00000000
 
ion      s      p      d    tot
    1  0.000  0.002  0.932  0.934
 
band     3 # energy    2.34074177 # occ.  1.00000000
 
ion      s      p      d    tot
    1  0.037  0.073  0.739  0.849
 
band     4 # energy    3.46485667 # occ.  1.00000000
 
ion      s      p      d    tot
    1  0.001  0.001  0.968  0.970
 
band     5 # energy    3.63498499 # occ.  1.00000000
 
ion      s      p      d    tot
    1  0.000  0.000  0.975  0.975
 
band     6 # energy    4.14690244 # occ.  1.00082387
 
ion      s      p      d    tot
    1  0.016  0.030  0.901  0.946
 
band     7 # energy   17.04798953 # occ.  0.00000000
 
ion      s      p      d    tot
    1  0.119  0.226  0.252  0.598
 
band     8 # energy   22.24523333 # occ.  0.00000000
 
ion      s      p      d    tot
    1  0.000  0.204  0.176  0.379
 
band     9 # energy   23.70855124 # occ.  0.00000000
 
ion      s      p      d    tot
    1  0.091  0.468  0.106  0.665
 
band    10 # energy   28.50891913 # occ.  0.00000000
 
ion      s      p      d    tot
    1  0.000  0.016  0.296  0.312
 
band    11 # energy   31.55276332 # occ.  0.00000000
 
ion      s      p      d    tot
    1  0.084  0.214  0.240  0.537
 
band    12 # energy   34.94811536 # occ.  0.00000000
 
ion      s      p      d    tot
    1  0.000  0.241  0.076  0.316
 

 k-point     4 :    0.35000000 0.05000000 0.05000000     weight = 0.02400000

band     1 # energy    0.38223351 # occ.  1.00000000
 
ion      s      p      d    tot
    1  0.137  0.028  0.611  0.776
 
band     2 # energy    1.65125632 # occ.  1.00000000
 
ion      s      p      d    tot
    1  0.000  0.003  0.925  0.927
 
band     3 # energy    3.27584881 # occ.  1.00000000
 
ion      s      p      d    tot
    1  0.057  0.165  0.550  0.772
 
band     4 # energy    3.58863482 # occ.  1.00000000
 
ion      s      p      d    tot
    1  0.000  0.020  0.940  0.960
 
band     5 # energy    3.68976395 # occ.  1.00000000
 
ion      s      p      d    tot
    1  0.000  0.000  0.979  0.979
 
band     6 # energy    5.18347087 # occ. -0.00070482
 
ion      s      p      d    tot
    1  0.044  0.129  0.668  0.842
 
band     7 # energy   13.07655479 # occ.  0.00000000
 
ion      s      p      d    tot
    1  0.246  0.148  0.290  0.685
 
band     8 # energy   21.15627340 # occ.  0.00000000
 
ion      s      p      d    tot
    1  0.000  0.229  0.141  0.371
 
band     9 # energy   22.24355585 # occ.  0.00000000
 
ion      s      p      d    tot
    1  0.085  0.505  0.056  0.646
 
band    10 # energy   28.04633339 # occ.  0.00000000
 
ion      s      p      d    tot
    1  0.000  0.016  0.386  0.403
 
band    11 # energy   31.23946892 # occ.  0.00000000
 
ion      s      p      d    tot
    1  0.138  0.129  0.278  0.545
 
band    12 # energy   37.26931209 # occ.  0.00000000
 
ion      s      p      d    tot
    1  0.029  0.038  0.082  0.148
 

 k-point     5 :    0.45000000 0.05000000 0.05000000     weight = 0.01200000

band     1 # energy    0.42217314 # occ.  1.00000000
 
ion      s      p      d    tot
    1  0.093  0.006  0.717  0.816
 
band     2 # energy    1.57550609 # occ.  1.00000000
 
ion      s      p      d    tot
    1  0.000  0.003  0.922  0.925
 
band     3 # energy    3.59712415 # occ.  1.00000000
 
ion      s      p      d    tot
    1  0.008  0.000  0.965  0.974
 
band     4 # energy    3.70815684 # occ.  1.00000000
 
ion      s      p      d    tot
    1  0.000  0.000  0.981  0.981
 
band     5 # energy    3.92666791 # occ.  1.00000130
 
ion      s      p      d    tot
    1  0.000  0.162  0.663  0.824
 
band     6 # energy    6.17728526 # occ. -0.00000000
 
ion      s      p      d    tot
    1  0.000  0.335  0.333  0.669
 
band     7 # energy   10.97645582 # occ.  0.00000000
 
ion      s      p      d    tot
    1  0.380  0.007  0.379  0.767
 
band     8 # energy   20.77134415 # occ.  0.00000000
 
ion      s      p      d    tot
    1  0.000  0.237  0.128  0.365
 
band     9 # energy   21.70617287 # occ.  0.00000000
 
ion      s      p      d    tot
    1  0.083  0.522  0.032  0.637
 
band    10 # energy   27.88519466 # occ.  0.00000000
 
ion      s      p      d    tot
    1  0.000  0.016  0.415  0.431
 
band    11 # energy   31.16810616 # occ.  0.00000000
 
ion      s      p      d    tot
    1  0.162  0.094  0.300  0.556
 
band    12 # energy   37.27196263 # occ.  0.00000000
 
ion      s      p      d    tot
    1  0.000  0.069  0.003  0.072
 

 k-point     6 :   -0.05000000 0.05000000 0.05000000     weight = 0.00600000

band     1 # energy   -2.89171602 # occ.  1.00000000
 
ion      s      p      d    tot
    1  0.529  0.010  0.000  0.539
 
band     2 # energy    2.47041695 # occ.  1.00000000
 
ion      s      p      d    tot
    1  0.000  0.001  0.958  0.959
 
band     3 # energy    2.47050955 # occ.  1.00000000
 
ion      s      p      d    tot
    1  0.000  0.001  0.958  0.959
 
band     4 # energy    2.51750303 # occ.  1.00000000
 
ion      s      p      d    tot
    1  0.000  0.000  0.960  0.960
 
band     5 # energy    3.48371086 # occ.  1.00000000
 
ion      s      p      d    tot
    1  0.000  0.000  0.964  0.964
 
band     6 # energy    3.58506938 # occ.  1.00000000
 
ion      s      p      d    tot
    1  0.000  0.000  0.969  0.970
 
band     7 # energy   27.26224813 # occ.  0.00000000
 
ion      s      p      d    tot
    1  0.000  0.000  0.098  0.098
 
band     8 # energy   28.17695482 # occ.  0.00000000
 
ion      s      p      d    tot
    1  0.000  0.018  0.093  0.112
 
band     9 # energy   28.17699863 # occ.  0.00000000
 
ion      s      p      d    tot
    1  0.000  0.018  0.093  0.112
 
band    10 # energy   30.97986852 # occ.  0.00000000
 
ion      s      p      d    tot
    1  0.015  0.325  0.129  0.469
 
band    11 # energy   32.34269526 # occ.  0.00000000
 
ion      s      p      d    tot
    1  0.000  0.477  0.196  0.673
 
band    12 # energy   32.34269686 # occ.  0.00000000
 
ion      s      p      d    tot
    1  0.000  0.477  0.196  0.673
 

 k-point     7 :    0.15000000 0.15000000 0.05000000     weight = 0.02400000

band     1 # energy   -0.31824169 # occ.  1.00000000
 
ion      s      p      d    tot
    1  0.356  0.115  0.112  0.583
 
band     2 # energy    1.95328364 # occ.  1.00000000
 
ion      s      p      d    tot
    1  0.000  0.014  0.903  0.917
 
band     3 # energy    1.96968714 # occ.  1.00000000
 
ion      s      p      d    tot
    1  0.005  0.013  0.904  0.922
 
band     4 # energy    3.43676174 # occ.  1.00000000
 
ion      s      p      d    tot
    1  0.000  0.000  0.967  0.968
 
band     5 # energy    3.64476749 # occ.  1.00000000
 
ion      s      p      d    tot
    1  0.002  0.000  0.973  0.975
 
band     6 # energy    4.19783266 # occ.  1.00249026
 
ion      s      p      d    tot
    1  0.023  0.035  0.881  0.939
 
band     7 # energy   19.39138243 # occ.  0.00000000
 
ion      s      p      d    tot
    1  0.000  0.228  0.280  0.508
 
band     8 # energy   20.08002134 # occ.  0.00000000
 
ion      s      p      d    tot
    1  0.119  0.256  0.182  0.557
 
band     9 # energy   23.08291703 # occ.  0.00000000
 
ion      s      p      d    tot
    1  0.109  0.368  0.125  0.603
 
band    10 # energy   30.32891505 # occ.  0.00000000
 
ion      s      p      d    tot
    1  0.000  0.021  0.116  0.137
 
band    11 # energy   33.53374775 # occ.  0.00000000
 
ion      s      p      d    tot
    1  0.021  0.146  0.270  0.436
 
band    12 # energy   34.87726590 # occ.  0.00000000
 
ion      s      p      d    tot
    1  0.000  0.253  0.177  0.430
 

 k-point     8 :    0.25000000 0.15000000 0.05000000     weight = 0.04800000

band     1 # energy    0.66910644 # occ.  1.00000000
 
ion      s      p      d    tot
    1  0.177  0.079  0.468  0.724
 
band     2 # energy    1.71060025 # occ.  1.00000000
 
ion      s      p      d    tot
    1  0.000  0.015  0.898  0.913
 
band     3 # energy    2.17836467 # occ.  1.00000000
 
ion      s      p      d    tot
    1  0.040  0.092  0.697  0.829
 
band     4 # energy    3.51155699 # occ.  1.00000000
 
ion      s      p      d    tot
    1  0.000  0.001  0.970  0.972
 
band     5 # energy    3.72353187 # occ.  1.00000000
 
ion      s      p      d    tot
    1  0.005  0.001  0.971  0.977
 
band     6 # energy    5.42798357 # occ. -0.00000043
 
ion      s      p      d    tot
    1  0.064  0.097  0.705  0.866
 
band     7 # energy   15.36836355 # occ.  0.00000000
 
ion      s      p      d    tot
    1  0.142  0.230  0.249  0.620
 
band     8 # energy   18.37180854 # occ.  0.00000000
 
ion      s      p      d    tot
    1  0.103  0.266  0.190  0.558
 
band     9 # energy   21.51723411 # occ.  0.00000000
 
ion      s      p      d    tot
    1  0.097  0.354  0.117  0.569
 
band    10 # energy   30.38099759 # occ.  0.00000000
 
ion      s      p      d    tot
    1  0.007  0.030  0.217  0.253
 
band    11 # energy   34.31807933 # occ.  0.00000000
 
ion      s      p      d    tot
    1  0.002  0.130  0.276  0.407
 
band    12 # energy   35.49417314 # occ.  0.00000000
 
ion      s      p      d    tot
    1  0.068  0.161  0.169  0.398
 

 k-point     9 :    0.35000000 0.15000000 0.05000000     weight = 0.04800000

band     1 # energy    0.79745086 # occ.  1.00000000
 
ion      s      p      d    tot
    1  0.076  0.027  0.719  0.823
 
band     2 # energy    1.59519540 # occ.  1.00000000
 
ion      s      p      d    tot
    1  0.000  0.015  0.898  0.913
 
band     3 # energy    2.82598915 # occ.  1.00000000
 
ion      s      p      d    tot
    1  0.011  0.135  0.675  0.821
 
band     4 # energy    3.60416188 # occ.  1.00000000
 
ion      s      p      d    tot
    1  0.004  0.002  0.969  0.974
 
band     5 # energy    3.80606523 # occ.  1.00000001
 
ion      s      p      d    tot
    1  0.002  0.012  0.956  0.971
 
band     6 # energy    7.14990979 # occ. -0.00000000
 
ion      s      p      d    tot
    1  0.047  0.256  0.419  0.722
 
band     7 # energy   11.86608986 # occ.  0.00000000
 
ion      s      p      d    tot
    1  0.292  0.108  0.308  0.708
 
band     8 # energy   17.59873877 # occ.  0.00000000
 
ion      s      p      d    tot
    1  0.108  0.282  0.171  0.561
 
band     9 # energy   20.71507782 # occ.  0.00000000
 
ion      s      p      d    tot
    1  0.091  0.360  0.106  0.557
 
band    10 # energy   30.18295602 # occ.  0.00000000
 
ion      s      p      d    tot
    1  0.014  0.025  0.277  0.316
 
band    11 # energy   34.80336377 # occ.  0.00000000
 
ion      s      p      d    tot
    1  0.047  0.151  0.277  0.475
 
band    12 # energy   36.04217395 # occ.  0.00000000
 
ion      s      p      d    tot
    1  0.024  0.062  0.122  0.208
 

 k-point    10 :   -0.15000000 0.15000000 0.05000000     weight = 0.02400000

band     1 # energy   -2.16636071 # occ.  1.00000000
 
ion      s      p      d    tot
    1  0.489  0.046  0.007  0.542
 
band     2 # energy    2.32073186 # occ.  1.00000000
 
ion      s      p      d    tot
    1  0.000  0.001  0.951  0.952
 
band     3 # energy    2.45148490 # occ.  1.00000000
 
ion      s      p      d    tot
    1  0.001  0.007  0.939  0.947
 
band     4 # energy    2.85920253 # occ.  1.00000000
 
ion      s      p      d    tot
    1  0.000  0.003  0.959  0.962
 
band     5 # energy    3.31869806 # occ.  1.00000000
 
ion      s      p      d    tot
    1  0.000  0.000  0.958  0.958
 
band     6 # energy    3.63620206 # occ.  1.00000000
 
ion      s      p      d    tot
    1  0.001  0.000  0.970  0.971
 
band     7 # energy   23.82055232 # occ.  0.00000000
 
ion      s      p      d    tot
    1  0.015  0.134  0.239  0.389
 
band     8 # energy   26.45792738 # occ.  0.00000000
 
ion      s      p      d    tot
    1  0.017  0.122  0.116  0.255
 
band     9 # energy   26.97530521 # occ.  0.00000000
 
ion      s      p      d    tot
    1  0.000  0.143  0.263  0.406
 
band    10 # energy   30.22497912 # occ.  0.00000000
 
ion      s      p      d    tot
    1  0.002  0.335  0.138  0.475
 
band    11 # energy   30.23349086 # occ.  0.00000000
 
ion      s      p      d    tot
    1  0.000  0.368  0.193  0.561
 
band    12 # energy   31.26275019 # occ.  0.00000000
 
ion      s      p      d    tot
    1  0.068  0.299  0.035  0.403
 

 k-point    11 :    0.25000000 0.25000000 0.05000000     weight = 0.02400000

band     1 # energy    1.16905828 # occ.  1.00000000
 
ion      s      p      d    tot
    1  0.064  0.032  0.748  0.844
 
band     2 # energy    1.66247616 # occ.  1.00000000
 
ion      s      p      d    tot
    1  0.000  0.050  0.822  0.872
 
band     3 # energy    2.16335590 # occ.  1.00000000
 
ion      s      p      d    tot
    1  0.023  0.105  0.701  0.829
 
band     4 # energy    3.59696144 # occ.  1.00000000
 
ion      s      p      d    tot
    1  0.000  0.002  0.972  0.974
 
band     5 # energy    3.79297492 # occ.  1.00000001
 
ion      s      p      d    tot
    1  0.006  0.005  0.966  0.976
 
band     6 # energy    7.42920345 # occ. -0.00000000
 
ion      s      p      d    tot
    1  0.093  0.195  0.468  0.756
 
band     7 # energy   13.92497304 # occ.  0.00000000
 
ion      s      p      d    tot
    1  0.000  0.313  0.299  0.611
 
band     8 # energy   14.66012231 # occ.  0.00000000
 
ion      s      p      d    tot
    1  0.371  0.143  0.140  0.654
 
band     9 # energy   20.53156065 # occ.  0.00000000
 
ion      s      p      d    tot
    1  0.095  0.334  0.135  0.563
 
band    10 # energy   31.67848999 # occ.  0.00000000
 
ion      s      p      d    tot
    1  0.000  0.048  0.178  0.226
 
band    11 # energy   34.20470489 # occ.  0.00000000
 
ion      s      p      d    tot
    1  0.024  0.063  0.225  0.312
 
band    12 # energy   39.65864390 # occ.  0.00000000
 
ion      s      p      d    tot
    1  0.000  0.176  0.161  0.337
 

 k-point    12 :    0.35000000 0.25000000 0.05000000     weight = 0.02400000

band     1 # energy    1.21525146 # occ.  1.00000000
 
ion      s      p      d    tot
    1  0.039  0.020  0.812  0.870
 
band     2 # energy    1.69467323 # occ.  1.00000000
 
ion      s      p      d    tot
    1  0.000  0.056  0.815  0.871
 
band     3 # energy    2.22985485 # occ.  1.00000000
 
ion      s      p      d    tot
    1  0.000  0.109  0.728  0.837
 
band     4 # energy    3.67416518 # occ.  1.00000000
 
ion      s      p      d    tot
    1  0.001  0.003  0.971  0.976
 
band     5 # energy    3.79390927 # occ.  1.00000001
 
ion      s      p      d    tot
    1  0.000  0.008  0.968  0.976
 
band     6 # energy    9.48058527 # occ. -0.00000000
 
ion      s      p      d    tot
    1  0.000  0.336  0.325  0.661
 
band     7 # energy   11.40834329 # occ.  0.00000000
 
ion      s      p      d    tot
    1  0.222  0.163  0.308  0.693
 
band     8 # energy   14.02364450 # occ.  0.00000000
 
ion      s      p      d    tot
    1  0.301  0.169  0.176  0.646
 
band     9 # energy   20.21125818 # occ.  0.00000000
 
ion      s      p      d    tot
    1  0.095  0.331  0.140  0.566
 
band    10 # energy   32.13842813 # occ.  0.00000000
 
ion      s      p      d    tot
    1  0.006  0.047  0.196  0.249
 
band    11 # energy   34.34025138 # occ.  0.00000000
 
ion      s      p      d    tot
    1  0.000  0.053  0.148  0.201
 
band    12 # energy   39.17905549 # occ.  0.00000000
 
ion      s      p      d    tot
    1  0.001  0.151  0.353  0.505
 

 k-point    13 :   -0.25000000 0.25000000 0.05000000     weight = 0.02400000

band     1 # energy   -0.91198211 # occ.  1.00000000
 
ion      s      p      d    tot
    1  0.396  0.092  0.082  0.570
 
band     2 # energy    2.06441539 # occ.  1.00000000
 
ion      s      p      d    tot
    1  0.000  0.001  0.942  0.943
 
band     3 # energy    2.38874504 # occ.  1.00000000
 
ion      s      p      d    tot
    1  0.017  0.038  0.838  0.894
 
band     4 # energy    3.30986575 # occ.  1.00000000
 
ion      s      p      d    tot
    1  0.000  0.002  0.959  0.962
 
band     5 # energy    3.48475462 # occ.  1.00000000
 
ion      s      p      d    tot
    1  0.000  0.006  0.963  0.968
 
band     6 # energy    3.69949379 # occ.  1.00000000
 
ion      s      p      d    tot
    1  0.006  0.002  0.963  0.971
 
band     7 # energy   19.23861131 # occ.  0.00000000
 
ion      s      p      d    tot
    1  0.079  0.223  0.253  0.555
 
band     8 # energy   24.41358190 # occ.  0.00000000
 
ion      s      p      d    tot
    1  0.021  0.176  0.082  0.279
 
band     9 # energy   25.29372859 # occ.  0.00000000
 
ion      s      p      d    tot
    1  0.000  0.351  0.254  0.605
 
band    10 # energy   28.49750456 # occ.  0.00000000
 
ion      s      p      d    tot
    1  0.000  0.209  0.292  0.501
 
band    11 # energy   29.97938773 # occ.  0.00000000
 
ion      s      p      d    tot
    1  0.064  0.262  0.182  0.509
 
band    12 # energy   32.16294173 # occ.  0.00000000
 
ion      s      p      d    tot
    1  0.083  0.155  0.084  0.321
 

 k-point    14 :   -0.15000000 0.25000000 0.05000000     weight = 0.02400000

band     1 # energy   -1.17697049 # occ.  1.00000000
 
ion      s      p      d    tot
    1  0.424  0.089  0.042  0.555
 
band     2 # energy    2.26784469 # occ.  1.00000000
 
ion      s      p      d    tot
    1  0.003  0.008  0.930  0.940
 
band     3 # energy    2.28468846 # occ.  1.00000000
 
ion      s      p      d    tot
    1  0.000  0.009  0.922  0.931
 
band     4 # energy    3.15766173 # occ.  1.00000000
 
ion      s      p      d    tot
    1  0.000  0.001  0.953  0.954
 
band     5 # energy    3.33152094 # occ.  1.00000000
 
ion      s      p      d    tot
    1  0.002  0.010  0.949  0.961
 
band     6 # energy    3.75838627 # occ.  1.00000000
 
ion      s      p      d    tot
    1  0.010  0.003  0.958  0.971
 
band     7 # energy   21.50185380 # occ.  0.00000000
 
ion      s      p      d    tot
    1  0.000  0.173  0.281  0.455
 
band     8 # energy   22.42468745 # occ.  0.00000000
 
ion      s      p      d    tot
    1  0.092  0.270  0.182  0.544
 
band     9 # energy   27.16139749 # occ.  0.00000000
 
ion      s      p      d    tot
    1  0.000  0.098  0.228  0.326
 
band    10 # energy   27.53306393 # occ.  0.00000000
 
ion      s      p      d    tot
    1  0.001  0.460  0.097  0.558
 
band    11 # energy   30.23057271 # occ.  0.00000000
 
ion      s      p      d    tot
    1  0.084  0.121  0.214  0.420
 
band    12 # energy   33.28358608 # occ.  0.00000000
 
ion      s      p      d    tot
    1  0.000  0.320  0.040  0.360
 

 k-point    15 :   -0.35000000 0.35000000 0.05000000     weight = 0.02400000

band     1 # energy    0.13006446 # occ.  1.00000000
 
ion      s      p      d    tot
    1  0.214  0.058  0.434  0.706
 
band     2 # energy    1.81393200 # occ.  1.00000000
 
ion      s      p      d    tot
    1  0.000  0.001  0.933  0.934
 
band     3 # energy    2.81353326 # occ.  1.00000000
 
ion      s      p      d    tot
    1  0.060  0.124  0.608  0.791
 
band     4 # energy    3.50633143 # occ.  1.00000000
 
ion      s      p      d    tot
    1  0.000  0.018  0.941  0.959
 
band     5 # energy    3.91853463 # occ.  1.00000098
 
ion      s      p      d    tot
    1  0.039  0.056  0.813  0.908
 
band     6 # energy    4.16303714 # occ.  1.00118900
 
ion      s      p      d    tot
    1  0.000  0.005  0.975  0.979
 
band     7 # energy   14.90266969 # occ.  0.00000000
 
ion      s      p      d    tot
    1  0.180  0.199  0.267  0.646
 
band     8 # energy   22.83663976 # occ.  0.00000000
 
ion      s      p      d    tot
    1  0.019  0.210  0.048  0.277
 
band     9 # energy   23.56662788 # occ.  0.00000000
 
ion      s      p      d    tot
    1  0.000  0.496  0.151  0.646
 
band    10 # energy   27.58627780 # occ.  0.00000000
 
ion      s      p      d    tot
    1  0.000  0.109  0.415  0.524
 
band    11 # energy   29.85875470 # occ.  0.00000000
 
ion      s      p      d    tot
    1  0.146  0.127  0.247  0.520
 
band    12 # energy   33.92724515 # occ.  0.00000000
 
ion      s      p      d    tot
    1  0.064  0.109  0.145  0.318
 

 k-point    16 :   -0.25000000 0.35000000 0.05000000     weight = 0.04800000

band     1 # energy    0.04769601 # occ.  1.00000000
 
ion      s      p      d    tot
    1  0.285  0.105  0.240  0.630
 
band     2 # energy    1.98477165 # occ.  1.00000000
 
ion      s      p      d    tot
    1  0.000  0.011  0.908  0.920
 
band     3 # energy    2.25631811 # occ.  1.00000000
 
ion      s      p      d    tot
    1  0.020  0.047  0.814  0.881
 
band     4 # energy    3.25600787 # occ.  1.00000000
 
ion      s      p      d    tot
    1  0.000  0.005  0.953  0.959
 
band     5 # energy    3.80254146 # occ.  1.00000001
 
ion      s      p      d    tot
    1  0.008  0.002  0.966  0.975
 
band     6 # energy    4.26245606 # occ.  1.00807311
 
ion      s      p      d    tot
    1  0.041  0.043  0.838  0.923
 
band     7 # energy   17.31899051 # occ.  0.00000000
 
ion      s      p      d    tot
    1  0.102  0.240  0.253  0.594
 
band     8 # energy   20.32623027 # occ.  0.00000000
 
ion      s      p      d    tot
    1  0.079  0.269  0.193  0.541
 
band     9 # energy   25.20094626 # occ.  0.00000000
 
ion      s      p      d    tot
    1  0.001  0.391  0.081  0.472
 
band    10 # energy   27.57733808 # occ.  0.00000000
 
ion      s      p      d    tot
    1  0.025  0.122  0.274  0.421
 
band    11 # energy   30.72349701 # occ.  0.00000000
 
ion      s      p      d    tot
    1  0.057  0.122  0.268  0.447
 
band    12 # energy   33.79001789 # occ.  0.00000000
 
ion      s      p      d    tot
    1  0.069  0.175  0.157  0.401
 

 k-point    17 :   -0.45000000 0.45000000 0.05000000     weight = 0.02400000

band     1 # energy    0.35054724 # occ.  1.00000000
 
ion      s      p      d    tot
    1  0.106  0.007  0.692  0.805
 
band     2 # energy    1.66459893 # occ.  1.00000000
 
ion      s      p      d    tot
    1  0.000  0.001  0.929  0.930
 
band     3 # energy    3.33944139 # occ.  1.00000000
 
ion      s      p      d    tot
    1  0.009  0.058  0.835  0.903
 
band     4 # energy    3.55721892 # occ.  1.00000000
 
ion      s      p      d    tot
    1  0.005  0.007  0.956  0.968
 
band     5 # energy    4.62814075 # occ.  0.64041625
 
ion      s      p      d    tot
    1  0.000  0.001  0.988  0.989
 
band     6 # energy    5.19998047 # occ. -0.00047382
 
ion      s      p      d    tot
    1  0.037  0.368  0.215  0.620
 
band     7 # energy   11.56657597 # occ.  0.00000000
 
ion      s      p      d    tot
    1  0.331  0.062  0.346  0.739
 
band     8 # energy   21.99293945 # occ.  0.00000000
 
ion      s      p      d    tot
    1  0.017  0.225  0.028  0.270
 
band     9 # energy   22.50284550 # occ.  0.00000000
 
ion      s      p      d    tot
    1  0.000  0.557  0.080  0.637
 
band    10 # energy   27.22810108 # occ.  0.00000000
 
ion      s      p      d    tot
    1  0.000  0.076  0.477  0.553
 
band    11 # energy   29.91224951 # occ.  0.00000000
 
ion      s      p      d    tot
    1  0.200  0.044  0.304  0.548
 
band    12 # energy   35.32002944 # occ.  0.00000000
 
ion      s      p      d    tot
    1  0.015  0.068  0.115  0.197
 

 k-point    18 :   -0.35000000 0.45000000 0.05000000     weight = 0.04800000

band     1 # energy    0.59270823 # occ.  1.00000000
 
ion      s      p      d    tot
    1  0.119  0.036  0.627  0.782
 
band     2 # energy    1.81467328 # occ.  1.00000000
 
ion      s      p      d    tot
    1  0.001  0.009  0.913  0.923
 
band     3 # energy    2.58456631 # occ.  1.00000000
 
ion      s      p      d    tot
    1  0.022  0.101  0.707  0.830
 
band     4 # energy    3.45015330 # occ.  1.00000000
 
ion      s      p      d    tot
    1  0.003  0.007  0.954  0.964
 
band     5 # energy    4.11871507 # occ.  1.00041879
 
ion      s      p      d    tot
    1  0.013  0.023  0.922  0.958
 
band     6 # energy    5.59768939 # occ. -0.00000000
 
ion      s      p      d    tot
    1  0.075  0.173  0.545  0.793
 
band     7 # energy   13.29195017 # occ.  0.00000000
 
ion      s      p      d    tot
    1  0.224  0.173  0.279  0.676
 
band     8 # energy   19.15827960 # occ.  0.00000000
 
ion      s      p      d    tot
    1  0.078  0.303  0.168  0.549
 
band     9 # energy   23.74372723 # occ.  0.00000000
 
ion      s      p      d    tot
    1  0.000  0.410  0.038  0.448
 
band    10 # energy   27.67597086 # occ.  0.00000000
 
ion      s      p      d    tot
    1  0.056  0.045  0.382  0.483
 
band    11 # energy   31.87363546 # occ.  0.00000000
 
ion      s      p      d    tot
    1  0.003  0.161  0.239  0.403
 
band    12 # energy   33.58848665 # occ.  0.00000000
 
ion      s      p      d    tot
    1  0.110  0.072  0.226  0.408
 

 k-point    19 :   -0.25000000 0.45000000 0.05000000     weight = 0.02400000

band     1 # energy    0.88841584 # occ.  1.00000000
 
ion      s      p      d    tot
    1  0.141  0.074  0.536  0.751
 
band     2 # energy    1.71796609 # occ.  1.00000000
 
ion      s      p      d    tot
    1  0.000  0.031  0.850  0.880
 
band     3 # energy    2.25184377 # occ.  1.00000000
 
ion      s      p      d    tot
    1  0.012  0.062  0.803  0.877
 
band     4 # energy    3.35882388 # occ.  1.00000000
 
ion      s      p      d    tot
    1  0.000  0.005  0.957  0.963
 
band     5 # energy    3.92596645 # occ.  1.00000127
 
ion      s      p      d    tot
    1  0.016  0.006  0.947  0.970
 
band     6 # energy    5.78342659 # occ. -0.00000000
 
ion      s      p      d    tot
    1  0.094  0.133  0.595  0.822
 
band     7 # energy   15.64974883 # occ.  0.00000000
 
ion      s      p      d    tot
    1  0.000  0.301  0.298  0.599
 
band     8 # energy   16.20632676 # occ.  0.00000000
 
ion      s      p      d    tot
    1  0.284  0.208  0.143  0.634
 
band     9 # energy   24.73333234 # occ.  0.00000000
 
ion      s      p      d    tot
    1  0.015  0.425  0.073  0.513
 
band    10 # energy   27.52897100 # occ.  0.00000000
 
ion      s      p      d    tot
    1  0.000  0.089  0.246  0.334
 
band    11 # energy   30.67483735 # occ.  0.00000000
 
ion      s      p      d    tot
    1  0.090  0.036  0.311  0.438
 
band    12 # energy   37.85895470 # occ.  0.00000000
 
ion      s      p      d    tot
    1  0.000  0.234  0.133  0.367
 

 k-point    20 :   -0.45000000-0.45000000 0.05000000     weight = 0.02400000

band     1 # energy    0.61954516 # occ.  1.00000000
 
ion      s      p      d    tot
    1  0.078  0.013  0.731  0.822
 
band     2 # energy    1.75975572 # occ.  1.00000000
 
ion      s      p      d    tot
    1  0.000  0.007  0.917  0.924
 