   1   1   1   0
  0.1121288E+02  0.2442192E-09  0.2442192E-09  0.2442192E-09  0.5000000E-15
  1.000000000000000E-004
  CAR 
 bcc Fe                                  
     47.09571424     -4.81383601  301      5.76736685      1.00000000
     -4.814  0.0000E+00  0.0000E+00  0.0000E+00  0.0000E+00
     -4.641  0.0000E+00  0.0000E+00  0.0000E+00  0.0000E+00
     -4.468  0.0000E+00  0.0000E+00  0.0000E+00  0.0000E+00
     -4.295  0.0000E+00  0.0000E+00  0.0000E+00  0.0000E+00
     -4.122 -0.1063E-32  0.0000E+00 -0.1840E-33  0.0000E+00
     -3.949 -0.8298E-27 -0.1929E-33 -0.1436E-27 -0.3338E-34
     -3.776 -0.1430E-21 -0.1800E-27 -0.2474E-22 -0.3115E-28
     -3.603 -0.5266E-17 -0.3710E-22 -0.9111E-18 -0.6420E-23
     -3.430 -0.4307E-13 -0.1644E-17 -0.7454E-14 -0.2846E-18
     -3.257 -0.7582E-10 -0.1605E-13 -0.1313E-10 -0.2777E-14
     -3.084 -0.2789E-07 -0.3393E-10 -0.4839E-08 -0.5873E-11
     -2.910 -0.1992E-05 -0.1506E-07 -0.3495E-06 -0.2612E-08
     -2.737 -0.1961E-04 -0.1316E-05 -0.3743E-05 -0.2303E-06
     -2.564  0.9252E-04 -0.1728E-04  0.1226E-04 -0.3221E-05
     -2.391  0.4332E-03  0.5810E-04  0.8723E-04  0.6832E-05
     -2.218  0.2163E-03  0.4158E-03  0.1247E-03  0.7878E-04
     -2.045  0.4407E-03  0.2424E-03  0.2009E-03  0.1207E-03
     -1.872  0.3915E-03  0.3828E-03  0.2686E-03  0.1869E-03
     -1.699  0.1090E-02  0.4272E-03  0.4573E-03  0.2609E-03
     -1.526  0.1640E-02  0.8078E-03  0.7411E-03  0.4006E-03
     -1.353  0.1549E-03  0.1784E-02  0.7679E-03  0.7094E-03
     -1.180 -0.1645E-03  0.3718E-03  0.7395E-03  0.7737E-03
     -1.007  0.9044E-03 -0.1701E-03  0.8960E-03  0.7443E-03
     -0.834  0.2186E-02  0.3426E-03  0.1274E-02  0.8036E-03
     -0.661  0.1297E-02  0.2121E-02  0.1499E-02  0.1171E-02
     -0.488  0.1766E-02  0.1344E-02  0.1804E-02  0.1403E-02
     -0.315  0.1837E-02  0.1530E-02  0.2122E-02  0.1668E-02
     -0.142  0.1173E-02  0.1371E-02  0.2325E-02  0.1905E-02
      0.031 -0.2036E-03  0.1745E-02  0.2290E-02  0.2207E-02
      0.204  0.9424E-03  0.7262E-03  0.2453E-02  0.2333E-02
      0.377  0.4488E-02 -0.2498E-03  0.3230E-02  0.2290E-02
      0.550  0.3412E-02  0.1021E-02  0.3820E-02  0.2466E-02
      0.723  0.4718E-02  0.3785E-02  0.4636E-02  0.3121E-02
      0.896  0.5057E-02  0.2605E-02  0.5511E-02  0.3572E-02
      1.069  0.5589E-02  0.1793E-02  0.6478E-02  0.3882E-02
      1.242  0.1292E-01  0.3479E-02  0.8714E-02  0.4484E-02
      1.415  0.1755E-01  0.2030E-02  0.1175E-01  0.4835E-02
      1.588  0.1496E-01  0.1665E-02  0.1434E-01  0.5123E-02
      1.761  0.1913E-01  0.6999E-03  0.1765E-01  0.5245E-02
      1.934  0.1399E-01  0.1846E-02  0.2007E-01  0.5564E-02
      2.107  0.8605E-02  0.7847E-02  0.2156E-01  0.6922E-02
      2.280  0.1116E-01  0.8834E-02  0.2349E-01  0.8450E-02
      2.454  0.2634E-01  0.6078E-02  0.2805E-01  0.9502E-02
      2.627  0.3058E-01  0.4548E-02  0.3334E-01  0.1029E-01
      2.800  0.1717E-01  0.7972E-02  0.3631E-01  0.1167E-01
      2.973  0.2163E-01  0.7860E-02  0.4005E-01  0.1303E-01
      3.146  0.3440E-01  0.9973E-02  0.4601E-01  0.1475E-01
      3.319  0.2765E-01  0.1700E-01  0.5079E-01  0.1770E-01
      3.492  0.1429E-01  0.1046E-01  0.5326E-01  0.1951E-01
      3.665  0.6743E-02  0.5093E-02  0.5443E-01  0.2039E-01
      3.838  0.1321E-01  0.7278E-02  0.5672E-01  0.2165E-01
      4.011  0.1431E-01  0.9035E-02  0.5919E-01  0.2321E-01
      4.184  0.6502E-02  0.1894E-01  0.6032E-01  0.2649E-01
      4.357  0.1764E-01  0.3054E-01  0.6337E-01  0.3177E-01
      4.530  0.3260E-01  0.2239E-01  0.6901E-01  0.3565E-01
      4.703  0.3936E-01  0.2122E-01  0.7582E-01  0.3932E-01
      4.876  0.4740E-01  0.2368E-01  0.8402E-01  0.4342E-01
      5.049  0.4027E-01  0.2505E-01  0.9099E-01  0.4775E-01
      5.222  0.1786E-01  0.2402E-01  0.9408E-01  0.5191E-01
      5.395  0.1788E-01  0.1836E-01  0.9717E-01  0.5509E-01
      5.568  0.1998E-01  0.7190E-02  0.1006E+00  0.5633E-01
      5.741  0.1339E-01  0.1789E-02  0.1029E+00  0.5664E-01
      5.914  0.9083E-02  0.9245E-02  0.1045E+00  0.5824E-01
      6.087  0.5584E-02  0.9789E-02  0.1055E+00  0.5993E-01
      6.260  0.4479E-02  0.4174E-02  0.1063E+00  0.6065E-01
      6.433  0.3122E-02  0.4503E-02  0.1068E+00  0.6143E-01
      6.606  0.1902E-02  0.7610E-02  0.1071E+00  0.6275E-01
      6.779  0.2633E-02  0.1798E-01  0.1076E+00  0.6586E-01
      6.952  0.6622E-02  0.1829E-01  0.1087E+00  0.6903E-01
      7.125  0.4116E-02  0.1897E-01  0.1094E+00  0.7231E-01
      7.298  0.1785E-02  0.2741E-01  0.1098E+00  0.7705E-01
      7.471  0.2394E-02  0.2710E-01  0.1102E+00  0.8174E-01
      7.644  0.2041E-02  0.3682E-01  0.1105E+00  0.8811E-01
      7.817 -0.1244E-03  0.4615E-01  0.1105E+00  0.9610E-01
      7.991  0.4319E-03  0.2929E-01  0.1106E+00  0.1012E+00
      8.164  0.5052E-02  0.1500E-01  0.1114E+00  0.1038E+00
      8.337  0.5053E-02  0.8984E-02  0.1123E+00  0.1053E+00
      8.510  0.1478E-02  0.7935E-02  0.1126E+00  0.1067E+00
      8.683  0.3846E-02  0.3306E-02  0.1132E+00  0.1073E+00
      8.856  0.3504E-02  0.5860E-02  0.1138E+00  0.1083E+00
      9.029  0.2236E-02  0.6593E-02  0.1142E+00  0.1094E+00
      9.202  0.7320E-03  0.3733E-02  0.1144E+00  0.1101E+00
      9.375  0.4705E-03  0.2530E-02  0.1144E+00  0.1105E+00
      9.548  0.3199E-02  0.1695E-02  0.1150E+00  0.1108E+00
      9.721  0.2997E-02  0.3908E-02  0.1155E+00  0.1115E+00
      9.894  0.2150E-02  0.4556E-02  0.1159E+00  0.1123E+00
     10.067  0.3252E-02  0.2306E-02  0.1165E+00  0.1127E+00
     10.240  0.2379E-02  0.3373E-02  0.1169E+00  0.1132E+00
     10.413  0.1973E-03  0.2127E-02  0.1169E+00  0.1136E+00
     10.586  0.6139E-03  0.3103E-02  0.1170E+00  0.1141E+00
     10.759  0.5360E-03  0.1735E-02  0.1171E+00  0.1144E+00
     10.932  0.8269E-03  0.1977E-02  0.1172E+00  0.1148E+00
     11.105  0.3234E-02  0.5487E-02  0.1178E+00  0.1157E+00
     11.278  0.2046E-02  0.4430E-02  0.1182E+00  0.1165E+00
     11.451  0.1709E-02  0.2163E-02  0.1184E+00  0.1169E+00
     11.624  0.7245E-03  0.7576E-04  0.1186E+00  0.1169E+00
     11.797 -0.1554E-03  0.5339E-03  0.1185E+00  0.1170E+00
     11.970  0.7886E-03  0.6330E-03  0.1187E+00  0.1171E+00
     12.143  0.1699E-02  0.4875E-03  0.1190E+00  0.1172E+00
     12.316  0.1393E-02  0.3170E-02  0.1192E+00  0.1177E+00
     12.489  0.2522E-02  0.2202E-02  0.1197E+00  0.1181E+00
     12.662  0.1112E-02  0.1412E-02  0.1198E+00  0.1184E+00
     12.835 -0.1328E-03  0.1915E-02  0.1198E+00  0.1187E+00
     13.008  0.1122E-02  0.1722E-02  0.1200E+00  0.1190E+00
     13.181  0.2836E-02  0.5641E-03  0.1205E+00  0.1191E+00
     13.355  0.4102E-02  0.1558E-02  0.1212E+00  0.1193E+00
     13.528  0.3485E-02  0.1193E-02  0.1218E+00  0.1196E+00
     13.701  0.1848E-02  0.1095E-02  0.1221E+00  0.1197E+00
     13.874  0.5007E-02  0.6170E-03  0.1230E+00  0.1199E+00
     14.047  0.6739E-02 -0.6587E-04  0.1242E+00  0.1198E+00
     14.220  0.4518E-02 -0.2492E-03  0.1250E+00  0.1198E+00
     14.393  0.2538E-02  0.9138E-03  0.1254E+00  0.1200E+00
     14.566  0.3987E-02  0.5811E-02  0.1261E+00  0.1210E+00
     14.739  0.5029E-02  0.4547E-02  0.1270E+00  0.1217E+00
     14.912  0.1052E-02  0.2380E-02  0.1271E+00  0.1222E+00
     15.085  0.9397E-03  0.6215E-02  0.1273E+00  0.1232E+00
     15.258  0.3094E-02  0.8136E-02  0.1278E+00  0.1246E+00
     15.431  0.4324E-02  0.5783E-02  0.1286E+00  0.1256E+00
     15.604  0.2911E-02  0.4586E-02  0.1291E+00  0.1264E+00
     15.777  0.3445E-02  0.3759E-02  0.1297E+00  0.1271E+00
     15.950  0.7765E-02  0.4643E-03  0.1310E+00  0.1272E+00
     16.123  0.8602E-02  0.9957E-03  0.1325E+00  0.1273E+00
     16.296  0.2831E-02  0.3812E-02  0.1330E+00  0.1280E+00
     16.469 -0.1467E-03  0.6420E-02  0.1330E+00  0.1291E+00
     16.642  0.9557E-03  0.4194E-02  0.1331E+00  0.1298E+00
     16.815  0.3082E-02  0.4859E-02  0.1337E+00  0.1307E+00
     16.988  0.4499E-02  0.7111E-02  0.1345E+00  0.1319E+00
     17.161  0.2392E-02  0.5858E-02  0.1349E+00  0.1329E+00
     17.334  0.5351E-02  0.1327E-02  0.1358E+00  0.1331E+00
     17.507  0.1001E-01  0.1471E-02  0.1375E+00  0.1334E+00
     17.680  0.5857E-02  0.2276E-02  0.1385E+00  0.1338E+00
     17.853  0.1428E-02  0.4400E-02  0.1388E+00  0.1346E+00
     18.026 -0.1215E-03  0.4709E-02  0.1388E+00  0.1354E+00
     18.199 -0.2479E-03  0.6761E-02  0.1387E+00  0.1365E+00
     18.372  0.5643E-03  0.4984E-02  0.1388E+00  0.1374E+00
     18.545  0.4679E-02  0.5255E-02  0.1396E+00  0.1383E+00
     18.718  0.6093E-02  0.2601E-02  0.1407E+00  0.1388E+00
     18.892  0.4488E-02 -0.4875E-04  0.1415E+00  0.1388E+00
     19.065  0.1486E-02 -0.5505E-04  0.1417E+00  0.1387E+00
     19.238  0.4393E-02  0.3222E-02  0.1425E+00  0.1393E+00
     19.411  0.4769E-02  0.6772E-02  0.1433E+00  0.1405E+00
     19.584  0.5326E-02  0.5644E-02  0.1442E+00  0.1415E+00
     19.757  0.5634E-02  0.1188E-02  0.1452E+00  0.1417E+00
     19.930  0.6147E-02  0.2613E-02  0.1463E+00  0.1421E+00
     20.103  0.3450E-02  0.5217E-02  0.1469E+00  0.1430E+00
     20.276  0.7946E-03  0.5865E-02  0.1470E+00  0.1440E+00
     20.449 -0.8616E-04  0.7833E-02  0.1470E+00  0.1454E+00
     20.622  0.3530E-02  0.5062E-02  0.1476E+00  0.1463E+00
     20.795  0.6103E-02  0.2151E-02  0.1487E+00  0.1466E+00
     20.968  0.2977E-02  0.1537E-02  0.1492E+00  0.1469E+00
     21.141  0.1108E-02  0.1195E-02  0.1494E+00  0.1471E+00
     21.314  0.6845E-03  0.4143E-02  0.1495E+00  0.1478E+00
     21.487  0.5991E-02  0.5626E-02  0.1505E+00  0.1488E+00
     21.660  0.5886E-02  0.3285E-02  0.1515E+00  0.1494E+00
     21.833  0.6050E-03  0.1864E-03  0.1516E+00  0.1494E+00
     22.006  0.9594E-03  0.2485E-02  0.1518E+00  0.1498E+00
     22.179  0.3540E-02  0.5556E-02  0.1524E+00  0.1508E+00
     22.352  0.3963E-02  0.3760E-02  0.1531E+00  0.1514E+00
     22.525  0.3614E-02  0.8750E-03  0.1537E+00  0.1516E+00
     22.698  0.6168E-02  0.8427E-03  0.1548E+00  0.1517E+00
     22.871  0.6108E-02  0.2561E-02  0.1559E+00  0.1522E+00
     23.044  0.4596E-02  0.5588E-02  0.1566E+00  0.1531E+00
     23.217  0.8085E-02  0.7516E-02  0.1580E+00  0.1544E+00
     23.390  0.7175E-02  0.6172E-02  0.1593E+00  0.1555E+00
     23.563  0.3285E-02  0.5252E-02  0.1599E+00  0.1564E+00
     23.736  0.2386E-02  0.6925E-02  0.1603E+00  0.1576E+00
     23.909  0.3532E-02  0.8405E-02  0.1609E+00  0.1591E+00
     24.082  0.7520E-02  0.4805E-02  0.1622E+00  0.1599E+00
     24.256  0.8806E-02  0.4802E-02  0.1637E+00  0.1607E+00
     24.429  0.5985E-02  0.3306E-02  0.1647E+00  0.1613E+00
     24.602  0.2251E-02  0.4294E-02  0.1651E+00  0.1621E+00
     24.775 -0.1965E-03  0.8306E-02  0.1651E+00  0.1635E+00
     24.948  0.3079E-02  0.6582E-02  0.1656E+00  0.1646E+00
     25.121  0.6231E-02  0.4254E-02  0.1667E+00  0.1654E+00
     25.294  0.5158E-02  0.1432E-02  0.1676E+00  0.1656E+00
     25.467  0.4001E-02  0.7678E-03  0.1683E+00  0.1657E+00
     25.640  0.4885E-02  0.2533E-02  0.1691E+00  0.1662E+00
     25.813  0.8244E-02  0.7199E-02  0.1706E+00  0.1674E+00
     25.986  0.3642E-02  0.7362E-02  0.1712E+00  0.1687E+00
     26.159  0.6246E-02  0.6036E-02  0.1723E+00  0.1697E+00
     26.332  0.9529E-02  0.5195E-02  0.1739E+00  0.1706E+00
     26.505  0.4137E-02  0.5510E-02  0.1746E+00  0.1716E+00
     26.678  0.6279E-02  0.9593E-02  0.1757E+00  0.1733E+00
     26.851  0.6683E-02  0.6248E-02  0.1769E+00  0.1743E+00
     27.024  0.1546E-02  0.3445E-02  0.1771E+00  0.1749E+00
     27.197  0.1468E-03  0.4753E-02  0.1772E+00  0.1758E+00
     27.370  0.1535E-02  0.4967E-02  0.1774E+00  0.1766E+00
     27.543  0.2028E-02  0.2396E-02  0.1778E+00  0.1770E+00
     27.716  0.3022E-02  0.5806E-04  0.1783E+00  0.1770E+00
     27.889  0.6724E-02  0.1424E-02  0.1795E+00  0.1773E+00
     28.062  0.6592E-02  0.3596E-02  0.1806E+00  0.1779E+00
     28.235  0.3735E-02  0.6770E-02  0.1813E+00  0.1791E+00
     28.408 -0.1042E-03  0.6731E-02  0.1812E+00  0.1802E+00
     28.581  0.9829E-04  0.2802E-02  0.1813E+00  0.1807E+00
     28.754  0.2404E-02  0.1790E-02  0.1817E+00  0.1810E+00
     28.927  0.3453E-02  0.1895E-02  0.1823E+00  0.1814E+00
     29.100  0.5236E-02  0.2939E-02  0.1832E+00  0.1819E+00
     29.273  0.5070E-02  0.1847E-02  0.1841E+00  0.1822E+00
     29.446  0.2087E-02  0.1822E-02  0.1844E+00  0.1825E+00
     29.619  0.3749E-02  0.5429E-02  0.1851E+00  0.1835E+00
     29.793  0.3771E-02  0.5942E-02  0.1857E+00  0.1845E+00
     29.966  0.2564E-02  0.4328E-02  0.1862E+00  0.1852E+00
     30.139  0.3212E-02  0.7697E-03  0.1867E+00  0.1854E+00
     30.312  0.5862E-02  0.1972E-02  0.1877E+00  0.1857E+00
     30.485  0.1172E-01  0.2618E-02  0.1898E+00  0.1862E+00
     30.658  0.1103E-01  0.4796E-02  0.1917E+00  0.1870E+00
     30.831  0.5135E-02  0.7727E-02  0.1926E+00  0.1883E+00
     31.004  0.3603E-02  0.1442E-01  0.1932E+00  0.1908E+00
     31.177  0.4255E-02  0.1225E-01  0.1939E+00  0.1929E+00
     31.350  0.2469E-02  0.5164E-02  0.1943E+00  0.1938E+00
     31.523  0.3505E-02  0.1671E-02  0.1950E+00  0.1941E+00
     31.696  0.2641E-02 -0.6574E-04  0.1954E+00  0.1941E+00
     31.869  0.9048E-03  0.5131E-03  0.1956E+00  0.1942E+00
     32.042  0.3181E-03  0.3071E-02  0.1956E+00  0.1947E+00
     32.215  0.1107E-02  0.3620E-02  0.1958E+00  0.1954E+00
     32.388  0.1470E-02  0.2576E-02  0.1961E+00  0.1958E+00
     32.561  0.2673E-02  0.5988E-03  0.1965E+00  0.1959E+00
     32.734  0.3571E-02  0.1259E-02  0.1971E+00  0.1961E+00
     32.907  0.7496E-02  0.3077E-02  0.1984E+00  0.1967E+00
     33.080  0.1054E-01  0.9170E-02  0.2003E+00  0.1982E+00
     33.253  0.9130E-02  0.6142E-02  0.2018E+00  0.1993E+00
     33.426  0.4255E-02  0.3575E-03  0.2026E+00  0.1994E+00
     33.599  0.6369E-02  0.4536E-02  0.2037E+00  0.2002E+00
     33.772  0.1388E-01  0.7273E-02  0.2061E+00  0.2014E+00
     33.945  0.7054E-02  0.4757E-02  0.2073E+00  0.2022E+00
     34.118  0.1521E-02  0.1316E-01  0.2076E+00  0.2045E+00
     34.291  0.1989E-02  0.1192E-01  0.2079E+00  0.2066E+00
     34.464  0.4857E-02  0.3655E-02  0.2088E+00  0.2072E+00
     34.637  0.4374E-02  0.4055E-02  0.2095E+00  0.2079E+00
     34.810  0.6444E-02  0.1949E-02  0.2106E+00  0.2082E+00
     34.983  0.6677E-02  0.2005E-02  0.2118E+00  0.2086E+00
     35.157  0.2408E-02  0.9053E-02  0.2122E+00  0.2102E+00
     35.330  0.4456E-02  0.7293E-02  0.2130E+00  0.2114E+00
     35.503  0.1991E-02  0.4023E-02  0.2133E+00  0.2121E+00
     35.676  0.1019E-02  0.3677E-02  0.2135E+00  0.2128E+00
     35.849  0.3295E-02  0.2282E-02  0.2141E+00  0.2131E+00
     36.022  0.4586E-02  0.2022E-02  0.2149E+00  0.2135E+00
     36.195  0.5651E-02  0.2329E-02  0.2158E+00  0.2139E+00
     36.368  0.3435E-02  0.3314E-02  0.2164E+00  0.2145E+00
     36.541  0.4997E-02  0.5176E-02  0.2173E+00  0.2154E+00
     36.714  0.6768E-02  0.4926E-02  0.2185E+00  0.2162E+00
     36.887  0.6579E-02  0.7322E-02  0.2196E+00  0.2175E+00
     37.060  0.1012E-01  0.5975E-02  0.2214E+00  0.2185E+00
     37.233  0.1063E-01  0.4199E-02  0.2232E+00  0.2192E+00
     37.406  0.5004E-02  0.9093E-02  0.2241E+00  0.2208E+00
     37.579  0.3244E-02  0.6668E-02  0.2246E+00  0.2220E+00
     37.752  0.1886E-02  0.4024E-02  0.2249E+00  0.2227E+00
     37.925  0.4757E-03  0.8253E-02  0.2250E+00  0.2241E+00
     38.098  0.3618E-02  0.3519E-02  0.2257E+00  0.2247E+00
     38.271  0.9967E-02  0.1848E-02  0.2274E+00  0.2250E+00
     38.444  0.1020E-01  0.4193E-02  0.2291E+00  0.2258E+00
     38.617  0.3777E-02  0.6069E-02  0.2298E+00  0.2268E+00
     38.790  0.1566E-02  0.4904E-02  0.2301E+00  0.2277E+00
     38.963  0.3646E-02  0.4202E-02  0.2307E+00  0.2284E+00
     39.136  0.4095E-02  0.6350E-02  0.2314E+00  0.2295E+00
     39.309  0.3940E-02  0.9425E-02  0.2321E+00  0.2311E+00
     39.482  0.2558E-02  0.6668E-02  0.2325E+00  0.2323E+00
     39.655  0.1637E-02  0.3157E-03  0.2328E+00  0.2323E+00
     39.828  0.6524E-03  0.1285E-02  0.2329E+00  0.2325E+00
     40.001  0.1906E-02  0.1634E-02  0.2333E+00  0.2328E+00
     40.174  0.1868E-02  0.9961E-04  0.2336E+00  0.2328E+00
     40.347  0.6019E-02  0.2086E-02  0.2346E+00  0.2332E+00
     40.521  0.5425E-02  0.3366E-02  0.2356E+00  0.2338E+00
     40.694  0.5915E-03  0.1993E-02  0.2357E+00  0.2341E+00
     40.867 -0.2300E-03  0.2350E-02  0.2356E+00  0.2345E+00
     41.040  0.1723E-02  0.4272E-02  0.2359E+00  0.2353E+00
     41.213  0.2832E-02  0.4513E-02  0.2364E+00  0.2361E+00
     41.386  0.1970E-02  0.4836E-03  0.2368E+00  0.2361E+00
     41.559  0.3832E-03  0.6116E-03  0.2368E+00  0.2362E+00
     41.732  0.1060E-02  0.2368E-02  0.2370E+00  0.2367E+00
     41.905  0.4497E-02  0.2822E-02  0.2378E+00  0.2371E+00
     42.078  0.2329E-02  0.2100E-02  0.2382E+00  0.2375E+00
     42.251 -0.1073E-03  0.1580E-02  0.2382E+00  0.2378E+00
     42.424  0.2763E-03  0.2021E-02  0.2382E+00  0.2381E+00
     42.597  0.6657E-03  0.2370E-03  0.2383E+00  0.2382E+00
     42.770  0.1624E-02  0.1202E-03  0.2386E+00  0.2382E+00
     42.943  0.1080E-02  0.5640E-03  0.2388E+00  0.2383E+00
     43.116  0.1059E-02  0.1216E-03  0.2390E+00  0.2383E+00
     43.289  0.1617E-02  0.1276E-02  0.2393E+00  0.2385E+00
     43.462  0.1715E-03  0.2892E-02  0.2393E+00  0.2390E+00
     43.635 -0.6337E-04  0.1504E-02  0.2393E+00  0.2393E+00
     43.808 -0.4234E-05 -0.1192E-04  0.2393E+00  0.2393E+00
     43.981 -0.3221E-05 -0.5949E-04  0.2393E+00  0.2393E+00
     44.154 -0.5031E-04 -0.5961E-05  0.2393E+00  0.2393E+00
     44.327  0.2851E-04  0.2646E-03  0.2393E+00  0.2393E+00
     44.500  0.1628E-02  0.4258E-03  0.2396E+00  0.2394E+00
     44.673  0.2347E-02  0.1697E-02  0.2400E+00  0.2397E+00
     44.846  0.3123E-03  0.1753E-02  0.2400E+00  0.2400E+00
     45.019 -0.9354E-04  0.9859E-04  0.2400E+00  0.2400E+00
     45.192 -0.7401E-05 -0.6058E-04  0.2400E+00  0.2400E+00
     45.365 -0.8857E-07 -0.3651E-05  0.2400E+00  0.2400E+00
     45.538 -0.2093E-09 -0.3945E-07  0.2400E+00  0.2400E+00
     45.711 -0.1040E-12 -0.9211E-10  0.2400E+00  0.2400E+00
     45.884 -0.1109E-16 -0.4794E-13  0.2400E+00  0.2400E+00
     46.058  0.0000E+00 -0.5852E-17  0.2400E+00  0.2400E+00
     46.231  0.0000E+00  0.0000E+00  0.2400E+00  0.2400E+00
     46.404  0.0000E+00  0.0000E+00  0.2400E+00  0.2400E+00
     46.577  0.0000E+00  0.0000E+00  0.2400E+00  0.2400E+00
     46.750  0.0000E+00  0.0000E+00  0.2400E+00  0.2400E+00
     46.923  0.0000E+00  0.0000E+00  0.2400E+00  0.2400E+00
     47.096  0.0000E+00  0.0000E+00  0.2400E+00  0.2400E+00
     47.09571424     -4.81383601  301      5.76736685      1.00000000
     -4.814  0.0000E+00  0.0000E+00  0.0000E+00  0.0000E+00  0.0000E+00  0.0000E+00
     -4.641  0.0000E+00  0.0000E+00  0.0000E+00  0.0000E+00  0.0000E+00  0.0000E+00
     -4.468  0.0000E+00  0.0000E+00  0.0000E+00  0.0000E+00  0.0000E+00  0.0000E+00
     -4.295  0.0000E+00  0.0000E+00  0.0000E+00  0.0000E+00  0.0000E+00  0.0000E+00
     -4.122 -0.3178E-31  0.0000E+00 -0.6359E-33  0.0000E+00 -0.1254E-34  0.0000E+00
     -3.949 -0.2480E-25 -0.5650E-32 -0.4962E-27 -0.1156E-33 -0.9789E-29 -0.1559E-35
     -3.776 -0.4274E-20 -0.5272E-26 -0.8551E-22 -0.1078E-27 -0.1687E-23 -0.1454E-29
     -3.603 -0.1574E-15 -0.1087E-20 -0.3149E-17 -0.2223E-22 -0.6212E-19 -0.2998E-24
     -3.430 -0.1287E-11 -0.4816E-16 -0.2576E-13 -0.9851E-18 -0.5081E-15 -0.1329E-19
     -3.257 -0.2266E-08 -0.4700E-12 -0.4534E-10 -0.9613E-14 -0.8944E-12 -0.1297E-15
     -3.084 -0.8337E-06 -0.9936E-09 -0.1668E-07 -0.2032E-10 -0.3290E-09 -0.2741E-12
     -2.910 -0.5954E-04 -0.4410E-06 -0.1191E-05 -0.9021E-08 -0.2350E-07 -0.1217E-09
     -2.737 -0.5862E-03 -0.3854E-04 -0.1174E-04 -0.7882E-06 -0.2322E-06 -0.1063E-07
     -2.564  0.2766E-02 -0.5061E-03  0.5440E-04 -0.1036E-04  0.9851E-06 -0.1399E-06
     -2.391  0.1297E-01  0.1702E-02  0.2404E-03  0.3427E-04  0.2958E-05  0.4290E-06
     -2.218  0.6444E-02  0.1219E-01  0.1509E-03  0.2349E-03  0.4885E-05  0.2280E-05
     -2.045  0.1267E-01  0.7105E-02  0.7467E-03  0.1395E-03  0.5619E-04  0.1484E-05
     -1.872  0.1129E-01  0.1077E-01  0.6281E-03  0.6594E-03  0.4286E-04  0.3441E-04
     -1.699  0.2997E-01  0.1210E-01  0.3029E-02  0.6613E-03  0.4521E-03  0.2770E-04
     -1.526  0.4506E-01  0.2180E-01  0.4575E-02  0.2236E-02  0.6846E-03  0.2070E-03
     -1.353  0.4309E-02  0.4806E-01  0.3924E-03  0.5034E-02  0.4082E-04  0.4721E-03
     -1.180 -0.4267E-02  0.1003E-01 -0.6380E-03  0.1031E-02 -0.1769E-03  0.9288E-04
     -1.007  0.2261E-01 -0.4371E-02  0.4117E-02 -0.6505E-03  0.1342E-02 -0.1037E-03
     -0.834  0.5470E-01  0.8427E-02  0.9926E-02  0.1620E-02  0.3186E-02  0.3158E-03
     -0.661  0.3136E-01  0.5233E-01  0.6568E-02  0.9915E-02  0.2495E-02  0.1894E-02
     -0.488  0.4131E-01  0.3286E-01  0.9587E-02  0.6505E-02  0.4449E-02  0.1305E-02
     -0.315  0.4079E-01  0.3579E-01  0.1001E-01  0.8594E-02  0.7766E-02  0.2060E-02
     -0.142  0.2566E-01  0.3159E-01  0.6369E-02  0.7843E-02  0.5542E-02  0.2320E-02
      0.031 -0.3901E-02  0.3868E-01 -0.1369E-02  0.1050E-01 -0.1380E-02  0.4393E-02
      0.204  0.1807E-01  0.1616E-01  0.6851E-02  0.4331E-02  0.5540E-02  0.1809E-02
      0.377  0.8492E-01 -0.5134E-02  0.3031E-01 -0.1786E-02  0.3182E-01 -0.7931E-03
      0.550  0.6076E-01  0.2021E-01  0.2119E-01  0.7937E-02  0.3261E-01  0.3381E-02
      0.723  0.6960E-01  0.7481E-01  0.2578E-01  0.2906E-01  0.7117E-01  0.1335E-01
      0.896  0.5577E-01  0.5011E-01  0.1635E-01  0.1903E-01  0.1203E+00  0.1268E-01
      1.069  0.3206E-01  0.3221E-01  0.6310E-02  0.1326E-01  0.1921E+00  0.1177E-01
      1.242  0.8159E-01  0.6033E-01  0.3706E-01  0.2763E-01  0.3998E+00  0.2289E-01
      1.415  0.9872E-01  0.3361E-01  0.4979E-01  0.1481E-01  0.5623E+00  0.1757E-01
      1.588  0.5802E-01  0.2410E-01  0.4340E-01  0.9444E-02  0.5144E+00  0.2335E-01
      1.761  0.5038E-01  0.1055E-01  0.5361E-01  0.5519E-02  0.6954E+00  0.6716E-02
      1.934  0.3167E-01  0.2436E-01  0.3088E-01  0.1736E-01  0.5370E+00  0.1848E-01
      2.107  0.1321E-01  0.9587E-01  0.2364E-01  0.5676E-01  0.3336E+00  0.1175E+00
      2.280  0.4252E-02  0.9579E-01  0.2214E-01  0.4700E-01  0.4687E+00  0.1756E+00
      2.454  0.2991E-02  0.5539E-01  0.4750E-01  0.2369E-01  0.1142E+01  0.1486E+00
      2.627  0.1917E-02  0.3785E-01  0.5487E-01  0.2131E-01  0.1331E+01  0.1109E+00
      2.800  0.1463E-02  0.4929E-01  0.2267E-01  0.3031E-01  0.7638E+00  0.2283E+00
      2.973  0.1413E-01  0.4136E-01  0.6425E-01  0.3343E-01  0.8926E+00  0.2272E+00
      3.146  0.2426E-01  0.3652E-01  0.1115E+00  0.4597E-01  0.1405E+01  0.3036E+00
      3.319  0.1285E-01  0.5469E-01  0.5969E-01  0.6618E-01  0.1194E+01  0.5523E+00
      3.492  0.5098E-02  0.2376E-01  0.3219E-01  0.3248E-01  0.6215E+00  0.3661E+00
      3.665  0.5560E-02  0.4047E-02  0.3672E-01  0.1582E-01  0.2517E+00  0.1889E+00
      3.838  0.9079E-02  0.5657E-02  0.6279E-01  0.2583E-01  0.5145E+00  0.2651E+00
      4.011  0.4754E-02  0.2888E-02  0.2693E-01  0.3329E-01  0.6356E+00  0.3432E+00
      4.184  0.2333E-02  0.1462E-02  0.8091E-02  0.7091E-01  0.2956E+00  0.7438E+00
      4.357  0.9460E-02  0.3612E-02  0.3297E-01  0.1053E+00  0.7829E+00  0.1206E+01
      4.530  0.9903E-02  0.3150E-02  0.2685E-01  0.7416E-01  0.1522E+01  0.9011E+00
      4.703  0.5193E-02  0.2766E-02  0.1207E-01  0.8297E-01  0.1892E+01  0.8387E+00
      4.876  0.5168E-02  0.5447E-02  0.1284E-01  0.8571E-01  0.2293E+01  0.9403E+00
      5.049  0.9073E-02  0.9590E-02  0.2540E-01  0.1139E+00  0.1923E+01  0.9622E+00
      5.222  0.1026E-01  0.7275E-02  0.2177E-01  0.1104E+00  0.8278E+00  0.9283E+00
      5.395  0.1319E-01  0.4240E-02  0.1974E-01  0.7300E-01  0.8306E+00  0.7355E+00
      5.568  0.1527E-01  0.8902E-03  0.2465E-01  0.1517E-01  0.9225E+00  0.3158E+00
      5.741  0.4455E-02  0.2337E-03  0.1164E-01  0.6471E-02  0.6353E+00  0.7455E-01
      5.914 -0.5788E-04  0.3665E-02  0.1739E-02  0.5611E-01  0.4462E+00  0.3401E+00
      6.087  0.1051E-01  0.3173E-02  0.7153E-02  0.4217E-01  0.2506E+00  0.3921E+00
      6.260  0.2292E-01  0.2050E-03  0.3359E-01  0.3786E-02  0.1350E+00  0.1909E+00
      6.433  0.9435E-02  0.4883E-03  0.4623E-01  0.3201E-02  0.6363E-01  0.2062E+00
      6.606  0.2585E-02  0.2787E-02  0.1971E-01  0.6379E-02  0.5688E-01  0.3498E+00
      6.779  0.7518E-02  0.3989E-02  0.1406E-01  0.1068E-01  0.9609E-01  0.8387E+00
      6.952  0.2161E-01  0.2591E-02  0.4693E-01  0.9606E-02  0.2193E+00  0.8562E+00
      7.125  0.1492E-01  0.2136E-02  0.3522E-01  0.1001E-01  0.1246E+00  0.8922E+00
      7.298  0.8337E-02  0.4361E-02  0.1442E-01  0.1152E-01  0.5307E-01  0.1298E+01
      7.471  0.1375E-01  0.2739E-02  0.2735E-01  0.7542E-02  0.5452E-01  0.1299E+01
      7.644  0.1283E-01  0.2657E-02  0.2446E-01  0.9568E-02  0.4314E-01  0.1778E+01
      7.817 -0.2917E-03  0.7797E-02 -0.2178E-02  0.1192E-01 -0.2219E-02  0.2231E+01
      7.991  0.1394E-02  0.1199E-01  0.7793E-02  0.1711E-01  0.6888E-02  0.1395E+01
      8.164  0.2254E-01  0.5102E-02  0.7613E-01  0.1693E-01  0.9564E-01  0.7045E+00
      8.337  0.1874E-01  0.4503E-02  0.7902E-01  0.7394E-02  0.9534E-01  0.4258E+00
      8.510  0.1565E-02  0.1358E-01  0.2473E-01  0.1247E-01  0.2938E-01  0.3542E+00
      8.683  0.8686E-02  0.5143E-02  0.5178E-01  0.8704E-02  0.8973E-01  0.1421E+00
      8.856  0.1227E-01  0.7534E-02  0.4033E-01  0.2548E-01  0.8725E-01  0.2371E+00
      9.029  0.1017E-01  0.8766E-02  0.2309E-01  0.3005E-01  0.5702E-01  0.2643E+00
      9.202  0.3603E-02  0.1058E-01  0.7661E-02  0.2035E-01  0.1815E-01  0.1370E+00
      9.375  0.3852E-02  0.1317E-01  0.7206E-02  0.1558E-01  0.6375E-02  0.8254E-01
      9.548  0.1103E-01  0.3342E-02  0.4916E-01  0.2080E-01  0.6162E-01  0.4620E-01
      9.721  0.1133E-01  0.6007E-02  0.4592E-01  0.4343E-01  0.5684E-01  0.1154E+00
      9.894  0.1549E-01  0.1509E-01  0.3400E-01  0.4269E-01  0.3072E-01  0.1371E+00
     10.067  0.1234E-01  0.5948E-02  0.6168E-01  0.2039E-01  0.4501E-01  0.7243E-01
     10.240  0.2774E-02  0.2530E-02  0.5008E-01  0.3048E-01  0.3319E-01  0.1109E+00
     10.413 -0.4601E-03  0.3795E-02  0.4561E-02  0.1691E-01  0.2929E-02  0.7087E-01
     10.586 -0.1421E-03  0.1021E-01  0.1058E-01  0.2411E-01  0.1181E-01  0.9846E-01
     10.759 -0.2827E-03  0.6418E-02  0.9457E-02  0.1414E-01  0.1019E-01  0.5311E-01
     10.932  0.2546E-02  0.4568E-02  0.1468E-01  0.2276E-01  0.1335E-01  0.5424E-01
     11.105  0.6060E-02  0.1842E-01  0.5824E-01  0.6780E-01  0.5422E-01  0.1367E+00
     11.278  0.2631E-02  0.1398E-01  0.3568E-01  0.6687E-01  0.3629E-01  0.9391E-01
     11.451  0.5596E-02  0.1856E-02  0.2436E-01  0.3790E-01  0.3302E-01  0.4446E-01
     11.624  0.2450E-02 -0.4882E-03  0.1015E-01  0.1672E-02  0.1416E-01  0.1752E-02
     11.797 -0.6590E-03 -0.8472E-04 -0.2707E-02  0.6784E-02 -0.2224E-02  0.1418E-01
     11.970  0.4440E-02 -0.2171E-03  0.1615E-01  0.8245E-02  0.7027E-02  0.1671E-01
     12.143  0.9585E-02  0.1056E-02  0.3460E-01  0.7166E-02  0.1535E-01  0.1098E-01
     12.316  0.1800E-02  0.4781E-02  0.3176E-01  0.4657E-01  0.1544E-01  0.7289E-01
     12.489 -0.4299E-03  0.2251E-02  0.5572E-01  0.3155E-01  0.3413E-01  0.5224E-01
     12.662 -0.6855E-03  0.3200E-02  0.2281E-01  0.1556E-01  0.1754E-01  0.3653E-01
     12.835 -0.1738E-02  0.6701E-02 -0.1212E-02  0.2780E-01 -0.2143E-02  0.3790E-01
     13.008  0.2277E-01  0.8935E-02 -0.3120E-03  0.3323E-01  0.2309E-01  0.1960E-01
     13.181  0.5153E-01  0.1888E-02  0.5729E-02  0.1166E-01  0.5579E-01  0.6769E-02
     13.355  0.5647E-01 -0.3984E-03  0.2819E-01  0.3418E-01  0.7127E-01  0.2348E-01
     13.528  0.4943E-01 -0.4220E-04  0.2256E-01  0.2493E-01  0.6049E-01  0.1916E-01
     13.701  0.3229E-01 -0.6260E-06  0.4684E-02  0.1745E-01  0.3588E-01  0.2434E-01
     13.874  0.7379E-01 -0.5127E-05  0.3192E-01  0.9849E-02  0.8447E-01  0.1369E-01
     14.047  0.8942E-01 -0.3351E-03  0.5664E-01 -0.7714E-03  0.1061E+00 -0.1456E-02
     14.220  0.4393E-01 -0.3221E-02  0.5228E-01 -0.1204E-02  0.6839E-01 -0.5541E-02
     14.393  0.1620E-01  0.1341E-01  0.3738E-01  0.2510E-02  0.3674E-01  0.2127E-01
     14.566  0.1499E-01  0.8047E-01  0.7113E-01  0.2373E-01  0.5512E-01  0.1287E+00
     14.739  0.1205E-01  0.5951E-01  0.9470E-01  0.2694E-01  0.6760E-01  0.9214E-01
     14.912 -0.1087E-02  0.2578E-01  0.2166E-01  0.2668E-01  0.1451E-01  0.3695E-01
     15.085  0.2053E-01  0.8370E-01  0.1332E-02  0.3687E-01  0.1328E-01  0.1228E+00
     15.258  0.4520E-01  0.9356E-01  0.2036E-01  0.6150E-01  0.4826E-01  0.1583E+00
     15.431  0.4884E-01  0.4243E-01  0.4276E-01  0.7162E-01  0.6501E-01  0.1011E+00
     15.604  0.2248E-01  0.1863E-01  0.4982E-01  0.6760E-01  0.2946E-01  0.8274E-01
     15.777  0.3485E-01  0.1030E-01  0.5164E-01  0.5505E-01  0.3220E-01  0.7110E-01
     15.950  0.7827E-01  0.2977E-02  0.9814E-01  0.6375E-02  0.9171E-01  0.6506E-02
     16.123  0.7500E-01  0.1915E-01  0.1162E+00  0.9052E-02  0.1066E+00  0.6764E-02
     16.296  0.3441E-01  0.3328E-01  0.3041E-01  0.5435E-01  0.3369E-01  0.4864E-01
     16.469  0.3641E-02  0.5137E-01 -0.4781E-02  0.8661E-01 -0.3599E-02  0.9423E-01
     16.642  0.8634E-02  0.5373E-01  0.1834E-01  0.3502E-01  0.5933E-02  0.6498E-01
     16.815  0.2657E-01  0.6191E-01  0.5143E-01  0.4223E-01  0.2791E-01  0.6703E-01
     16.988  0.4113E-01  0.6396E-01  0.6187E-01  0.7505E-01  0.5287E-01  0.1123E+00
     17.161  0.2128E-01  0.5801E-01  0.2766E-01  0.6025E-01  0.3430E-01  0.9150E-01
     17.334  0.4321E-01  0.1409E-01  0.8962E-01  0.1923E-01  0.4689E-01  0.1356E-01
     17.507  0.7310E-01  0.9824E-02  0.1569E+00  0.2863E-01  0.1069E+00  0.1201E-01
     17.680  0.3148E-01  0.2271E-01  0.7961E-01  0.3059E-01  0.8614E-01  0.2602E-01
     17.853 -0.6684E-05  0.2661E-01  0.2131E-01  0.7874E-01  0.2591E-01  0.4658E-01
     18.026 -0.1205E-02  0.2849E-01 -0.1420E-02  0.7931E-01 -0.1537E-02  0.5381E-01
     18.199 -0.1466E-02  0.6544E-01 -0.3628E-02  0.8385E-01 -0.3089E-02  0.8221E-01
     18.372  0.5164E-02  0.4045E-01  0.6659E-02  0.5665E-01  0.6625E-02  0.7284E-01
     18.545  0.3235E-01  0.2812E-01  0.7034E-01  0.5979E-01  0.5220E-01  0.9305E-01
     18.718  0.4040E-01  0.6287E-02  0.1024E+00  0.3424E-01  0.5916E-01  0.4885E-01
     18.892  0.2722E-01 -0.1711E-02  0.6922E-01 -0.2253E-03  0.4647E-01  0.3315E-03