bcc Fe                                  
           1
    -1.410000    1.410000    1.410000
     1.410000   -1.410000    1.410000
     1.410000    1.410000   -1.410000
   Fe
   1
Direct configuration=     1
   0.00000000  0.00000000  0.00000000
bcc Fe                                  
           1
    -1.428290    1.428290    1.428290
     1.428290   -1.428290    1.428290
     1.428290    1.428290   -1.428290
   Fe
   1
Direct configuration=     2
   0.00000000  0.00000000  0.00000000
bcc Fe                                  
           1
    -1.420359    1.420359    1.420359
     1.420359   -1.420359    1.420359
     1.420359    1.420359   -1.420359
   Fe
   1
Direct configuration=     3
   0.00000000  0.00000000  0.00000000
