fcc Ni                                  
   3.55000000000000     
     0.000000    0.500000    0.500000
     0.500000    0.000000    0.500000
     0.500000    0.500000    0.000000
   Ni
     1
Direct
  0.000000  0.000000  0.000000
 
   20   20   20
  154.86      144.85      118.26      83.637      50.537      25.734      11.446      5.7274      4.2239      3.5524    
  3.3476      3.5524      4.2239      5.7274      11.446      25.734      50.537      83.637      118.26      144.85    
  144.85      126.60      96.208      62.879      34.809      16.358      7.4400      4.6781      3.7781      3.3597    
  3.3615      3.7805      4.6777      7.4401      16.364      34.815      62.871      96.177      126.56      144.83    
  118.26      96.208      67.571      40.420      20.444      9.3518      5.1903      4.0128      3.4017      3.2176    
  3.4027      4.0125      5.1898      9.3563      20.454      40.423      67.554      96.174      118.23      126.56    
  83.637      62.879      40.420      22.036      10.625      5.6711      4.2065      3.4649      3.1286      3.1284    
  3.4637      4.2046      5.6704      10.628      22.042      40.424      62.879      83.634      96.174      96.177    
  50.537      34.809      20.444      10.625      5.8743      4.3171      3.5229      3.0840      2.9550      3.0843    
  3.5225      4.3147      5.8697      10.621      20.445      34.816      50.548      62.879      67.554      62.871    
  25.734      16.358      9.3518      5.6711      4.3171      3.5476      3.0691      2.8617      2.8619      3.0703    
  3.5498      4.3175      5.6661      9.3417      16.348      25.730      34.816      40.424      40.423      34.815    
  11.446      7.4400      5.1903      4.2065      3.5229      3.0691      2.8332      2.7624      2.8325      3.0712    
  3.5293      4.2129      5.1897      7.4295      11.430      16.348      20.445      22.042      20.454      16.364    
  5.7274      4.6781      4.0128      3.4649      3.0840      2.8617      2.7624      2.7612      2.8595      3.0840    
  3.4705      4.0237      4.6880      5.7282      7.4295      9.3417      10.621      10.628      9.3563      7.4401    
  4.2239      3.7781      3.4017      3.1286      2.9550      2.8619      2.8325      2.8595      2.9493      3.1222    
  3.4018      3.7888      4.2397      4.6880      5.1897      5.6661      5.8697      5.6704      5.1898      4.6777    
  3.5524      3.3597      3.2176      3.1284      3.0843      3.0703      3.0712      3.0840      3.1222      3.2064    
  3.3506      3.5520      3.7888      4.0237      4.2129      4.3175      4.3147      4.2046      4.0125      3.7805    
  3.3476      3.3615      3.4027      3.4637      3.5225      3.5498      3.5293      3.4705      3.4018      3.3506    
  3.3322      3.3506      3.4018      3.4705      3.5293      3.5498      3.5225      3.4637      3.4027      3.3615    
  3.5524      3.7805      4.0125      4.2046      4.3147      4.3175      4.2129      4.0237      3.7888      3.5520    
  3.3506      3.2064      3.1222      3.0840      3.0712      3.0703      3.0843      3.1284      3.2176      3.3597    
  4.2239      4.6777      5.1898      5.6704      5.8697      5.6661      5.1897      4.6880      4.2397      3.7888    
  3.4018      3.1222      2.9493      2.8595      2.8325      2.8619      2.9550      3.1286      3.4017      3.7781    
  5.7274      7.4401      9.3563      10.628      10.621      9.3417      7.4295      5.7282      4.6880      4.0237    
  3.4705      3.0840      2.8595      2.7612      2.7624      2.8617      3.0840      3.4649      4.0128      4.6781    
  11.446      16.364      20.454      22.042      20.445      16.348      11.430      7.4295      5.1897      4.2129    
  3.5293      3.0712      2.8325      2.7624      2.8332      3.0691      3.5229      4.2065      5.1903      7.4400    
  25.734      34.815      40.423      40.424      34.816      25.730      16.348      9.3417      5.6661      4.3175    
  3.5498      3.0703      2.8619      2.8617      3.0691      3.5476      4.3171      5.6711      9.3518      16.358    
  50.537      62.871      67.554      62.879      50.548      34.816      20.445      10.621      5.8697      4.3147    
  3.5225      3.0843      2.9550      3.0840      3.5229      4.3171      5.8743      10.625      20.444      34.809    
  83.637      96.177      96.174      83.634      62.879      40.424      22.042      10.628      5.6704      4.2046    
  3.4637      3.1284      3.1286      3.4649      4.2065      5.6711      10.625      22.036      40.420      62.879    
  118.26      126.56      118.23      96.174      67.554      40.423      20.454      9.3563      5.1898      4.0125    
  3.4027      3.2176      3.4017      4.0128      5.1903      9.3518      20.444      40.420      67.571      96.208    
  144.85      144.83      126.56      96.177      62.871      34.815      16.364      7.4401      4.6777      3.7805    
  3.3615      3.3597      3.7781      4.6781      7.4400      16.358      34.809      62.879      96.208      126.60    
  144.85      126.60      96.208      62.879      34.809      16.358      7.4400      4.6781      3.7781      3.3597    
  3.3615      3.7805      4.6777      7.4401      16.364      34.815      62.871      96.177      126.56      144.83    
  126.60      102.95      72.305      43.302      21.922      9.9359      5.3446      4.0853      3.4563      3.2664    
  3.4577      4.0846      5.3439      9.9430      21.936      43.304      72.276      102.89      126.55      135.51    
  96.208      72.305      46.523      25.385      12.084      6.1090      4.3534      3.5716      3.2124      3.2125    
  3.5704      4.3509      6.1103      12.094      25.397      46.522      72.282      96.176      110.68      110.69    
  62.879      43.302      25.385      12.933      6.6414      4.5399      3.6782      3.1921      3.0495      3.1934    
  3.6774      4.5358      6.6381      12.936      25.394      43.312      62.886      78.283      84.142      78.281    
  34.809      21.922      12.084      6.6414      4.6132      3.7470      3.1937      2.9534      2.9546      3.1957    
  3.7461      4.6076      6.6335      12.080      21.927      34.822      47.246      54.919      54.913      47.232    
  16.358      9.9359      6.1090      4.5399      3.7470      3.1991      2.9124      2.8280      2.9124      3.2010    
  3.7504      4.5404      6.1026      9.9252      16.350      23.997      30.285      32.722      30.283      23.999    
  7.4400      5.3446      4.3534      3.6782      3.1937      2.9124      2.7900      2.7888      2.9116      3.1979    
  3.6871      4.3607      5.3437      7.4299      10.718      14.244      16.544      16.549      14.256      10.732    
  4.6781      4.0853      3.5716      3.1921      2.9534      2.8280      2.7888      2.8259      2.9507      3.1924    
  3.5782      4.0973      4.6885      5.5314      6.7306      7.8581      8.3268      7.8664      6.7383      5.5301    
  3.7781      3.4563      3.2124      3.0495      2.9546      2.9124      2.9116      2.9507      3.0412      3.2046    
  3.4569      3.7893      4.1589      4.5033      4.8077      5.0178      5.0188      4.8069      4.4949      4.1445    
  3.3597      3.2664      3.2125      3.1934      3.1957      3.2010      3.1979      3.1924      3.2046      3.2545    
  3.3511      3.4902      3.6546      3.8146      3.9322      3.9740      3.9269      3.8063      3.6481      3.4906    
  3.3615      3.4577      3.5704      3.6774      3.7461      3.7504      3.6871      3.5782      3.4569      3.3511    
  3.2778      3.2446      3.2489      3.2739      3.2941      3.2912      3.2689      3.2493      3.2540      3.2919    
  3.7805      4.0846      4.3509      4.5358      4.6076      4.5404      4.3607      4.0973      3.7893      3.4902    
  3.2446      3.0737      2.9735      2.9250      2.9105      2.9248      2.9768      3.0820      3.2526      3.4906    
  4.6777      5.3439      6.1103      6.6381      6.6335      6.1026      5.3437      4.6885      4.1589      3.6546    
  3.2489      2.9735      2.8141      2.7433      2.7444      2.8175      2.9776      3.2488      3.6461      4.1445    
  7.4401      9.9430      12.094      12.936      12.080      9.9252      7.4299      5.5314      4.5033      3.8146    
  3.2739      2.9250      2.7433      2.6889      2.7445      2.9254      3.2705      3.8068      4.4951      5.5301    
  16.364      21.936      25.397      25.394      21.927      16.350      10.718      6.7306      4.8077      3.9322    
  3.2941      2.9105      2.7444      2.7445      2.9096      3.2906      3.9283      4.8083      6.7391      10.732    
  34.815      43.304      46.522      43.312      34.822      23.997      14.244      7.8581      5.0178      3.9740    
  3.2912      2.9248      2.8175      2.9254      3.2906      3.9730      5.0202      7.8660      14.253      23.999    
  62.871      72.276      72.282      62.886      47.246      30.285      16.544      8.3268      5.0188      3.9269    
  3.2689      2.9768      2.9776      3.2705      3.9283      5.0202      8.3284      16.544      30.278      47.232    
  96.177      102.89      96.176      78.283      54.919      32.722      16.549      7.8664      4.8069      3.8063    
  3.2493      3.0820      3.2488      3.8068      4.8083      7.8660      16.544      32.714      54.913      78.281    
  126.56      126.55      110.68      84.142      54.913      30.283      14.256      6.7383      4.4949      3.6481    
  3.2540      3.2526      3.6461      4.4951      6.7391      14.253      30.278      54.913      84.152      110.69    
  144.83      135.51      110.69      78.281      47.232      23.999      10.732      5.5301      4.1445      3.4906    
  3.2919      3.4906      4.1445      5.5301      10.732      23.999      47.232      78.281      110.69      135.51    
  118.26      96.208      67.571      40.420      20.444      9.3518      5.1903      4.0128      3.4017      3.2176    
  3.4027      4.0125      5.1898      9.3563      20.454      40.423      67.554      96.174      118.23      126.56    
  96.208      72.305      46.523      25.385      12.084      6.1090      4.3534      3.5716      3.2124      3.2125    
  3.5704      4.3509      6.1103      12.094      25.397      46.522      72.282      96.176      110.68      110.69    
  67.571      46.523      27.265      13.826      6.9493      4.6204      3.7330      3.2308      3.0831      3.2321    
  3.7317      4.6162      6.9485      13.835      27.279      46.532      67.570      84.147      90.467      84.152    
  40.420      25.385      13.826      7.2915      4.7881      3.8536      3.2624      3.0043      3.0059      3.2646    
  3.8516      4.7810      7.2848      13.828      25.400      40.444      54.935      63.901      63.892      54.913    
  20.444      12.084      6.9493      4.7881      3.8995      3.2893      2.9672      2.8739      2.9683      3.2907    
  3.8985      4.7817      6.9395      12.079      20.453      30.298      38.367      41.489      38.350      30.278    
  9.3518      6.1090      4.6204      3.8536      3.2893      2.9580      2.8162      2.8155      2.9579      3.2928    
  3.8584      4.6203      6.1015      9.3420      14.248      19.395      22.719      22.718      19.394      14.253    
  5.1903      4.3534      3.7330      3.2624      2.9672      2.8162      2.7701      2.8145      2.9675      3.2677    
  3.7419      4.3604      5.1901      6.7312      8.8921      10.857      11.658      10.865      8.9032      6.7391    
  4.0128      3.5716      3.2308      3.0043      2.8739      2.8155      2.8145      2.8710      3.0007      3.2306    
  3.5783      4.0245      4.5043      5.0462      5.6812      6.1407      6.1438      5.6861      5.0452      4.4951    
  3.4017      3.2124      3.0831      3.0059      2.9683      2.9579      2.9675      3.0007      3.0734      3.2045    
  3.4027      3.6557      3.9286      4.1733      4.3432      4.4054      4.3420      4.1674      3.9177      3.6461    
  3.2176      3.2125      3.2321      3.2646      3.2907      3.2928      3.2677      3.2306      3.2045      3.2070    
  3.2455      3.3180      3.4122      3.5031      3.5588      3.5566      3.4979      3.4077      3.3185      3.2526    
  3.4027      3.5704      3.7317      3.8516      3.8985      3.8584      3.7419      3.5783      3.4027      3.2455    
  3.1272      3.0564      3.0277      3.0227      3.0220      3.0196      3.0271      3.0630      3.1384      3.2540    
  4.0125      4.3509      4.6162      4.7810      4.7817      4.6203      4.3604      4.0245      3.6557      3.3180    
  3.0564      2.8832      2.7851      2.7418      2.7415      2.7861      2.8876      3.0619      3.3185      3.6481    
  5.1898      6.1103      6.9485      7.2848      6.9395      6.1015      5.1901      4.5043      3.9286      3.4122    
  3.0277      2.7851      2.6579      2.6193      2.6595      2.7873      3.0275      3.4062      3.9177      4.4949    
  9.3563      12.094      13.835      13.828      12.079      9.3420      6.7312      5.0462      4.1733      3.5031    
  3.0227      2.7418      2.6193      2.6198      2.7423      3.0211      3.4985      4.1681      5.0452      6.7383    
  20.454      25.397      27.279      25.400      20.453      14.248      8.8921      5.6812      4.3432      3.5588    
  3.0220      2.7415      2.6595      2.7423      3.0210      3.5559      4.3433      5.6882      8.9032      14.256    
  40.423      46.522      46.532      40.444      30.298      19.395      10.857      6.1407      4.4054      3.5566    
  3.0196      2.7861      2.7873      3.0211      3.5559      4.4053      6.1456      10.865      19.394      30.283    
  67.554      72.282      67.570      54.935      38.367      22.719      11.658      6.1438      4.3420      3.4979    
  3.0271      2.8876      3.0275      3.4985      4.3433      6.1456      11.658      22.712      38.350      54.913    
  96.174      96.176      84.147      63.901      41.489      22.718      10.865      5.6861      4.1674      3.4077    
  3.0630      3.0619      3.4062      4.1681      5.6882      10.865      22.712      41.479      63.892      84.142    
  118.23      110.68      90.467      63.892      38.350      19.394      8.9032      5.0452      3.9177      3.3185    
  3.1384      3.3185      3.9177      5.0452      8.9032      19.394      38.350      63.892      90.467      110.68    
  126.56      110.69      84.152      54.913      30.278      14.253      6.7391      4.4951      3.6461      3.2526    
  3.2540      3.6481      4.4949      6.7383      14.256      30.283      54.913      84.142      110.68      126.55    
  83.637      62.879      40.420      22.036      10.625      5.6711      4.2065      3.4649      3.1286      3.1284    
  3.4637      4.2046      5.6704      10.628      22.042      40.424      62.879      83.634      96.174      96.177    
  62.879      43.302      25.385      12.933      6.6414      4.5399      3.6782      3.1921      3.0495      3.1934    
  3.6774      4.5358      6.6381      12.936      25.394      43.312      62.886      78.283      84.142      78.281    
  40.420      25.385      13.826      7.2915      4.7881      3.8536      3.2624      3.0043      3.0059      3.2646    
  3.8516      4.7810      7.2848      13.828      25.400      40.444      54.935      63.901      63.892      54.913    
  22.036      12.933      7.2915      4.8853      3.9519      3.3212      2.9872      2.8907      2.9884      3.3227    
  3.9503      4.8771      7.2799      12.930      22.053      32.746      41.505      44.892      41.479      32.714    
  10.625      6.6414      4.7881      3.9519      3.3438      2.9845      2.8325      2.8322      2.9853      3.3469    
  3.9524      4.7800      6.6276      10.618      16.554      22.730      26.705      26.695      22.712      16.544    
  5.6711      4.5399      3.8536      3.3212      2.9845      2.8148      2.7645      2.8141      2.9861      3.3262    
  3.8578      4.5379      5.6629      7.8570      10.860      13.546      14.629      13.547      10.865      7.8660    
  4.2065      3.6782      3.2624      2.9872      2.8325      2.7645      2.7633      2.8305      2.9879      3.2676    
  3.6861      4.2122      4.8074      5.6807      6.7423      7.4981      7.5021      6.7513      5.6882      4.8083    
  3.4649      3.1921      3.0043      2.8907      2.8322      2.8141      2.8305      2.8870      3.0003      3.1919    
  3.4707      3.8157      4.1739      4.4860      4.7340      4.8381      4.7363      4.4860      4.1681      3.8068    
  3.1286      3.0495      3.0059      2.9884      2.9853      2.9861      2.9879      3.0003      3.0401      3.1219    
  3.2497      3.4130      3.5864      3.7342      3.8199      3.8191      3.7307      3.5795      3.4062      3.2488    
  3.1284      3.1934      3.2646      3.3227      3.3469      3.3262      3.2676      3.1919      3.1219      3.0740    
  3.0567      3.0707      3.1057      3.1413      3.1552      3.1387      3.1030      3.0711      3.0619      3.0820    
  3.4637      3.6774      3.8516      3.9503      3.9524      3.8578      3.6861      3.4707      3.2497      3.0567    
  2.9128      2.8228      2.7767      2.7582      2.7569      2.7755      2.8260      2.9203      3.0630      3.2493    
  4.2046      4.5358      4.7810      4.8771      4.7800      4.5379      4.2122      3.8157      3.4130      3.0707    
  2.8228      2.6678      2.5860      2.5603      2.5857      2.6691      2.8256      3.0711      3.4077      3.8063    
  5.6704      6.6381      7.2848      7.2799      6.6276      5.6629      4.8074      4.1739      3.5864      3.1057    
  2.7767      2.5860      2.5013      2.5017      2.5868      2.7764      3.1022      3.5795      4.1674      4.8069    
  10.628      12.936      13.828      12.930      10.618      7.8570      5.6807      4.4860      3.7342      3.1413    
  2.7582      2.5603      2.5017      2.5614      2.7581      3.1386      3.7309      4.4860      5.6861      7.8664    
  22.042      25.394      25.400      22.053      16.554      10.860      6.7423      4.7340      3.8199      3.1552    
  2.7569      2.5857      2.5868      2.7581      3.1540      3.8188      4.7382      6.7513      10.865      16.549    
  40.424      43.312      40.444      32.746      22.730      13.546      7.4981      4.8381      3.8191      3.1387    
  2.7755      2.6691      2.7764      3.1386      3.8188      4.8410      7.5041      13.547      22.718      32.722    
  62.879      62.886      54.935      41.505      26.705      14.629      7.5021      4.7363      3.7307      3.1030    
  2.8260      2.8256      3.1022      3.7309      4.7382      7.5041      14.627      26.695      41.489      54.919    
  83.634      78.283      63.901      44.892      26.695      13.547      6.7513      4.4860      3.5795      3.0711    
  2.9203      3.0711      3.5795      4.4860      6.7513      13.547      26.695      44.892      63.901      78.283    
  96.174      84.142      63.892      41.479      22.712      10.865      5.6882      4.1681      3.4062      3.0619    
  3.0630      3.4077      4.1674      5.6861      10.865      22.718      41.489      63.901      84.147      96.176    
  96.177      78.281      54.913      32.714      16.544      7.8660      4.8083      3.8068      3.2488      3.0820    
  3.2493      3.8063      4.8069      7.8664      16.549      32.722      54.919      78.283      96.176      102.89    
  50.537      34.809      20.444      10.625      5.8743      4.3171      3.5229      3.0840      2.9550      3.0843    
  3.5225      4.3147      5.8697      10.621      20.445      34.816      50.548      62.879      67.554      62.871    
  34.809      21.922      12.084      6.6414      4.6132      3.7470      3.1937      2.9534      2.9546      3.1957    
  3.7461      4.6076      6.6335      12.080      21.927      34.822      47.246      54.919      54.913      47.232    
  20.444      12.084      6.9493      4.7881      3.8995      3.2893      2.9672      2.8739      2.9683      3.2907    
  3.8985      4.7817      6.9395      12.079      20.453      30.298      38.367      41.489      38.350      30.278    
  10.625      6.6414      4.7881      3.9519      3.3438      2.9845      2.8325      2.8322      2.9853      3.3469    
  3.9524      4.7800      6.6276      10.618      16.554      22.730      26.705      26.695      22.712      16.544    
  5.8743      4.6132      3.8995      3.3438      2.9911      2.8152      2.7640      2.8154      2.9939      3.3483    
  3.8996      4.6048      5.8617      8.3213      11.660      14.632      15.826      14.627      11.658      8.3284    
  4.3171      3.7470      3.2893      2.9845      2.8152      2.7430      2.7425      2.8151      2.9870      3.2939    
  3.7500      4.3154      5.0135      6.1371      7.4975      8.4558      8.4582      7.5041      6.1456      5.0202    
  3.5229      3.1937      2.9672      2.8325      2.7640      2.7425      2.7622      2.8308      2.9680      3.1980    
  3.5289      3.9320      4.3417      4.7322      5.0884      5.2425      5.0936      4.7382      4.3433      3.9283    
  3.0840      2.9534      2.8739      2.8322      2.8154      2.8151      2.8308      2.8706      2.9499      3.0836    
  3.2743      3.5037      3.7339      3.9198      4.0237      4.0242      3.9197      3.7309      3.4985      3.2705    
  2.9550      2.9546      2.9683      2.9853      2.9939      2.9870      2.9680      2.9499      2.9479      2.9728    
  3.0276      3.1057      3.1903      3.2565      3.2813      3.2546      3.1866      3.1022      3.0275      2.9776    
  3.0843      3.1957      3.2907      3.3469      3.3483      3.2939      3.1980      3.0836      2.9728      2.8825    
  2.8222      2.7929      2.7863      2.7878      2.7868      2.7847      2.7932      2.8256      2.8876      2.9768    
  3.5225      3.7461      3.8985      3.9524      3.8996      3.7500      3.5289      3.2743      3.0276      2.8222    
  2.6738      2.5809      2.5320      2.5163      2.5310      2.5818      2.6777      2.8260      3.0271      3.2689    
  4.3147      4.6076      4.7817      4.7800      4.6048      4.3154      3.9320      3.5037      3.1057      2.7929    
  2.5809      2.4564      2.3994      2.3991      2.4561      2.5816      2.7932      3.1030      3.4979      3.9269    
  5.8697      6.6335      6.9395      6.6276      5.8617      5.0135      4.3417      3.7339      3.1903      2.7863    
  2.5320      2.3994      2.3592      2.3999      2.5318      2.7842      3.1866      3.7307      4.3420      5.0188    
  10.621      12.080      12.079      10.618      8.3213      6.1371      4.7322      3.9198      3.2565      2.7878    
  2.5163      2.3991      2.3999      2.5174      2.7869      3.2544      3.9197      4.7363      6.1438      8.3268    
  20.445      21.927      20.453      16.554      11.660      7.4975      5.0884      4.0237      3.2813      2.7868    
  2.5310      2.4561      2.5318      2.7869      3.2809      4.0256      5.0936      7.5021      11.658      16.544    
  34.816      34.822      30.298      22.730      14.632      8.4558      5.2425      4.0242      3.2546      2.7847    
  2.5818      2.5816      2.7842      3.2544      4.0256      5.2460      8.4582      14.629      22.719      30.285    
  50.548      47.246      38.367      26.705      15.826      8.4582      5.0936      3.9197      3.1866      2.7932    
  2.6777      2.7932      3.1866      3.9197      5.0936      8.4582      15.826      26.705      38.367      47.246    
  62.879      54.919      41.489      26.695      14.627      7.5041      4.7382      3.7309      3.1022      2.8256    
  2.8260      3.1030      3.7307      4.7363      7.5021      14.629      26.705      41.505      54.935      62.886    
  67.554      54.913      38.350      22.712      11.658      6.1456      4.3433      3.4985      3.0275      2.8876    
  3.0271      3.4979      4.3420      6.1438      11.658      22.719      38.367      54.935      67.570      72.282    
  62.871      47.232      30.278      16.544      8.3284      5.0202      3.9283      3.2705      2.9776      2.9768    
  3.2689      3.9269      5.0188      8.3268      16.544      30.285      47.246      62.886      72.282      72.276    
  25.734      16.358      9.3518      5.6711      4.3171      3.5476      3.0691      2.8617      2.8619      3.0703    
  3.5498      4.3175      5.6661      9.3417      16.348      25.730      34.816      40.424      40.423      34.815    
  16.358      9.9359      6.1090      4.5399      3.7470      3.1991      2.9124      2.8280      2.9124      3.2010    
  3.7504      4.5404      6.1026      9.9252      16.350      23.997      30.285      32.722      30.283      23.999    
  9.3518      6.1090      4.6204      3.8536      3.2893      2.9580      2.8162      2.8155      2.9579      3.2928    
  3.8584      4.6203      6.1015      9.3420      14.248      19.395      22.719      22.718      19.394      14.253    
  5.6711      4.5399      3.8536      3.3212      2.9845      2.8148      2.7645      2.8141      2.9861      3.3262    
  3.8578      4.5379      5.6629      7.8570      10.860      13.546      14.629      13.547      10.865      7.8660    
  4.3171      3.7470      3.2893      2.9845      2.8152      2.7430      2.7425      2.8151      2.9870      3.2939    
  3.7500      4.3154      5.0135      6.1371      7.4975      8.4558      8.4582      7.5041      6.1456      5.0202    
  3.5476      3.1991      2.9580      2.8148      2.7430      2.7211      2.7423      2.8145      2.9595      3.2029    
  3.5520      3.9745      4.4018      4.8339      5.2402      5.4167      5.2460      4.8410      4.4053      3.9730    
  3.0691      2.9124      2.8162      2.7645      2.7425      2.7423      2.7636      2.8149      2.9123      3.0720    
  3.2955      3.5592      3.8178      4.0218      4.1345      4.1365      4.0256      3.8188      3.5559      3.2906    
  2.8617      2.8280      2.8155      2.8141      2.8151      2.8145      2.8149      2.8257      2.8593      2.9250    
  3.0231      3.1412      3.2557      3.3392      3.3700      3.3391      3.2544      3.1386      3.0211      2.9254    
  2.8619      2.9124      2.9579      2.9861      2.9870      2.9595      2.9123      2.8593      2.8135      2.7843    
  2.7758      2.7856      2.8043      2.8181      2.8173      2.8024      2.7842      2.7764      2.7873      2.8175    
  3.0703      3.2010      3.2928      3.3262      3.2939      3.2029      3.0720      2.9250      2.7843      2.6664    
  2.5799      2.5253      2.4969      2.4880      2.4962      2.5253      2.5816      2.6691      2.7861      2.9248    
  3.5498      3.7504      3.8584      3.8578      3.7500      3.5520      3.2955      3.0231      2.7758      2.5799    
  2.4428      2.3587      2.3188      2.3185      2.3586      2.4442      2.5818      2.7755      3.0196      3.2912    
  4.3175      4.5404      4.6203      4.5379      4.3154      3.9745      3.5592      3.1412      2.7856      2.5253    
  2.3587      2.2685      2.2399      2.2681      2.3586      2.5253      2.7847      3.1387      3.5566      3.9740    
  5.6661      6.1026      6.1015      5.6629      5.0135      4.4018      3.8178      3.2557      2.8043      2.4969    
  2.3188      2.2399      2.2403      2.3192      2.4961      2.8024      3.2546      3.8191      4.4054      5.0178    
  9.3417      9.9252      9.3420      7.8570      6.1371      4.8339      4.0218      3.3392      2.8181      2.4880    
  2.3185      2.2681      2.3192      2.4881      2.8172      3.3391      4.0242      4.8381      6.1407      7.8581    
  16.348      16.350      14.248      10.860      7.4975      5.2402      4.1345      3.3700      2.8173      2.4962    
  2.3586      2.3586      2.4961      2.8172      3.3708      4.1365      5.2425      7.4981      10.857      14.244    
  25.730      23.997      19.395      13.546      8.4558      5.4167      4.1365      3.3391      2.8024      2.5253    
  2.4442      2.5253      2.8024      3.3391      4.1365      5.4167      8.4558      13.546      19.395      23.997    
  34.816      30.285      22.719      14.629      8.4582      5.2460      4.0256      3.2544      2.7842      2.5816    
  2.5818      2.7847      3.2546      4.0242      5.2425      8.4558      14.632      22.730      30.298      34.822    
  40.424      32.722      22.718      13.547      7.5041      4.8410      3.8188      3.1386      2.7764      2.6691    
  2.7755      3.1387      3.8191      4.8381      7.4981      13.546      22.730      32.746      40.444      43.312    
  40.423      30.283      19.394      10.865      6.1456      4.4053      3.5559      3.0211      2.7873      2.7861    
  3.0196      3.5566      4.4054      6.1407      10.857      19.395      30.298      40.444      46.532      46.522    
  34.815      23.999      14.253      7.8660      5.0202      3.9730      3.2906      2.9254      2.8175      2.9248    
  3.2912      3.9740      5.0178      7.8581      14.244      23.997      34.822      43.312      46.522      43.304    
  11.446      7.4400      5.1903      4.2065      3.5229      3.0691      2.8332      2.7624      2.8325      3.0712    
  3.5293      4.2129      5.1897      7.4295      11.430      16.348      20.445      22.042      20.454      16.364    
  7.4400      5.3446      4.3534      3.6782      3.1937      2.9124      2.7900      2.7888      2.9116      3.1979    
  3.6871      4.3607      5.3437      7.4299      10.718      14.244      16.544      16.549      14.256      10.732    
  5.1903      4.3534      3.7330      3.2624      2.9672      2.8162      2.7701      2.8145      2.9675      3.2677    