fcc Ni                                  
   3.55000000000000     
     0.000000    0.500000    0.500000
     0.500000    0.000000    0.500000
     0.500000    0.500000    0.000000
   Ni
     1
Direct
  0.000000  0.000000  0.000000
 
   20   20   20
 0.15485642876E+03 0.14484857179E+03 0.11826239865E+03 0.83637326534E+02 0.50536670844E+02
 0.25734177077E+02 0.11446301538E+02 0.57273943540E+01 0.42238787122E+01 0.35523694777E+01
 0.33475503852E+01 0.35523694777E+01 0.42238787122E+01 0.57273943540E+01 0.11446301538E+02
 0.25734177077E+02 0.50536670844E+02 0.83637326534E+02 0.11826239865E+03 0.14484857179E+03
 0.14484857179E+03 0.12659953161E+03 0.96208051548E+02 0.62879422388E+02 0.34808882089E+02
 0.16358149302E+02 0.74399700068E+01 0.46781222598E+01 0.37781214661E+01 0.33597371668E+01
 0.33614917911E+01 0.37804537946E+01 0.46777137794E+01 0.74401352697E+01 0.16363917467E+02
 0.34815034245E+02 0.62870596473E+02 0.96176537054E+02 0.12656052438E+03 0.14483071770E+03
 0.11826239865E+03 0.96208051548E+02 0.67570592068E+02 0.40419892328E+02 0.20444300891E+02
 0.93518091215E+01 0.51902628818E+01 0.40128467439E+01 0.34017424865E+01 0.32176395194E+01
 0.34027465477E+01 0.40125081269E+01 0.51897916045E+01 0.93563382135E+01 0.20453710170E+02
 0.40422713756E+02 0.67553734347E+02 0.96174487329E+02 0.11823444859E+03 0.12656052438E+03
 0.83637326534E+02 0.62879422388E+02 0.40419892328E+02 0.22036353100E+02 0.10625052947E+02
 0.56711229271E+01 0.42064844753E+01 0.34648553527E+01 0.31286186603E+01 0.31283623811E+01
 0.34637464241E+01 0.42046390881E+01 0.56704389785E+01 0.10627725565E+02 0.22041708863E+02
 0.40423994728E+02 0.62879016524E+02 0.83633760479E+02 0.96174487329E+02 0.96176537054E+02
 0.50536670844E+02 0.34808882089E+02 0.20444300891E+02 0.10625052947E+02 0.58742594108E+01
 0.43171303135E+01 0.35228954573E+01 0.30839595270E+01 0.29550460365E+01 0.30843210556E+01
 0.35225189348E+01 0.43146561671E+01 0.58696713546E+01 0.10620897572E+02 0.20444672467E+02
 0.34815982162E+02 0.50547783968E+02 0.62879016524E+02 0.67553734347E+02 0.62870596473E+02
 0.25734177077E+02 0.16358149302E+02 0.93518091215E+01 0.56711229271E+01 0.43171303135E+01
 0.35476412231E+01 0.30690838531E+01 0.28617453894E+01 0.28619325374E+01 0.30702638326E+01
 0.35498369913E+01 0.43175176947E+01 0.56660636799E+01 0.93416523369E+01 0.16348286628E+02
 0.25729894440E+02 0.34815982162E+02 0.40423994728E+02 0.40422713756E+02 0.34815034245E+02
 0.11446301538E+02 0.74399700068E+01 0.51902628818E+01 0.42064844753E+01 0.35228954573E+01
 0.30690838531E+01 0.28332258608E+01 0.27624069186E+01 0.28325005518E+01 0.30711710730E+01
 0.35292940782E+01 0.42128804994E+01 0.51897097590E+01 0.74295171971E+01 0.11429706752E+02
 0.16348286628E+02 0.20444672467E+02 0.22041708863E+02 0.20453710170E+02 0.16363917467E+02
 0.57273943540E+01 0.46781222598E+01 0.40128467439E+01 0.34648553527E+01 0.30839595270E+01
 0.28617453894E+01 0.27624069186E+01 0.27612466791E+01 0.28595382117E+01 0.30840474301E+01
 0.34705307446E+01 0.40236718005E+01 0.46879985538E+01 0.57282259534E+01 0.74295171971E+01
 0.93416523369E+01 0.10620897572E+02 0.10627725565E+02 0.93563382135E+01 0.74401352697E+01
 0.42238787122E+01 0.37781214661E+01 0.34017424865E+01 0.31286186603E+01 0.29550460365E+01
 0.28619325374E+01 0.28325005518E+01 0.28595382117E+01 0.29492673608E+01 0.31222031031E+01
 0.34017804804E+01 0.37887590090E+01 0.42397397807E+01 0.46879985538E+01 0.51897097590E+01
 0.56660636799E+01 0.58696713546E+01 0.56704389785E+01 0.51897916045E+01 0.46777137794E+01
 0.35523694777E+01 0.33597371668E+01 0.32176395194E+01 0.31283623811E+01 0.30843210556E+01
 0.30702638326E+01 0.30711710730E+01 0.30840474301E+01 0.31222031031E+01 0.32064306145E+01
 0.33506310754E+01 0.35520153035E+01 0.37887590090E+01 0.40236718005E+01 0.42128804994E+01
 0.43175176947E+01 0.43146561671E+01 0.42046390881E+01 0.40125081269E+01 0.37804537946E+01
 0.33475503852E+01 0.33614917911E+01 0.34027465477E+01 0.34637464241E+01 0.35225189348E+01
 0.35498369913E+01 0.35292940782E+01 0.34705307446E+01 0.34017804804E+01 0.33506310754E+01
 0.33322435854E+01 0.33506310754E+01 0.34017804804E+01 0.34705307446E+01 0.35292940782E+01
 0.35498369913E+01 0.35225189348E+01 0.34637464241E+01 0.34027465477E+01 0.33614917911E+01
 0.35523694777E+01 0.37804537946E+01 0.40125081269E+01 0.42046390881E+01 0.43146561671E+01
 0.43175176947E+01 0.42128804994E+01 0.40236718005E+01 0.37887590090E+01 0.35520153035E+01
 0.33506310754E+01 0.32064306145E+01 0.31222031031E+01 0.30840474301E+01 0.30711710730E+01
 0.30702638326E+01 0.30843210556E+01 0.31283623811E+01 0.32176395194E+01 0.33597371668E+01
 0.42238787122E+01 0.46777137794E+01 0.51897916045E+01 0.56704389785E+01 0.58696713546E+01
 0.56660636799E+01 0.51897097590E+01 0.46879985538E+01 0.42397397807E+01 0.37887590090E+01
 0.34017804804E+01 0.31222031031E+01 0.29492673608E+01 0.28595382117E+01 0.28325005518E+01
 0.28619325374E+01 0.29550460365E+01 0.31286186603E+01 0.34017424865E+01 0.37781214661E+01
 0.57273943540E+01 0.74401352697E+01 0.93563382135E+01 0.10627725565E+02 0.10620897572E+02
 0.93416523369E+01 0.74295171971E+01 0.57282259534E+01 0.46879985538E+01 0.40236718005E+01
 0.34705307446E+01 0.30840474301E+01 0.28595382117E+01 0.27612466791E+01 0.27624069186E+01
 0.28617453894E+01 0.30839595270E+01 0.34648553527E+01 0.40128467439E+01 0.46781222598E+01
 0.11446301538E+02 0.16363917467E+02 0.20453710170E+02 0.22041708863E+02 0.20444672467E+02
 0.16348286628E+02 0.11429706752E+02 0.74295171971E+01 0.51897097590E+01 0.42128804994E+01
 0.35292940782E+01 0.30711710730E+01 0.28325005518E+01 0.27624069186E+01 0.28332258608E+01
 0.30690838531E+01 0.35228954573E+01 0.42064844753E+01 0.51902628818E+01 0.74399700068E+01
 0.25734177077E+02 0.34815034245E+02 0.40422713756E+02 0.40423994728E+02 0.34815982162E+02
 0.25729894440E+02 0.16348286628E+02 0.93416523369E+01 0.56660636799E+01 0.43175176947E+01
 0.35498369913E+01 0.30702638326E+01 0.28619325374E+01 0.28617453894E+01 0.30690838531E+01
 0.35476412231E+01 0.43171303135E+01 0.56711229271E+01 0.93518091215E+01 0.16358149302E+02
 0.50536670844E+02 0.62870596473E+02 0.67553734347E+02 0.62879016524E+02 0.50547783968E+02
 0.34815982162E+02 0.20444672467E+02 0.10620897572E+02 0.58696713546E+01 0.43146561671E+01
 0.35225189348E+01 0.30843210556E+01 0.29550460365E+01 0.30839595270E+01 0.35228954573E+01
 0.43171303135E+01 0.58742594108E+01 0.10625052947E+02 0.20444300891E+02 0.34808882089E+02
 0.83637326534E+02 0.96176537054E+02 0.96174487329E+02 0.83633760479E+02 0.62879016524E+02
 0.40423994728E+02 0.22041708863E+02 0.10627725565E+02 0.56704389785E+01 0.42046390881E+01
 0.34637464241E+01 0.31283623811E+01 0.31286186603E+01 0.34648553527E+01 0.42064844753E+01
 0.56711229271E+01 0.10625052947E+02 0.22036353100E+02 0.40419892328E+02 0.62879422388E+02
 0.11826239865E+03 0.12656052438E+03 0.11823444859E+03 0.96174487329E+02 0.67553734347E+02
 0.40422713756E+02 0.20453710170E+02 0.93563382135E+01 0.51897916045E+01 0.40125081269E+01
 0.34027465477E+01 0.32176395194E+01 0.34017424865E+01 0.40128467439E+01 0.51902628818E+01
 0.93518091215E+01 0.20444300891E+02 0.40419892328E+02 0.67570592068E+02 0.96208051548E+02
 0.14484857179E+03 0.14483071770E+03 0.12656052438E+03 0.96176537054E+02 0.62870596473E+02
 0.34815034245E+02 0.16363917467E+02 0.74401352697E+01 0.46777137794E+01 0.37804537946E+01
 0.33614917911E+01 0.33597371668E+01 0.37781214661E+01 0.46781222598E+01 0.74399700068E+01
 0.16358149302E+02 0.34808882089E+02 0.62879422388E+02 0.96208051548E+02 0.12659953161E+03
 0.14484857179E+03 0.12659953161E+03 0.96208051548E+02 0.62879422388E+02 0.34808882089E+02
 0.16358149302E+02 0.74399700068E+01 0.46781222598E+01 0.37781214661E+01 0.33597371668E+01
 0.33614917911E+01 0.37804537946E+01 0.46777137794E+01 0.74401352697E+01 0.16363917467E+02
 0.34815034245E+02 0.62870596473E+02 0.96176537054E+02 0.12656052438E+03 0.14483071770E+03
 0.12659953161E+03 0.10294667331E+03 0.72305285747E+02 0.43301728837E+02 0.21922018399E+02
 0.99359091724E+01 0.53446215158E+01 0.40852868063E+01 0.34563142727E+01 0.32663967987E+01
 0.34577064714E+01 0.40845998214E+01 0.53439147732E+01 0.99430180542E+01 0.21936102890E+02
 0.43304144551E+02 0.72275514775E+02 0.10289038348E+03 0.12655328982E+03 0.13550693533E+03
 0.96208051548E+02 0.72305285747E+02 0.46523243730E+02 0.25384745346E+02 0.12084014002E+02
 0.61089594770E+01 0.43533715434E+01 0.35715569399E+01 0.32124231566E+01 0.32125050416E+01
 0.35704388407E+01 0.43508793189E+01 0.61103085741E+01 0.12093960721E+02 0.25397042641E+02
 0.46522015495E+02 0.72282144982E+02 0.96176100840E+02 0.11067685463E+03 0.11069188472E+03
 0.62879422388E+02 0.43301728837E+02 0.25384745346E+02 0.12932992323E+02 0.66414028298E+01
 0.45399475623E+01 0.36781683549E+01 0.31920784889E+01 0.30495179482E+01 0.31933744725E+01
 0.36773676501E+01 0.45358186783E+01 0.66380586786E+01 0.12935804219E+02 0.25393967621E+02
 0.43312037495E+02 0.62885771752E+02 0.78282905121E+02 0.84142028082E+02 0.78280833885E+02
 0.34808882089E+02 0.21922018399E+02 0.12084014002E+02 0.66414028298E+01 0.46132277688E+01
 0.37469620338E+01 0.31936527660E+01 0.29533621839E+01 0.29546474004E+01 0.31957199191E+01
 0.37461232583E+01 0.46075965435E+01 0.66335494118E+01 0.12079996261E+02 0.21926888459E+02
 0.34821943045E+02 0.47245693340E+02 0.54919418510E+02 0.54913378548E+02 0.47231637317E+02
 0.16358149302E+02 0.99359091724E+01 0.61089594770E+01 0.45399475623E+01 0.37469620338E+01
 0.31990643348E+01 0.29123781790E+01 0.28280088610E+01 0.29123568380E+01 0.32010018069E+01
 0.37504102297E+01 0.45403855042E+01 0.61026145200E+01 0.99252091419E+01 0.16350009218E+02
 0.23997067119E+02 0.30284750944E+02 0.32721751584E+02 0.30283043521E+02 0.23998765860E+02
 0.74399700068E+01 0.53446215158E+01 0.43533715434E+01 0.36781683549E+01 0.31936527660E+01
 0.29123781790E+01 0.27900015382E+01 0.27888175296E+01 0.29116028253E+01 0.31978533315E+01
 0.36871045303E+01 0.43607402937E+01 0.53437409734E+01 0.74299197791E+01 0.10718054384E+02
 0.14244478040E+02 0.16544471461E+02 0.16548684419E+02 0.14255793556E+02 0.10732102142E+02
 0.46781222598E+01 0.40852868063E+01 0.35715569399E+01 0.31920784889E+01 0.29533621839E+01
 0.28280088610E+01 0.27888175296E+01 0.28259024040E+01 0.29507048356E+01 0.31923904793E+01
 0.35782461363E+01 0.40972711216E+01 0.46884559096E+01 0.55314383312E+01 0.67306403065E+01
 0.78581475809E+01 0.83267569720E+01 0.78664027918E+01 0.67383499792E+01 0.55301265408E+01
 0.37781214661E+01 0.34563142727E+01 0.32124231566E+01 0.30495179482E+01 0.29546474004E+01
 0.29123568380E+01 0.29116028253E+01 0.29507048356E+01 0.30412435205E+01 0.32045931912E+01
 0.34569079973E+01 0.37892805427E+01 0.41588712171E+01 0.45033178967E+01 0.48076797051E+01
 0.50177643821E+01 0.50187756884E+01 0.48068844770E+01 0.44949130770E+01 0.41444516698E+01
 0.33597371668E+01 0.32663967987E+01 0.32125050416E+01 0.31933744725E+01 0.31957199191E+01
 0.32010018069E+01 0.31978533315E+01 0.31923904793E+01 0.32045931912E+01 0.32544524588E+01
 0.33510888378E+01 0.34901982804E+01 0.36546225053E+01 0.38146184503E+01 0.39322474080E+01
 0.39740291231E+01 0.39269445133E+01 0.38062969893E+01 0.36480652011E+01 0.34906182562E+01
 0.33614917911E+01 0.34577064714E+01 0.35704388407E+01 0.36773676501E+01 0.37461232583E+01
 0.37504102297E+01 0.36871045303E+01 0.35782461363E+01 0.34569079973E+01 0.33510888378E+01
 0.32777971810E+01 0.32446298424E+01 0.32488624457E+01 0.32739126816E+01 0.32940707084E+01
 0.32911580748E+01 0.32689445474E+01 0.32492914668E+01 0.32539864544E+01 0.32919163638E+01
 0.37804537946E+01 0.40845998214E+01 0.43508793189E+01 0.45358186783E+01 0.46075965435E+01
 0.45403855042E+01 0.43607402937E+01 0.40972711216E+01 0.37892805427E+01 0.34901982804E+01
 0.32446298424E+01 0.30737410261E+01 0.29734764060E+01 0.29250180609E+01 0.29104821799E+01
 0.29247611330E+01 0.29768345262E+01 0.30820087872E+01 0.32526038820E+01 0.34906182562E+01
 0.46777137794E+01 0.53439147732E+01 0.61103085741E+01 0.66380586786E+01 0.66335494118E+01
 0.61026145200E+01 0.53437409734E+01 0.46884559096E+01 0.41588712171E+01 0.36546225053E+01
 0.32488624457E+01 0.29734764060E+01 0.28141120926E+01 0.27432539453E+01 0.27443535597E+01
 0.28175143635E+01 0.29776143647E+01 0.32488263532E+01 0.36460627060E+01 0.41444516698E+01
 0.74401352697E+01 0.99430180542E+01 0.12093960721E+02 0.12935804219E+02 0.12079996261E+02
 0.99252091419E+01 0.74299197791E+01 0.55314383312E+01 0.45033178967E+01 0.38146184503E+01
 0.32739126816E+01 0.29250180609E+01 0.27432539453E+01 0.26889259476E+01 0.27445212543E+01
 0.29253824892E+01 0.32705153073E+01 0.38068092900E+01 0.44951021510E+01 0.55301265408E+01
 0.16363917467E+02 0.21936102890E+02 0.25397042641E+02 0.25393967621E+02 0.21926888459E+02
 0.16350009218E+02 0.10718054384E+02 0.67306403065E+01 0.48076797051E+01 0.39322474080E+01
 0.32940707084E+01 0.29104821799E+01 0.27443535597E+01 0.27445212543E+01 0.29096289662E+01
 0.32906230563E+01 0.39282802550E+01 0.48083309831E+01 0.67391109133E+01 0.10732102142E+02
 0.34815034245E+02 0.43304144551E+02 0.46522015495E+02 0.43312037495E+02 0.34821943045E+02
 0.23997067119E+02 0.14244478040E+02 0.78581475809E+01 0.50177643821E+01 0.39740291231E+01
 0.32911580748E+01 0.29247611330E+01 0.28175143635E+01 0.29253824892E+01 0.32906230563E+01
 0.39729513139E+01 0.50201508104E+01 0.78660393099E+01 0.14253155415E+02 0.23998765860E+02
 0.62870596473E+02 0.72275514775E+02 0.72282144982E+02 0.62885771752E+02 0.47245693340E+02
 0.30284750944E+02 0.16544471461E+02 0.83267569720E+01 0.50187756884E+01 0.39269445133E+01
 0.32689445474E+01 0.29768345262E+01 0.29776143647E+01 0.32705153073E+01 0.39282802550E+01
 0.50201508104E+01 0.83284343422E+01 0.16544046251E+02 0.30277967716E+02 0.47231637317E+02
 0.96176537054E+02 0.10289038348E+03 0.96176100840E+02 0.78282905121E+02 0.54919418510E+02
 0.32721751584E+02 0.16548684419E+02 0.78664027918E+01 0.48068844770E+01 0.38062969893E+01
 0.32492914668E+01 0.30820087872E+01 0.32488263532E+01 0.38068092900E+01 0.48083309831E+01
 0.78660393099E+01 0.16544046251E+02 0.32714205295E+02 0.54913284986E+02 0.78280833885E+02
 0.12656052438E+03 0.12655328982E+03 0.11067685463E+03 0.84142028082E+02 0.54913378548E+02
 0.30283043521E+02 0.14255793556E+02 0.67383499792E+01 0.44949130770E+01 0.36480652011E+01
 0.32539864544E+01 0.32526038820E+01 0.36460627060E+01 0.44951021510E+01 0.67391109133E+01
 0.14253155415E+02 0.30277967716E+02 0.54913284986E+02 0.84152215777E+02 0.11069188472E+03
 0.14483071770E+03 0.13550693533E+03 0.11069188472E+03 0.78280833885E+02 0.47231637317E+02
 0.23998765860E+02 0.10732102142E+02 0.55301265408E+01 0.41444516698E+01 0.34906182562E+01
 0.32919163638E+01 0.34906182562E+01 0.41444516698E+01 0.55301265408E+01 0.10732102142E+02
 0.23998765860E+02 0.47231637317E+02 0.78280833885E+02 0.11069188472E+03 0.13550693533E+03
 0.11826239865E+03 0.96208051548E+02 0.67570592068E+02 0.40419892328E+02 0.20444300891E+02
 0.93518091215E+01 0.51902628818E+01 0.40128467439E+01 0.34017424865E+01 0.32176395194E+01
 0.34027465477E+01 0.40125081269E+01 0.51897916045E+01 0.93563382135E+01 0.20453710170E+02
 0.40422713756E+02 0.67553734347E+02 0.96174487329E+02 0.11823444859E+03 0.12656052438E+03
 0.96208051548E+02 0.72305285747E+02 0.46523243730E+02 0.25384745346E+02 0.12084014002E+02
 0.61089594770E+01 0.43533715434E+01 0.35715569399E+01 0.32124231566E+01 0.32125050416E+01
 0.35704388407E+01 0.43508793189E+01 0.61103085741E+01 0.12093960721E+02 0.25397042641E+02
 0.46522015495E+02 0.72282144982E+02 0.96176100840E+02 0.11067685463E+03 0.11069188472E+03
 0.67570592068E+02 0.46523243730E+02 0.27265001660E+02 0.13826322172E+02 0.69493001718E+01
 0.46204167150E+01 0.37329537627E+01 0.32307696043E+01 0.30831343955E+01 0.32320556240E+01
 0.37316561077E+01 0.46162094400E+01 0.69485090696E+01 0.13834575907E+02 0.27278680297E+02
 0.46532151169E+02 0.67569679609E+02 0.84147375334E+02 0.90466802894E+02 0.84152215777E+02
 0.40419892328E+02 0.25384745346E+02 0.13826322172E+02 0.72915183891E+01 0.47881130316E+01
 0.38536453189E+01 0.32623564331E+01 0.30042765935E+01 0.30058976675E+01 0.32645699337E+01
 0.38516383463E+01 0.47809751216E+01 0.72848326454E+01 0.13828443631E+02 0.25399934634E+02
 0.40444022722E+02 0.54935462443E+02 0.63901064302E+02 0.63892096643E+02 0.54913284986E+02
 0.20444300891E+02 0.12084014002E+02 0.69493001718E+01 0.47881130316E+01 0.38994797200E+01
 0.32892980324E+01 0.29672140304E+01 0.28738986917E+01 0.29683049574E+01 0.32907379438E+01
 0.38985076269E+01 0.47817260946E+01 0.69394708230E+01 0.12079452595E+02 0.20453296573E+02
 0.30298045704E+02 0.38366916218E+02 0.41488931481E+02 0.38349971253E+02 0.30277967716E+02
 0.93518091215E+01 0.61089594770E+01 0.46204167150E+01 0.38536453189E+01 0.32892980324E+01
 0.29579859418E+01 0.28162348777E+01 0.28154811846E+01 0.29579293826E+01 0.32927669326E+01
 0.38583737346E+01 0.46202899360E+01 0.61015142934E+01 0.93420456813E+01 0.14248046360E+02
 0.19394910369E+02 0.22718942332E+02 0.22717679214E+02 0.19394354620E+02 0.14253155415E+02
 0.51902628818E+01 0.43533715434E+01 0.37329537627E+01 0.32623564331E+01 0.29672140304E+01
 0.28162348777E+01 0.27701275470E+01 0.28145065470E+01 0.29674546424E+01 0.32676780150E+01
 0.37418886554E+01 0.43603514077E+01 0.51900857634E+01 0.67311768049E+01 0.88920511058E+01
 0.10857389524E+02 0.11658112789E+02 0.10865253765E+02 0.89032266792E+01 0.67391109133E+01
 0.40128467439E+01 0.35715569399E+01 0.32307696043E+01 0.30042765935E+01 0.28738986917E+01
 0.28154811846E+01 0.28145065470E+01 0.28709550348E+01 0.30007390503E+01 0.32306285628E+01
 0.35783045987E+01 0.40244785438E+01 0.45042644352E+01 0.50461934825E+01 0.56812215277E+01
 0.61406962752E+01 0.61437539028E+01 0.56861348393E+01 0.50451985059E+01 0.44951021510E+01
 0.34017424865E+01 0.32124231566E+01 0.30831343955E+01 0.30058976675E+01 0.29683049574E+01
 0.29579293826E+01 0.29674546424E+01 0.30007390503E+01 0.30734329814E+01 0.32045188830E+01
 0.34027393427E+01 0.36557492607E+01 0.39286439082E+01 0.41733459726E+01 0.43432347984E+01
 0.44054438158E+01 0.43420392198E+01 0.41674217739E+01 0.39176551464E+01 0.36460627060E+01
 0.32176395194E+01 0.32125050416E+01 0.32320556240E+01 0.32645699337E+01 0.32907379438E+01
 0.32927669326E+01 0.32676780150E+01 0.32306285628E+01 0.32045188830E+01 0.32069978075E+01
 0.32454887431E+01 0.33180313786E+01 0.34122140195E+01 0.35030642862E+01 0.35587506705E+01
 0.35565673676E+01 0.34978662975E+01 0.34076856659E+01 0.33184711426E+01 0.32526038820E+01
 0.34027465477E+01 0.35704388407E+01 0.37316561077E+01 0.38516383463E+01 0.38985076269E+01
 0.38583737346E+01 0.37418886554E+01 0.35783045987E+01 0.34027393427E+01 0.32454887431E+01
 0.31271605481E+01 0.30564432063E+01 0.30276978170E+01 0.30227286393E+01 0.30220315195E+01
 0.30196112318E+01 0.30271309346E+01 0.30629549950E+01 0.31384096904E+01 0.32539864544E+01
 0.40125081269E+01 0.43508793189E+01 0.46162094400E+01 0.47809751216E+01 0.47817260946E+01
 0.46202899360E+01 0.43603514077E+01 0.40244785438E+01 0.36557492607E+01 0.33180313786E+01
 0.30564432063E+01 0.28832359215E+01 0.27851205332E+01 0.27418314584E+01 0.27415353254E+01
 0.27860654291E+01 0.28876448983E+01 0.30619071266E+01 0.33184711426E+01 0.36480652011E+01
 0.51897916045E+01 0.61103085741E+01 0.69485090696E+01 0.72848326454E+01 0.69394708230E+01
 0.61015142934E+01 0.51900857634E+01 0.45042644352E+01 0.39286439082E+01 0.34122140195E+01
 0.30276978170E+01 0.27851205332E+01 0.26578677871E+01 0.26192571665E+01 0.26594607687E+01
 0.27872801123E+01 0.30274582882E+01 0.34062414277E+01 0.39176551464E+01 0.44949130770E+01
 0.93563382135E+01 0.12093960721E+02 0.13834575907E+02 0.13828443631E+02 0.12079452595E+02
 0.93420456813E+01 0.67311768049E+01 0.50461934825E+01 0.41733459726E+01 0.35030642862E+01
 0.30227286393E+01 0.27418314584E+01 0.26192571665E+01 0.26197811301E+01 0.27423470369E+01
 0.30211062250E+01 0.34984790634E+01 0.41681233100E+01 0.50451985059E+01 0.67383499792E+01
 0.20453710170E+02 0.25397042641E+02 0.27278680297E+02 0.25399934634E+02 0.20453296573E+02
 0.14248046360E+02 0.88920511058E+01 0.56812215277E+01 0.43432347984E+01 0.35587506705E+01
 0.30220315195E+01 0.27415353254E+01 0.26594607687E+01 0.27423470369E+01 0.30210308932E+01
 0.35559282982E+01 0.43433002229E+01 0.56882261523E+01 0.89032266792E+01 0.14255793556E+02
 0.40422713756E+02 0.46522015495E+02 0.46532151169E+02 0.40444022722E+02 0.30298045704E+02
 0.19394910369E+02 0.10857389524E+02 0.61406962752E+01 0.44054438158E+01 0.35565673676E+01
 0.30196112318E+01 0.27860654291E+01 0.27872801123E+01 0.30211062250E+01 0.35559282982E+01
 0.44053241311E+01 0.61455651403E+01 0.10864731835E+02 0.19394354620E+02 0.30283043521E+02
 0.67553734347E+02 0.72282144982E+02 0.67569679609E+02 0.54935462443E+02 0.38366916218E+02
 0.22718942332E+02 0.11658112789E+02 0.61437539028E+01 0.43420392198E+01 0.34978662975E+01
 0.30271309346E+01 0.28876448983E+01 0.30274582882E+01 0.34984790634E+01 0.43433002229E+01
 0.61455651403E+01 0.11657886471E+02 0.22711747129E+02 0.38349971253E+02 0.54913378548E+02
 0.96174487329E+02 0.96176100840E+02 0.84147375334E+02 0.63901064302E+02 0.41488931481E+02
 0.22717679214E+02 0.10865253765E+02 0.56861348393E+01 0.41674217739E+01 0.34076856659E+01
 0.30629549950E+01 0.30619071266E+01 0.34062414277E+01 0.41681233100E+01 0.56882261523E+01
 0.10864731835E+02 0.22711747129E+02 0.41479280816E+02 0.63892096643E+02 0.84142028082E+02
 0.11823444859E+03 0.11067685463E+03 0.90466802894E+02 0.63892096643E+02 0.38349971253E+02
 0.19394354620E+02 0.89032266792E+01 0.50451985059E+01 0.39176551464E+01 0.33184711426E+01
 0.31384096904E+01 0.33184711426E+01 0.39176551464E+01 0.50451985059E+01 0.89032266792E+01
 0.19394354620E+02 0.38349971253E+02 0.63892096643E+02 0.90466802894E+02 0.11067685463E+03
 0.12656052438E+03 0.11069188472E+03 0.84152215777E+02 0.54913284986E+02 0.30277967716E+02
 0.14253155415E+02 0.67391109133E+01 0.44951021510E+01 0.36460627060E+01 0.32526038820E+01
 0.32539864544E+01 0.36480652011E+01 0.44949130770E+01 0.67383499792E+01 0.14255793556E+02
 0.30283043521E+02 0.54913378548E+02 0.84142028082E+02 0.11067685463E+03 0.12655328982E+03
 0.83637326534E+02 0.62879422388E+02 0.40419892328E+02 0.22036353100E+02 0.10625052947E+02
 0.56711229271E+01 0.42064844753E+01 0.34648553527E+01 0.31286186603E+01 0.31283623811E+01
 0.34637464241E+01 0.42046390881E+01 0.56704389785E+01 0.10627725565E+02 0.22041708863E+02
 0.40423994728E+02 0.62879016524E+02 0.83633760479E+02 0.96174487329E+02 0.96176537054E+02
 0.62879422388E+02 0.43301728837E+02 0.25384745346E+02 0.12932992323E+02 0.66414028298E+01
 0.45399475623E+01 0.36781683549E+01 0.31920784889E+01 0.30495179482E+01 0.31933744725E+01
 0.36773676501E+01 0.45358186783E+01 0.66380586786E+01 0.12935804219E+02 0.25393967621E+02
 0.43312037495E+02 0.62885771752E+02 0.78282905121E+02 0.84142028082E+02 0.78280833885E+02
 0.40419892328E+02 0.25384745346E+02 0.13826322172E+02 0.72915183891E+01 0.47881130316E+01
 0.38536453189E+01 0.32623564331E+01 0.30042765935E+01 0.30058976675E+01 0.32645699337E+01
 0.38516383463E+01 0.47809751216E+01 0.72848326454E+01 0.13828443631E+02 0.25399934634E+02
 0.40444022722E+02 0.54935462443E+02 0.63901064302E+02 0.63892096643E+02 0.54913284986E+02
 0.22036353100E+02 0.12932992323E+02 0.72915183891E+01 0.48853305331E+01 0.39519193120E+01
 0.33212336325E+01 0.29872489108E+01 0.28907135299E+01 0.29883937477E+01 0.33227117431E+01
 0.39503486862E+01 0.48771418655E+01 0.72799349503E+01 0.12930129705E+02 0.22053088675E+02
 0.32745965875E+02 0.41505129352E+02 0.44892075286E+02 0.41479280816E+02 0.32714205295E+02
 0.10625052947E+02 0.66414028298E+01 0.47881130316E+01 0.39519193120E+01 0.33438303924E+01
 0.29844539988E+01 0.28325013402E+01 0.28322255322E+01 0.29853375954E+01 0.33468813010E+01
 0.39523814354E+01 0.47799635846E+01 0.66275876406E+01 0.10618343041E+02 0.16553553767E+02
 0.22730249698E+02 0.26704786425E+02 0.26695406156E+02 0.22711747129E+02 0.16544046251E+02
 0.56711229271E+01 0.45399475623E+01 0.38536453189E+01 0.33212336325E+01 0.29844539988E+01
 0.28148361546E+01 0.27645362458E+01 0.28140527484E+01 0.29860598939E+01 0.33261966783E+01
 0.38577515147E+01 0.45379455418E+01 0.56629490551E+01 0.78570394786E+01 0.10859675566E+02
 0.13545673108E+02 0.14628823115E+02 0.13546923528E+02 0.10864731835E+02 0.78660393099E+01
 0.42064844753E+01 0.36781683549E+01 0.32623564331E+01 0.29872489108E+01 0.28325013402E+01
 0.27645362458E+01 0.27633214357E+01 0.28305111821E+01 0.29879270506E+01 0.32676276783E+01
 0.36861184003E+01 0.42121615442E+01 0.48073971221E+01 0.56807263961E+01 0.67423295699E+01
 0.74981052626E+01 0.75021009648E+01 0.67513463865E+01 0.56882261523E+01 0.48083309831E+01
 0.34648553527E+01 0.31920784889E+01 0.30042765935E+01 0.28907135299E+01 0.28322255322E+01
 0.28140527484E+01 0.28305111821E+01 0.28869824999E+01 0.30003139602E+01 0.31919086372E+01
 0.34707271389E+01 0.38156647882E+01 0.41739200259E+01 0.44860139699E+01 0.47339574472E+01
 0.48381414642E+01 0.47363352940E+01 0.44859738348E+01 0.41681233100E+01 0.38068092900E+01
 0.31286186603E+01 0.30495179482E+01 0.30058976675E+01 0.29883937477E+01 0.29853375954E+01
 0.29860598939E+01 0.29879270506E+01 0.30003139602E+01 0.30400909961E+01 0.31218852364E+01
 0.32497482247E+01 0.34130482748E+01 0.35864151534E+01 0.37341817737E+01 0.38198941893E+01
 0.38191320422E+01 0.37307365533E+01 0.35795482879E+01 0.34062414277E+01 0.32488263532E+01
 0.31283623811E+01 0.31933744725E+01 0.32645699337E+01 0.33227117431E+01 0.33468813010E+01
 0.33261966783E+01 0.32676276783E+01 0.31919086372E+01 0.31218852364E+01 0.30739940597E+01
 0.30567374282E+01 0.30706604068E+01 0.31057434880E+01 0.31412949324E+01 0.31552016998E+01
 0.31386585577E+01 0.31029807500E+01 0.30710887481E+01 0.30619071266E+01 0.30820087872E+01
 0.34637464241E+01 0.36773676501E+01 0.38516383463E+01 0.39503486862E+01 0.39523814354E+01
 0.38577515147E+01 0.36861184003E+01 0.34707271389E+01 0.32497482247E+01 0.30567374282E+01
 0.29128286565E+01 0.28228065077E+01 0.27767151949E+01 0.27582456783E+01 0.27569282727E+01
 0.27754541735E+01 0.28260120388E+01 0.29203417442E+01 0.30629549950E+01 0.32492914668E+01
 0.42046390881E+01 0.45358186783E+01 0.47809751216E+01 0.48771418655E+01 0.47799635846E+01
 0.45379455418E+01 0.42121615442E+01 0.38156647882E+01 0.34130482748E+01 0.30706604068E+01
 0.28228065077E+01 0.26677946406E+01 0.25859954055E+01 0.25602924965E+01 0.25856755099E+01
 0.26690775317E+01 0.28255712324E+01 0.30710887481E+01 0.34076856659E+01 0.38062969893E+01
 0.56704389785E+01 0.66380586786E+01 0.72848326454E+01 0.72799349503E+01 0.66275876406E+01
 0.56629490551E+01 0.48073971221E+01 0.41739200259E+01 0.35864151534E+01 0.31057434880E+01
 0.27767151949E+01 0.25859954055E+01 0.25013084131E+01 0.25017249827E+01 0.25867908888E+01
 0.27763576080E+01 0.31022091483E+01 0.35795482879E+01 0.41674217739E+01 0.48068844770E+01
 0.10627725565E+02 0.12935804219E+02 0.13828443631E+02 0.12930129705E+02 0.10618343041E+02
 0.78570394786E+01 0.56807263961E+01 0.44860139699E+01 0.37341817737E+01 0.31412949324E+01
 0.27582456783E+01 0.25602924965E+01 0.25017249827E+01 0.25613663005E+01 0.27581384801E+01
 0.31386400297E+01 0.37308981909E+01 0.44859738348E+01 0.56861348393E+01 0.78664027918E+01
 0.22041708863E+02 0.25393967621E+02 0.25399934634E+02 0.22053088675E+02 0.16553553767E+02
 0.10859675566E+02 0.67423295699E+01 0.47339574472E+01 0.38198941893E+01 0.31552016998E+01
 0.27569282727E+01 0.25856755099E+01 0.25867908888E+01 0.27581384801E+01 0.31539908861E+01
 0.38188019544E+01 0.47381529211E+01 0.67513463865E+01 0.10865253765E+02 0.16548684419E+02
 0.40423994728E+02 0.43312037495E+02 0.40444022722E+02 0.32745965875E+02 0.22730249698E+02
 0.13545673108E+02 0.74981052626E+01 0.48381414642E+01 0.38191320422E+01 0.31386585577E+01
 0.27754541735E+01 0.26690775317E+01 0.27763576080E+01 0.31386400297E+01 0.38188019544E+01
 0.48409794403E+01 0.75040965898E+01 0.13546923528E+02 0.22717679214E+02 0.32721751584E+02
 0.62879016524E+02 0.62885771752E+02 0.54935462443E+02 0.41505129352E+02 0.26704786425E+02
 0.14628823115E+02 0.75021009648E+01 0.47363352940E+01 0.37307365533E+01 0.31029807500E+01
 0.28260120388E+01 0.28255712324E+01 0.31022091483E+01 0.37308981909E+01 0.47381529211E+01
 0.75040965898E+01 0.14627022443E+02 0.26695406156E+02 0.41488931481E+02 0.54919418510E+02
 0.83633760479E+02 0.78282905121E+02 0.63901064302E+02 0.44892075286E+02 0.26695406156E+02
 0.13546923528E+02 0.67513463865E+01 0.44859738348E+01 0.35795482879E+01 0.30710887481E+01
 0.29203417442E+01 0.30710887481E+01 0.35795482879E+01 0.44859738348E+01 0.67513463865E+01
 0.13546923528E+02 0.26695406156E+02 0.44892075286E+02 0.63901064302E+02 0.78282905121E+02
 0.96174487329E+02 0.84142028082E+02 0.63892096643E+02 0.41479280816E+02 0.22711747129E+02
 0.10864731835E+02 0.56882261523E+01 0.41681233100E+01 0.34062414277E+01 0.30619071266E+01
 0.30629549950E+01 0.34076856659E+01 0.41674217739E+01 0.56861348393E+01 0.10865253765E+02
 0.22717679214E+02 0.41488931481E+02 0.63901064302E+02 0.84147375334E+02 0.96176100840E+02
 0.96176537054E+02 0.78280833885E+02 0.54913284986E+02 0.32714205295E+02 0.16544046251E+02
 0.78660393099E+01 0.48083309831E+01 0.38068092900E+01 0.32488263532E+01 0.30820087872E+01
 0.32492914668E+01 0.38062969893E+01 0.48068844770E+01 0.78664027918E+01 0.16548684419E+02
 0.32721751584E+02 0.54919418510E+02 0.78282905121E+02 0.96176100840E+02 0.10289038348E+03
 0.50536670844E+02 0.34808882089E+02 0.20444300891E+02 0.10625052947E+02 0.58742594108E+01
 0.43171303135E+01 0.35228954573E+01 0.30839595270E+01 0.29550460365E+01 0.30843210556E+01
 0.35225189348E+01 0.43146561671E+01 0.58696713546E+01 0.10620897572E+02 0.20444672467E+02
 0.34815982162E+02 0.50547783968E+02 0.62879016524E+02 0.67553734347E+02 0.62870596473E+02
 0.34808882089E+02 0.21922018399E+02 0.12084014002E+02 0.66414028298E+01 0.46132277688E+01
 0.37469620338E+01 0.31936527660E+01 0.29533621839E+01 0.29546474004E+01 0.31957199191E+01