   1   1   0   0
  0.1118472E+02  0.2510229E-09  0.2510229E-09  0.2510229E-09  0.5000000E-15
  1.000000000000000E-004
  CAR 
 fcc Ni                                  
     55.02653725     -2.38075320  301      8.98655695      1.00000000
     -2.381  0.0000E+00  0.0000E+00  0.0000E+00  0.0000E+00
     -2.189  0.0000E+00  0.0000E+00  0.0000E+00  0.0000E+00
     -1.998  0.0000E+00  0.0000E+00  0.0000E+00  0.0000E+00
     -1.807  0.0000E+00  0.0000E+00  0.0000E+00  0.0000E+00
     -1.615  0.0000E+00  0.0000E+00  0.0000E+00  0.0000E+00
     -1.424 -0.1991E-32 -0.5409E-31 -0.3811E-33 -0.1035E-31
     -1.233 -0.7619E-26 -0.1410E-24 -0.1458E-26 -0.2698E-25
     -1.041 -0.4596E-20 -0.5791E-19 -0.8794E-21 -0.1108E-19
     -0.850 -0.4209E-15 -0.3599E-14 -0.8054E-16 -0.6887E-15
     -0.659 -0.6108E-11 -0.3534E-10 -0.1169E-11 -0.6763E-11
     -0.467 -0.1342E-07 -0.5220E-07 -0.2569E-08 -0.9996E-08
     -0.276 -0.4248E-05 -0.1091E-04 -0.8154E-06 -0.2097E-05
     -0.084 -0.1637E-03 -0.2539E-03 -0.3213E-04 -0.5067E-04
      0.107  0.5662E-04  0.6950E-03 -0.2130E-04  0.8232E-04
      0.298  0.5525E-02  0.7066E-02  0.1036E-02  0.1435E-02
      0.490  0.1580E-01  0.1874E-01  0.4060E-02  0.5021E-02
      0.681  0.2440E-01  0.2420E-01  0.8729E-02  0.9651E-02
      0.872  0.2471E-01  0.2526E-01  0.1346E-01  0.1449E-01
      1.064  0.3093E-01  0.3284E-01  0.1938E-01  0.2077E-01
      1.255  0.4415E-01  0.4638E-01  0.2782E-01  0.2965E-01
      1.446  0.4117E-01  0.3648E-01  0.3570E-01  0.3663E-01
      1.638  0.2934E-01  0.3163E-01  0.4132E-01  0.4268E-01
      1.829  0.5393E-01  0.5784E-01  0.5164E-01  0.5375E-01
      2.020  0.7515E-01  0.7329E-01  0.6602E-01  0.6777E-01
      2.212  0.4296E-01  0.3745E-01  0.7424E-01  0.7494E-01
      2.403  0.4809E-01  0.5108E-01  0.8344E-01  0.8471E-01
      2.595  0.8111E-01  0.8020E-01  0.9896E-01  0.1001E+00
      2.786  0.7228E-01  0.6961E-01  0.1128E+00  0.1134E+00
      2.977  0.7892E-01  0.7423E-01  0.1279E+00  0.1276E+00
      3.169  0.9054E-01  0.8784E-01  0.1452E+00  0.1444E+00
      3.360  0.9731E-01  0.8766E-01  0.1638E+00  0.1612E+00
      3.551  0.8235E-01  0.7662E-01  0.1796E+00  0.1758E+00
      3.743  0.1308E+00  0.1058E+00  0.2046E+00  0.1961E+00
      3.934  0.1649E+00  0.1448E+00  0.2362E+00  0.2238E+00
      4.125  0.1474E+00  0.1249E+00  0.2644E+00  0.2477E+00
      4.317  0.2338E+00  0.1198E+00  0.3091E+00  0.2706E+00
      4.508  0.4159E+00  0.1847E+00  0.3887E+00  0.3059E+00
      4.699  0.5001E+00  0.2727E+00  0.4844E+00  0.3581E+00
      4.891  0.5948E+00  0.3339E+00  0.5983E+00  0.4220E+00
      5.082  0.7339E+00  0.4734E+00  0.7387E+00  0.5126E+00
      5.274  0.9437E+00  0.5393E+00  0.9193E+00  0.6158E+00
      5.465  0.1037E+01  0.4765E+00  0.1118E+01  0.7070E+00
      5.656  0.9370E+00  0.6527E+00  0.1297E+01  0.8319E+00
      5.848  0.8674E+00  0.8346E+00  0.1463E+01  0.9916E+00
      6.039  0.9087E+00  0.9181E+00  0.1637E+01  0.1167E+01
      6.230  0.1128E+01  0.8620E+00  0.1853E+01  0.1332E+01
      6.422  0.1269E+01  0.8330E+00  0.2096E+01  0.1492E+01
      6.613  0.1403E+01  0.8296E+00  0.2364E+01  0.1650E+01
      6.804  0.1745E+01  0.1036E+01  0.2698E+01  0.1849E+01
      6.996  0.1635E+01  0.1220E+01  0.3011E+01  0.2082E+01
      7.187  0.1128E+01  0.1299E+01  0.3227E+01  0.2331E+01
      7.378  0.1022E+01  0.1477E+01  0.3423E+01  0.2613E+01
      7.570  0.1320E+01  0.1524E+01  0.3675E+01  0.2905E+01
      7.761  0.1458E+01  0.1345E+01  0.3954E+01  0.3163E+01
      7.953  0.1404E+01  0.1075E+01  0.4223E+01  0.3368E+01
      8.144  0.1414E+01  0.1135E+01  0.4493E+01  0.3586E+01
      8.335  0.2126E+01  0.1367E+01  0.4900E+01  0.3847E+01
      8.527  0.1619E+01  0.1310E+01  0.5210E+01  0.4098E+01
      8.718  0.3397E+00  0.1132E+01  0.5275E+01  0.4315E+01
      8.909  0.1639E+00  0.1275E+01  0.5306E+01  0.4559E+01
      9.101  0.1026E+00  0.1828E+01  0.5326E+01  0.4908E+01
      9.292  0.2294E+00  0.1537E+01  0.5370E+01  0.5203E+01
      9.483  0.1690E+00  0.5585E+00  0.5402E+01  0.5309E+01
      9.675  0.1281E+00  0.1202E+00  0.5427E+01  0.5332E+01
      9.866  0.1469E+00  0.1993E+00  0.5455E+01  0.5371E+01
     10.057  0.1494E+00  0.2333E+00  0.5483E+01  0.5415E+01
     10.249  0.1480E+00  0.1264E+00  0.5512E+01  0.5439E+01
     10.440  0.1186E+00  0.1534E+00  0.5534E+01  0.5469E+01
     10.632  0.1313E+00  0.1902E+00  0.5559E+01  0.5505E+01
     10.823  0.1651E+00  0.1616E+00  0.5591E+01  0.5536E+01
     11.014  0.1918E+00  0.1339E+00  0.5628E+01  0.5562E+01
     11.206  0.6267E-01  0.1597E+00  0.5640E+01  0.5592E+01
     11.397  0.9724E-01  0.1919E+00  0.5658E+01  0.5629E+01
     11.588  0.1379E+00  0.9403E-01  0.5685E+01  0.5647E+01
     11.780  0.1108E+00  0.1231E+00  0.5706E+01  0.5670E+01
     11.971  0.1662E+00  0.1080E+00  0.5738E+01  0.5691E+01
     12.162  0.1337E+00  0.1651E+00  0.5763E+01  0.5723E+01
     12.354  0.1673E+00  0.1669E+00  0.5795E+01  0.5755E+01
     12.545  0.4246E-01  0.1324E+00  0.5803E+01  0.5780E+01
     12.736  0.4211E-01  0.1156E+00  0.5812E+01  0.5802E+01
     12.928  0.9214E-01  0.3433E-01  0.5829E+01  0.5809E+01
     13.119  0.1324E+00  0.7685E-01  0.5854E+01  0.5823E+01
     13.311  0.1476E+00  0.1293E+00  0.5883E+01  0.5848E+01
     13.502  0.1048E+00  0.1405E+00  0.5903E+01  0.5875E+01
     13.693  0.3589E-01  0.1314E+00  0.5910E+01  0.5900E+01
     13.885  0.4570E-01  0.5155E-01  0.5918E+01  0.5910E+01
     14.076  0.7707E-01  0.2343E-01  0.5933E+01  0.5915E+01
     14.267  0.5045E-01  0.8733E-01  0.5943E+01  0.5931E+01
     14.459  0.6599E-01  0.6414E-01  0.5955E+01  0.5944E+01
     14.650  0.1448E+00  0.5535E-01  0.5983E+01  0.5954E+01
     14.841  0.1247E+00  0.8535E-01  0.6007E+01  0.5970E+01
     15.033  0.1265E+00  0.1009E+00  0.6031E+01  0.5990E+01
     15.224  0.1334E+00  0.1446E+00  0.6057E+01  0.6017E+01
     15.416  0.1672E+00  0.1327E+00  0.6089E+01  0.6043E+01
     15.607  0.2084E+00  0.1574E+00  0.6129E+01  0.6073E+01
     15.798  0.9183E-01  0.2467E+00  0.6146E+01  0.6120E+01
     15.990  0.1317E+00  0.1161E+00  0.6171E+01  0.6142E+01
     16.181  0.1254E+00  0.1185E+00  0.6195E+01  0.6165E+01
     16.372  0.1387E+00  0.1295E+00  0.6222E+01  0.6190E+01
     16.564  0.1356E+00  0.1417E+00  0.6248E+01  0.6217E+01
     16.755  0.1263E+00  0.1519E+00  0.6272E+01  0.6246E+01
     16.946  0.1366E+00  0.1290E+00  0.6298E+01  0.6271E+01
     17.138  0.8968E-01  0.1424E+00  0.6315E+01  0.6298E+01
     17.329  0.9363E-01  0.8957E-01  0.6333E+01  0.6315E+01
     17.520  0.1570E+00  0.9136E-01  0.6363E+01  0.6332E+01
     17.712  0.8850E-01  0.1492E+00  0.6380E+01  0.6361E+01
     17.903  0.9950E-01  0.1036E+00  0.6399E+01  0.6381E+01
     18.095  0.1028E+00  0.1058E+00  0.6419E+01  0.6401E+01
     18.286  0.1589E+00  0.9561E-01  0.6449E+01  0.6419E+01
     18.477  0.2041E+00  0.1644E+00  0.6488E+01  0.6451E+01
     18.669  0.1243E+00  0.1899E+00  0.6512E+01  0.6487E+01
     18.860  0.1838E+00  0.1433E+00  0.6547E+01  0.6515E+01
     19.051  0.1892E+00  0.1864E+00  0.6584E+01  0.6550E+01
     19.243  0.1792E+00  0.1873E+00  0.6618E+01  0.6586E+01
     19.434  0.1549E+00  0.1918E+00  0.6648E+01  0.6623E+01
     19.625  0.6597E-01  0.1406E+00  0.6660E+01  0.6650E+01
     19.817  0.1704E+00  0.7953E-01  0.6693E+01  0.6665E+01
     20.008  0.2617E+00  0.2053E+00  0.6743E+01  0.6704E+01
     20.199  0.1883E+00  0.2568E+00  0.6779E+01  0.6753E+01
     20.391  0.1792E+00  0.1701E+00  0.6813E+01  0.6786E+01
     20.582  0.2357E+00  0.2034E+00  0.6858E+01  0.6825E+01
     20.774  0.1968E+00  0.2324E+00  0.6896E+01  0.6869E+01
     20.965  0.1781E+00  0.2028E+00  0.6930E+01  0.6908E+01
     21.156  0.1083E+00  0.1474E+00  0.6951E+01  0.6936E+01
     21.348  0.1283E+00  0.1164E+00  0.6975E+01  0.6959E+01
     21.539  0.2397E+00  0.1744E+00  0.7021E+01  0.6992E+01
     21.730  0.2451E+00  0.2641E+00  0.7068E+01  0.7043E+01
     21.922  0.1626E+00  0.2100E+00  0.7099E+01  0.7083E+01
     22.113  0.1389E+00  0.1388E+00  0.7126E+01  0.7109E+01
     22.304  0.1798E+00  0.1625E+00  0.7160E+01  0.7140E+01
     22.496  0.2116E+00  0.1918E+00  0.7201E+01  0.7177E+01
     22.687  0.3184E+00  0.2615E+00  0.7262E+01  0.7227E+01
     22.878  0.1880E+00  0.2949E+00  0.7297E+01  0.7284E+01
     23.070  0.8587E-01  0.1260E+00  0.7314E+01  0.7308E+01
     23.261  0.1398E+00  0.8460E-01  0.7341E+01  0.7324E+01
     23.453  0.3603E+00  0.2786E+00  0.7410E+01  0.7377E+01
     23.644  0.2517E+00  0.3204E+00  0.7458E+01  0.7438E+01
     23.835  0.2565E+00  0.2521E+00  0.7507E+01  0.7487E+01
     24.027  0.1578E+00  0.2087E+00  0.7537E+01  0.7527E+01
     24.218  0.1100E+00  0.1134E+00  0.7558E+01  0.7548E+01
     24.409  0.2475E+00  0.1896E+00  0.7605E+01  0.7585E+01
     24.601  0.2386E+00  0.2643E+00  0.7651E+01  0.7635E+01
     24.792  0.2172E+00  0.2242E+00  0.7693E+01  0.7678E+01
     24.983  0.2201E+00  0.2202E+00  0.7735E+01  0.7720E+01
     25.175  0.1804E+00  0.1724E+00  0.7769E+01  0.7753E+01
     25.366  0.2025E+00  0.2149E+00  0.7808E+01  0.7794E+01
     25.557  0.1622E+00  0.1627E+00  0.7839E+01  0.7826E+01
     25.749  0.2182E+00  0.1996E+00  0.7881E+01  0.7864E+01
     25.940  0.1969E+00  0.2205E+00  0.7919E+01  0.7906E+01
     26.132  0.2498E+00  0.2233E+00  0.7966E+01  0.7949E+01
     26.323  0.2457E+00  0.2608E+00  0.8013E+01  0.7999E+01
     26.514  0.1710E+00  0.1973E+00  0.8046E+01  0.8036E+01
     26.706  0.1102E+00  0.1268E+00  0.8067E+01  0.8061E+01
     26.897  0.1418E+00  0.1108E+00  0.8094E+01  0.8082E+01
     27.088  0.2459E+00  0.2380E+00  0.8141E+01  0.8127E+01
     27.280  0.1248E+00  0.1769E+00  0.8165E+01  0.8161E+01
     27.471  0.6592E-01  0.5396E-01  0.8178E+01  0.8171E+01
     27.662  0.1933E+00  0.1488E+00  0.8215E+01  0.8200E+01
     27.854  0.2317E+00  0.2542E+00  0.8259E+01  0.8249E+01
     28.045  0.1561E+00  0.1688E+00  0.8289E+01  0.8281E+01
     28.236  0.1879E+00  0.1898E+00  0.8325E+01  0.8317E+01
     28.428  0.1560E+00  0.1552E+00  0.8355E+01  0.8347E+01
     28.619  0.1524E+00  0.1586E+00  0.8384E+01  0.8377E+01
     28.811  0.1701E+00  0.1587E+00  0.8417E+01  0.8408E+01
     29.002  0.1131E+00  0.1123E+00  0.8438E+01  0.8429E+01
     29.193  0.1802E+00  0.1626E+00  0.8473E+01  0.8460E+01
     29.385  0.2286E+00  0.2619E+00  0.8516E+01  0.8510E+01
     29.576  0.1480E+00  0.1576E+00  0.8545E+01  0.8541E+01
     29.767  0.1320E+00  0.1180E+00  0.8570E+01  0.8563E+01
     29.959  0.1561E+00  0.1445E+00  0.8600E+01  0.8591E+01
     30.150  0.2494E+00  0.2310E+00  0.8648E+01  0.8635E+01
     30.341  0.2288E+00  0.2505E+00  0.8691E+01  0.8683E+01
     30.533  0.2757E+00  0.2741E+00  0.8744E+01  0.8735E+01
     30.724  0.1952E+00  0.2181E+00  0.8781E+01  0.8777E+01
     30.915  0.2685E+00  0.2352E+00  0.8833E+01  0.8822E+01
     31.107  0.3170E+00  0.3314E+00  0.8893E+01  0.8885E+01
     31.298  0.1622E+00  0.2059E+00  0.8925E+01  0.8925E+01
     31.490  0.1828E+00  0.1627E+00  0.8960E+01  0.8956E+01
     31.681  0.3501E+00  0.3436E+00  0.9027E+01  0.9022E+01
     31.872  0.2084E+00  0.2232E+00  0.9066E+01  0.9064E+01
     32.064  0.1309E+00  0.1141E+00  0.9091E+01  0.9086E+01
     32.255  0.3207E+00  0.2872E+00  0.9153E+01  0.9141E+01
     32.446  0.3843E+00  0.3958E+00  0.9226E+01  0.9217E+01
     32.638  0.3779E+00  0.3931E+00  0.9299E+01  0.9292E+01
     32.829  0.2104E+00  0.2348E+00  0.9339E+01  0.9337E+01
     33.020  0.2534E+00  0.2202E+00  0.9387E+01  0.9379E+01
     33.212  0.2539E+00  0.2737E+00  0.9436E+01  0.9432E+01
     33.403  0.2117E+00  0.2083E+00  0.9477E+01  0.9472E+01
     33.594  0.2118E+00  0.1660E+00  0.9517E+01  0.9503E+01
     33.786  0.3456E+00  0.3288E+00  0.9583E+01  0.9566E+01
     33.977  0.3497E+00  0.3830E+00  0.9650E+01  0.9640E+01
     34.169  0.2316E+00  0.2732E+00  0.9694E+01  0.9692E+01
     34.360  0.1805E+00  0.2055E+00  0.9729E+01  0.9731E+01
     34.551  0.1799E+00  0.1475E+00  0.9763E+01  0.9759E+01
     34.743  0.2113E+00  0.2309E+00  0.9804E+01  0.9804E+01
     34.934  0.1663E+00  0.1549E+00  0.9836E+01  0.9833E+01
     35.125  0.1606E+00  0.1270E+00  0.9866E+01  0.9857E+01
     35.317  0.1830E+00  0.1798E+00  0.9901E+01  0.9892E+01
     35.508  0.1621E+00  0.1881E+00  0.9932E+01  0.9928E+01
     35.699  0.1574E+00  0.1740E+00  0.9962E+01  0.9961E+01
     35.891  0.2562E+00  0.1999E+00  0.1001E+02  0.9999E+01
     36.082  0.2810E+00  0.2802E+00  0.1007E+02  0.1005E+02
     36.273  0.1463E+00  0.1753E+00  0.1009E+02  0.1009E+02
     36.465  0.1834E+00  0.1624E+00  0.1013E+02  0.1012E+02
     36.656  0.1250E+00  0.1543E+00  0.1015E+02  0.1015E+02
     36.848  0.4123E-01  0.6623E-01  0.1016E+02  0.1016E+02
     37.039  0.5325E-01  0.3568E-01  0.1017E+02  0.1017E+02
     37.230  0.1927E+00  0.1579E+00  0.1021E+02  0.1020E+02
     37.422  0.2041E+00  0.2507E+00  0.1025E+02  0.1024E+02
     37.613  0.2157E+00  0.2376E+00  0.1029E+02  0.1029E+02
     37.804  0.2343E+00  0.1791E+00  0.1033E+02  0.1032E+02
     37.996  0.3490E+00  0.2716E+00  0.1040E+02  0.1038E+02
     38.187  0.2816E+00  0.3445E+00  0.1045E+02  0.1044E+02
     38.378  0.3315E+00  0.3284E+00  0.1052E+02  0.1051E+02
     38.570  0.2775E+00  0.3017E+00  0.1057E+02  0.1056E+02
     38.761  0.3003E+00  0.3047E+00  0.1063E+02  0.1062E+02
     38.952  0.2469E+00  0.2688E+00  0.1067E+02  0.1067E+02
     39.144  0.2410E+00  0.2386E+00  0.1072E+02  0.1072E+02
     39.335  0.3056E+00  0.3071E+00  0.1078E+02  0.1078E+02
     39.527  0.3285E+00  0.3323E+00  0.1084E+02  0.1084E+02
     39.718  0.2449E+00  0.2092E+00  0.1089E+02  0.1088E+02
     39.909  0.1489E+00  0.1655E+00  0.1092E+02  0.1091E+02
     40.101  0.1796E+00  0.2143E+00  0.1095E+02  0.1095E+02
     40.292  0.1973E+00  0.1776E+00  0.1099E+02  0.1099E+02
     40.483  0.1837E+00  0.1618E+00  0.1102E+02  0.1102E+02
     40.675  0.1833E+00  0.2178E+00  0.1106E+02  0.1106E+02
     40.866  0.2031E+00  0.2011E+00  0.1110E+02  0.1110E+02
     41.057  0.2225E+00  0.2134E+00  0.1114E+02  0.1114E+02
     41.249  0.1979E+00  0.2073E+00  0.1118E+02  0.1118E+02
     41.440  0.1902E+00  0.1915E+00  0.1122E+02  0.1122E+02
     41.632  0.2219E+00  0.2121E+00  0.1126E+02  0.1126E+02
     41.823  0.1645E+00  0.1522E+00  0.1129E+02  0.1129E+02
     42.014  0.1450E+00  0.1821E+00  0.1132E+02  0.1132E+02
     42.206  0.2192E+00  0.2043E+00  0.1136E+02  0.1136E+02
     42.397  0.1238E+00  0.1153E+00  0.1138E+02  0.1138E+02
     42.588  0.1569E+00  0.1233E+00  0.1141E+02  0.1141E+02
     42.780  0.1091E+00  0.1441E+00  0.1143E+02  0.1143E+02
     42.971  0.1200E+00  0.1115E+00  0.1146E+02  0.1145E+02
     43.162  0.1697E+00  0.1635E+00  0.1149E+02  0.1149E+02
     43.354  0.2736E+00  0.3117E+00  0.1154E+02  0.1154E+02
     43.545  0.2332E+00  0.2317E+00  0.1159E+02  0.1159E+02
     43.736  0.1456E+00  0.1275E+00  0.1161E+02  0.1161E+02
     43.928  0.1699E+00  0.1416E+00  0.1165E+02  0.1164E+02
     44.119  0.1481E+00  0.1589E+00  0.1167E+02  0.1167E+02
     44.311  0.4057E-01  0.8278E-01  0.1168E+02  0.1169E+02
     44.502  0.9521E-01  0.8274E-01  0.1170E+02  0.1170E+02
     44.693  0.1268E+00  0.1066E+00  0.1172E+02  0.1172E+02
     44.885  0.2043E+00  0.2319E+00  0.1176E+02  0.1177E+02
     45.076  0.9668E-01  0.8486E-01  0.1178E+02  0.1178E+02
     45.267  0.3998E-01  0.1605E-01  0.1179E+02  0.1179E+02
     45.459  0.4142E-01  0.7304E-01  0.1180E+02  0.1180E+02
     45.650  0.9117E-01  0.1006E+00  0.1182E+02  0.1182E+02
     45.841  0.5377E-01  0.3169E-01  0.1183E+02  0.1183E+02
     46.033  0.3890E-01  0.4406E-01  0.1183E+02  0.1183E+02
     46.224  0.1317E+00  0.1201E+00  0.1186E+02  0.1186E+02
     46.415  0.5944E-01  0.6848E-01  0.1187E+02  0.1187E+02
     46.607  0.5597E-01  0.6177E-01  0.1188E+02  0.1188E+02
     46.798  0.2883E-01  0.1849E-01  0.1189E+02  0.1189E+02
     46.990  0.2374E-01  0.4196E-01  0.1189E+02  0.1189E+02
     47.181  0.9340E-01  0.9250E-01  0.1191E+02  0.1191E+02
     47.372  0.4294E-01  0.2432E-01  0.1192E+02  0.1192E+02
     47.564 -0.3744E-02  0.1005E-02  0.1192E+02  0.1192E+02
     47.755  0.2277E-01  0.2930E-01  0.1192E+02  0.1192E+02
     47.946  0.4632E-01  0.4202E-01  0.1193E+02  0.1193E+02
     48.138  0.4794E-01  0.4579E-01  0.1194E+02  0.1194E+02
     48.329  0.1106E-01  0.6268E-02  0.1194E+02  0.1194E+02
     48.520 -0.1918E-02 -0.1602E-02  0.1194E+02  0.1194E+02
     48.712 -0.7509E-03 -0.8560E-03  0.1194E+02  0.1194E+02
     48.903  0.1783E-02  0.3482E-02  0.1194E+02  0.1194E+02
     49.094  0.1928E-01  0.2019E-01  0.1194E+02  0.1194E+02
     49.286  0.1928E-01  0.2323E-01  0.1195E+02  0.1195E+02
     49.477  0.4242E-01  0.4201E-01  0.1196E+02  0.1196E+02
     49.669  0.2111E-01  0.8480E-02  0.1196E+02  0.1196E+02
     49.860  0.3730E-01  0.3669E-01  0.1197E+02  0.1197E+02
     50.051  0.1569E-01  0.2461E-01  0.1197E+02  0.1197E+02
     50.243  0.2222E-01  0.3270E-01  0.1197E+02  0.1198E+02
     50.434  0.3982E-01  0.3046E-01  0.1198E+02  0.1198E+02
     50.625  0.2275E-02 -0.1052E-02  0.1198E+02  0.1198E+02
     50.817 -0.1934E-02 -0.1545E-02  0.1198E+02  0.1198E+02
     51.008  0.4762E-02  0.7329E-02  0.1198E+02  0.1198E+02
     51.199  0.2242E-01  0.2218E-01  0.1199E+02  0.1199E+02
     51.391  0.6046E-02  0.3717E-02  0.1199E+02  0.1199E+02
     51.582 -0.1103E-02 -0.1048E-02  0.1199E+02  0.1199E+02
     51.773 -0.9663E-03 -0.6377E-03  0.1199E+02  0.1199E+02
     51.965  0.1176E-01  0.1457E-01  0.1199E+02  0.1199E+02
     52.156  0.1901E-01  0.1686E-01  0.1199E+02  0.1199E+02
     52.348  0.9243E-02  0.1168E-01  0.1200E+02  0.1200E+02
     52.539  0.2140E-01  0.1979E-01  0.1200E+02  0.1200E+02
     52.730  0.3142E-02  0.1240E-02  0.1200E+02  0.1200E+02
     52.922 -0.7403E-03 -0.5467E-03  0.1200E+02  0.1200E+02
     53.113 -0.3267E-04 -0.1635E-04  0.1200E+02  0.1200E+02
     53.304 -0.1566E-06 -0.5745E-07  0.1200E+02  0.1200E+02
     53.496 -0.1060E-09 -0.2895E-10  0.1200E+02  0.1200E+02
     53.687 -0.1080E-13 -0.2207E-14  0.1200E+02  0.1200E+02
     53.878  0.0000E+00  0.0000E+00  0.1200E+02  0.1200E+02
     54.070  0.0000E+00  0.0000E+00  0.1200E+02  0.1200E+02
     54.261  0.0000E+00  0.0000E+00  0.1200E+02  0.1200E+02
     54.452  0.0000E+00  0.0000E+00  0.1200E+02  0.1200E+02
     54.644  0.0000E+00  0.0000E+00  0.1200E+02  0.1200E+02
     54.835  0.0000E+00  0.0000E+00  0.1200E+02  0.1200E+02
     55.027  0.0000E+00  0.0000E+00  0.1200E+02  0.1200E+02
