    1    1    1    2
  0.1118472E+02  0.2510229E-09  0.2510229E-09  0.2510229E-09  0.5000000E-15
  1.000000000000000E-004
  CAR 
 fcc Ni                                  
     10    110     12
 
  0.5000000E-01  0.5000000E-01  0.5000000E-01  0.2000000E-02
    1        0.268436      0.228669   1.000000   1.000000
    2        6.607048      7.334797   1.000000   1.000000
    3        6.651823      7.383715   1.000000   1.000000
    4        6.651823      7.383715   1.000000   1.000000
    5        7.735228      8.359788   1.000000   1.000043
    6        7.735228      8.359788   1.000000   1.000043
    7       32.208074     32.072377   0.000000   0.000000
    8       34.810908     34.796427   0.000000   0.000000
    9       35.898857     35.896865   0.000000   0.000000
   10       35.898857     35.896865   0.000000   0.000000
   11       39.518790     39.569647   0.000000   0.000000
   12       39.518791     39.569652   0.000000   0.000000
 
  0.1500000E+00  0.5000000E-01  0.5000000E-01  0.6000000E-02
    1        0.771624      0.732988   1.000000   1.000000
    2        6.478361      7.190450   1.000000   1.000000
    3        6.748453      7.484843   1.000000   1.000000
    4        6.762512      7.492772   1.000000   1.000000
    5        7.640370      8.259213   1.000000   1.000002
    6        7.762318      8.391576   1.000000   1.000107
    7       29.930619     29.940654   0.000000   0.000000
    8       32.225722     32.212995   0.000000   0.000000
    9       34.852702     34.807651   0.000000   0.000000
   10       36.583705     36.585986   0.000000   0.000000
   11       39.249410     39.205412   0.000000   0.000000
   12       39.722396     39.759903   0.000000   0.000000
 
  0.2500000E+00  0.5000000E-01  0.5000000E-01  0.6000000E-02
    1        1.946393      1.920636   1.000000   1.000000
    2        6.303201      6.968261   1.000000   1.000000
    3        6.852419      7.551713   1.000000   1.000000
    4        6.880194      7.592932   1.000000   1.000000
    5        7.629598      8.274931   1.000000   1.000003
    6        7.875161      8.537887   1.000000   1.003372
    7       24.880992     24.980353   0.000000   0.000000
    8       31.152306     31.150412   0.000000   0.000000
    9       34.287082     34.238517   0.000000   0.000000
   10       35.975623     36.036771   0.000000   0.000000
   11       38.879632     38.837234   0.000000   0.000000
   12       39.190013     39.211868   0.000000   0.000000
 
  0.3500000E+00  0.5000000E-01  0.5000000E-01  0.6000000E-02
    1        3.415163      3.487051   1.000000   1.000000
    2        6.455756      6.974454   1.000000   1.000000
    3        6.777695      7.431176   1.000000   1.000000
    4        6.822183      7.480237   1.000000   1.000000
    5        7.893042      8.602652   1.000000   1.010278
    6        8.192482      8.896286   1.000000   0.842221
    7       20.076217     20.250393   0.000000   0.000000
    8       30.546219     30.532710   0.000000   0.000000
    9       33.166628     33.133387   0.000000   0.000000
   10       35.127879     35.233204   0.000000   0.000000
   11       36.968143     36.982839   0.000000   0.000000
   12       38.719999     38.721059   0.000000   0.000000
 
  0.4500000E+00  0.5000000E-01  0.5000000E-01  0.6000000E-02
    1        4.237029      4.574330   1.000000   1.000000
    2        6.652632      7.275474   1.000000   1.000000
    3        6.712891      7.346599   1.000000   1.000000
    4        7.484407      7.756174   1.000000   1.000000
    5        8.226936      8.972271   1.000001   0.560278
    6        8.720610      9.330348   1.033991  -0.017729
    7       16.078798     16.371277   0.000000   0.000000
    8       30.348643     30.287172   0.000000   0.000000
    9       32.381990     32.391014   0.000000   0.000000
   10       33.609566     33.697492   0.000000   0.000000
   11       36.530216     36.560807   0.000000   0.000000
   12       37.863753     37.881701   0.000000   0.000000
 
 -0.4500000E+00  0.5000000E-01  0.5000000E-01  0.6000000E-02
    1        4.357217      4.777868   1.000000   1.000000
    2        6.607279      7.222147   1.000000   1.000000
    3        6.681594      7.312287   1.000000   1.000000
    4        7.881543      8.245344   1.000000   1.000001
    5        8.380903      9.136516   1.000080   0.023935
    6        9.269465      9.612400  -0.031228  -0.000045
    7       14.559520     14.951947   0.000000   0.000000
    8       30.522151     30.407533   0.000000   0.000000
    9       32.389450     32.467050   0.000000   0.000000
   10       32.486534     32.553187   0.000000   0.000000
   11       37.080500     37.117677   0.000000   0.000000
   12       37.192464     37.208492   0.000000   0.000000
 
 -0.3500000E+00  0.5000000E-01  0.5000000E-01  0.6000000E-02
    1        4.073396      4.325195   1.000000   1.000000
    2        6.679591      7.280753   1.000000   1.000000
    3        6.754178      7.398688   1.000000   1.000000
    4        7.061208      7.419870   1.000000   1.000000
    5        8.277935      9.016912   1.000003   0.373185
    6        8.371661      9.038521   1.000061   0.288137
    7       17.270997     17.515479   0.000000   0.000000
    8       30.996397     30.874140   0.000000   0.000000
    9       31.908658     31.988400   0.000000   0.000000
   10       33.607076     33.703304   0.000000   0.000000
   11       37.085092     37.085984   0.000000   0.000000
   12       38.370408     38.398599   0.000000   0.000000
 
 -0.2500000E+00  0.5000000E-01  0.5000000E-01  0.6000000E-02
    1        2.942806      2.961627   1.000000   1.000000
    2        6.316787      6.905872   1.000000   1.000000
    3        6.816800      7.479156   1.000000   1.000000
    4        6.860834      7.539064   1.000000   1.000000
    5        7.851908      8.539767   1.000000   1.003496
    6        8.010940      8.707143   1.000000   1.031879
    7       21.619333     21.765882   0.000000   0.000000
    8       31.726424     31.624518   0.000000   0.000000
    9       32.122811     32.203134   0.000000   0.000000
   10       35.398741     35.490530   0.000000   0.000000
   11       37.432858     37.410494   0.000000   0.000000
   12       40.280040     40.288295   0.000000   0.000000
 
 -0.1500000E+00  0.5000000E-01  0.5000000E-01  0.6000000E-02
    1        1.493049      1.459720   1.000000   1.000000
    2        6.342693      7.028743   1.000000   1.000000
    3        6.847160      7.566658   1.000000   1.000000
    4        6.854230      7.576755   1.000000   1.000000
    5        7.610144      8.242329   1.000000   1.000001
    6        7.807748      8.451421   1.000000   1.000510
    7       26.579663     26.655482   0.000000   0.000000
    8       32.503203     32.412708   0.000000   0.000000
    9       32.926358     32.994799   0.000000   0.000000
   10       36.651720     36.647902   0.000000   0.000000
   11       38.113632     38.115961   0.000000   0.000000
   12       41.822418     41.845732   0.000000   0.000000
 
 -0.5000000E-01  0.5000000E-01  0.5000000E-01  0.6000000E-02
    1        0.522101      0.482693   1.000000   1.000000
    2        6.526465      7.246642   1.000000   1.000000
    3        6.714412      7.448198   1.000000   1.000000
    4        6.718484      7.451961   1.000000   1.000000
    5        7.657456      8.276914   1.000000   1.000003
    6        7.770069      8.396603   1.000000   1.000123
    7       31.353160     31.293105   0.000000   0.000000
    8       33.547494     33.509730   0.000000   0.000000
    9       34.252203     34.292940   0.000000   0.000000
   10       35.863184     35.834998   0.000000   0.000000
   11       39.594540     39.625562   0.000000   0.000000
   12       41.124543     41.111844   0.000000   0.000000
 
  0.1500000E+00  0.1500000E+00  0.5000000E-01  0.6000000E-02
    1        1.018709      0.980666   1.000000   1.000000
    2        6.364053      7.070522   1.000000   1.000000
    3        6.843286      7.579475   1.000000   1.000000
    4        6.846647      7.583811   1.000000   1.000000
    5        7.518536      8.128743   1.000000   1.000000
    6        7.835581      8.466095   1.000000   1.000724
    7       30.116776     30.127778   0.000000   0.000000
    8       32.291870     32.248789   0.000000   0.000000
    9       32.354602     32.417432   0.000000   0.000000
   10       34.578430     34.536361   0.000000   0.000000
   11       39.795098     39.948301   0.000000   0.000000
   12       41.457175     41.484508   0.000000   0.000000
 
  0.2500000E+00  0.1500000E+00  0.5000000E-01  0.1200000E-01
    1        1.958806      1.928923   1.000000   1.000000
    2        6.150884      6.832403   1.000000   1.000000
    3        6.924122      7.610398   1.000000   1.000000
    4        7.035560      7.774866   1.000000   1.000000
    5        7.466035      8.096967   1.000000   1.000000
    6        7.958007      8.611558   1.000000   1.011720
    7       26.932297     27.007572   0.000000   0.000000
    8       29.114725     29.158073   0.000000   0.000000
    9       32.902363     32.876209   0.000000   0.000000
   10       34.297991     34.274848   0.000000   0.000000
   11       37.899217     38.081239   0.000000   0.000000
   12       41.612919     41.570559   0.000000   0.000000
 
  0.3500000E+00  0.1500000E+00  0.5000000E-01  0.1200000E-01
    1        3.350787      3.377110   1.000000   1.000000
    2        6.053451      6.670402   1.000000   1.000000
    3        6.735931      7.365175   1.000000   1.000000
    4        7.067227      7.751942   1.000000   1.000000
    5        7.846929      8.528117   1.000000   1.002785
    6        8.293572      8.984759   1.000005   0.507608
    7       21.980834     22.117512   0.000000   0.000000
    8       28.329400     28.376629   0.000000   0.000000
    9       31.386327     31.376790   0.000000   0.000000
   10       33.587931     33.656414   0.000000   0.000000
   11       39.677844     39.730861   0.000000   0.000000
   12       40.208793     40.174060   0.000000   0.000000
 
  0.4500000E+00  0.1500000E+00  0.5000000E-01  0.1200000E-01
    1        4.410403      4.678491   1.000000   1.000000
    2        6.395551      6.836486   1.000000   1.000000
    3        6.600625      7.217610   1.000000   1.000000
    4        6.967679      7.614832   1.000000   1.000000
    5        8.262854      8.995183   1.000002   0.463539
    6        9.172496      9.735824  -0.016209  -0.000001
    7       17.589324     17.811382   0.000000   0.000000
    8       28.119089     28.144424   0.000000   0.000000
    9       29.673338     29.724020   0.000000   0.000000
   10       32.768470     32.802727   0.000000   0.000000
   11       39.059530     39.063191   0.000000   0.000000
   12       41.403120     41.385495   0.000000   0.000000
 
 -0.4500000E+00  0.1500000E+00  0.5000000E-01  0.1200000E-01
    1        4.660216      5.103117   1.000000   1.000000
    2        6.382540      6.901644   1.000000   1.000000
    3        6.885439      7.516732   1.000000   1.000000
    4        7.074426      7.565352   1.000000   1.000000
    5        8.353465      9.112417   1.000036   0.067270
    6       10.602177     10.897479  -0.000000  -0.000000
    7       14.690241     15.054798   0.000000   0.000000
    8       27.745009     27.759203   0.000000   0.000000
    9       29.198988     29.277075   0.000000   0.000000
   10       32.646125     32.646706   0.000000   0.000000
   11       38.358830     38.385340   0.000000   0.000000
   12       41.058570     41.040705   0.000000   0.000000
 
 -0.3500000E+00  0.1500000E+00  0.5000000E-01  0.1200000E-01
    1        4.565602      4.921965   1.000000   1.000000
    2        6.453341      6.965652   1.000000   1.000000
    3        6.794775      7.299329   1.000000   1.000000
    4        6.926514      7.550932   1.000000   1.000000
    5        8.173600      8.919371   1.000000   0.767285
    6        9.747755     10.234721  -0.000001  -0.000000
    7       16.362546     16.628808   0.000000   0.000000
    8       27.039876     27.086137   0.000000   0.000000
    9       30.383048     30.422682   0.000000   0.000000
   10       33.365970     33.371195   0.000000   0.000000
   11       37.984295     38.013623   0.000000   0.000000
   12       40.746009     40.729405   0.000000   0.000000
 
 -0.2500000E+00  0.1500000E+00  0.5000000E-01  0.1200000E-01
    1        3.811439      3.890921   1.000000   1.000000
    2        6.177688      6.749027   1.000000   1.000000
    3        6.653154      7.274901   1.000000   1.000000
    4        7.025856      7.681937   1.000000   1.000000
    5        7.780940      8.489003   1.000000   1.001223
    6        8.663481      9.339142   1.022356  -0.015896
    7       20.449851     20.612047   0.000000   0.000000
    8       26.930432     26.990273   0.000000   0.000000
    9       32.225846     32.225672   0.000000   0.000000
   10       34.888244     34.926461   0.000000   0.000000
   11       37.998109     38.000222   0.000000   0.000000
   12       40.023718     40.012556   0.000000   0.000000
 
 -0.1500000E+00  0.1500000E+00  0.5000000E-01  0.1200000E-01
    1        2.397949      2.376975   1.000000   1.000000
    2        6.145338      6.813705   1.000000   1.000000
    3        6.844309      7.509024   1.000000   1.000000
    4        7.063199      7.797014   1.000000   1.000000
    5        7.464106      8.090795   1.000000   1.000000
    6        8.110089      8.788587   1.000000   1.024042
    7       25.242080     25.339784   0.000000   0.000000
    8       27.484056     27.541484   0.000000   0.000000
    9       34.418847     34.382756   0.000000   0.000000
   10       35.832067     35.806243   0.000000   0.000000
   11       38.712979     38.793920   0.000000   0.000000
   12       39.250588     39.263232   0.000000   0.000000
 
 -0.5000000E-01  0.1500000E+00  0.5000000E-01  0.1200000E-01
    1        1.259601      1.223300   1.000000   1.000000
    2        6.347434      7.046064   1.000000   1.000000
    3        6.847445      7.568212   1.000000   1.000000
    4        6.859503      7.598457   1.000000   1.000000
    5        7.541313      8.156514   1.000000   1.000000
    6        7.835923      8.475101   1.000000   1.000893
    7       28.397348     28.447114   0.000000   0.000000
    8       30.640882     30.659435   0.000000   0.000000
    9       34.189750     34.153282   0.000000   0.000000
   10       36.255672     36.204181   0.000000   0.000000
   11       38.855682     38.912896   0.000000   0.000000
   12       40.918802     40.926874   0.000000   0.000000
 
  0.2500000E+00  0.2500000E+00  0.5000000E-01  0.6000000E-02
    1        2.603549      2.585310   1.000000   1.000000
    2        5.891822      6.560094   1.000000   1.000000
    3        7.074311      7.676791   1.000000   1.000000
    4        7.272964      8.022676   1.000000   1.000000
    5        7.431126      8.137621   1.000000   1.000000
    6        8.033637      8.677997   1.000000   1.025710
    7       27.371135     27.440687   0.000000   0.000000
    8       28.785618     28.854996   0.000000   0.000000
    9       30.009789     29.986466   0.000000   0.000000
   10       30.995236     31.016180   0.000000   0.000000
   11       35.029434     35.214366   0.000000   0.000000
   12       45.536442     45.460286   0.000000   0.000000
 
  0.3500000E+00  0.2500000E+00  0.5000000E-01  0.1200000E-01
    1        3.687063      3.725507   1.000000   1.000000
    2        5.678223      6.321370   1.000000   1.000000
    3        6.857853      7.434879   1.000000   1.000000
    4        7.512445      8.241300   1.000000   1.000001
    5        7.881924      8.545918   1.000000   1.003928
    6        8.312748      8.996440   1.000010   0.458236
    7       24.346160     24.441009   0.000000   0.000000
    8       26.331745     26.392539   0.000000   0.000000
    9       28.125750     28.178565   0.000000   0.000000
   10       31.561298     31.599045   0.000000   0.000000
   11       35.246779     35.367633   0.000000   0.000000
   12       45.007803     44.959957   0.000000   0.000000
 
  0.4500000E+00  0.2500000E+00  0.5000000E-01  0.1200000E-01
    1        4.691480      4.910771   1.000000   1.000000
    2        5.676619      6.245142   1.000000   1.000000
    3        6.607539      7.185201   1.000000   1.000000
    4        7.453824      8.127549   1.000000   1.000000
    5        8.317662      9.049498   1.000012   0.247734
    6        9.502715     10.034306  -0.000801  -0.000000
    7       19.764722     19.914189   0.000000   0.000000
    8       25.501786     25.562652   0.000000   0.000000
    9       26.299751     26.382031   0.000000   0.000000
   10       31.643083     31.688563   0.000000   0.000000
   11       38.656605     38.722758   0.000000   0.000000
   12       43.464222     43.450190   0.000000   0.000000
 
 -0.4500000E+00  0.2500000E+00  0.5000000E-01  0.1200000E-01
    1        5.101980      5.564072   1.000000   1.000000
    2        5.861363      6.293614   1.000000   1.000000
    3        6.566659      7.162065   1.000000   1.000000
    4        7.335825      7.979895   1.000000   1.000000
    5        8.368883      9.137384   1.000056   0.022634
    6       11.722699     12.038953  -0.000000  -0.000000
    7       15.904284     16.150294   0.000000   0.000000
    8       23.852335     23.943396   0.000000   0.000000
    9       26.661013     26.730521   0.000000   0.000000
   10       31.788422     31.815092   0.000000   0.000000
   11       41.428177     41.423403   0.000000   0.000000
   12       43.972166     44.024528   0.000000   0.000000
 
 -0.3500000E+00  0.2500000E+00  0.5000000E-01  0.1200000E-01
    1        5.206019      5.667623   1.000000   1.000000
    2        6.005168      6.440352   1.000000   1.000000
    3        6.454789      7.037901   1.000000   1.000000
    4        7.280564      7.906293   1.000000   1.000000
    5        8.138018      8.910598   1.000000   0.797151
    6       11.851238     12.179678  -0.000000  -0.000000
    7       15.917565     16.174988   0.000000   0.000000
    8       22.698726     22.802733   0.000000   0.000000
    9       27.971758     28.038130   0.000000   0.000000
   10       32.497031     32.507524   0.000000   0.000000
   11       40.642056     40.630188   0.000000   0.000000
   12       44.411679     44.373419   0.000000   0.000000
 
 -0.2500000E+00  0.2500000E+00  0.5000000E-01  0.1200000E-01
    1        4.884666      5.082290   1.000000   1.000000
    2        6.024773      6.616673   1.000000   1.000000
    3        6.301773      6.864222   1.000000   1.000000
    4        7.339675      7.944924   1.000000   1.000000
    5        7.723014      8.493043   1.000000   1.001337
    6        9.913982     10.472550  -0.000000  -0.000000
    7       19.766474     19.935596   0.000000   0.000000
    8       22.317905     22.425473   0.000000   0.000000
    9       29.919666     29.971987   0.000000   0.000000
   10       33.980230     33.991026   0.000000   0.000000
   11       39.392314     39.348244   0.000000   0.000000
   12       43.230866     43.224727   0.000000   0.000000
 
 -0.1500000E+00  0.2500000E+00  0.5000000E-01  0.1200000E-01
    1        3.740314      3.777878   1.000000   1.000000
    2        6.010640      6.644589   1.000000   1.000000
    3        6.632583      7.243005   1.000000   1.000000
    4        7.247048      7.899533   1.000000   1.000000
    5        7.506079      8.216596   1.000000   1.000000
    6        8.737557      9.414462   1.035396  -0.004964
    7       22.349281     22.484235   0.000000   0.000000
    8       24.665076     24.750212   0.000000   0.000000
    9       32.253075     32.272105   0.000000   0.000000
   10       35.881954     35.903842   0.000000   0.000000
   11       37.603873     37.562105   0.000000   0.000000
   12       41.025356     41.064186   0.000000   0.000000
 
 -0.5000000E-01  0.2500000E+00  0.5000000E-01  0.1200000E-01
    1        2.587285      2.578060   1.000000   1.000000
    2        6.204479      6.846401   1.000000   1.000000
    3        6.838213      7.503912   1.000000   1.000000
    4        6.948391      7.644065   1.000000   1.000000
    5        7.652662      8.320518   1.000000   1.000013
    6        8.055922      8.738654   1.000000   1.035425
    7       23.353766     23.473665   0.000000   0.000000
    8       29.698963     29.727488   0.000000   0.000000
    9       33.265846     33.228152   0.000000   0.000000
   10       35.905111     35.977220   0.000000   0.000000
   11       37.975426     37.953977   0.000000   0.000000
   12       39.717820     39.728516   0.000000   0.000000
 
  0.3500000E+00  0.3500000E+00  0.5000000E-01  0.6000000E-02
    1        4.184823      4.324338   1.000000   1.000000
    2        5.391766      6.022287   1.000000   1.000000
    3        7.430186      7.898841   1.000000   1.000000
    4        7.833781      8.593022   1.000000   1.008862
    5        8.186438      8.846279   1.000000   0.960357
    6        8.261025      8.934718   1.000002   0.711390
    7       24.672663     24.738132   0.000000   0.000000
    8       25.137707     25.220516   0.000000   0.000000
    9       25.907020     25.954074   0.000000   0.000000
   10       29.498513     29.578398   0.000000   0.000000
   11       32.935630     33.063528   0.000000   0.000000
   12       49.734254     49.843890   0.000000   0.000000
 
  0.4500000E+00  0.3500000E+00  0.5000000E-01  0.1200000E-01
    1        4.631168      4.907997   1.000000   1.000000
    2        5.261485      5.874265   1.000000   1.000000
    3        7.382658      7.945519   1.000000   1.000000
    4        8.040210      8.742848   1.000000   1.035452
    5        8.328839      9.060530   1.000017   0.209467
    6        9.668272     10.095807  -0.000008  -0.000000
    7       22.169996     22.270046   0.000000   0.000000
    8       22.620330     22.729288   0.000000   0.000000
    9       24.351418     24.404364   0.000000   0.000000
   10       30.464311     30.533054   0.000000   0.000000
   11       34.020981     34.126968   0.000000   0.000000
   12       48.048551     48.020311   0.000000   0.000000
 
 -0.4500000E+00  0.3500000E+00  0.5000000E-01  0.1200000E-01
    1        5.002508      5.392020   1.000000   1.000000
    2        5.352129      5.920615   1.000000   1.000000
    3        7.035447      7.625505   1.000000   1.000000
    4        7.886778      8.539337   1.000000   1.003467
    5        8.409564      9.200846   1.000175  -0.031041
    6       12.181411     12.456168  -0.000000  -0.000000
    7       18.323074     18.460600   0.000000   0.000000
    8       20.502442     20.656388   0.000000   0.000000
    9       24.632548     24.686229   0.000000   0.000000
   10       30.957023     31.017702   0.000000   0.000000
   11       37.966808     38.041459   0.000000   0.000000
   12       46.196045     46.166786   0.000000   0.000000
 
 -0.3500000E+00  0.3500000E+00  0.5000000E-01  0.1200000E-01
    1        5.366414      5.863565   1.000000   1.000000
    2        5.570740      6.033898   1.000000   1.000000
    3        6.586768      7.183322   1.000000   1.000000
    4        7.709456      8.322962   1.000000   1.000014
    5        8.215185      9.025679   1.000000   0.337923
    6       14.532994     14.742955   0.000000   0.000000
    7       15.512851     15.723345   0.000000   0.000000
    8       19.389355     19.559029   0.000000   0.000000
    9       25.847651     25.912182   0.000000   0.000000
   10       31.500810     31.540000   0.000000   0.000000
   11       42.990267     43.043059   0.000000   0.000000
   12       44.343314     44.304086   0.000000   0.000000
 
 -0.2500000E+00  0.3500000E+00  0.5000000E-01  0.1200000E-01
    1        5.437430      5.856231   1.000000   1.000000
    2        5.905619      6.369093   1.000000   1.000000
    3        6.215694      6.814043   1.000000   1.000000
    4        7.470569      8.074538   1.000000   1.000000
    5        7.983299      8.778181   1.000000   1.028945
    6       11.905445     12.266939  -0.000000  -0.000000
    7       17.465094     17.661299   0.000000   0.000000
    8       20.543951     20.678333   0.000000   0.000000
    9       27.752864     27.821052   0.000000   0.000000
   10       32.485853     32.502435   0.000000   0.000000
   11       41.658868     41.615169   0.000000   0.000000
   12       45.581004     45.530075   0.000000   0.000000
 
 -0.1500000E+00  0.3500000E+00  0.5000000E-01  0.1200000E-01
    1        4.738611      5.019264   1.000000   1.000000
    2        6.300889      6.752015   1.000000   1.000000
    3        6.383180      7.007698   1.000000   1.000000
    4        7.120004      7.750062   1.000000   1.000000
    5        7.955156      8.701290   1.000000   1.030770
    6        9.865229     10.401188  -0.000000  -0.000000
    7       17.947664     18.155119   0.000000   0.000000
    8       24.573544     24.656233   0.000000   0.000000
    9       30.070270     30.117245   0.000000   0.000000
   10       33.766413     33.770747   0.000000   0.000000
   11       38.732828     38.733545   0.000000   0.000000
   12       42.078295     42.054639   0.000000   0.000000
 
 -0.5000000E-01  0.3500000E+00  0.5000000E-01  0.1200000E-01
    1        3.930198      4.087656   1.000000   1.000000
    2        6.532751      6.987060   1.000000   1.000000
    3        6.675886      7.314842   1.000000   1.000000
    4        6.859439      7.509554   1.000000   1.000000
    5        8.050668      8.765282   1.000000   1.032936
    6        8.518675      9.196141   1.002302  -0.029412
    7       18.735661     18.935703   0.000000   0.000000
    8       29.298109     29.313075   0.000000   0.000000
    9       32.041181     32.020751   0.000000   0.000000
   10       33.971075     34.055284   0.000000   0.000000
   11       37.723838     37.727072   0.000000   0.000000
   12       39.462766     39.465201   0.000000   0.000000
 
  0.4500000E+00  0.4500000E+00  0.5000000E-01  0.6000000E-02
    1        4.542736      4.881943   1.000000   1.000000
    2        5.047256      5.653494   1.000000   1.000000
    3        8.207707      8.940060   1.000000   0.690973
    4        8.289076      8.979153   1.000005   0.531304
    5        8.434755      9.217658   1.000337  -0.034647
    6       10.324646     10.470015  -0.000000  -0.000000
    7       19.839226     20.020631   0.000000   0.000000
    8       23.278654     23.316074   0.000000   0.000000
    9       24.094914     24.111336   0.000000   0.000000
   10       28.940525     29.054838   0.000000   0.000000
   11       32.259153     32.381935   0.000000   0.000000
   12       52.002422     51.978455   0.000000   0.000000
 
 -0.4500000E+00  0.4500000E+00  0.5000000E-01  0.1200000E-01
    1        4.661235      5.034081   1.000000   1.000000
    2        5.055335      5.654227   1.000000   1.000000
    3        7.913442      8.595515   1.000000   1.009215
    4        8.287475      8.933830   1.000004   0.714741
    5        8.480576      9.310550   1.001012  -0.022145
    6       12.087615     12.205685  -0.000000  -0.000000
    7       18.313977     18.545158   0.000000   0.000000
    8       21.484644     21.550988   0.000000   0.000000
    9       23.310152     23.341132   0.000000   0.000000
   10       30.058688     30.144235   0.000000   0.000000
   11       33.629710     33.738719   0.000000   0.000000
   12       50.281007     50.234878   0.000000   0.000000
 
 -0.3500000E+00  0.4500000E+00  0.5000000E-01  0.1200000E-01
    1        4.986113      5.389852   1.000000   1.000000
    2        5.285000      5.859004   1.000000   1.000000
    3        7.192270      7.806371   1.000000   1.000000
    4        8.016567      8.646935   1.000000   1.018630
    5        8.387618      9.208865   1.000096  -0.033166
    6       13.524683     13.710304  -0.000000  -0.000000
    7       17.848650     17.992963   0.000000   0.000000
    8       18.839354     19.030470   0.000000   0.000000
    9       24.315244     24.364103   0.000000   0.000000
   10       30.836818     30.902402   0.000000   0.000000
   11       37.836610     37.914140   0.000000   0.000000
   12       47.175484     47.126790   0.000000   0.000000
 
 -0.2500000E+00  0.4500000E+00  0.5000000E-01  0.1200000E-01
    1        5.288474      5.796818   1.000000   1.000000
    2        5.664953      6.096545   1.000000   1.000000
    3        6.573479      7.168769   1.000000   1.000000
    4        7.546535      8.180738   1.000000   1.000000
    5        8.302563      9.088753   1.000007   0.123930
    6       13.341207     13.577356  -0.000000  -0.000000
    7       15.431926     15.678819   0.000000   0.000000
    8       21.350975     21.479370   0.000000   0.000000
    9       26.116631     26.182649   0.000000   0.000000
   10       31.588990     31.623190   0.000000   0.000000
   11       42.494179     42.501127   0.000000   0.000000
   12       43.976076     44.006449   0.000000   0.000000
 
 -0.1500000E+00  0.4500000E+00  0.5000000E-01  0.1200000E-01
    1        4.925231      5.390141   1.000000   1.000000
    2        6.182183      6.642073   1.000000   1.000000
    3        6.756447      7.305477   1.000000   1.000000
    4        7.066673      7.699587   1.000000   1.000000
    5        8.280237      9.044088   1.000004   0.267374
    6       11.491634     11.770008  -0.000000  -0.000000
    7       14.848004     15.185745   0.000000   0.000000
    8       25.217399     25.286940   0.000000   0.000000
    9       28.419544     28.484723   0.000000   0.000000
   10       32.541213     32.543113   0.000000   0.000000
   11       39.431235     39.443221   0.000000   0.000000
   12       42.866523     42.838626   0.000000   0.000000
 
 -0.5000000E-01  0.4500000E+00  0.5000000E-01  0.1200000E-01
    1        4.430010      4.831072   1.000000   1.000000
    2        6.549080      7.132986   1.000000   1.000000