 vasp.5.4.4.18Apr17-6-g9f103f2a35 (build Jul 01 2019 03:25:34) complex          
  
 executed on             LinuxIFC date 2020.07.09  19:35:39
 running on    4 total cores
 distrk:  each k-point on    4 cores,    1 groups
 distr:  one band on NCORES_PER_BAND=   1 cores,    4 groups


--------------------------------------------------------------------------------------------------------


 INCAR:
 POTCAR:    PAW_PBE Ni 02Aug2007                  
 POTCAR:    PAW_PBE Ni 02Aug2007                  
   VRHFIN =Ni:                                                                  
   LEXCH  = PE                                                                  
   EATOM  =  1077.6739 eV,   79.2068 Ry                                         
                                                                                
   TITEL  = PAW_PBE Ni 02Aug2007                                                
   LULTRA =        F    use ultrasoft PP ?                                      
   IUNSCR =        1    unscreen: 0-lin 1-nonlin 2-no                           
   RPACOR =    2.000    partial core radius                                     
   POMASS =   58.690; ZVAL   =   10.000    mass and valenz                      
   RCORE  =    2.300    outmost cutoff radius                                   
   RWIGS  =    2.430; RWIGS  =    1.286    wigner-seitz radius (au A)           
   ENMAX  =  269.532; ENMIN  =  202.149 eV                                      
   RCLOC  =    1.201    cutoff for local pot                                    
   LCOR   =        T    correct aug charges                                     
   LPAW   =        T    paw PP                                                  
   EAUG   =  544.565                                                            
   DEXC   =    0.000                                                            
   RMAX   =    2.357    core radius for proj-oper                               
   RAUG   =    1.300    factor for augmentation sphere                          
   RDEP   =    2.390    radius for radial grids                                 
   RDEPT  =    1.838    core radius for aug-charge                              
                                                                                
   Atomic configuration                                                         
    9 entries                                                                   
     n  l   j            E        occ.                                          
     1  0  0.50     -8206.4253   2.0000                                         
     2  0  0.50      -976.1748   2.0000                                         
     2  1  1.50      -839.0571   6.0000                                         
     3  0  0.50      -105.9991   2.0000                                         
     3  1  1.50       -66.4603   6.0000                                         
     3  2  2.50        -4.6458   9.0000                                         
     4  0  0.50        -4.4926   1.0000                                         
     4  1  1.50        -4.0817   0.0000                                         
     4  3  2.50        -1.3606   0.0000                                         
   Description                                                                  
     l       E           TYP  RCUT    TYP  RCUT                                 
     2     -4.6457903     23  2.300                                             
     2     -6.0063729     23  2.300                                             
     0     -4.4925590     23  2.300                                             
     0      5.0102601     23  2.300                                             
     1     -2.7211652     23  2.300                                             
     1     16.5183231     23  2.300                                             
  local pseudopotential read in
  partial core-charges read in
  partial kinetic energy density read in
  atomic valenz-charges read in
  non local Contribution for L=           2  read in
    real space projection operators read in
  non local Contribution for L=           2  read in
    real space projection operators read in
  non local Contribution for L=           0  read in
    real space projection operators read in
  non local Contribution for L=           0  read in
    real space projection operators read in
  non local Contribution for L=           1  read in
    real space projection operators read in
  non local Contribution for L=           1  read in
    real space projection operators read in
    PAW grid and wavefunctions read in
 
   number of l-projection  operators is LMAX  =           6
   number of lm-projection operators is LMMAX =          18
 
  PAW_PBE Ni 02Aug2007                  :
 energy of atom  1       EATOM=-1077.6739
 kinetic energy error for atom=    0.0378 (will be added to EATOM!!)
 
 
 POSCAR: FCC Ni Bulk                             
  positions in direct lattice
  No initial velocities read in
 exchange correlation table for  LEXCH =        8
   RHO(1)=    0.500       N(1)  =     2000
   RHO(2)=  100.500       N(2)  =     4000
 


--------------------------------------------------------------------------------------------------------


 ion  position               nearest neighbor table
   1  0.000  0.000  0.000-
 
  LATTYP: Found a face centered cubic cell.
 ALAT       =     3.5500000000
  
  Lattice vectors:
  
 A1 = (   0.0000000000,   1.7750000000,   1.7750000000)
 A2 = (   1.7750000000,   0.0000000000,   1.7750000000)
 A3 = (   1.7750000000,   1.7750000000,   0.0000000000)


Analysis of symmetry for initial positions (statically):
=====================================================================
 Subroutine PRICEL returns:
 Original cell was already a primitive cell.
 

 Routine SETGRP: Setting up the symmetry group for a 
 face centered cubic supercell.


 Subroutine GETGRP returns: Found 48 space group operations
 (whereof 48 operations were pure point group operations)
 out of a pool of 48 trial point group operations.


The static configuration has the point symmetry O_h .


Analysis of symmetry for dynamics (positions and initial velocities):
=====================================================================
 Subroutine PRICEL returns:
 Original cell was already a primitive cell.
 

 Routine SETGRP: Setting up the symmetry group for a 
 face centered cubic supercell.


 Subroutine GETGRP returns: Found 48 space group operations
 (whereof 48 operations were pure point group operations)
 out of a pool of 48 trial point group operations.


The dynamic configuration has the point symmetry O_h .


Analysis of structural, dynamic, and magnetic symmetry:
=====================================================================
 Subroutine PRICEL returns:
 Original cell was already a primitive cell.
 

 Routine SETGRP: Setting up the symmetry group for a 
 face centered cubic supercell.


 Subroutine GETGRP returns: Found 48 space group operations
 (whereof 48 operations were pure point group operations)
 out of a pool of 48 trial point group operations.


The magnetic configuration has the point symmetry O_h .


 Subroutine INISYM returns: Found 48 space group operations
 (whereof 48 operations are pure point group operations),
 and found     1 'primitive' translations

 
 
 KPOINTS: 10x10x10                                

Automatic generation of k-mesh.
Space group operators:
 irot       det(A)        alpha          n_x          n_y          n_z        tau_x        tau_y        tau_z
    1     1.000000     0.000000     1.000000     0.000000     0.000000     0.000000     0.000000     0.000000
    2    -1.000000     0.000000     1.000000     0.000000     0.000000     0.000000     0.000000     0.000000
    3     1.000000   120.000000    -0.577350    -0.577350    -0.577350     0.000000     0.000000     0.000000
    4    -1.000000   120.000000    -0.577350    -0.577350    -0.577350     0.000000     0.000000     0.000000
    5     1.000000   120.000000     0.577350     0.577350     0.577350     0.000000     0.000000     0.000000
    6    -1.000000   120.000000     0.577350     0.577350     0.577350     0.000000     0.000000     0.000000
    7     1.000000    90.000000     0.000000     0.000000    -1.000000     0.000000     0.000000     0.000000
    8    -1.000000    90.000000     0.000000     0.000000    -1.000000     0.000000     0.000000     0.000000
    9     1.000000   180.000000     0.000000     0.707107     0.707107     0.000000     0.000000     0.000000
   10    -1.000000   180.000000     0.000000     0.707107     0.707107     0.000000     0.000000     0.000000
   11     1.000000    90.000000     0.000000     1.000000     0.000000     0.000000     0.000000     0.000000
   12    -1.000000    90.000000     0.000000     1.000000     0.000000     0.000000     0.000000     0.000000
   13     1.000000   180.000000     0.000000     0.000000     1.000000     0.000000     0.000000     0.000000
   14    -1.000000   180.000000     0.000000     0.000000     1.000000     0.000000     0.000000     0.000000
   15     1.000000   120.000000    -0.577350     0.577350     0.577350     0.000000     0.000000     0.000000
   16    -1.000000   120.000000    -0.577350     0.577350     0.577350     0.000000     0.000000     0.000000
   17     1.000000   120.000000    -0.577350     0.577350    -0.577350     0.000000     0.000000     0.000000
   18    -1.000000   120.000000    -0.577350     0.577350    -0.577350     0.000000     0.000000     0.000000
   19     1.000000    90.000000     0.000000     0.000000     1.000000     0.000000     0.000000     0.000000
   20    -1.000000    90.000000     0.000000     0.000000     1.000000     0.000000     0.000000     0.000000
   21     1.000000    90.000000    -1.000000     0.000000     0.000000     0.000000     0.000000     0.000000
   22    -1.000000    90.000000    -1.000000     0.000000     0.000000     0.000000     0.000000     0.000000
   23     1.000000   180.000000     0.707107     0.000000     0.707107     0.000000     0.000000     0.000000
   24    -1.000000   180.000000     0.707107     0.000000     0.707107     0.000000     0.000000     0.000000
   25     1.000000   120.000000     0.577350    -0.577350     0.577350     0.000000     0.000000     0.000000
   26    -1.000000   120.000000     0.577350    -0.577350     0.577350     0.000000     0.000000     0.000000
   27     1.000000   120.000000    -0.577350    -0.577350     0.577350     0.000000     0.000000     0.000000
   28    -1.000000   120.000000    -0.577350    -0.577350     0.577350     0.000000     0.000000     0.000000
   29     1.000000   180.000000     1.000000     0.000000     0.000000     0.000000     0.000000     0.000000
   30    -1.000000   180.000000     1.000000     0.000000     0.000000     0.000000     0.000000     0.000000
   31     1.000000    90.000000     0.000000    -1.000000     0.000000     0.000000     0.000000     0.000000
   32    -1.000000    90.000000     0.000000    -1.000000     0.000000     0.000000     0.000000     0.000000
   33     1.000000   180.000000     0.707107     0.707107     0.000000     0.000000     0.000000     0.000000
   34    -1.000000   180.000000     0.707107     0.707107     0.000000     0.000000     0.000000     0.000000
   35     1.000000    90.000000     1.000000     0.000000     0.000000     0.000000     0.000000     0.000000
   36    -1.000000    90.000000     1.000000     0.000000     0.000000     0.000000     0.000000     0.000000
   37     1.000000   120.000000     0.577350    -0.577350    -0.577350     0.000000     0.000000     0.000000
   38    -1.000000   120.000000     0.577350    -0.577350    -0.577350     0.000000     0.000000     0.000000
   39     1.000000   180.000000     0.000000     1.000000     0.000000     0.000000     0.000000     0.000000
   40    -1.000000   180.000000     0.000000     1.000000     0.000000     0.000000     0.000000     0.000000
   41     1.000000   120.000000     0.577350     0.577350    -0.577350     0.000000     0.000000     0.000000
   42    -1.000000   120.000000     0.577350     0.577350    -0.577350     0.000000     0.000000     0.000000
   43     1.000000   180.000000     0.000000    -0.707107     0.707107     0.000000     0.000000     0.000000
   44    -1.000000   180.000000     0.000000    -0.707107     0.707107     0.000000     0.000000     0.000000
   45     1.000000   180.000000     0.707107    -0.707107     0.000000     0.000000     0.000000     0.000000
   46    -1.000000   180.000000     0.707107    -0.707107     0.000000     0.000000     0.000000     0.000000
   47     1.000000   180.000000     0.707107     0.000000    -0.707107     0.000000     0.000000     0.000000
   48    -1.000000   180.000000     0.707107     0.000000    -0.707107     0.000000     0.000000     0.000000
 
 Subroutine IBZKPT returns following result:
 ===========================================
 
 Found    110 irreducible k-points:
 
 Following reciprocal coordinates:
            Coordinates               Weight
  0.050000  0.050000  0.050000     96.000000
  0.150000  0.050000  0.050000    288.000000
  0.250000  0.050000  0.050000    288.000000
  0.350000  0.050000  0.050000    288.000000
  0.450000  0.050000  0.050000    288.000000
 -0.450000  0.050000  0.050000    288.000000
 -0.350000  0.050000  0.050000    288.000000
 -0.250000  0.050000  0.050000    288.000000
 -0.150000  0.050000  0.050000    288.000000
 -0.050000  0.050000  0.050000    288.000000
  0.150000  0.150000  0.050000    288.000000
  0.250000  0.150000  0.050000    576.000000
  0.350000  0.150000  0.050000    576.000000
  0.450000  0.150000  0.050000    576.000000
 -0.450000  0.150000  0.050000    576.000000
 -0.350000  0.150000  0.050000    576.000000
 -0.250000  0.150000  0.050000    576.000000
 -0.150000  0.150000  0.050000    576.000000
 -0.050000  0.150000  0.050000    576.000000
  0.250000  0.250000  0.050000    288.000000
  0.350000  0.250000  0.050000    576.000000
  0.450000  0.250000  0.050000    576.000000
 -0.450000  0.250000  0.050000    576.000000
 -0.350000  0.250000  0.050000    576.000000
 -0.250000  0.250000  0.050000    576.000000
 -0.150000  0.250000  0.050000    576.000000
 -0.050000  0.250000  0.050000    576.000000
  0.350000  0.350000  0.050000    288.000000
  0.450000  0.350000  0.050000    576.000000
 -0.450000  0.350000  0.050000    576.000000
 -0.350000  0.350000  0.050000    576.000000
 -0.250000  0.350000  0.050000    576.000000
 -0.150000  0.350000  0.050000    576.000000
 -0.050000  0.350000  0.050000    576.000000
  0.450000  0.450000  0.050000    288.000000
 -0.450000  0.450000  0.050000    576.000000
 -0.350000  0.450000  0.050000    576.000000
 -0.250000  0.450000  0.050000    576.000000
 -0.150000  0.450000  0.050000    576.000000
 -0.050000  0.450000  0.050000    576.000000
 -0.450000 -0.450000  0.050000    288.000000
 -0.350000 -0.450000  0.050000    576.000000
 -0.250000 -0.450000  0.050000    576.000000
 -0.150000 -0.450000  0.050000    576.000000
 -0.350000 -0.350000  0.050000    288.000000
 -0.250000 -0.350000  0.050000    576.000000
 -0.150000 -0.350000  0.050000    576.000000
 -0.250000 -0.250000  0.050000    288.000000
 -0.150000 -0.250000  0.050000    576.000000
 -0.150000 -0.150000  0.050000    288.000000
  0.150000  0.150000  0.150000     96.000000
  0.250000  0.150000  0.150000    288.000000
  0.350000  0.150000  0.150000    288.000000
  0.450000  0.150000  0.150000    288.000000
 -0.450000  0.150000  0.150000    288.000000
 -0.350000  0.150000  0.150000    288.000000
 -0.250000  0.150000  0.150000    288.000000
 -0.150000  0.150000  0.150000    288.000000
  0.250000  0.250000  0.150000    288.000000
  0.350000  0.250000  0.150000    576.000000
  0.450000  0.250000  0.150000    576.000000
 -0.450000  0.250000  0.150000    576.000000
 -0.350000  0.250000  0.150000    576.000000
 -0.250000  0.250000  0.150000    576.000000
 -0.150000  0.250000  0.150000    576.000000
  0.350000  0.350000  0.150000    288.000000
  0.450000  0.350000  0.150000    576.000000
 -0.450000  0.350000  0.150000    576.000000
 -0.350000  0.350000  0.150000    576.000000
 -0.250000  0.350000  0.150000    576.000000
 -0.150000  0.350000  0.150000    576.000000
  0.450000  0.450000  0.150000    288.000000
 -0.450000  0.450000  0.150000    576.000000
 -0.350000  0.450000  0.150000    576.000000
 -0.250000  0.450000  0.150000    576.000000
 -0.150000  0.450000  0.150000    576.000000
 -0.450000 -0.450000  0.150000    288.000000
 -0.350000 -0.450000  0.150000    576.000000
 -0.250000 -0.450000  0.150000    576.000000
 -0.350000 -0.350000  0.150000    288.000000
 -0.250000 -0.350000  0.150000    576.000000
 -0.250000 -0.250000  0.150000    288.000000
  0.250000  0.250000  0.250000     96.000000
  0.350000  0.250000  0.250000    288.000000
  0.450000  0.250000  0.250000    288.000000
 -0.450000  0.250000  0.250000    288.000000
 -0.350000  0.250000  0.250000    288.000000
 -0.250000  0.250000  0.250000    288.000000
  0.350000  0.350000  0.250000    288.000000
  0.450000  0.350000  0.250000    576.000000
 -0.450000  0.350000  0.250000    576.000000
 -0.350000  0.350000  0.250000    576.000000
 -0.250000  0.350000  0.250000    576.000000
  0.450000  0.450000  0.250000    288.000000
 -0.450000  0.450000  0.250000    576.000000
 -0.350000  0.450000  0.250000    576.000000
 -0.250000  0.450000  0.250000    576.000000
 -0.450000 -0.450000  0.250000    288.000000
 -0.350000 -0.450000  0.250000    576.000000
 -0.350000 -0.350000  0.250000    288.000000
  0.350000  0.350000  0.350000     96.000000
  0.450000  0.350000  0.350000    288.000000
 -0.450000  0.350000  0.350000    288.000000
 -0.350000  0.350000  0.350000    288.000000
  0.450000  0.450000  0.350000    288.000000
 -0.450000  0.450000  0.350000    576.000000
 -0.350000  0.450000  0.350000    576.000000
 -0.450000 -0.450000  0.350000    288.000000
  0.450000  0.450000  0.450000     96.000000
 -0.450000  0.450000  0.450000    288.000000
 
 Following cartesian coordinates:
            Coordinates               Weight
  0.050000  0.050000  0.050000     96.000000
 -0.050000  0.150000  0.150000    288.000000
 -0.150000  0.250000  0.250000    288.000000
 -0.250000  0.350000  0.350000    288.000000
 -0.350000  0.450000  0.450000    288.000000
  0.550000 -0.450000 -0.450000    288.000000
  0.450000 -0.350000 -0.350000    288.000000
  0.350000 -0.250000 -0.250000    288.000000
  0.250000 -0.150000 -0.150000    288.000000
  0.150000 -0.050000 -0.050000    288.000000
  0.050000  0.050000  0.250000    288.000000
 -0.050000  0.150000  0.350000    576.000000
 -0.150000  0.250000  0.450000    576.000000
 -0.250000  0.350000  0.550000    576.000000
  0.650000 -0.550000 -0.350000    576.000000
  0.550000 -0.450000 -0.250000    576.000000
  0.450000 -0.350000 -0.150000    576.000000
  0.350000 -0.250000 -0.050000    576.000000
  0.250000 -0.150000  0.050000    576.000000
  0.050000  0.050000  0.450000    288.000000
 -0.050000  0.150000  0.550000    576.000000
 -0.150000  0.250000  0.650000    576.000000
  0.750000 -0.650000 -0.250000    576.000000
  0.650000 -0.550000 -0.150000    576.000000
  0.550000 -0.450000 -0.050000    576.000000
  0.450000 -0.350000  0.050000    576.000000
  0.350000 -0.250000  0.150000    576.000000
  0.050000  0.050000  0.650000    288.000000
 -0.050000  0.150000  0.750000    576.000000
  0.850000 -0.750000 -0.150000    576.000000
  0.750000 -0.650000 -0.050000    576.000000
  0.650000 -0.550000  0.050000    576.000000
  0.550000 -0.450000  0.150000    576.000000
  0.450000 -0.350000  0.250000    576.000000
  0.050000  0.050000  0.850000    288.000000
  0.950000 -0.850000 -0.050000    576.000000
  0.850000 -0.750000  0.050000    576.000000
  0.750000 -0.650000  0.150000    576.000000
  0.650000 -0.550000  0.250000    576.000000
  0.550000 -0.450000  0.350000    576.000000
  0.050000  0.050000 -0.950000    288.000000
 -0.050000  0.150000 -0.850000    576.000000
 -0.150000  0.250000 -0.750000    576.000000
 -0.250000  0.350000 -0.650000    576.000000
  0.050000  0.050000 -0.750000    288.000000
 -0.050000  0.150000 -0.650000    576.000000
 -0.150000  0.250000 -0.550000    576.000000
  0.050000  0.050000 -0.550000    288.000000
 -0.050000  0.150000 -0.450000    576.000000
  0.050000  0.050000 -0.350000    288.000000
  0.150000  0.150000  0.150000     96.000000
  0.050000  0.250000  0.250000    288.000000
 -0.050000  0.350000  0.350000    288.000000
 -0.150000  0.450000  0.450000    288.000000
  0.750000 -0.450000 -0.450000    288.000000
  0.650000 -0.350000 -0.350000    288.000000
  0.550000 -0.250000 -0.250000    288.000000
  0.450000 -0.150000 -0.150000    288.000000
  0.150000  0.150000  0.350000    288.000000
  0.050000  0.250000  0.450000    576.000000
 -0.050000  0.350000  0.550000    576.000000
  0.850000 -0.550000 -0.350000    576.000000
  0.750000 -0.450000 -0.250000    576.000000
  0.650000 -0.350000 -0.150000    576.000000
  0.550000 -0.250000 -0.050000    576.000000
  0.150000  0.150000  0.550000    288.000000
  0.050000  0.250000  0.650000    576.000000
  0.950000 -0.650000 -0.250000    576.000000
  0.850000 -0.550000 -0.150000    576.000000
  0.750000 -0.450000 -0.050000    576.000000
  0.650000 -0.350000  0.050000    576.000000
  0.150000  0.150000  0.750000    288.000000
  1.050000 -0.750000 -0.150000    576.000000
  0.950000 -0.650000 -0.050000    576.000000
  0.850000 -0.550000  0.050000    576.000000
  0.750000 -0.450000  0.150000    576.000000
  0.150000  0.150000 -1.050000    288.000000
  0.050000  0.250000 -0.950000    576.000000
 -0.050000  0.350000 -0.850000    576.000000
  0.150000  0.150000 -0.850000    288.000000
  0.050000  0.250000 -0.750000    576.000000
  0.150000  0.150000 -0.650000    288.000000
  0.250000  0.250000  0.250000     96.000000
  0.150000  0.350000  0.350000    288.000000
  0.050000  0.450000  0.450000    288.000000
  0.950000 -0.450000 -0.450000    288.000000
  0.850000 -0.350000 -0.350000    288.000000
  0.750000 -0.250000 -0.250000    288.000000
  0.250000  0.250000  0.450000    288.000000
  0.150000  0.350000  0.550000    576.000000
  1.050000 -0.550000 -0.350000    576.000000
  0.950000 -0.450000 -0.250000    576.000000
  0.850000 -0.350000 -0.150000    576.000000
  0.250000  0.250000  0.650000    288.000000
  1.150000 -0.650000 -0.250000    576.000000
  1.050000 -0.550000 -0.150000    576.000000
  0.950000 -0.450000 -0.050000    576.000000
  0.250000  0.250000 -1.150000    288.000000
  0.150000  0.350000 -1.050000    576.000000
  0.250000  0.250000 -0.950000    288.000000
  0.350000  0.350000  0.350000     96.000000
  0.250000  0.450000  0.450000    288.000000
  1.150000 -0.450000 -0.450000    288.000000
  1.050000 -0.350000 -0.350000    288.000000
  0.350000  0.350000  0.550000    288.000000
  1.250000 -0.550000 -0.350000    576.000000
  1.150000 -0.450000 -0.250000    576.000000
  0.350000  0.350000 -1.250000    288.000000
  0.450000  0.450000  0.450000     96.000000
  1.350000 -0.450000 -0.450000    288.000000
 


--------------------------------------------------------------------------------------------------------




 Dimension of arrays:
   k-points           NKPTS =    110   k-points in BZ     NKDIM =    110   number of bands    NBANDS=     12
   number of dos      NEDOS =    301   number of ions     NIONS =      1
   non local maximal  LDIM  =      6   non local SUM 2l+1 LMDIM =     18
   total plane-waves  NPLWV =   1000
   max r-space proj   IRMAX =      1   max aug-charges    IRDMAX=   3097
   dimension x,y,z NGX =    10 NGY =   10 NGZ =   10
   dimension x,y,z NGXF=    20 NGYF=   20 NGZF=   20
   support grid    NGXF=    20 NGYF=   20 NGZF=   20
   ions per type =               1
   NGX,Y,Z   is equivalent  to a cutoff of   6.62,  6.62,  6.62 a.u.
   NGXF,Y,Z  is equivalent  to a cutoff of  13.25, 13.25, 13.25 a.u.

 SYSTEM =  fcc Ni                                  
 POSCAR =  FCC Ni Bulk                             

 Startparameter for this run:
   NWRITE =      2    write-flag & timer
   PREC   = normal    normal or accurate (medium, high low for compatibility)
   ISTART =      0    job   : 0-new  1-cont  2-samecut
   ICHARG =      2    charge: 1-file 2-atom 10-const
   ISPIN  =      2    spin polarized calculation?
   LNONCOLLINEAR =      F non collinear calculations
   LSORBIT =      F    spin-orbit coupling
   INIWAV =      1    electr: 0-lowe 1-rand  2-diag
   LASPH  =      F    aspherical Exc in radial PAW
   METAGGA=      F    non-selfconsistent MetaGGA calc.

 Electronic Relaxation 1
   ENCUT  =  270.0 eV  19.84 Ry    4.45 a.u.   3.36  3.36  3.36*2*pi/ulx,y,z
   ENINI  =  270.0     initial cutoff
   ENAUG  =  544.6 eV  augmentation charge cutoff
   NELM   =     60;   NELMIN=  2; NELMDL= -5     # of ELM steps 
   EDIFF  = 0.1E-03   stopping-criterion for ELM
   LREAL  =      F    real-space projection
   NLSPLINE    = F    spline interpolate recip. space projectors
   LCOMPAT=      F    compatible to vasp.4.4
   GGA_COMPAT  = T    GGA compatible to vasp.4.4-vasp.4.6
   LMAXPAW     = -100 max onsite density
   LMAXMIX     =    2 max onsite mixed and CHGCAR
   VOSKOWN=      0    Vosko Wilk Nusair interpolation
   ROPT   =    0.00000
 Ionic relaxation
   EDIFFG = 0.1E-02   stopping-criterion for IOM
   NSW    =      0    number of steps for IOM
   NBLOCK =      1;   KBLOCK =      1    inner block; outer block 
   IBRION =     -1    ionic relax: 0-MD 1-quasi-New 2-CG
   NFREE  =      0    steps in history (QN), initial steepest desc. (CG)
   ISIF   =      2    stress and relaxation
   IWAVPR =     10    prediction:  0-non 1-charg 2-wave 3-comb
   ISYM   =      2    0-nonsym 1-usesym 2-fastsym
   LCORR  =      T    Harris-Foulkes like correction to forces

   POTIM  = 0.5000    time-step for ionic-motion
   TEIN   =    0.0    initial temperature
   TEBEG  =    0.0;   TEEND  =   0.0 temperature during run
   SMASS  =  -3.00    Nose mass-parameter (am)
   estimated Nose-frequenzy (Omega)   =  0.10E-29 period in steps =****** mass=  -0.144E-27a.u.
   SCALEE = 1.0000    scale energy and forces
   NPACO  =    256;   APACO  = 16.0  distance and # of slots for P.C.
   PSTRESS=    0.0 pullay stress

  Mass of Ions in am
   POMASS =  58.69
  Ionic Valenz
   ZVAL   =  10.00
  Atomic Wigner-Seitz radii
   RWIGS  =  -1.00
  virtual crystal weights 
   VCA    =   1.00
   NELECT =      10.0000    total number of electrons
   NUPDOWN=      -1.0000    fix difference up-down

 DOS related values:
   EMIN   =  10.00;   EMAX   =-10.00  energy-range for DOS
   EFERMI =   0.00
   ISMEAR =     1;   SIGMA  =   0.20  broadening in eV -4-tet -1-fermi 0-gaus

 Electronic relaxation 2 (details)
   IALGO  =     38    algorithm
   LDIAG  =      T    sub-space diagonalisation (order eigenvalues)
   LSUBROT=      F    optimize rotation matrix (better conditioning)
   TURBO    =      0    0=normal 1=particle mesh
   IRESTART =      0    0=no restart 2=restart with 2 vectors
   NREBOOT  =      0    no. of reboots
   NMIN     =      0    reboot dimension
   EREF     =   0.00    reference energy to select bands
   IMIX   =      4    mixing-type and parameters
     AMIX     =   0.40;   BMIX     =  1.00
     AMIX_MAG =   1.60;   BMIX_MAG =  1.00
     AMIN     =   0.10
     WC   =   100.;   INIMIX=   1;  MIXPRE=   1;  MAXMIX= -45

 Intra band minimization:
   WEIMIN = 0.0000     energy-eigenvalue tresh-hold
   EBREAK =  0.21E-05  absolut break condition
   DEPER  =   0.30     relativ break condition  

   TIME   =   0.40     timestep for ELM

  volume/ion in A,a.u.               =      11.18        75.48
  Fermi-wavevector in a.u.,A,eV,Ry     =   1.577126  2.980337 33.842143  2.487327
  Thomas-Fermi vector in A             =   2.677855
 
 Write flags
   LWAVE        =      T    write WAVECAR
   LDOWNSAMPLE  =      F    k-point downsampling of WAVECAR
   LCHARG       =      T    write CHGCAR
   LVTOT        =      F    write LOCPOT, total local potential
   LVHAR        =      F    write LOCPOT, Hartree potential only
   LELF         =      F    write electronic localiz. function (ELF)
   LORBIT       =      0    0 simple, 1 ext, 2 COOP (PROOUT), +10 PAW based schemes


 Dipole corrections
   LMONO  =      F    monopole corrections only (constant potential shift)
   LDIPOL =      F    correct potential (dipole corrections)
   IDIPOL =      0    1-x, 2-y, 3-z, 4-all directions 
   EPSILON=  1.0000000 bulk dielectric constant

 Exchange correlation treatment:
   GGA     =    --    GGA type
   LEXCH   =     8    internal setting for exchange type
   VOSKOWN=      0    Vosko Wilk Nusair interpolation
   LHFCALC =     F    Hartree Fock is set to
   LHFONE  =     F    Hartree Fock one center treatment
   AEXX    =    0.0000 exact exchange contribution

 Linear response parameters
   LEPSILON=     F    determine dielectric tensor
   LRPA    =     F    only Hartree local field effects (RPA)
   LNABLA  =     F    use nabla operator in PAW spheres
   LVEL    =     F    velocity operator in full k-point grid
   LINTERFAST=   F  fast interpolation
   KINTER  =     0    interpolate to denser k-point grid
   CSHIFT  =0.1000    complex shift for real part using Kramers Kronig
   OMEGAMAX=  -1.0    maximum frequency
   DEG_THRESHOLD= 0.2000000E-02 threshold for treating states as degnerate
   RTIME   =   -0.100 relaxation time in fs
  (WPLASMAI=    0.000 imaginary part of plasma frequency in eV, 0.658/RTIME)
   DFIELD  = 0.0000000 0.0000000 0.0000000 field for delta impulse in time
 
 Orbital magnetization related:
   ORBITALMAG=     F  switch on orbital magnetization
   LCHIMAG   =     F  perturbation theory with respect to B field
   DQ        =  0.001000  dq finite difference perturbation B field
   LLRAUG    =     F  two centre corrections for induced B field



--------------------------------------------------------------------------------------------------------


 Static calculation
 charge density and potential will be updated during run
 spin polarized calculation
 Variant of blocked Davidson
 Davidson routine will perform the subspace rotation
 perform sub-space diagonalisation
    after iterative eigenvector-optimisation
 modified Broyden-mixing scheme, WC =      100.0
 initial mixing is a Kerker type mixing with AMIX =  0.4000 and BMIX =      1.0000
 Hartree-type preconditioning will be used
 using additional bands            7
 reciprocal scheme for non local part
 use partial core corrections
 calculate Harris-corrections to forces 
   (improved forces if not selfconsistent)
 use gradient corrections 
 use of overlap-Matrix (Vanderbilt PP)
 Methfessel and Paxton  Order N= 1 SIGMA  =   0.20


--------------------------------------------------------------------------------------------------------


  energy-cutoff  :      270.00
  volume of cell :       11.18
      direct lattice vectors                 reciprocal lattice vectors
     0.000000000  1.775000000  1.775000000    -0.281690141  0.281690141  0.281690141
     1.775000000  0.000000000  1.775000000     0.281690141 -0.281690141  0.281690141
     1.775000000  1.775000000  0.000000000     0.281690141  0.281690141 -0.281690141

  length of vectors
     2.510229073  2.510229073  2.510229073     0.487901636  0.487901636  0.487901636


 
 k-points in units of 2pi/SCALE and weight: 10x10x10                                
   0.05000000  0.05000000  0.05000000       0.002
  -0.05000000  0.15000000  0.15000000       0.006
  -0.15000000  0.25000000  0.25000000       0.006
  -0.25000000  0.35000000  0.35000000       0.006
  -0.35000000  0.45000000  0.45000000       0.006
   0.55000000 -0.45000000 -0.45000000       0.006
   0.45000000 -0.35000000 -0.35000000       0.006
   0.35000000 -0.25000000 -0.25000000       0.006
   0.25000000 -0.15000000 -0.15000000       0.006
   0.15000000 -0.05000000 -0.05000000       0.006
   0.05000000  0.05000000  0.25000000       0.006
  -0.05000000  0.15000000  0.35000000       0.012
  -0.15000000  0.25000000  0.45000000       0.012
  -0.25000000  0.35000000  0.55000000       0.012
   0.65000000 -0.55000000 -0.35000000       0.012
   0.55000000 -0.45000000 -0.25000000       0.012
   0.45000000 -0.35000000 -0.15000000       0.012
   0.35000000 -0.25000000 -0.05000000       0.012
   0.25000000 -0.15000000  0.05000000       0.012
   0.05000000  0.05000000  0.45000000       0.006
  -0.05000000  0.15000000  0.55000000       0.012
  -0.15000000  0.25000000  0.65000000       0.012
   0.75000000 -0.65000000 -0.25000000       0.012
   0.65000000 -0.55000000 -0.15000000       0.012
   0.55000000 -0.45000000 -0.05000000       0.012
   0.45000000 -0.35000000  0.05000000       0.012
   0.35000000 -0.25000000  0.15000000       0.012
   0.05000000  0.05000000  0.65000000       0.006
  -0.05000000  0.15000000  0.75000000       0.012
   0.85000000 -0.75000000 -0.15000000       0.012
   0.75000000 -0.65000000 -0.05000000       0.012
   0.65000000 -0.55000000  0.05000000       0.012
   0.55000000 -0.45000000  0.15000000       0.012
   0.45000000 -0.35000000  0.25000000       0.012
   0.05000000  0.05000000  0.85000000       0.006
   0.95000000 -0.85000000 -0.05000000       0.012
   0.85000000 -0.75000000  0.05000000       0.012
   0.75000000 -0.65000000  0.15000000       0.012
   0.65000000 -0.55000000  0.25000000       0.012
   0.55000000 -0.45000000  0.35000000       0.012
   0.05000000  0.05000000 -0.95000000       0.006
  -0.05000000  0.15000000 -0.85000000       0.012
  -0.15000000  0.25000000 -0.75000000       0.012
  -0.25000000  0.35000000 -0.65000000       0.012
   0.05000000  0.05000000 -0.75000000       0.006
  -0.05000000  0.15000000 -0.65000000       0.012
  -0.15000000  0.25000000 -0.55000000       0.012
   0.05000000  0.05000000 -0.55000000       0.006
  -0.05000000  0.15000000 -0.45000000       0.012
   0.05000000  0.05000000 -0.35000000       0.006
   0.15000000  0.15000000  0.15000000       0.002
   0.05000000  0.25000000  0.25000000       0.006
  -0.05000000  0.35000000  0.35000000       0.006
  -0.15000000  0.45000000  0.45000000       0.006
   0.75000000 -0.45000000 -0.45000000       0.006
   0.65000000 -0.35000000 -0.35000000       0.006
   0.55000000 -0.25000000 -0.25000000       0.006
   0.45000000 -0.15000000 -0.15000000       0.006
   0.15000000  0.15000000  0.35000000       0.006
   0.05000000  0.25000000  0.45000000       0.012
  -0.05000000  0.35000000  0.55000000       0.012
   0.85000000 -0.55000000 -0.35000000       0.012
   0.75000000 -0.45000000 -0.25000000       0.012
   0.65000000 -0.35000000 -0.15000000       0.012
   0.55000000 -0.25000000 -0.05000000       0.012
   0.15000000  0.15000000  0.55000000       0.006
   0.05000000  0.25000000  0.65000000       0.012
   0.95000000 -0.65000000 -0.25000000       0.012
   0.85000000 -0.55000000 -0.15000000       0.012
   0.75000000 -0.45000000 -0.05000000       0.012
   0.65000000 -0.35000000  0.05000000       0.012
   0.15000000  0.15000000  0.75000000       0.006
   1.05000000 -0.75000000 -0.15000000       0.012
   0.95000000 -0.65000000 -0.05000000       0.012
   0.85000000 -0.55000000  0.05000000       0.012
   0.75000000 -0.45000000  0.15000000       0.012
   0.15000000  0.15000000 -1.05000000       0.006
   0.05000000  0.25000000 -0.95000000       0.012
  -0.05000000  0.35000000 -0.85000000       0.012
   0.15000000  0.15000000 -0.85000000       0.006
   0.05000000  0.25000000 -0.75000000       0.012
   0.15000000  0.15000000 -0.65000000       0.006
   0.25000000  0.25000000  0.25000000       0.002
   0.15000000  0.35000000  0.35000000       0.006
   0.05000000  0.45000000  0.45000000       0.006
   0.95000000 -0.45000000 -0.45000000       0.006
   0.85000000 -0.35000000 -0.35000000       0.006
   0.75000000 -0.25000000 -0.25000000       0.006
   0.25000000  0.25000000  0.45000000       0.006
   0.15000000  0.35000000  0.55000000       0.012
   1.05000000 -0.55000000 -0.35000000       0.012
   0.95000000 -0.45000000 -0.25000000       0.012
   0.85000000 -0.35000000 -0.15000000       0.012
   0.25000000  0.25000000  0.65000000       0.006
   1.15000000 -0.65000000 -0.25000000       0.012
   1.05000000 -0.55000000 -0.15000000       0.012
   0.95000000 -0.45000000 -0.05000000       0.012
   0.25000000  0.25000000 -1.15000000       0.006
   0.15000000  0.35000000 -1.05000000       0.012
   0.25000000  0.25000000 -0.95000000       0.006
   0.35000000  0.35000000  0.35000000       0.002
   0.25000000  0.45000000  0.45000000       0.006
   1.15000000 -0.45000000 -0.45000000       0.006
   1.05000000 -0.35000000 -0.35000000       0.006
   0.35000000  0.35000000  0.55000000       0.006
   1.25000000 -0.55000000 -0.35000000       0.012
   1.15000000 -0.45000000 -0.25000000       0.012
   0.35000000  0.35000000 -1.25000000       0.006
   0.45000000  0.45000000  0.45000000       0.002
   1.35000000 -0.45000000 -0.45000000       0.006
 
 k-points in reciprocal lattice and weights: 10x10x10                                
   0.05000000  0.05000000  0.05000000       0.002
   0.15000000  0.05000000  0.05000000       0.006
   0.25000000  0.05000000  0.05000000       0.006
   0.35000000  0.05000000  0.05000000       0.006
   0.45000000  0.05000000  0.05000000       0.006
  -0.45000000  0.05000000  0.05000000       0.006
  -0.35000000  0.05000000  0.05000000       0.006
  -0.25000000  0.05000000  0.05000000       0.006
  -0.15000000  0.05000000  0.05000000       0.006
  -0.05000000  0.05000000  0.05000000       0.006
   0.15000000  0.15000000  0.05000000       0.006
   0.25000000  0.15000000  0.05000000       0.012
   0.35000000  0.15000000  0.05000000       0.012
   0.45000000  0.15000000  0.05000000       0.012
  -0.45000000  0.15000000  0.05000000       0.012
  -0.35000000  0.15000000  0.05000000       0.012
  -0.25000000  0.15000000  0.05000000       0.012
  -0.15000000  0.15000000  0.05000000       0.012
  -0.05000000  0.15000000  0.05000000       0.012
   0.25000000  0.25000000  0.05000000       0.006
   0.35000000  0.25000000  0.05000000       0.012
   0.45000000  0.25000000  0.05000000       0.012
  -0.45000000  0.25000000  0.05000000       0.012
  -0.35000000  0.25000000  0.05000000       0.012
  -0.25000000  0.25000000  0.05000000       0.012
  -0.15000000  0.25000000  0.05000000       0.012
  -0.05000000  0.25000000  0.05000000       0.012
   0.35000000  0.35000000  0.05000000       0.006
   0.45000000  0.35000000  0.05000000       0.012
  -0.45000000  0.35000000  0.05000000       0.012
  -0.35000000  0.35000000  0.05000000       0.012
  -0.25000000  0.35000000  0.05000000       0.012
  -0.15000000  0.35000000  0.05000000       0.012
  -0.05000000  0.35000000  0.05000000       0.012
   0.45000000  0.45000000  0.05000000       0.006
  -0.45000000  0.45000000  0.05000000       0.012
  -0.35000000  0.45000000  0.05000000       0.012
  -0.25000000  0.45000000  0.05000000       0.012
  -0.15000000  0.45000000  0.05000000       0.012
  -0.05000000  0.45000000  0.05000000       0.012
  -0.45000000 -0.45000000  0.05000000       0.006
  -0.35000000 -0.45000000  0.05000000       0.012
  -0.25000000 -0.45000000  0.05000000       0.012
  -0.15000000 -0.45000000  0.05000000       0.012
  -0.35000000 -0.35000000  0.05000000       0.006
  -0.25000000 -0.35000000  0.05000000       0.012
  -0.15000000 -0.35000000  0.05000000       0.012
  -0.25000000 -0.25000000  0.05000000       0.006
  -0.15000000 -0.25000000  0.05000000       0.012
  -0.15000000 -0.15000000  0.05000000       0.006
   0.15000000  0.15000000  0.15000000       0.002
   0.25000000  0.15000000  0.15000000       0.006
   0.35000000  0.15000000  0.15000000       0.006
   0.45000000  0.15000000  0.15000000       0.006
  -0.45000000  0.15000000  0.15000000       0.006
  -0.35000000  0.15000000  0.15000000       0.006
  -0.25000000  0.15000000  0.15000000       0.006
  -0.15000000  0.15000000  0.15000000       0.006
   0.25000000  0.25000000  0.15000000       0.006
   0.35000000  0.25000000  0.15000000       0.012
   0.45000000  0.25000000  0.15000000       0.012
  -0.45000000  0.25000000  0.15000000       0.012
  -0.35000000  0.25000000  0.15000000       0.012
  -0.25000000  0.25000000  0.15000000       0.012
  -0.15000000  0.25000000  0.15000000       0.012
   0.35000000  0.35000000  0.15000000       0.006
   0.45000000  0.35000000  0.15000000       0.012
  -0.45000000  0.35000000  0.15000000       0.012
  -0.35000000  0.35000000  0.15000000       0.012
  -0.25000000  0.35000000  0.15000000       0.012
  -0.15000000  0.35000000  0.15000000       0.012
   0.45000000  0.45000000  0.15000000       0.006
  -0.45000000  0.45000000  0.15000000       0.012
  -0.35000000  0.45000000  0.15000000       0.012
  -0.25000000  0.45000000  0.15000000       0.012
  -0.15000000  0.45000000  0.15000000       0.012
  -0.45000000 -0.45000000  0.15000000       0.006
  -0.35000000 -0.45000000  0.15000000       0.012
  -0.25000000 -0.45000000  0.15000000       0.012
  -0.35000000 -0.35000000  0.15000000       0.006
  -0.25000000 -0.35000000  0.15000000       0.012
  -0.25000000 -0.25000000  0.15000000       0.006
   0.25000000  0.25000000  0.25000000       0.002
   0.35000000  0.25000000  0.25000000       0.006
   0.45000000  0.25000000  0.25000000       0.006
  -0.45000000  0.25000000  0.25000000       0.006
  -0.35000000  0.25000000  0.25000000       0.006
  -0.25000000  0.25000000  0.25000000       0.006
   0.35000000  0.35000000  0.25000000       0.006
   0.45000000  0.35000000  0.25000000       0.012
  -0.45000000  0.35000000  0.25000000       0.012
  -0.35000000  0.35000000  0.25000000       0.012
  -0.25000000  0.35000000  0.25000000       0.012
   0.45000000  0.45000000  0.25000000       0.006
  -0.45000000  0.45000000  0.25000000       0.012
  -0.35000000  0.45000000  0.25000000       0.012
  -0.25000000  0.45000000  0.25000000       0.012
  -0.45000000 -0.45000000  0.25000000       0.006
  -0.35000000 -0.45000000  0.25000000       0.012
  -0.35000000 -0.35000000  0.25000000       0.006
   0.35000000  0.35000000  0.35000000       0.002
   0.45000000  0.35000000  0.35000000       0.006
  -0.45000000  0.35000000  0.35000000       0.006
  -0.35000000  0.35000000  0.35000000       0.006
   0.45000000  0.45000000  0.35000000       0.006
  -0.45000000  0.45000000  0.35000000       0.012
  -0.35000000  0.45000000  0.35000000       0.012
  -0.45000000 -0.45000000  0.35000000       0.006
   0.45000000  0.45000000  0.45000000       0.002
  -0.45000000  0.45000000  0.45000000       0.006
 
 position of ions in fractional coordinates (direct lattice) 
   0.00000000  0.00000000  0.00000000
 
 position of ions in cartesian coordinates  (Angst):
   0.00000000  0.00000000  0.00000000
 


--------------------------------------------------------------------------------------------------------


 k-point  1 :   0.0500 0.0500 0.0500  plane waves:     113
 k-point  2 :   0.1500 0.0500 0.0500  plane waves:     118
 k-point  3 :   0.2500 0.0500 0.0500  plane waves:     116
 k-point  4 :   0.3500 0.0500 0.0500  plane waves:     115
 k-point  5 :   0.4500 0.0500 0.0500  plane waves:     112
 k-point  6 :  -0.4500 0.0500 0.0500  plane waves:     114
 k-point  7 :  -0.3500 0.0500 0.0500  plane waves:     112
 k-point  8 :  -0.2500 0.0500 0.0500  plane waves:     112
 k-point  9 :  -0.1500 0.0500 0.0500  plane waves:     118
 k-point 10 :  -0.0500 0.0500 0.0500  plane waves:     114
 k-point 11 :   0.1500 0.1500 0.0500  plane waves:     119
 k-point 12 :   0.2500 0.1500 0.0500  plane waves:     117
 k-point 13 :   0.3500 0.1500 0.0500  plane waves:     114
 k-point 14 :   0.4500 0.1500 0.0500  plane waves:     113
 k-point 15 :  -0.4500 0.1500 0.0500  plane waves:     112
 k-point 16 :  -0.3500 0.1500 0.0500  plane waves:     113
 k-point 17 :  -0.2500 0.1500 0.0500  plane waves:     112
 k-point 18 :  -0.1500 0.1500 0.0500  plane waves:     115
 k-point 19 :  -0.0500 0.1500 0.0500  plane waves:     118
 k-point 20 :   0.2500 0.2500 0.0500  plane waves:     120
 k-point 21 :   0.3500 0.2500 0.0500  plane waves:     115
 k-point 22 :   0.4500 0.2500 0.0500  plane waves:     113
 k-point 23 :  -0.4500 0.2500 0.0500  plane waves:     112
 k-point 24 :  -0.3500 0.2500 0.0500  plane waves:     112
 k-point 25 :  -0.2500 0.2500 0.0500  plane waves:     112
 k-point 26 :  -0.1500 0.2500 0.0500  plane waves:     114
 k-point 27 :  -0.0500 0.2500 0.0500  plane waves:     113
 k-point 28 :   0.3500 0.3500 0.0500  plane waves:     113
 k-point 29 :   0.4500 0.3500 0.0500  plane waves:     115
 k-point 30 :  -0.4500 0.3500 0.0500  plane waves:     109
 k-point 31 :  -0.3500 0.3500 0.0500  plane waves:     109
 k-point 32 :  -0.2500 0.3500 0.0500  plane waves:     112
 k-point 33 :  -0.1500 0.3500 0.0500  plane waves:     113
 k-point 34 :  -0.0500 0.3500 0.0500  plane waves:     112
 k-point 35 :   0.4500 0.4500 0.0500  plane waves:     113
 k-point 36 :  -0.4500 0.4500 0.0500  plane waves:     113
 k-point 37 :  -0.3500 0.4500 0.0500  plane waves:     109
 k-point 38 :  -0.2500 0.4500 0.0500  plane waves:     111
 k-point 39 :  -0.1500 0.4500 0.0500  plane waves:     112
 k-point 40 :  -0.0500 0.4500 0.0500  plane waves:     113
 k-point 41 :  -0.4500-0.4500 0.0500  plane waves:     115
 k-point 42 :  -0.3500-0.4500 0.0500  plane waves:     112
 k-point 43 :  -0.2500-0.4500 0.0500  plane waves:     111
 k-point 44 :  -0.1500-0.4500 0.0500  plane waves:     114
 k-point 45 :  -0.3500-0.3500 0.0500  plane waves:     114
 k-point 46 :  -0.2500-0.3500 0.0500  plane waves:     114
 k-point 47 :  -0.1500-0.3500 0.0500  plane waves:     114
 k-point 48 :  -0.2500-0.2500 0.0500  plane waves:     117
 k-point 49 :  -0.1500-0.2500 0.0500  plane waves:     116
 k-point 50 :  -0.1500-0.1500 0.0500  plane waves:     117
 k-point 51 :   0.1500 0.1500 0.1500  plane waves:     116
 k-point 52 :   0.2500 0.1500 0.1500  plane waves:     117
 k-point 53 :   0.3500 0.1500 0.1500  plane waves:     111
 k-point 54 :   0.4500 0.1500 0.1500  plane waves:     114
 k-point 55 :  -0.4500 0.1500 0.1500  plane waves:     111
 k-point 56 :  -0.3500 0.1500 0.1500  plane waves:     115
 k-point 57 :  -0.2500 0.1500 0.1500  plane waves:     112
 k-point 58 :  -0.1500 0.1500 0.1500  plane waves:     114
 k-point 59 :   0.2500 0.2500 0.1500  plane waves:     117
 k-point 60 :   0.3500 0.2500 0.1500  plane waves:     115
 k-point 61 :   0.4500 0.2500 0.1500  plane waves:     113
 k-point 62 :  -0.4500 0.2500 0.1500  plane waves:     113
 k-point 63 :  -0.3500 0.2500 0.1500  plane waves:     114
 k-point 64 :  -0.2500 0.2500 0.1500  plane waves:     114
 k-point 65 :  -0.1500 0.2500 0.1500  plane waves:     116
 k-point 66 :   0.3500 0.3500 0.1500  plane waves:     116
 k-point 67 :   0.4500 0.3500 0.1500  plane waves:     115
 k-point 68 :  -0.4500 0.3500 0.1500  plane waves:     110
 k-point 69 :  -0.3500 0.3500 0.1500  plane waves:     111
 k-point 70 :  -0.2500 0.3500 0.1500  plane waves:     110
 k-point 71 :  -0.1500 0.3500 0.1500  plane waves:     111
 k-point 72 :   0.4500 0.4500 0.1500  plane waves:     113
 k-point 73 :  -0.4500 0.4500 0.1500  plane waves:     109
 k-point 74 :  -0.3500 0.4500 0.1500  plane waves:     108
 k-point 75 :  -0.2500 0.4500 0.1500  plane waves:     110
 k-point 76 :  -0.1500 0.4500 0.1500  plane waves:     113
 k-point 77 :  -0.4500-0.4500 0.1500  plane waves:     110
 k-point 78 :  -0.3500-0.4500 0.1500  plane waves:     108
 k-point 79 :  -0.2500-0.4500 0.1500  plane waves:     108
 k-point 80 :  -0.3500-0.3500 0.1500  plane waves:     110
 k-point 81 :  -0.2500-0.3500 0.1500  plane waves:     111
 k-point 82 :  -0.2500-0.2500 0.1500  plane waves:     116
 k-point 83 :   0.2500 0.2500 0.2500  plane waves:     113
 k-point 84 :   0.3500 0.2500 0.2500  plane waves:     111
 k-point 85 :   0.4500 0.2500 0.2500  plane waves:     115
 k-point 86 :  -0.4500 0.2500 0.2500  plane waves:     113
 k-point 87 :  -0.3500 0.2500 0.2500  plane waves:     112
 k-point 88 :  -0.2500 0.2500 0.2500  plane waves:     110
 k-point 89 :   0.3500 0.3500 0.2500  plane waves:     109
 k-point 90 :   0.4500 0.3500 0.2500  plane waves:     113
 k-point 91 :  -0.4500 0.3500 0.2500  plane waves:     112
 k-point 92 :  -0.3500 0.3500 0.2500  plane waves:     110
 k-point 93 :  -0.2500 0.3500 0.2500  plane waves:     109
 k-point 94 :   0.4500 0.4500 0.2500  plane waves:     113
 k-point 95 :  -0.4500 0.4500 0.2500  plane waves:     113
 k-point 96 :  -0.3500 0.4500 0.2500  plane waves:     111
 k-point 97 :  -0.2500 0.4500 0.2500  plane waves:     109
 k-point 98 :  -0.4500-0.4500 0.2500  plane waves:     110
 k-point 99 :  -0.3500-0.4500 0.2500  plane waves:     108
 k-point ** :  -0.3500-0.3500 0.2500  plane waves:     110
 k-point ** :   0.3500 0.3500 0.3500  plane waves:     114
 k-point ** :   0.4500 0.3500 0.3500  plane waves:     113
 k-point ** :  -0.4500 0.3500 0.3500  plane waves:     109
 k-point ** :  -0.3500 0.3500 0.3500  plane waves:     112
 k-point ** :   0.4500 0.4500 0.3500  plane waves:     114
 k-point ** :  -0.4500 0.4500 0.3500  plane waves:     115
 k-point ** :  -0.3500 0.4500 0.3500  plane waves:     112
 k-point ** :  -0.4500-0.4500 0.3500  plane waves:     112
 k-point ** :   0.4500 0.4500 0.4500  plane waves:     114
 k-point ** :  -0.4500 0.4500 0.4500  plane waves:     112

 maximum and minimum number of plane-waves per node :       120      108

 maximum number of plane-waves:       120
 maximum index in each direction: 
   IXMAX=    3   IYMAX=    3   IZMAX=    3
   IXMIN=   -3   IYMIN=   -3   IZMIN=   -3


 serial   3D FFT for wavefunctions
 parallel 3D FFT for charge:
    minimum data exchange during FFTs selected (reduces bandwidth)


 total amount of memory used by VASP MPI-rank0    33873. kBytes
=======================================================================

   base      :      30000. kBytes
   nonl-proj :       1902. kBytes
   fftplans  :        142. kBytes
   grid      :        320. kBytes
   one-center:         31. kBytes
   wavefun   :       1478. kBytes
 
     INWAV:  cpu time    0.0001: real time    0.0001
 Broyden mixing: mesh for mixing (old mesh)
   NGX =  7   NGY =  7   NGZ =  7
  (NGX  = 20   NGY  = 20   NGZ  = 20)
  gives a total of    343 points

 initial charge density was supplied:
 charge density of overlapping atoms calculated
 number of electron      10.0000000 magnetization       3.0000000
 keeping initial charge density in first step


--------------------------------------------------------------------------------------------------------


 Maximum index for augmentation-charges          709 (set IRDMAX)


--------------------------------------------------------------------------------------------------------


 First call to EWALD:  gamma=   0.793
 Maximum number of real-space cells 3x 3x 3
 Maximum number of reciprocal cells 3x 3x 3

    FEWALD:  cpu time    0.0011: real time    0.0011


--------------------------------------- Iteration      1(   1)  ---------------------------------------


    POTLOK:  cpu time    0.0030: real time    0.0047
    SETDIJ:  cpu time    0.0037: real time    0.0037
     EDDAV:  cpu time    0.3257: real time    0.3328
       DOS:  cpu time    0.0019: real time    0.0019
    --------------------------------------------
      LOOP:  cpu time    0.3342: real time    0.3430

 eigenvalue-minimisations  :  5884
 total energy-change (2. order) : 0.1846888E+02  (-0.3006102E+03)
 number of electron      10.0000000 magnetization       3.0000000
 augmentation part       10.0000000 magnetization       3.0000000

 Free energy of the ion-electron system (eV)
  ---------------------------------------------------
  alpha Z        PSCENC =        45.59739242
  Ewald energy   TEWEN  =      -929.87377531
  -Hartree energ DENC   =      -249.13645065
  -exchange      EXHF   =         0.00000000
  -V(xc)+E(xc)   XCENC  =        32.64364720
  PAW double counting   =       961.92645289    -1028.66799202
  entropy T*S    EENTRO =         0.00007479
  eigenvalues    EBANDS =       108.34345408
  atomic energy  EATOM  =      1077.63607467
  Solvation  Ediel_sol  =         0.00000000
  ---------------------------------------------------
  free energy    TOTEN  =        18.46887807 eV

  energy without entropy =       18.46880327  energy(sigma->0) =       18.46885314


--------------------------------------------------------------------------------------------------------




--------------------------------------- Iteration      1(   2)  ---------------------------------------


     EDDAV:  cpu time    0.3107: real time    0.3176
       DOS:  cpu time    0.0019: real time    0.0019
    --------------------------------------------
      LOOP:  cpu time    0.3126: real time    0.3195

 eigenvalue-minimisations  :  5728
 total energy-change (2. order) :-0.2390073E+02  (-0.2208244E+02)
 number of electron      10.0000000 magnetization       3.0000000
 augmentation part       10.0000000 magnetization       3.0000000

 Free energy of the ion-electron system (eV)
  ---------------------------------------------------
  alpha Z        PSCENC =        45.59739242
  Ewald energy   TEWEN  =      -929.87377531
  -Hartree energ DENC   =      -249.13645065
  -exchange      EXHF   =         0.00000000
  -V(xc)+E(xc)   XCENC  =        32.64364720
  PAW double counting   =       961.92645289    -1028.66799202
  entropy T*S    EENTRO =        -0.00055385
  eigenvalues    EBANDS =        84.44334843
  atomic energy  EATOM  =      1077.63607467
  Solvation  Ediel_sol  =         0.00000000
  ---------------------------------------------------
  free energy    TOTEN  =        -5.43185622 eV

  energy without entropy =       -5.43130237  energy(sigma->0) =       -5.43167160


--------------------------------------------------------------------------------------------------------




--------------------------------------- Iteration      1(   3)  ---------------------------------------


     EDDAV:  cpu time    0.3168: real time    0.3238
       DOS:  cpu time    0.0020: real time    0.0020
    --------------------------------------------
      LOOP:  cpu time    0.3188: real time    0.3257

 eigenvalue-minimisations  :  6020
 total energy-change (2. order) :-0.4361810E+00  (-0.4347821E+00)
 number of electron      10.0000000 magnetization       3.0000000
 augmentation part       10.0000000 magnetization       3.0000000

 Free energy of the ion-electron system (eV)
  ---------------------------------------------------
  alpha Z        PSCENC =        45.59739242
  Ewald energy   TEWEN  =      -929.87377531
  -Hartree energ DENC   =      -249.13645065
  -exchange      EXHF   =         0.00000000
  -V(xc)+E(xc)   XCENC  =        32.64364720
  PAW double counting   =       961.92645289    -1028.66799202
  entropy T*S    EENTRO =        -0.00028967
  eigenvalues    EBANDS =        84.00690322
  atomic energy  EATOM  =      1077.63607467
  Solvation  Ediel_sol  =         0.00000000
  ---------------------------------------------------
  free energy    TOTEN  =        -5.86803726 eV

  energy without entropy =       -5.86774759  energy(sigma->0) =       -5.86794070


--------------------------------------------------------------------------------------------------------




--------------------------------------- Iteration      1(   4)  ---------------------------------------


     EDDAV:  cpu time    0.3200: real time    0.3270
       DOS:  cpu time    0.0020: real time    0.0020
    --------------------------------------------
      LOOP:  cpu time    0.3220: real time    0.3289

 eigenvalue-minimisations  :  6088
 total energy-change (2. order) :-0.2099773E-02  (-0.2099534E-02)
 number of electron      10.0000000 magnetization       3.0000000
 augmentation part       10.0000000 magnetization       3.0000000

 Free energy of the ion-electron system (eV)
  ---------------------------------------------------
  alpha Z        PSCENC =        45.59739242
  Ewald energy   TEWEN  =      -929.87377531
  -Hartree energ DENC   =      -249.13645065
  -exchange      EXHF   =         0.00000000
  -V(xc)+E(xc)   XCENC  =        32.64364720
  PAW double counting   =       961.92645289    -1028.66799202
  entropy T*S    EENTRO =        -0.00028850
  eigenvalues    EBANDS =        84.00480227
  atomic energy  EATOM  =      1077.63607467
  Solvation  Ediel_sol  =         0.00000000
  ---------------------------------------------------
  free energy    TOTEN  =        -5.87013703 eV

  energy without entropy =       -5.86984853  energy(sigma->0) =       -5.87004086


--------------------------------------------------------------------------------------------------------




--------------------------------------- Iteration      1(   5)  ---------------------------------------


     EDDAV:  cpu time    0.3200: real time    0.3271
       DOS:  cpu time    0.0020: real time    0.0020
    CHARGE:  cpu time    0.0046: real time    0.0046
    MIXING:  cpu time    0.0002: real time    0.0002
    --------------------------------------------
      LOOP:  cpu time    0.3268: real time    0.3339

 eigenvalue-minimisations  :  5920
 total energy-change (2. order) :-0.2841716E-04  (-0.2841848E-04)
 number of electron       9.9999961 magnetization       0.5852803
 augmentation part        5.5552421 magnetization       0.3743844

 Broyden mixing:
  rms(total) = 0.13632E+01    rms(broyden)= 0.13630E+01
  rms(prec ) = 0.35235E+01
  weight for this iteration     100.00

 Free energy of the ion-electron system (eV)
  ---------------------------------------------------
  alpha Z        PSCENC =        45.59739242
  Ewald energy   TEWEN  =      -929.87377531
  -Hartree energ DENC   =      -249.13645065
  -exchange      EXHF   =         0.00000000
  -V(xc)+E(xc)   XCENC  =        32.64364720
  PAW double counting   =       961.92645289    -1028.66799202
  entropy T*S    EENTRO =        -0.00028850
  eigenvalues    EBANDS =        84.00477385
  atomic energy  EATOM  =      1077.63607467
  Solvation  Ediel_sol  =         0.00000000
  ---------------------------------------------------
  free energy    TOTEN  =        -5.87016545 eV

  energy without entropy =       -5.86987695  energy(sigma->0) =       -5.87006928


--------------------------------------------------------------------------------------------------------




--------------------------------------- Iteration      1(   6)  ---------------------------------------


    POTLOK:  cpu time    0.0033: real time    0.0035
    SETDIJ:  cpu time    0.0034: real time    0.0034
     EDDAV:  cpu time    0.3428: real time    0.3498
       DOS:  cpu time    0.0020: real time    0.0020
    CHARGE:  cpu time    0.0041: real time    0.0042
    MIXING:  cpu time    0.0003: real time    0.0003
    --------------------------------------------
      LOOP:  cpu time    0.3561: real time    0.3632

 eigenvalue-minimisations  :  6496
 total energy-change (2. order) :-0.2943471E-01  (-0.1432809E+01)
 number of electron       9.9999951 magnetization       0.5668680
 augmentation part        6.5353872 magnetization       0.6115117

 Broyden mixing:
  rms(total) = 0.64548E+00    rms(broyden)= 0.64540E+00
  rms(prec ) = 0.17631E+01
  weight for this iteration     100.00

 eigenvalues of (default mixing * dielectric matrix)
  average eigenvalue GAMMA=   0.9106
  0.9106

 Free energy of the ion-electron system (eV)
  ---------------------------------------------------
  alpha Z        PSCENC =        45.59739242
  Ewald energy   TEWEN  =      -929.87377531
  -Hartree energ DENC   =      -223.11551424
  -exchange      EXHF   =         0.00000000
  -V(xc)+E(xc)   XCENC  =        30.38387201
  PAW double counting   =      1018.85908335    -1081.13742472
  entropy T*S    EENTRO =        -0.00516474
  eigenvalues    EBANDS =        55.75585641
  atomic energy  EATOM  =      1077.63607467
  Solvation  Ediel_sol  =         0.00000000
  ---------------------------------------------------
  free energy    TOTEN  =        -5.89960015 eV

  energy without entropy =       -5.89443541  energy(sigma->0) =       -5.89787857


--------------------------------------------------------------------------------------------------------




--------------------------------------- Iteration      1(   7)  ---------------------------------------


    POTLOK:  cpu time    0.0030: real time    0.0031
    SETDIJ:  cpu time    0.0032: real time    0.0032
     EDDAV:  cpu time    0.3394: real time    0.3462
       DOS:  cpu time    0.0022: real time    0.0022
    CHARGE:  cpu time    0.0040: real time    0.0040
    MIXING:  cpu time    0.0003: real time    0.0003
    --------------------------------------------
      LOOP:  cpu time    0.3520: real time    0.3589

 eigenvalue-minimisations  :  6492
 total energy-change (2. order) : 0.4281096E+00  (-0.3282300E+00)
 number of electron       9.9999956 magnetization       0.6590684
 augmentation part        6.1339416 magnetization       0.6467647

 Broyden mixing:
  rms(total) = 0.15007E+00    rms(broyden)= 0.15003E+00
  rms(prec ) = 0.31974E+00
  weight for this iteration     100.00

 eigenvalues of (default mixing * dielectric matrix)
  average eigenvalue GAMMA=   0.8340
  0.9902  0.6777

 Free energy of the ion-electron system (eV)
  ---------------------------------------------------
  alpha Z        PSCENC =        45.59739242
  Ewald energy   TEWEN  =      -929.87377531
  -Hartree energ DENC   =      -231.84008052
  -exchange      EXHF   =         0.00000000
  -V(xc)+E(xc)   XCENC  =        30.79621860
  PAW double counting   =      1052.02760913    -1118.38698217
  entropy T*S    EENTRO =        -0.00189520
  eigenvalues    EBANDS =        68.57394783
  atomic energy  EATOM  =      1077.63607467
  Solvation  Ediel_sol  =         0.00000000
  ---------------------------------------------------
  free energy    TOTEN  =        -5.47149055 eV

  energy without entropy =       -5.46959535  energy(sigma->0) =       -5.47085882


--------------------------------------------------------------------------------------------------------




--------------------------------------- Iteration      1(   8)  ---------------------------------------


    POTLOK:  cpu time    0.0030: real time    0.0031
    SETDIJ:  cpu time    0.0031: real time    0.0032
     EDDAV:  cpu time    0.3262: real time    0.3330
       DOS:  cpu time    0.0020: real time    0.0020
    CHARGE:  cpu time    0.0044: real time    0.0043
    MIXING:  cpu time    0.0003: real time    0.0003
    --------------------------------------------
      LOOP:  cpu time    0.3390: real time    0.3459

 eigenvalue-minimisations  :  6028
 total energy-change (2. order) : 0.7723632E-02  (-0.1579918E-02)
 number of electron       9.9999956 magnetization       0.6254081
 augmentation part        6.1499277 magnetization       0.5941966

 Broyden mixing:
  rms(total) = 0.86212E-01    rms(broyden)= 0.86209E-01
  rms(prec ) = 0.17353E+00
  weight for this iteration     100.00

 eigenvalues of (default mixing * dielectric matrix)
  average eigenvalue GAMMA=   0.8309
  1.2004  0.6884  0.6039

 Free energy of the ion-electron system (eV)
  ---------------------------------------------------
  alpha Z        PSCENC =        45.59739242
  Ewald energy   TEWEN  =      -929.87377531
  -Hartree energ DENC   =      -230.31954425
  -exchange      EXHF   =         0.00000000
  -V(xc)+E(xc)   XCENC  =        30.72434285
  PAW double counting   =      1082.54045106    -1149.80990088
  entropy T*S    EENTRO =        -0.00216412
  eigenvalues    EBANDS =        68.04335663
  atomic energy  EATOM  =      1077.63607467
  Solvation  Ediel_sol  =         0.00000000
  ---------------------------------------------------
  free energy    TOTEN  =        -5.46376692 eV

  energy without entropy =       -5.46160280  energy(sigma->0) =       -5.46304554


--------------------------------------------------------------------------------------------------------




--------------------------------------- Iteration      1(   9)  ---------------------------------------


    POTLOK:  cpu time    0.0031: real time    0.0033
    SETDIJ:  cpu time    0.0032: real time    0.0032
     EDDAV:  cpu time    0.3273: real time    0.3341
       DOS:  cpu time    0.0021: real time    0.0021
    CHARGE:  cpu time    0.0041: real time    0.0041
    MIXING:  cpu time    0.0003: real time    0.0003
    --------------------------------------------
      LOOP:  cpu time    0.3401: real time    0.3470

 eigenvalue-minimisations  :  6048
 total energy-change (2. order) : 0.2843260E-02  (-0.1406664E-03)
 number of electron       9.9999956 magnetization       0.6145064
 augmentation part        6.1582436 magnetization       0.5852848

 Broyden mixing:
  rms(total) = 0.38363E-01    rms(broyden)= 0.38363E-01
  rms(prec ) = 0.88975E-01
  weight for this iteration     100.00

 eigenvalues of (default mixing * dielectric matrix)
  average eigenvalue GAMMA=   1.1021
  2.1507  1.0048  0.6553  0.5977

 Free energy of the ion-electron system (eV)
  ---------------------------------------------------
  alpha Z        PSCENC =        45.59739242
  Ewald energy   TEWEN  =      -929.87377531
  -Hartree energ DENC   =      -229.50242277
  -exchange      EXHF   =         0.00000000
  -V(xc)+E(xc)   XCENC  =        30.68115773
  PAW double counting   =      1100.87893122    -1168.67331151
  entropy T*S    EENTRO =        -0.00212050
  eigenvalues    EBANDS =        67.79715039
  atomic energy  EATOM  =      1077.63607467
  Solvation  Ediel_sol  =         0.00000000
  ---------------------------------------------------
  free energy    TOTEN  =        -5.46092366 eV

  energy without entropy =       -5.45880316  energy(sigma->0) =       -5.46021683


--------------------------------------------------------------------------------------------------------




--------------------------------------- Iteration      1(  10)  ---------------------------------------


    POTLOK:  cpu time    0.0030: real time    0.0031
    SETDIJ:  cpu time    0.0031: real time    0.0031
     EDDAV:  cpu time    0.3189: real time    0.3258
       DOS:  cpu time    0.0021: real time    0.0021
    CHARGE:  cpu time    0.0040: real time    0.0040
    MIXING:  cpu time    0.0003: real time    0.0004
    --------------------------------------------
      LOOP:  cpu time    0.3314: real time    0.3384

 eigenvalue-minimisations  :  5944
 total energy-change (2. order) : 0.1142400E-02  (-0.1864290E-03)
 number of electron       9.9999956 magnetization       0.6267791
 augmentation part        6.1672550 magnetization       0.6003834

 Broyden mixing:
  rms(total) = 0.54681E-02    rms(broyden)= 0.54658E-02
  rms(prec ) = 0.77139E-02
  weight for this iteration     100.00

 eigenvalues of (default mixing * dielectric matrix)
  average eigenvalue GAMMA=   1.1302
  2.3819  1.1617  0.8524  0.6275  0.6275

 Free energy of the ion-electron system (eV)
  ---------------------------------------------------
  alpha Z        PSCENC =        45.59739242
  Ewald energy   TEWEN  =      -929.87377531
  -Hartree energ DENC   =      -228.63932763
  -exchange      EXHF   =         0.00000000
  -V(xc)+E(xc)   XCENC  =        30.64237960
  PAW double counting   =      1121.00458189    -1189.33351062
  entropy T*S    EENTRO =        -0.00213713
  eigenvalues    EBANDS =        67.50854084
  atomic energy  EATOM  =      1077.63607467
  Solvation  Ediel_sol  =         0.00000000
  ---------------------------------------------------
  free energy    TOTEN  =        -5.45978126 eV

  energy without entropy =       -5.45764413  energy(sigma->0) =       -5.45906888


--------------------------------------------------------------------------------------------------------




--------------------------------------- Iteration      1(  11)  ---------------------------------------


    POTLOK:  cpu time    0.0030: real time    0.0031
    SETDIJ:  cpu time    0.0033: real time    0.0032
     EDDAV:  cpu time    0.2177: real time    0.2242
       DOS:  cpu time    0.0019: real time    0.0019
    --------------------------------------------
      LOOP:  cpu time    0.2258: real time    0.2324

 eigenvalue-minimisations  :  2876
 total energy-change (2. order) :-0.1721495E-04  (-0.3071720E-05)
 number of electron       9.9999956 magnetization       0.6267791
 augmentation part        6.1672550 magnetization       0.6003834

 Free energy of the ion-electron system (eV)
  ---------------------------------------------------
  alpha Z        PSCENC =        45.59739242
  Ewald energy   TEWEN  =      -929.87377531
  -Hartree energ DENC   =      -228.57206609
  -exchange      EXHF   =         0.00000000
  -V(xc)+E(xc)   XCENC  =        30.64164162
  PAW double counting   =      1123.61526360    -1191.98628143
  entropy T*S    EENTRO =        -0.00216005
  eigenvalues    EBANDS =        67.48411210
  atomic energy  EATOM  =      1077.63607467
  Solvation  Ediel_sol  =         0.00000000
  ---------------------------------------------------
  free energy    TOTEN  =        -5.45979847 eV

  energy without entropy =       -5.45763842  energy(sigma->0) =       -5.45907845


--------------------------------------------------------------------------------------------------------




 average (electrostatic) potential at core
  the test charge radii are     0.9791
  (the norm of the test charge is              1.0000)
       1 -82.3523
 
 
 
 E-fermi :   8.9866     XC(G=0): -13.0921     alpha+bet :-16.0142


 spin component 1

 k-point     1 :       0.0500    0.0500    0.0500
  band No.  band energies     occupation 
      1       0.2684      1.00000
      2       6.6070      1.00000
      3       6.6518      1.00000
      4       6.6518      1.00000
      5       7.7352      1.00000
      6       7.7352      1.00000
      7      32.2081      0.00000
      8      34.8109      0.00000
      9      35.8989      0.00000
     10      35.8989      0.00000
     11      39.5188      0.00000
     12      39.5188      0.00000

 k-point     2 :       0.1500    0.0500    0.0500
  band No.  band energies     occupation 
      1       0.7716      1.00000
      2       6.4784      1.00000
      3       6.7485      1.00000
      4       6.7625      1.00000
      5       7.6404      1.00000
      6       7.7623      1.00000
      7      29.9306      0.00000
      8      32.2257      0.00000
      9      34.8527      0.00000
     10      36.5837      0.00000
     11      39.2494      0.00000
     12      39.7224      0.00000

 k-point     3 :       0.2500    0.0500    0.0500
  band No.  band energies     occupation 
      1       1.9464      1.00000
      2       6.3032      1.00000
      3       6.8524      1.00000
      4       6.8802      1.00000
      5       7.6296      1.00000
      6       7.8752      1.00000
      7      24.8810      0.00000
      8      31.1523      0.00000
      9      34.2871      0.00000
     10      35.9756      0.00000
     11      38.8796      0.00000
     12      39.1900      0.00000

 k-point     4 :       0.3500    0.0500    0.0500
  band No.  band energies     occupation 
      1       3.4152      1.00000
      2       6.4558      1.00000
      3       6.7777      1.00000
      4       6.8222      1.00000
      5       7.8930      1.00000
      6       8.1925      1.00000
      7      20.0762      0.00000
      8      30.5462      0.00000
      9      33.1666      0.00000
     10      35.1279      0.00000
     11      36.9681      0.00000
     12      38.7200      0.00000

 k-point     5 :       0.4500    0.0500    0.0500
  band No.  band energies     occupation 
      1       4.2370      1.00000
      2       6.6526      1.00000
      3       6.7129      1.00000
      4       7.4844      1.00000
      5       8.2269      1.00000
      6       8.7206      1.03399
      7      16.0788      0.00000
      8      30.3486      0.00000
      9      32.3820      0.00000
     10      33.6096      0.00000
     11      36.5302      0.00000
     12      37.8638      0.00000

 k-point     6 :      -0.4500    0.0500    0.0500
  band No.  band energies     occupation 
      1       4.3572      1.00000
      2       6.6073      1.00000
      3       6.6816      1.00000
      4       7.8815      1.00000
      5       8.3809      1.00008
      6       9.2695     -0.03123
      7      14.5595      0.00000
      8      30.5222      0.00000
      9      32.3895      0.00000
     10      32.4865      0.00000
     11      37.0805      0.00000
     12      37.1925      0.00000

 k-point     7 :      -0.3500    0.0500    0.0500
  band No.  band energies     occupation 
      1       4.0734      1.00000
      2       6.6796      1.00000
      3       6.7542      1.00000
      4       7.0612      1.00000
      5       8.2779      1.00000
      6       8.3717      1.00006
      7      17.2710      0.00000
      8      30.9964      0.00000
      9      31.9087      0.00000
     10      33.6071      0.00000
     11      37.0851      0.00000
     12      38.3704      0.00000

 k-point     8 :      -0.2500    0.0500    0.0500
  band No.  band energies     occupation 
      1       2.9428      1.00000
      2       6.3168      1.00000
      3       6.8168      1.00000
      4       6.8608      1.00000
      5       7.8519      1.00000
      6       8.0109      1.00000
      7      21.6193      0.00000
      8      31.7264      0.00000
      9      32.1228      0.00000
     10      35.3987      0.00000
     11      37.4329      0.00000
     12      40.2800      0.00000

 k-point     9 :      -0.1500    0.0500    0.0500
  band No.  band energies     occupation 
      1       1.4930      1.00000
      2       6.3427      1.00000
      3       6.8472      1.00000
      4       6.8542      1.00000
      5       7.6101      1.00000
      6       7.8077      1.00000
      7      26.5797      0.00000
      8      32.5032      0.00000
      9      32.9264      0.00000
     10      36.6517      0.00000
     11      38.1136      0.00000
     12      41.8224      0.00000

 k-point    10 :      -0.0500    0.0500    0.0500
  band No.  band energies     occupation 
      1       0.5221      1.00000
      2       6.5265      1.00000
      3       6.7144      1.00000
      4       6.7185      1.00000
      5       7.6575      1.00000
      6       7.7701      1.00000
      7      31.3532      0.00000
      8      33.5475      0.00000
      9      34.2522      0.00000
     10      35.8632      0.00000
     11      39.5945      0.00000
     12      41.1245      0.00000

 k-point    11 :       0.1500    0.1500    0.0500
  band No.  band energies     occupation 
      1       1.0187      1.00000
      2       6.3641      1.00000
      3       6.8433      1.00000
      4       6.8466      1.00000
      5       7.5185      1.00000
      6       7.8356      1.00000
      7      30.1168      0.00000
      8      32.2919      0.00000
      9      32.3546      0.00000
     10      34.5784      0.00000
     11      39.7951      0.00000
     12      41.4572      0.00000

 k-point    12 :       0.2500    0.1500    0.0500
  band No.  band energies     occupation 
      1       1.9588      1.00000
      2       6.1509      1.00000
      3       6.9241      1.00000
      4       7.0356      1.00000
      5       7.4660      1.00000
      6       7.9580      1.00000
      7      26.9323      0.00000
      8      29.1147      0.00000
      9      32.9024      0.00000
     10      34.2980      0.00000
     11      37.8992      0.00000
     12      41.6129      0.00000

 k-point    13 :       0.3500    0.1500    0.0500
  band No.  band energies     occupation 
      1       3.3508      1.00000
      2       6.0535      1.00000
      3       6.7359      1.00000
      4       7.0672      1.00000
      5       7.8469      1.00000
      6       8.2936      1.00001
      7      21.9808      0.00000
      8      28.3294      0.00000
      9      31.3863      0.00000
     10      33.5879      0.00000
     11      39.6778      0.00000
     12      40.2088      0.00000

 k-point    14 :       0.4500    0.1500    0.0500
  band No.  band energies     occupation 
      1       4.4104      1.00000
      2       6.3956      1.00000
      3       6.6006      1.00000
      4       6.9677      1.00000
      5       8.2629      1.00000
      6       9.1725     -0.01621
      7      17.5893      0.00000
      8      28.1191      0.00000
      9      29.6733      0.00000
     10      32.7685      0.00000
     11      39.0595      0.00000
     12      41.4031      0.00000

 k-point    15 :      -0.4500    0.1500    0.0500
  band No.  band energies     occupation 
      1       4.6602      1.00000
      2       6.3825      1.00000
      3       6.8854      1.00000
      4       7.0744      1.00000
      5       8.3535      1.00004
      6      10.6022     -0.00000
      7      14.6902      0.00000
      8      27.7450      0.00000
      9      29.1990      0.00000
     10      32.6461      0.00000
     11      38.3588      0.00000
     12      41.0586      0.00000

 k-point    16 :      -0.3500    0.1500    0.0500
  band No.  band energies     occupation 
      1       4.5656      1.00000
      2       6.4533      1.00000
      3       6.7948      1.00000
      4       6.9265      1.00000
      5       8.1736      1.00000
      6       9.7478     -0.00000
      7      16.3625      0.00000
      8      27.0399      0.00000
      9      30.3830      0.00000
     10      33.3660      0.00000
     11      37.9843      0.00000
     12      40.7460      0.00000

 k-point    17 :      -0.2500    0.1500    0.0500
  band No.  band energies     occupation 
      1       3.8114      1.00000
      2       6.1777      1.00000
      3       6.6532      1.00000
      4       7.0259      1.00000
      5       7.7809      1.00000
      6       8.6635      1.02236
      7      20.4499      0.00000
      8      26.9304      0.00000
      9      32.2258      0.00000
     10      34.8882      0.00000
     11      37.9981      0.00000
     12      40.0237      0.00000

 k-point    18 :      -0.1500    0.1500    0.0500
  band No.  band energies     occupation 
      1       2.3979      1.00000
      2       6.1453      1.00000
      3       6.8443      1.00000
      4       7.0632      1.00000
      5       7.4641      1.00000
      6       8.1101      1.00000
      7      25.2421      0.00000
      8      27.4841      0.00000
      9      34.4188      0.00000
     10      35.8321      0.00000
     11      38.7130      0.00000
     12      39.2506      0.00000

 k-point    19 :      -0.0500    0.1500    0.0500
  band No.  band energies     occupation 
      1       1.2596      1.00000
      2       6.3474      1.00000
      3       6.8474      1.00000
      4       6.8595      1.00000
      5       7.5413      1.00000
      6       7.8359      1.00000
      7      28.3973      0.00000
      8      30.6409      0.00000
      9      34.1897      0.00000
     10      36.2557      0.00000
     11      38.8557      0.00000
     12      40.9188      0.00000

 k-point    20 :       0.2500    0.2500    0.0500
  band No.  band energies     occupation 
      1       2.6035      1.00000
      2       5.8918      1.00000
      3       7.0743      1.00000
      4       7.2730      1.00000
      5       7.4311      1.00000
      6       8.0336      1.00000
      7      27.3711      0.00000
      8      28.7856      0.00000
      9      30.0098      0.00000
     10      30.9952      0.00000
     11      35.0294      0.00000
     12      45.5364      0.00000

 k-point    21 :       0.3500    0.2500    0.0500
  band No.  band energies     occupation 
      1       3.6871      1.00000
      2       5.6782      1.00000
      3       6.8579      1.00000
      4       7.5124      1.00000
      5       7.8819      1.00000
      6       8.3127      1.00001
      7      24.3462      0.00000
      8      26.3317      0.00000
      9      28.1258      0.00000
     10      31.5613      0.00000
     11      35.2468      0.00000
     12      45.0078      0.00000

[...]
      4       7.4016      1.00000
      5       8.8366      0.97600
      6       8.8366      0.97600
      7      18.7684      0.00000
      8      31.5278      0.00000
      9      33.5388      0.00000
     10      33.5388      0.00000
     11      37.5468      0.00000
     12      37.5468      0.00000

 k-point   102 :       0.4500    0.3500    0.3500
  band No.  band energies     occupation 
      1       4.5153      1.00000
      2       7.1322      1.00000
      3       7.2743      1.00000
      4       7.4731      1.00000
      5       8.7769      1.02945
      6       9.6015     -0.00006
      7      17.6722      0.00000
      8      28.1314      0.00000
      9      32.4675      0.00000
     10      33.5144      0.00000
     11      37.6849      0.00000
     12      38.9490      0.00000

 k-point   103 :      -0.4500    0.3500    0.3500
  band No.  band energies     occupation 
      1       5.3715      1.00000
      2       6.6822      1.00000
      3       7.0250      1.00000
      4       7.7765      1.00000
      5       8.7754      1.02999
      6      11.1566     -0.00000
      7      17.0639      0.00000
      8      23.6331      0.00000
      9      30.5428      0.00000
     10      31.6574      0.00000
     11      41.3215      0.00000
     12      41.3450      0.00000

 k-point   104 :      -0.3500    0.3500    0.3500
  band No.  band energies     occupation 
      1       5.9599      1.00000
      2       6.1423      1.00000
      3       7.0153      1.00000
      4       8.1771      1.00000
      5       8.8772      0.89479
      6      13.4059     -0.00000
      7      16.5659      0.00000
      8      20.0176      0.00000
      9      27.9036      0.00000
     10      30.8108      0.00000
     11      44.7549      0.00000
     12      44.7625      0.00000

 k-point   105 :       0.4500    0.4500    0.3500
  band No.  band energies     occupation 
      1       4.7475      1.00000
      2       7.0621      1.00000
      3       7.4568      1.00000
      4       7.4699      1.00000
      5       9.1262      0.04073
      6       9.7189     -0.00000
      7      16.4872      0.00000
      8      29.5069      0.00000
      9      30.6524      0.00000
     10      32.0230      0.00000
     11      38.9643      0.00000
     12      39.4550      0.00000

 k-point   106 :      -0.4500    0.4500    0.3500
  band No.  band energies     occupation 
      1       5.2927      1.00000
      2       6.6812      1.00000
      3       7.2479      1.00000
      4       7.6995      1.00000
      5       9.0439      0.26813
      6      11.2272     -0.00000
      7      15.8167      0.00000
      8      26.1639      0.00000
      9      27.6845      0.00000
     10      33.6675      0.00000
     11      38.2850      0.00000
     12      43.2803      0.00000

 k-point   107 :      -0.3500    0.4500    0.3500
  band No.  band energies     occupation 
      1       5.9272      1.00000
      2       6.1801      1.00000
      3       6.9803      1.00000
      4       8.0741      1.00000
      5       9.0396      0.28394
      6      13.4088     -0.00000
      7      15.5916      0.00000
      8      22.1868      0.00000
      9      25.3032      0.00000
     10      33.9380      0.00000
     11      40.0342      0.00000
     12      46.2267      0.00000

 k-point   108 :      -0.4500   -0.4500    0.3500
  band No.  band energies     occupation 
      1       5.4860      1.00000
      2       6.4812      1.00000
      3       7.2609      1.00000
      4       7.8010      1.00000
      5       9.1049      0.08365
      6      12.0953     -0.00000
      7      15.2405      0.00000
      8      24.5235      0.00000
      9      28.7397      0.00000
     10      30.9680      0.00000
     11      42.1235      0.00000
     12      42.3177      0.00000

 k-point   109 :       0.4500    0.4500    0.4500
  band No.  band energies     occupation 
      1       4.6562      1.00000
      2       7.2895      1.00000
      3       7.2895      1.00000
      4       8.3580      1.00004
      5       9.0971      0.10222
      6       9.0971      0.10222
      7      15.4434      0.00000
      8      30.9358      0.00000
      9      33.3055      0.00000
     10      33.3055      0.00000
     11      36.3765      0.00000
     12      36.3765      0.00000

 k-point   110 :      -0.4500    0.4500    0.4500
  band No.  band energies     occupation 
      1       4.9465      1.00000
      2       7.0733      1.00000
      3       7.4111      1.00000
      4       7.8024      1.00000
      5       9.0874      0.12749
      6      10.3832     -0.00000
      7      15.0024      0.00000
      8      28.5862      0.00000
      9      31.6431      0.00000
     10      31.7634      0.00000
     11      38.2960      0.00000
     12      38.9828      0.00000


--------------------------------------------------------------------------------------------------------


 soft charge-density along one line, spin component           1
         0         1         2         3         4         5         6         7         8         9
 total charge-density along one line
 
 soft charge-density along one line, spin component           2
         0         1         2         3         4         5         6         7         8         9
 total charge-density along one line
 
 pseudopotential strength for first ion, spin component:           1
 -0.844   0.000   0.000   0.000   0.000   0.000   0.000   0.000   0.000   0.000  -1.510   0.000   0.000   0.000   0.000   0.000
  0.000   0.000  -0.844   0.000  -0.000   0.000   0.000   0.000   0.000   0.000   0.000   0.000  -1.510   0.000  -0.000   0.000
  0.000   0.000  -0.000   0.000  -0.740   0.000  -0.000   0.000   0.000   0.000   0.000   0.000  -0.000   0.000  -1.411   0.000
  0.000   0.000   0.000   0.000  -0.000   0.000  -0.844   0.000  -0.000   0.000   0.000   0.000   0.000   0.000  -0.000   0.000
  0.000   0.000   0.000   0.000   0.000   0.000  -0.000   0.000  -0.740   0.000   0.000   0.000   0.000   0.000   0.000   0.000
 -1.510   0.000   0.000   0.000   0.000   0.000   0.000   0.000   0.000   0.000  -2.105   0.000   0.000   0.000   0.000   0.000
  0.000   0.000  -1.510   0.000  -0.000   0.000   0.000   0.000   0.000   0.000   0.000   0.000  -2.105   0.000  -0.000   0.000
  0.000   0.000  -0.000   0.000  -1.411   0.000  -0.000   0.000   0.000   0.000   0.000   0.000  -0.000   0.000  -2.010   0.000
  0.000   0.000   0.000   0.000  -0.000   0.000  -1.510   0.000  -0.000   0.000   0.000   0.000   0.000   0.000  -0.000   0.000
  0.000   0.000   0.000   0.000   0.000   0.000  -0.000   0.000  -1.411   0.000   0.000   0.000   0.000   0.000   0.000   0.000
 -0.000   0.000  -0.000   0.000  -0.000   0.000  -0.000   0.000   0.000   0.000  -0.000   0.000  -0.000   0.000  -0.000   0.000
 -0.000   0.000  -0.000   0.000  -0.000   0.000  -0.000   0.000   0.000   0.000  -0.000   0.000  -0.000   0.000  -0.000   0.000
 -0.000   0.000  -0.000   0.000   0.000   0.000  -0.000   0.000   0.000   0.000  -0.000   0.000  -0.000   0.000   0.000   0.000
 -0.000   0.000  -0.000   0.000  -0.000   0.000  -0.000   0.000   0.000   0.000  -0.000   0.000  -0.000   0.000  -0.000   0.000
 -0.000   0.000  -0.000   0.000   0.000   0.000  -0.000   0.000  -0.000   0.000  -0.000   0.000  -0.000   0.000   0.000   0.000
 -0.000   0.000  -0.000   0.000   0.000   0.000  -0.000   0.000   0.000   0.000  -0.000   0.000  -0.000   0.000   0.000   0.000
 -0.000   0.000  -0.000   0.000  -0.000   0.000  -0.000   0.000   0.000   0.000  -0.000   0.000  -0.000   0.000  -0.000   0.000
 -0.000   0.000  -0.000   0.000   0.000   0.000  -0.000   0.000  -0.000   0.000  -0.000   0.000  -0.000   0.000   0.000   0.000
 pseudopotential strength for first ion, spin component:           2
 -0.215   0.000   0.000   0.000   0.000   0.000   0.000   0.000   0.000   0.000  -0.911   0.000   0.000   0.000   0.000   0.000
  0.000   0.000  -0.215   0.000  -0.000   0.000   0.000   0.000   0.000   0.000   0.000   0.000  -0.911   0.000  -0.000   0.000
  0.000   0.000  -0.000   0.000  -0.241   0.000  -0.000   0.000   0.000   0.000   0.000   0.000  -0.000   0.000  -0.936   0.000
  0.000   0.000   0.000   0.000  -0.000   0.000  -0.215   0.000  -0.000   0.000   0.000   0.000   0.000   0.000  -0.000   0.000
  0.000   0.000   0.000   0.000   0.000   0.000  -0.000   0.000  -0.241   0.000   0.000   0.000   0.000   0.000   0.000   0.000
 -0.911   0.000   0.000   0.000   0.000   0.000   0.000   0.000   0.000   0.000  -1.534   0.000   0.000   0.000   0.000   0.000
  0.000   0.000  -0.911   0.000  -0.000   0.000   0.000   0.000   0.000   0.000   0.000   0.000  -1.534   0.000  -0.000   0.000
  0.000   0.000  -0.000   0.000  -0.936   0.000  -0.000   0.000   0.000   0.000   0.000   0.000  -0.000   0.000  -1.558   0.000
  0.000   0.000   0.000   0.000  -0.000   0.000  -0.911   0.000  -0.000   0.000   0.000   0.000   0.000   0.000  -0.000   0.000
  0.000   0.000   0.000   0.000   0.000   0.000  -0.000   0.000  -0.936   0.000   0.000   0.000   0.000   0.000   0.000   0.000
 -0.000   0.000  -0.000   0.000   0.000   0.000  -0.000   0.000   0.000   0.000  -0.000   0.000  -0.000   0.000  -0.000   0.000
 -0.000   0.000  -0.000   0.000   0.000   0.000  -0.000   0.000   0.000   0.000  -0.000   0.000  -0.000   0.000   0.000   0.000
 -0.000   0.000  -0.000   0.000   0.000   0.000   0.000   0.000   0.000   0.000  -0.000   0.000  -0.000   0.000   0.000   0.000
  0.000   0.000  -0.000   0.000  -0.000   0.000  -0.000   0.000  -0.000   0.000   0.000   0.000  -0.000   0.000  -0.000   0.000
 -0.000   0.000   0.000   0.000   0.000   0.000  -0.000   0.000  -0.000   0.000  -0.000   0.000   0.000   0.000   0.000   0.000
 -0.000   0.000  -0.000   0.000   0.000   0.000   0.000   0.000   0.000   0.000  -0.000   0.000  -0.000   0.000   0.000   0.000
  0.000   0.000  -0.000   0.000  -0.000   0.000  -0.000   0.000  -0.000   0.000   0.000   0.000  -0.000   0.000  -0.000   0.000
 -0.000   0.000   0.000   0.000   0.000   0.000  -0.000   0.000  -0.000   0.000  -0.000   0.000   0.000   0.000   0.000   0.000
 total augmentation occupancy for first ion, spin component:           1
  2.635   0.000   0.000  -0.000   0.000  -1.123   0.000  -0.000   0.000  -0.000   0.000   0.000   0.000   0.000   0.000   0.000
 -0.000   2.635   0.000   0.000   0.000  -0.000  -1.123   0.000   0.000   0.000  -0.000   0.000   0.000   0.000   0.000   0.000
  0.000  -0.000   3.364  -0.000   0.000   0.000   0.000  -1.439  -0.000   0.000   0.000  -0.000   0.000   0.000   0.000   0.000
  0.000  -0.000   0.000   2.635   0.000   0.000  -0.000  -0.000  -1.123  -0.000   0.000   0.000   0.000   0.000   0.000   0.000
  0.000   0.000   0.000  -0.000   3.364  -0.000   0.000   0.000   0.000  -1.439   0.000   0.000   0.000   0.000   0.000   0.000
 -1.123   0.000  -0.000   0.000   0.000   1.317   0.000   0.000   0.000   0.000   0.000   0.000   0.000   0.000   0.000   0.000
 -0.000  -1.123   0.000  -0.000   0.000   0.000   1.317  -0.000   0.000  -0.000   0.000   0.000   0.000   0.000   0.000   0.000
 -0.000   0.000  -1.439  -0.000   0.000   0.000   0.000   1.340   0.000   0.000   0.000   0.000   0.000   0.000   0.000   0.000
 -0.000   0.000  -0.000  -1.123  -0.000   0.000   0.000  -0.000   1.317  -0.000   0.000  -0.000   0.000   0.000   0.000   0.000
 -0.000  -0.000   0.000  -0.000  -1.439   0.000   0.000   0.000   0.000   1.340   0.000   0.000   0.000   0.000   0.000   0.000
  0.000   0.000   0.000  -0.000   0.000   0.000   0.000   0.000   0.000   0.000   2.204  -0.295   0.000   0.000   0.000   0.000
  0.000   0.000  -0.000  -0.000   0.000   0.000  -0.000   0.000  -0.000   0.000  -0.295   0.047   0.000   0.000   0.000   0.000
  0.000   0.000   0.000   0.000   0.000   0.000   0.000   0.000   0.000   0.000   0.000   0.000   0.284   0.000   0.000  -0.029
  0.000   0.000   0.000   0.000   0.000   0.000   0.000   0.000   0.000   0.000   0.000   0.000   0.000   0.284   0.000   0.000
  0.000   0.000   0.000   0.000   0.000   0.000   0.000   0.000   0.000   0.000   0.000   0.000   0.000   0.000   0.284   0.000
  0.000   0.000   0.000   0.000   0.000   0.000   0.000   0.000   0.000   0.000   0.000   0.000  -0.029   0.000   0.000   0.003
  0.000   0.000   0.000   0.000   0.000   0.000   0.000   0.000   0.000   0.000   0.000   0.000  -0.000  -0.029   0.000   0.000
  0.000   0.000   0.000   0.000   0.000   0.000   0.000   0.000   0.000   0.000   0.000   0.000   0.000  -0.000  -0.029   0.000
 total augmentation occupancy for first ion, spin component:           2
  0.994  -0.000  -0.000   0.000   0.000  -0.484  -0.000  -0.000   0.000  -0.000   0.000  -0.000   0.000   0.000   0.000   0.000
  0.000   0.994  -0.000   0.000   0.000   0.000  -0.484   0.000  -0.000   0.000   0.000   0.000   0.000   0.000   0.000   0.000
  0.000  -0.000   0.563   0.000   0.000   0.000  -0.000  -0.273  -0.000   0.000  -0.000   0.000   0.000   0.000   0.000   0.000
  0.000   0.000  -0.000   0.994  -0.000  -0.000   0.000  -0.000  -0.484   0.000   0.000  -0.000   0.000   0.000   0.000   0.000
 -0.000  -0.000   0.000   0.000   0.563   0.000  -0.000   0.000   0.000  -0.273   0.000   0.000   0.000   0.000   0.000   0.000
 -0.484  -0.000  -0.000   0.000  -0.000   0.153  -0.000   0.000   0.000   0.000   0.000  -0.000   0.000   0.000   0.000   0.000
  0.000  -0.484  -0.000   0.000  -0.000   0.000   0.153   0.000  -0.000  -0.000   0.000   0.000   0.000   0.000   0.000   0.000
 -0.000   0.000  -0.273   0.000   0.000   0.000   0.000   0.071  -0.000  -0.000   0.000  -0.000   0.000   0.000   0.000   0.000
  0.000   0.000  -0.000  -0.484   0.000  -0.000   0.000  -0.000   0.153   0.000  -0.000   0.000   0.000   0.000   0.000   0.000
 -0.000   0.000   0.000  -0.000  -0.273   0.000   0.000   0.000   0.000   0.071   0.000  -0.000   0.000   0.000   0.000   0.000
 -0.000   0.000  -0.000  -0.000   0.000   0.000  -0.000   0.000  -0.000   0.000  -0.126   0.040   0.000   0.000   0.000   0.000
  0.000  -0.000  -0.000  -0.000   0.000   0.000   0.000  -0.000   0.000   0.000   0.040  -0.008   0.000   0.000   0.000   0.000
  0.000   0.000   0.000   0.000   0.000   0.000   0.000   0.000   0.000   0.000   0.000   0.000  -0.017   0.000   0.000   0.003
  0.000   0.000   0.000   0.000   0.000   0.000   0.000   0.000   0.000   0.000   0.000   0.000   0.000  -0.017   0.000   0.000
  0.000   0.000   0.000   0.000   0.000   0.000   0.000   0.000   0.000   0.000   0.000   0.000  -0.000  -0.000  -0.017   0.000
  0.000   0.000   0.000   0.000   0.000   0.000   0.000   0.000   0.000   0.000   0.000   0.000   0.003   0.000   0.000  -0.000
  0.000   0.000   0.000   0.000   0.000   0.000   0.000   0.000   0.000   0.000   0.000   0.000  -0.000   0.003   0.000   0.000
  0.000   0.000   0.000   0.000   0.000   0.000   0.000   0.000   0.000   0.000   0.000   0.000   0.000  -0.000   0.003   0.000


------------------------ aborting loop because EDIFF is reached ----------------------------------------


    CHARGE:  cpu time    0.0050: real time    0.0050
    FORLOC:  cpu time    0.0001: real time    0.0001
    FORNL :  cpu time    0.0121: real time    0.0121
    STRESS:  cpu time    0.0436: real time    0.0437
    FORCOR:  cpu time    0.0026: real time    0.0026
    FORHAR:  cpu time    0.0003: real time    0.0004
    MIXING:  cpu time    0.0003: real time    0.0003
    OFIELD:  cpu time    0.0000: real time    0.0000

  FORCE on cell =-STRESS in cart. coord.  units (eV):
  Direction    XX          YY          ZZ          XY          YZ          ZX
  --------------------------------------------------------------------------------------
  Alpha Z    45.59739    45.59739    45.59739
  Ewald    -309.95794  -309.95794  -309.95794    -0.00000    -0.00000     0.00000
  Hartree    76.19098    76.19098    76.19098     0.00000     0.00000     0.00000
  E(xc)     -54.96813   -54.96813   -54.96813    -0.00038    -0.00038    -0.00038
  Local      -2.89674    -2.89674    -2.89674     0.00259     0.00259     0.00259
  n-local    -8.22017    -7.69585   -10.25951     1.67803    -1.79863     0.04562
  augment   176.18322   176.18322   176.18322    -0.00133    -0.00133    -0.00133
  Kinetic    77.10378    77.21964    79.40501    -0.73615     0.65095     0.02277
  Fock        0.00000     0.00000     0.00000     0.00000     0.00000     0.00000
  -------------------------------------------------------------------------------------
  Total      -0.66691    -0.66691    -0.66691     0.00000     0.00000     0.00000
  in kB     -95.53252   -95.53252   -95.53252     0.00000     0.00000     0.00000
  external pressure =      -95.53 kB  Pullay stress =        0.00 kB


 VOLUME and BASIS-vectors are now :
 -----------------------------------------------------------------------------
  energy-cutoff  :      270.00
  volume of cell :       11.18
      direct lattice vectors                 reciprocal lattice vectors
     0.000000000  1.775000000  1.775000000    -0.281690141  0.281690141  0.281690141
     1.775000000  0.000000000  1.775000000     0.281690141 -0.281690141  0.281690141
     1.775000000  1.775000000  0.000000000     0.281690141  0.281690141 -0.281690141

  length of vectors
     2.510229073  2.510229073  2.510229073     0.487901636  0.487901636  0.487901636


 FORCES acting on ions
    electron-ion (+dipol)            ewald-force                    non-local-force                 convergence-correction
 -----------------------------------------------------------------------------------------------
   0.274E-13 0.541E-13 0.407E-13   0.131E-15 0.576E-15 0.271E-14   -.827E-24 0.827E-24 0.000E+00   0.435E-13 0.260E-13 0.417E-13
 -----------------------------------------------------------------------------------------------
   0.274E-13 0.541E-13 0.407E-13   0.131E-15 0.576E-15 0.271E-14   -.827E-24 0.827E-24 0.000E+00   0.435E-13 0.260E-13 0.417E-13
 
 
 POSITION                                       TOTAL-FORCE (eV/Angst)
 -----------------------------------------------------------------------------------
      0.00000      0.00000      0.00000         0.000000      0.000000      0.000000
 -----------------------------------------------------------------------------------
    total drift:                                0.000000      0.000000      0.000000


--------------------------------------------------------------------------------------------------------



  FREE ENERGIE OF THE ION-ELECTRON SYSTEM (eV)
  ---------------------------------------------------
  free  energy   TOTEN  =        -5.45979847 eV

  energy  without entropy=       -5.45763842  energy(sigma->0) =       -5.45907845
 


--------------------------------------------------------------------------------------------------------


    POTLOK:  cpu time    0.0062: real time    0.0062


--------------------------------------------------------------------------------------------------------


 writing wavefunctions
     LOOP+:  cpu time    3.7405: real time    3.8221
    4ORBIT:  cpu time    0.0000: real time    0.0000

 total amount of memory used by VASP MPI-rank0    33873. kBytes
=======================================================================

   base      :      30000. kBytes
   nonl-proj :       1902. kBytes
   fftplans  :        142. kBytes
   grid      :        320. kBytes
   one-center:         31. kBytes
   wavefun   :       1478. kBytes
 
  
  
 General timing and accounting informations for this job:
 ========================================================
  
                  Total CPU time used (sec):        4.178
                            User time (sec):        3.648
                          System time (sec):        0.529
                         Elapsed time (sec):        4.309
  
                   Maximum memory used (kb):       59016.
                   Average memory used (kb):           0.
  
                          Minor page faults:        39841
                          Major page faults:            0
                 Voluntary context switches:         4018
