<?xml version="1.0" encoding="ISO-8859-1"?>
<modeling>
 <generator>
  <i name="program" type="string">vasp </i>
  <i name="version" type="string">5.4.4.18Apr17-6-g9f103f2a35  </i>
  <i name="subversion" type="string">(build Jul 01 2019 03:25:34) complex            parallel </i>
  <i name="platform" type="string">LinuxIFC </i>
  <i name="date" type="string">2020 07 09 </i>
  <i name="time" type="string">19:35:39 </i>
 </generator>
 <incar>
  <i type="string" name="SYSTEM"> fcc Ni</i>
  <i type="string" name="PREC">normal</i>
  <i type="int" name="ISPIN">     2</i>
  <i name="EDIFF">      0.00010000</i>
  <i name="ENCUT">    270.00000000</i>
  <v name="MAGMOM">      3.00000000</v>
  <v type="int" name="KPOINT_BSE">    -1     0     0     0</v>
 </incar>
 <structure name="primitive_cell" >
  <crystal>
   <varray name="basis" >
    <v>       0.00000000       1.77500000       1.77500000 </v>
    <v>       1.77500000       0.00000000       1.77500000 </v>
    <v>       1.77500000       1.77500000       0.00000000 </v>
   </varray>
   <i name="volume">     11.18471875 </i>
   <varray name="rec_basis" >
    <v>      -0.28169014       0.28169014       0.28169014 </v>
    <v>       0.28169014      -0.28169014       0.28169014 </v>
    <v>       0.28169014       0.28169014      -0.28169014 </v>
   </varray>
  </crystal>
  <varray name="positions" >
   <v>       0.00000000       0.00000000       0.00000000 </v>
  </varray>
 </structure>
 <varray name="primitive_index" >
  <v type="int" >        1 </v>
 </varray>
 <kpoints>
  <generation param="Monkhorst-Pack">
   <v type="int" name="divisions">      10       10       10 </v>
   <v name="usershift">      0.00000000       0.00000000       0.00000000 </v>
   <v name="genvec1">      0.10000000       0.00000000       0.00000000 </v>
   <v name="genvec2">      0.00000000       0.10000000       0.00000000 </v>
   <v name="genvec3">      0.00000000       0.00000000       0.10000000 </v>
   <v name="shift">      0.50000000       0.50000000       0.50000000 </v>
  </generation>
  <varray name="kpointlist" >
   <v>       0.05000000       0.05000000       0.05000000 </v>
   <v>       0.15000000       0.05000000       0.05000000 </v>
   <v>       0.25000000       0.05000000       0.05000000 </v>
   <v>       0.35000000       0.05000000       0.05000000 </v>
   <v>       0.45000000       0.05000000       0.05000000 </v>
   <v>      -0.45000000       0.05000000       0.05000000 </v>
   <v>      -0.35000000       0.05000000       0.05000000 </v>
   <v>      -0.25000000       0.05000000       0.05000000 </v>
   <v>      -0.15000000       0.05000000       0.05000000 </v>
   <v>      -0.05000000       0.05000000       0.05000000 </v>
   <v>       0.15000000       0.15000000       0.05000000 </v>
   <v>       0.25000000       0.15000000       0.05000000 </v>
   <v>       0.35000000       0.15000000       0.05000000 </v>
   <v>       0.45000000       0.15000000       0.05000000 </v>
   <v>      -0.45000000       0.15000000       0.05000000 </v>
   <v>      -0.35000000       0.15000000       0.05000000 </v>
   <v>      -0.25000000       0.15000000       0.05000000 </v>
   <v>      -0.15000000       0.15000000       0.05000000 </v>
   <v>      -0.05000000       0.15000000       0.05000000 </v>
   <v>       0.25000000       0.25000000       0.05000000 </v>
   <v>       0.35000000       0.25000000       0.05000000 </v>
   <v>       0.45000000       0.25000000       0.05000000 </v>
   <v>      -0.45000000       0.25000000       0.05000000 </v>
   <v>      -0.35000000       0.25000000       0.05000000 </v>
   <v>      -0.25000000       0.25000000       0.05000000 </v>
   <v>      -0.15000000       0.25000000       0.05000000 </v>
   <v>      -0.05000000       0.25000000       0.05000000 </v>
   <v>       0.35000000       0.35000000       0.05000000 </v>
   <v>       0.45000000       0.35000000       0.05000000 </v>
   <v>      -0.45000000       0.35000000       0.05000000 </v>
   <v>      -0.35000000       0.35000000       0.05000000 </v>
   <v>      -0.25000000       0.35000000       0.05000000 </v>
   <v>      -0.15000000       0.35000000       0.05000000 </v>
   <v>      -0.05000000       0.35000000       0.05000000 </v>
   <v>       0.45000000       0.45000000       0.05000000 </v>
   <v>      -0.45000000       0.45000000       0.05000000 </v>
   <v>      -0.35000000       0.45000000       0.05000000 </v>
   <v>      -0.25000000       0.45000000       0.05000000 </v>
   <v>      -0.15000000       0.45000000       0.05000000 </v>
   <v>      -0.05000000       0.45000000       0.05000000 </v>
   <v>      -0.45000000      -0.45000000       0.05000000 </v>
   <v>      -0.35000000      -0.45000000       0.05000000 </v>
   <v>      -0.25000000      -0.45000000       0.05000000 </v>
   <v>      -0.15000000      -0.45000000       0.05000000 </v>
   <v>      -0.35000000      -0.35000000       0.05000000 </v>
   <v>      -0.25000000      -0.35000000       0.05000000 </v>
   <v>      -0.15000000      -0.35000000       0.05000000 </v>
   <v>      -0.25000000      -0.25000000       0.05000000 </v>
   <v>      -0.15000000      -0.25000000       0.05000000 </v>
   <v>      -0.15000000      -0.15000000       0.05000000 </v>
   <v>       0.15000000       0.15000000       0.15000000 </v>
   <v>       0.25000000       0.15000000       0.15000000 </v>
   <v>       0.35000000       0.15000000       0.15000000 </v>
   <v>       0.45000000       0.15000000       0.15000000 </v>
   <v>      -0.45000000       0.15000000       0.15000000 </v>
   <v>      -0.35000000       0.15000000       0.15000000 </v>
   <v>      -0.25000000       0.15000000       0.15000000 </v>
   <v>      -0.15000000       0.15000000       0.15000000 </v>
   <v>       0.25000000       0.25000000       0.15000000 </v>
   <v>       0.35000000       0.25000000       0.15000000 </v>
   <v>       0.45000000       0.25000000       0.15000000 </v>
   <v>      -0.45000000       0.25000000       0.15000000 </v>
   <v>      -0.35000000       0.25000000       0.15000000 </v>
   <v>      -0.25000000       0.25000000       0.15000000 </v>
   <v>      -0.15000000       0.25000000       0.15000000 </v>
   <v>       0.35000000       0.35000000       0.15000000 </v>
   <v>       0.45000000       0.35000000       0.15000000 </v>
   <v>      -0.45000000       0.35000000       0.15000000 </v>
   <v>      -0.35000000       0.35000000       0.15000000 </v>
   <v>      -0.25000000       0.35000000       0.15000000 </v>
   <v>      -0.15000000       0.35000000       0.15000000 </v>
   <v>       0.45000000       0.45000000       0.15000000 </v>
   <v>      -0.45000000       0.45000000       0.15000000 </v>
   <v>      -0.35000000       0.45000000       0.15000000 </v>
   <v>      -0.25000000       0.45000000       0.15000000 </v>
   <v>      -0.15000000       0.45000000       0.15000000 </v>
   <v>      -0.45000000      -0.45000000       0.15000000 </v>
   <v>      -0.35000000      -0.45000000       0.15000000 </v>
   <v>      -0.25000000      -0.45000000       0.15000000 </v>
   <v>      -0.35000000      -0.35000000       0.15000000 </v>
   <v>      -0.25000000      -0.35000000       0.15000000 </v>
   <v>      -0.25000000      -0.25000000       0.15000000 </v>
   <v>       0.25000000       0.25000000       0.25000000 </v>
   <v>       0.35000000       0.25000000       0.25000000 </v>
   <v>       0.45000000       0.25000000       0.25000000 </v>
   <v>      -0.45000000       0.25000000       0.25000000 </v>
   <v>      -0.35000000       0.25000000       0.25000000 </v>
   <v>      -0.25000000       0.25000000       0.25000000 </v>
   <v>       0.35000000       0.35000000       0.25000000 </v>
   <v>       0.45000000       0.35000000       0.25000000 </v>
   <v>      -0.45000000       0.35000000       0.25000000 </v>
   <v>      -0.35000000       0.35000000       0.25000000 </v>
   <v>      -0.25000000       0.35000000       0.25000000 </v>
   <v>       0.45000000       0.45000000       0.25000000 </v>
   <v>      -0.45000000       0.45000000       0.25000000 </v>
   <v>      -0.35000000       0.45000000       0.25000000 </v>
   <v>      -0.25000000       0.45000000       0.25000000 </v>
   <v>      -0.45000000      -0.45000000       0.25000000 </v>
   <v>      -0.35000000      -0.45000000       0.25000000 </v>
   <v>      -0.35000000      -0.35000000       0.25000000 </v>
   <v>       0.35000000       0.35000000       0.35000000 </v>
   <v>       0.45000000       0.35000000       0.35000000 </v>
   <v>      -0.45000000       0.35000000       0.35000000 </v>
   <v>      -0.35000000       0.35000000       0.35000000 </v>
   <v>       0.45000000       0.45000000       0.35000000 </v>
   <v>      -0.45000000       0.45000000       0.35000000 </v>
   <v>      -0.35000000       0.45000000       0.35000000 </v>
   <v>      -0.45000000      -0.45000000       0.35000000 </v>
   <v>       0.45000000       0.45000000       0.45000000 </v>
   <v>      -0.45000000       0.45000000       0.45000000 </v>
  </varray>
  <varray name="weights" >
   <v>       0.00200000 </v>
   <v>       0.00600000 </v>
   <v>       0.00600000 </v>
   <v>       0.00600000 </v>
   <v>       0.00600000 </v>
   <v>       0.00600000 </v>
   <v>       0.00600000 </v>
   <v>       0.00600000 </v>
   <v>       0.00600000 </v>
   <v>       0.00600000 </v>
   <v>       0.00600000 </v>
   <v>       0.01200000 </v>
   <v>       0.01200000 </v>
   <v>       0.01200000 </v>
   <v>       0.01200000 </v>
   <v>       0.01200000 </v>
   <v>       0.01200000 </v>
   <v>       0.01200000 </v>
   <v>       0.01200000 </v>
   <v>       0.00600000 </v>
   <v>       0.01200000 </v>
   <v>       0.01200000 </v>
   <v>       0.01200000 </v>
   <v>       0.01200000 </v>
   <v>       0.01200000 </v>
   <v>       0.01200000 </v>
   <v>       0.01200000 </v>
   <v>       0.00600000 </v>
   <v>       0.01200000 </v>
   <v>       0.01200000 </v>
   <v>       0.01200000 </v>
   <v>       0.01200000 </v>
   <v>       0.01200000 </v>
   <v>       0.01200000 </v>
   <v>       0.00600000 </v>
   <v>       0.01200000 </v>
   <v>       0.01200000 </v>
   <v>       0.01200000 </v>
   <v>       0.01200000 </v>
   <v>       0.01200000 </v>
   <v>       0.00600000 </v>
   <v>       0.01200000 </v>
   <v>       0.01200000 </v>
   <v>       0.01200000 </v>
   <v>       0.00600000 </v>
   <v>       0.01200000 </v>
   <v>       0.01200000 </v>
   <v>       0.00600000 </v>
   <v>       0.01200000 </v>
   <v>       0.00600000 </v>
   <v>       0.00200000 </v>
   <v>       0.00600000 </v>
   <v>       0.00600000 </v>
   <v>       0.00600000 </v>
   <v>       0.00600000 </v>
   <v>       0.00600000 </v>
   <v>       0.00600000 </v>
   <v>       0.00600000 </v>
   <v>       0.00600000 </v>
   <v>       0.01200000 </v>
   <v>       0.01200000 </v>
   <v>       0.01200000 </v>
   <v>       0.01200000 </v>
   <v>       0.01200000 </v>
   <v>       0.01200000 </v>
   <v>       0.00600000 </v>
   <v>       0.01200000 </v>
   <v>       0.01200000 </v>
   <v>       0.01200000 </v>
   <v>       0.01200000 </v>
   <v>       0.01200000 </v>
   <v>       0.00600000 </v>
   <v>       0.01200000 </v>
   <v>       0.01200000 </v>
   <v>       0.01200000 </v>
   <v>       0.01200000 </v>
   <v>       0.00600000 </v>
   <v>       0.01200000 </v>
   <v>       0.01200000 </v>
   <v>       0.00600000 </v>
   <v>       0.01200000 </v>
   <v>       0.00600000 </v>
   <v>       0.00200000 </v>
   <v>       0.00600000 </v>
   <v>       0.00600000 </v>
   <v>       0.00600000 </v>
   <v>       0.00600000 </v>
   <v>       0.00600000 </v>
   <v>       0.00600000 </v>
   <v>       0.01200000 </v>
   <v>       0.01200000 </v>
   <v>       0.01200000 </v>
   <v>       0.01200000 </v>
   <v>       0.00600000 </v>
   <v>       0.01200000 </v>
   <v>       0.01200000 </v>
   <v>       0.01200000 </v>
   <v>       0.00600000 </v>
   <v>       0.01200000 </v>
   <v>       0.00600000 </v>
   <v>       0.00200000 </v>
   <v>       0.00600000 </v>
   <v>       0.00600000 </v>
   <v>       0.00600000 </v>
   <v>       0.00600000 </v>
   <v>       0.01200000 </v>
   <v>       0.01200000 </v>
   <v>       0.00600000 </v>
   <v>       0.00200000 </v>
   <v>       0.00600000 </v>
  </varray>
 </kpoints>
 <parameters>
  <separator name="general" >
   <i type="string" name="SYSTEM">fcc Ni</i>
   <i type="logical" name="LCOMPAT"> F  </i>
  </separator>
  <separator name="electronic" >
   <i type="string" name="PREC">normal</i>
   <i name="ENMAX">    270.00000000</i>
   <i name="ENAUG">    544.56500000</i>
   <i name="EDIFF">      0.00010000</i>
   <i type="int" name="IALGO">    38</i>
   <i type="int" name="IWAVPR">    10</i>
   <i type="int" name="NBANDS">    12</i>
   <i name="NELECT">     10.00000000</i>
   <i type="int" name="TURBO">     0</i>
   <i type="int" name="IRESTART">     0</i>
   <i type="int" name="NREBOOT">     0</i>
   <i type="int" name="NMIN">     0</i>
   <i name="EREF">      0.00000000</i>
   <separator name="electronic smearing" >
    <i type="int" name="ISMEAR">     1</i>
    <i name="SIGMA">      0.20000000</i>
    <i name="KSPACING">      0.50000000</i>
    <i type="logical" name="KGAMMA"> T  </i>
   </separator>
   <separator name="electronic projectors" >
    <i type="logical" name="LREAL"> F  </i>
    <v name="ROPT">      0.00000000</v>
    <i type="int" name="LMAXPAW">  -100</i>
    <i type="int" name="LMAXMIX">     2</i>
    <i type="logical" name="NLSPLINE"> F  </i>
   </separator>
   <separator name="electronic startup" >
    <i type="int" name="ISTART">     0</i>
    <i type="int" name="ICHARG">     2</i>
    <i type="int" name="INIWAV">     1</i>
   </separator>
   <separator name="electronic spin" >
    <i type="int" name="ISPIN">     2</i>
    <i type="logical" name="LNONCOLLINEAR"> F  </i>
    <v name="MAGMOM">      3.00000000</v>
    <i name="NUPDOWN">     -1.00000000</i>
    <i type="logical" name="LSORBIT"> F  </i>
    <v name="SAXIS">      0.00000000      0.00000000      1.00000000</v>
    <i type="logical" name="LSPIRAL"> F  </i>
    <v name="QSPIRAL">      0.00000000      0.00000000      0.00000000</v>
    <i type="logical" name="LZEROZ"> F  </i>
   </separator>
   <separator name="electronic exchange-correlation" >
    <i type="logical" name="LASPH"> F  </i>
    <i type="logical" name="LMETAGGA"> F  </i>
   </separator>
   <separator name="electronic convergence" >
    <i type="int" name="NELM">    60</i>
    <i type="int" name="NELMDL">    -5</i>
    <i type="int" name="NELMIN">     2</i>
    <i name="ENINI">    270.00000000</i>
    <separator name="electronic convergence detail" >
     <i type="logical" name="LDIAG"> T  </i>
     <i type="logical" name="LSUBROT"> F  </i>
     <i name="WEIMIN">      0.00000000</i>
     <i name="EBREAK">      0.00000208</i>
     <i name="DEPER">      0.30000000</i>
     <i type="int" name="NRMM">     4</i>
     <i name="TIME">      0.40000000</i>
    </separator>
   </separator>
   <separator name="electronic mixer" >
    <i name="AMIX">      0.40000000</i>
    <i name="BMIX">      1.00000000</i>
    <i name="AMIN">      0.10000000</i>
    <i name="AMIX_MAG">      1.60000000</i>
    <i name="BMIX_MAG">      1.00000000</i>
    <separator name="electronic mixer details" >
     <i type="int" name="IMIX">     4</i>
     <i type="logical" name="MIXFIRST"> F  </i>
     <i type="int" name="MAXMIX">   -45</i>
     <i name="WC">    100.00000000</i>
     <i type="int" name="INIMIX">     1</i>
     <i type="int" name="MIXPRE">     1</i>
     <i type="int" name="MREMOVE">     5</i>
    </separator>
   </separator>
   <separator name="electronic dipolcorrection" >
    <i type="logical" name="LDIPOL"> F  </i>
    <i type="logical" name="LMONO"> F  </i>
    <i type="int" name="IDIPOL">     0</i>
    <i name="EPSILON">      1.00000000</i>
    <v name="DIPOL">   -100.00000000   -100.00000000   -100.00000000</v>
    <i name="EFIELD">      0.00000000</i>
   </separator>
  </separator>
  <separator name="grids" >
   <i type="int" name="NGX">    10</i>
   <i type="int" name="NGY">    10</i>
   <i type="int" name="NGZ">    10</i>
   <i type="int" name="NGXF">    20</i>
   <i type="int" name="NGYF">    20</i>
   <i type="int" name="NGZF">    20</i>
   <i type="logical" name="ADDGRID"> F  </i>
  </separator>
  <separator name="ionic" >
   <i type="int" name="NSW">     0</i>
   <i type="int" name="IBRION">    -1</i>
   <i type="int" name="MDALGO">     0</i>
   <i type="int" name="ISIF">     2</i>
   <i name="PSTRESS">      0.00000000</i>
   <i name="EDIFFG">      0.00100000</i>
   <i type="int" name="NFREE">     0</i>
   <i name="POTIM">      0.50000000</i>
   <i name="SMASS">     -3.00000000</i>
   <i name="SCALEE">      1.00000000</i>
  </separator>
  <separator name="ionic md" >
   <i name="TEBEG">      0.00010000</i>
   <i name="TEEND">      0.00010000</i>
   <i type="int" name="NBLOCK">     1</i>
   <i type="int" name="KBLOCK">     1</i>
   <i type="int" name="NPACO">   256</i>
   <i name="APACO">     16.00000000</i>
  </separator>
  <separator name="symmetry" >
   <i type="int" name="ISYM">     2</i>
   <i name="SYMPREC">      0.00001000</i>
  </separator>
  <separator name="dos" >
   <i type="int" name="LORBIT">     0</i>
   <v name="RWIGS">     -1.00000000</v>
   <i type="int" name="NEDOS">   301</i>
   <i name="EMIN">     10.00000000</i>
   <i name="EMAX">    -10.00000000</i>
   <i name="EFERMI">      0.00000000</i>
  </separator>
  <separator name="writing" >
   <i type="int" name="NWRITE">     2</i>
   <i type="logical" name="LWAVE"> T  </i>
   <i type="logical" name="LDOWNSAMPLE"> F  </i>
   <i type="logical" name="LCHARG"> T  </i>
   <i type="logical" name="LPARD"> F  </i>
   <i type="logical" name="LVTOT"> F  </i>
   <i type="logical" name="LVHAR"> F  </i>
   <i type="logical" name="LELF"> F  </i>
   <i type="logical" name="LOPTICS"> F  </i>
   <v name="STM">      0.00000000      0.00000000      0.00000000      0.00000000      0.00000000      0.00000000      0.00000000</v>
  </separator>
  <separator name="performance" >
   <i type="int" name="NPAR">     4</i>
   <i type="int" name="NSIM">     4</i>
   <i type="int" name="NBLK">    -1</i>
   <i type="logical" name="LPLANE"> T  </i>
   <i type="logical" name="LSCALAPACK"> T  </i>
   <i type="logical" name="LSCAAWARE"> F  </i>
   <i type="logical" name="LSCALU"> F  </i>
   <i type="logical" name="LASYNC"> F  </i>
   <i type="logical" name="LORBITALREAL"> F  </i>
  </separator>
  <separator name="miscellaneous" >
   <i type="int" name="IDIOT">     3</i>
   <i type="int" name="ISPECIAL">     0</i>
   <i type="logical" name="LMUSIC"> F  </i>
   <v name="POMASS">     58.69000000</v>
   <v name="DARWINR">      0.00000000</v>
   <v name="DARWINV">      1.00000000</v>
   <i type="logical" name="LCORR"> T  </i>
  </separator>
  <i type="logical" name="GGA_COMPAT"> T  </i>
  <i type="logical" name="LBERRY"> F  </i>
  <i type="int" name="ICORELEVEL">     0</i>
  <i type="logical" name="LDAU"> F  </i>
  <i type="int" name="I_CONSTRAINED_M">     0</i>
  <separator name="electronic exchange-correlation" >
   <i type="string" name="GGA">--</i>
   <i type="int" name="VOSKOWN">     0</i>
   <i type="logical" name="LHFCALC"> F  </i>
   <i type="string" name="PRECFOCK"></i>
   <i type="logical" name="LSYMGRAD"> F  </i>
   <i type="logical" name="LHFONE"> F  </i>
   <i type="logical" name="LRHFCALC"> F  </i>
   <i type="logical" name="LTHOMAS"> F  </i>
   <i type="logical" name="LMODELHF"> F  </i>
   <i name="ENCUT4O">     -1.00000000</i>
   <i type="int" name="EXXOEP">     0</i>
   <i type="int" name="FOURORBIT">     0</i>
   <i name="AEXX">      0.00000000</i>
   <i name="HFALPHA">      0.00000000</i>
   <i name="MCALPHA">      0.00000000</i>
   <i name="ALDAX">      1.00000000</i>
   <i name="AGGAX">      1.00000000</i>
   <i name="ALDAC">      1.00000000</i>
   <i name="AGGAC">      1.00000000</i>
   <i type="int" name="NKREDX">     1</i>
   <i type="int" name="NKREDY">     1</i>
   <i type="int" name="NKREDZ">     1</i>
   <i type="logical" name="SHIFTRED"> F  </i>
   <i type="logical" name="ODDONLY"> F  </i>
   <i type="logical" name="EVENONLY"> F  </i>
   <i type="int" name="LMAXFOCK">     0</i>
   <i type="int" name="NMAXFOCKAE">     0</i>
   <i type="logical" name="LFOCKAEDFT"> F  </i>
   <i name="HFSCREEN">      0.00000000</i>
   <i name="HFSCREENC">      0.00000000</i>
   <i type="int" name="NBANDSGWLOW">     0</i>
  </separator>
  <separator name="vdW DFT" >
   <i type="logical" name="LUSE_VDW"> F  </i>
   <i name="Zab_VDW">     -0.84910000</i>
   <i name="PARAM1">      0.12340000</i>
   <i name="PARAM2">      1.00000000</i>
   <i name="PARAM3">      0.00000000</i>
  </separator>
  <separator name="model GW" >
   <i type="int" name="MODEL_GW">     0</i>
   <i name="MODEL_EPS0">      6.71083125</i>
   <i name="MODEL_ALPHA">      1.00000000</i>
  </separator>
  <separator name="linear response parameters" >
   <i type="logical" name="LEPSILON"> F  </i>
   <i type="logical" name="LRPA"> F  </i>
   <i type="logical" name="LNABLA"> F  </i>
   <i type="logical" name="LVEL"> F  </i>
   <i type="int" name="KINTER">     0</i>
   <i name="CSHIFT">      0.10000000</i>
   <i name="OMEGAMAX">     -1.00000000</i>
   <i name="DEG_THRESHOLD">      0.00200000</i>
   <i name="RTIME">     -0.10000000</i>
   <i name="WPLASMAI">      0.00000000</i>
   <v name="DFIELD">      0.00000000      0.00000000      0.00000000</v>
   <v name="WPLASMA">      0.00000000      0.00000000      0.00000000      0.00000000      0.00000000      0.00000000      0.00000000      0.00000000      0.00000000</v>
  </separator>
  <separator name="orbital magnetization" >
   <i type="logical" name="NUCIND"> F  </i>
   <v name="MAGPOS">      0.00000000      0.00000000      0.00000000</v>
   <i type="logical" name="LNICSALL"> T  </i>
   <i type="logical" name="ORBITALMAG"> F  </i>
   <i type="logical" name="LMAGBLOCH"> F  </i>
   <i type="logical" name="LCHIMAG"> F  </i>
   <i type="logical" name="LGAUGE"> T  </i>
   <i type="int" name="MAGATOM">     0</i>
   <v name="MAGDIPOL">      0.00000000      0.00000000      0.00000000</v>
   <v name="AVECCONST">      0.00000000      0.00000000      0.00000000</v>
  </separator>
  <separator name="response functions" >
   <i type="logical" name="LADDER"> F  </i>
   <i type="logical" name="LRPAFORCE"> F  </i>
   <i type="logical" name="LFXC"> F  </i>
   <i type="logical" name="LHARTREE"> T  </i>
   <i type="int" name="IBSE">     0</i>
   <v type="int" name="KPOINT">    -1     0     0     0</v>
   <i type="logical" name="LTCTE"> F  </i>
   <i type="logical" name="LTETE"> F  </i>
   <i type="logical" name="LTRIPLET"> F  </i>
   <i type="logical" name="LFXCEPS"> F  </i>
   <i type="logical" name="LFXHEG"> F  </i>
   <i type="int" name="NATURALO">     2</i>
   <i type="logical" name="L2ORDER"> F  </i>
   <i type="logical" name="LMP2LT"> F  </i>
   <i type="logical" name="LUSEW"> F  </i>
   <i name="ENCUTGW">     -2.00000000</i>
   <i name="ENCUTGWSOFT">     -2.00000000</i>
   <i name="ENCUTLF">     -1.00000000</i>
   <i type="int" name="LMAXMP2">    -1</i>
   <i name="SCISSOR">      0.00000000</i>
   <i type="int" name="NOMEGA">     0</i>
   <i type="int" name="NOMEGAR">     0</i>
   <i type="int" name="NBANDSGW">    -1</i>
   <i type="int" name="NBANDSO">    -1</i>
   <i type="int" name="NBANDSV">    -1</i>
   <i type="int" name="NELM">     1</i>
   <i type="int" name="NELMHF">     1</i>
   <i type="int" name="DIM">     3</i>
   <i type="int" name="ANTIRES">     0</i>
   <i name="OMEGAMAX">    -30.00000000</i>
   <i name="OMEGAMIN">    -30.00000000</i>
   <i name="OMEGATL">   -200.00000000</i>
   <i type="int" name="OMEGAGRID">   140</i>
   <i name="CSHIFT">     -0.10000000</i>
   <i type="logical" name="SELFENERGY"> F  </i>
   <i type="logical" name="LSPECTRAL"> F  </i>
   <i type="logical" name="LSPECTRALGW"> F  </i>
   <i type="logical" name="LSINGLES"> F  </i>
   <i type="logical" name="LFERMIGW"> F  </i>
   <i type="logical" name="ODDONLYGW"> F  </i>
   <i type="logical" name="EVENONLYGW"> F  </i>
   <i type="int" name="NKREDLFX">     1</i>
   <i type="int" name="NKREDLFY">     1</i>
   <i type="int" name="NKREDLFZ">     1</i>
   <i type="int" name="MAXMEM">  2800</i>
   <i type="int" name="TELESCOPE">     0</i>
   <i type="int" name="TAUPAR">     1</i>
   <i type="int" name="OMEGAPAR">    -1</i>
   <i name="LAMBDA">      1.00000000</i>
  </separator>
  <separator name="External order field" >
   <i name="OFIELD_KAPPA">      0.00000000</i>
   <v name="OFIELD_K">      0.00000000      0.00000000      0.00000000</v>
   <i name="OFIELD_Q6_NEAR">      0.00000000</i>
   <i name="OFIELD_Q6_FAR">      0.00000000</i>
   <i name="OFIELD_A">      0.00000000</i>
  </separator>
 </parameters>
 <atominfo>
  <atoms>       1 </atoms>
  <types>       1 </types>
  <array name="atoms" >
   <dimension dim="1">ion</dimension>
   <field type="string">element</field>
   <field type="int">atomtype</field>
   <set>
    <rc><c>Ni</c><c>   1</c></rc>
   </set>
  </array>
  <array name="atomtypes" >
   <dimension dim="1">type</dimension>
   <field type="int">atomspertype</field>
   <field type="string">element</field>
   <field>mass</field>
   <field>valence</field>
   <field type="string">pseudopotential</field>
   <set>
    <rc><c>   1</c><c>Ni</c><c>     58.69000000</c><c>     10.00000000</c><c>  PAW_PBE Ni 02Aug2007                  </c></rc>
   </set>
  </array>
 </atominfo>
 <structure name="initialpos" >
  <crystal>
   <varray name="basis" >
    <v>       0.00000000       1.77500000       1.77500000 </v>
    <v>       1.77500000       0.00000000       1.77500000 </v>
    <v>       1.77500000       1.77500000       0.00000000 </v>
   </varray>
   <i name="volume">     11.18471875 </i>
   <varray name="rec_basis" >
    <v>      -0.28169014       0.28169014       0.28169014 </v>
    <v>       0.28169014      -0.28169014       0.28169014 </v>
    <v>       0.28169014       0.28169014      -0.28169014 </v>
   </varray>
  </crystal>
  <varray name="positions" >
   <v>       0.00000000       0.00000000       0.00000000 </v>
  </varray>
 </structure>
 <calculation>
  <scstep>
   <time name="dav">    0.33    0.33</time>
   <time name="total">    0.33    0.34</time>
   <energy>
    <i name="alphaZ">     45.59739242 </i>
    <i name="ewald">   -929.87377531 </i>
    <i name="hartreedc">   -249.13645065 </i>
    <i name="XCdc">     32.64364720 </i>
    <i name="pawpsdc">    961.92645289 </i>
    <i name="pawaedc">  -1028.66799202 </i>
    <i name="eentropy">      0.00007479 </i>
    <i name="bandstr">    108.34345408 </i>
    <i name="atom">   1077.63607467 </i>
    <i name="e_fr_energy">     18.46887807 </i>
    <i name="e_wo_entrp">     18.46880327 </i>
    <i name="e_0_energy">     18.46885314 </i>
   </energy>
  </scstep>
  <scstep>
   <time name="dav">    0.31    0.32</time>
   <time name="total">    0.31    0.32</time>
   <energy>
    <i name="e_fr_energy">     -5.43185622 </i>
    <i name="e_wo_entrp">     -5.43130237 </i>
    <i name="e_0_energy">     -5.43167160 </i>
   </energy>
  </scstep>
  <scstep>
   <time name="dav">    0.32    0.32</time>
   <time name="total">    0.32    0.33</time>
   <energy>
    <i name="e_fr_energy">     -5.86803726 </i>
    <i name="e_wo_entrp">     -5.86774759 </i>
    <i name="e_0_energy">     -5.86794070 </i>
   </energy>
  </scstep>
  <scstep>
   <time name="dav">    0.32    0.33</time>
   <time name="total">    0.32    0.33</time>
   <energy>
    <i name="e_fr_energy">     -5.87013703 </i>
    <i name="e_wo_entrp">     -5.86984853 </i>
    <i name="e_0_energy">     -5.87004086 </i>
   </energy>
  </scstep>
  <scstep>
   <time name="dav">    0.32    0.33</time>
   <time name="total">    0.33    0.33</time>
   <energy>
    <i name="e_fr_energy">     -5.87016545 </i>
    <i name="e_wo_entrp">     -5.86987695 </i>
    <i name="e_0_energy">     -5.87006928 </i>
   </energy>
  </scstep>
  <scstep>
   <time name="dav">    0.34    0.35</time>
   <time name="total">    0.36    0.36</time>
   <energy>
    <i name="e_fr_energy">     -5.89960015 </i>
    <i name="e_wo_entrp">     -5.89443541 </i>
    <i name="e_0_energy">     -5.89787857 </i>
   </energy>
  </scstep>
  <scstep>
   <time name="dav">    0.34    0.35</time>
   <time name="total">    0.35    0.36</time>
   <energy>
    <i name="e_fr_energy">     -5.47149055 </i>
    <i name="e_wo_entrp">     -5.46959535 </i>
    <i name="e_0_energy">     -5.47085882 </i>
   </energy>
  </scstep>
  <scstep>
   <time name="dav">    0.33    0.33</time>
   <time name="total">    0.34    0.35</time>
   <energy>
    <i name="e_fr_energy">     -5.46376692 </i>
    <i name="e_wo_entrp">     -5.46160280 </i>
    <i name="e_0_energy">     -5.46304554 </i>
   </energy>
  </scstep>
  <scstep>
   <time name="dav">    0.33    0.33</time>
   <time name="total">    0.34    0.35</time>
   <energy>
    <i name="e_fr_energy">     -5.46092366 </i>
    <i name="e_wo_entrp">     -5.45880316 </i>
    <i name="e_0_energy">     -5.46021683 </i>
   </energy>
  </scstep>
  <scstep>
   <time name="dav">    0.32    0.33</time>
   <time name="total">    0.33    0.34</time>
   <energy>
    <i name="e_fr_energy">     -5.45978126 </i>
    <i name="e_wo_entrp">     -5.45764413 </i>
    <i name="e_0_energy">     -5.45906888 </i>
   </energy>
  </scstep>
  <scstep>
   <time name="dav">    0.22    0.22</time>
   <time name="total">    0.23    0.23</time>
   <energy>
    <i name="alphaZ">     45.59739242 </i>
    <i name="ewald">   -929.87377531 </i>
    <i name="hartreedc">   -228.57206609 </i>
    <i name="XCdc">     30.64164162 </i>
    <i name="pawpsdc">   1123.61526360 </i>
    <i name="pawaedc">  -1191.98628143 </i>
    <i name="eentropy">     -0.00216005 </i>
    <i name="bandstr">     67.48411210 </i>
    <i name="atom">   1077.63607467 </i>
    <i name="e_fr_energy">     -5.45979847 </i>
    <i name="e_wo_entrp">     -5.45763842 </i>
    <i name="e_0_energy">     -5.45907845 </i>
   </energy>
  </scstep>
  <structure>
   <crystal>
    <varray name="basis" >
     <v>       0.00000000       1.77500000       1.77500000 </v>
     <v>       1.77500000       0.00000000       1.77500000 </v>
     <v>       1.77500000       1.77500000       0.00000000 </v>
    </varray>
    <i name="volume">     11.18471875 </i>
    <varray name="rec_basis" >
     <v>      -0.28169014       0.28169014       0.28169014 </v>
     <v>       0.28169014      -0.28169014       0.28169014 </v>
     <v>       0.28169014       0.28169014      -0.28169014 </v>
    </varray>
   </crystal>
   <varray name="positions" >
    <v>       0.00000000       0.00000000       0.00000000 </v>
   </varray>
  </structure>
  <varray name="forces" >
   <v>       0.00000000       0.00000000       0.00000000 </v>
  </varray>
  <varray name="stress" >
   <v>     -95.53252116       0.00000000       0.00000000 </v>
   <v>       0.00000000     -95.53252116       0.00000000 </v>
   <v>      -0.00000000       0.00000000     -95.53252116 </v>
  </varray>
  <energy>
   <i name="e_fr_energy">     -5.45979847 </i>
   <i name="e_wo_entrp">     -5.45907845 </i>
   <i name="e_0_energy">     -0.00216005 </i>
  </energy>
  <time name="totalsc">    3.74    3.82</time>
  <eigenvalues>
   <array>
    <dimension dim="1">band</dimension>
    <dimension dim="2">kpoint</dimension>
    <dimension dim="3">spin</dimension>
    <field>eigene</field>
    <field>occ</field>
    <set>
     <set comment="spin 1">
      <set comment="kpoint 1">
       <r>    0.2684    1.0000 </r>
       <r>    6.6070    1.0000 </r>
       <r>    6.6518    1.0000 </r>
       <r>    6.6518    1.0000 </r>
       <r>    7.7352    1.0000 </r>
       <r>    7.7352    1.0000 </r>
       <r>   32.2081    0.0000 </r>
       <r>   34.8109    0.0000 </r>
       <r>   35.8989    0.0000 </r>
       <r>   35.8989    0.0000 </r>
       <r>   39.5188    0.0000 </r>
       <r>   39.5188    0.0000 </r>
      </set>
      <set comment="kpoint 2">
       <r>    0.7716    1.0000 </r>
       <r>    6.4784    1.0000 </r>
       <r>    6.7485    1.0000 </r>
       <r>    6.7625    1.0000 </r>
       <r>    7.6404    1.0000 </r>
       <r>    7.7623    1.0000 </r>
       <r>   29.9306    0.0000 </r>
       <r>   32.2257    0.0000 </r>
       <r>   34.8527    0.0000 </r>
       <r>   36.5837    0.0000 </r>
       <r>   39.2494    0.0000 </r>
       <r>   39.7224    0.0000 </r>
      </set>
      <set comment="kpoint 3">
       <r>    1.9464    1.0000 </r>
       <r>    6.3032    1.0000 </r>
       <r>    6.8524    1.0000 </r>
       <r>    6.8802    1.0000 </r>
       <r>    7.6296    1.0000 </r>
       <r>    7.8752    1.0000 </r>
       <r>   24.8810    0.0000 </r>
       <r>   31.1523    0.0000 </r>
       <r>   34.2871    0.0000 </r>
       <r>   35.9756    0.0000 </r>
       <r>   38.8796    0.0000 </r>
       <r>   39.1900    0.0000 </r>
      </set>
      <set comment="kpoint 4">
       <r>    3.4152    1.0000 </r>
       <r>    6.4558    1.0000 </r>
       <r>    6.7777    1.0000 </r>
       <r>    6.8222    1.0000 </r>
       <r>    7.8930    1.0000 </r>
       <r>    8.1925    1.0000 </r>
       <r>   20.0762    0.0000 </r>
       <r>   30.5462    0.0000 </r>
       <r>   33.1666    0.0000 </r>
       <r>   35.1279    0.0000 </r>
       <r>   36.9681    0.0000 </r>
       <r>   38.7200    0.0000 </r>
      </set>
      <set comment="kpoint 5">
       <r>    4.2370    1.0000 </r>
       <r>    6.6526    1.0000 </r>
       <r>    6.7129    1.0000 </r>
       <r>    7.4844    1.0000 </r>
       <r>    8.2269    1.0000 </r>
       <r>    8.7206    1.0340 </r>
       <r>   16.0788    0.0000 </r>
       <r>   30.3486    0.0000 </r>
       <r>   32.3820    0.0000 </r>
       <r>   33.6096    0.0000 </r>
       <r>   36.5302    0.0000 </r>
       <r>   37.8638    0.0000 </r>
      </set>
      <set comment="kpoint 6">
       <r>    4.3572    1.0000 </r>
       <r>    6.6073    1.0000 </r>
       <r>    6.6816    1.0000 </r>
       <r>    7.8815    1.0000 </r>
       <r>    8.3809    1.0001 </r>
       <r>    9.2695   -0.0312 </r>
       <r>   14.5595    0.0000 </r>
       <r>   30.5222    0.0000 </r>
       <r>   32.3895    0.0000 </r>
       <r>   32.4865    0.0000 </r>
       <r>   37.0805    0.0000 </r>
       <r>   37.1925    0.0000 </r>
      </set>
      <set comment="kpoint 7">
       <r>    4.0734    1.0000 </r>
       <r>    6.6796    1.0000 </r>
       <r>    6.7542    1.0000 </r>
       <r>    7.0612    1.0000 </r>
       <r>    8.2779    1.0000 </r>
       <r>    8.3717    1.0001 </r>
       <r>   17.2710    0.0000 </r>
       <r>   30.9964    0.0000 </r>
       <r>   31.9087    0.0000 </r>
       <r>   33.6071    0.0000 </r>
       <r>   37.0851    0.0000 </r>
       <r>   38.3704    0.0000 </r>
      </set>
      <set comment="kpoint 8">
       <r>    2.9428    1.0000 </r>
       <r>    6.3168    1.0000 </r>
       <r>    6.8168    1.0000 </r>
       <r>    6.8608    1.0000 </r>
       <r>    7.8519    1.0000 </r>
       <r>    8.0109    1.0000 </r>
       <r>   21.6193    0.0000 </r>
       <r>   31.7264    0.0000 </r>
       <r>   32.1228    0.0000 </r>
       <r>   35.3987    0.0000 </r>
       <r>   37.4329    0.0000 </r>
       <r>   40.2800    0.0000 </r>
      </set>
      <set comment="kpoint 9">
       <r>    1.4930    1.0000 </r>
       <r>    6.3427    1.0000 </r>
       <r>    6.8472    1.0000 </r>
       <r>    6.8542    1.0000 </r>
       <r>    7.6101    1.0000 </r>
       <r>    7.8077    1.0000 </r>
       <r>   26.5797    0.0000 </r>
       <r>   32.5032    0.0000 </r>
       <r>   32.9264    0.0000 </r>
       <r>   36.6517    0.0000 </r>
       <r>   38.1136    0.0000 </r>
       <r>   41.8224    0.0000 </r>
      </set>
      <set comment="kpoint 10">
       <r>    0.5221    1.0000 </r>
       <r>    6.5265    1.0000 </r>
       <r>    6.7144    1.0000 </r>
       <r>    6.7185    1.0000 </r>
       <r>    7.6575    1.0000 </r>
       <r>    7.7701    1.0000 </r>
       <r>   31.3532    0.0000 </r>
       <r>   33.5475    0.0000 </r>
       <r>   34.2522    0.0000 </r>
       <r>   35.8632    0.0000 </r>
       <r>   39.5945    0.0000 </r>
       <r>   41.1245    0.0000 </r>
      </set>
      <set comment="kpoint 11">
       <r>    1.0187    1.0000 </r>
       <r>    6.3641    1.0000 </r>
       <r>    6.8433    1.0000 </r>
       <r>    6.8466    1.0000 </r>
       <r>    7.5185    1.0000 </r>
       <r>    7.8356    1.0000 </r>
       <r>   30.1168    0.0000 </r>
       <r>   32.2919    0.0000 </r>
       <r>   32.3546    0.0000 </r>
       <r>   34.5784    0.0000 </r>
       <r>   39.7951    0.0000 </r>
       <r>   41.4572    0.0000 </r>
      </set>
      <set comment="kpoint 12">
       <r>    1.9588    1.0000 </r>
       <r>    6.1509    1.0000 </r>
       <r>    6.9241    1.0000 </r>
       <r>    7.0356    1.0000 </r>
       <r>    7.4660    1.0000 </r>
       <r>    7.9580    1.0000 </r>
       <r>   26.9323    0.0000 </r>
       <r>   29.1147    0.0000 </r>
       <r>   32.9024    0.0000 </r>
       <r>   34.2980    0.0000 </r>
       <r>   37.8992    0.0000 </r>
       <r>   41.6129    0.0000 </r>
      </set>
      <set comment="kpoint 13">
       <r>    3.3508    1.0000 </r>
       <r>    6.0535    1.0000 </r>
       <r>    6.7359    1.0000 </r>
       <r>    7.0672    1.0000 </r>
       <r>    7.8469    1.0000 </r>
       <r>    8.2936    1.0000 </r>
       <r>   21.9808    0.0000 </r>
       <r>   28.3294    0.0000 </r>
       <r>   31.3863    0.0000 </r>
       <r>   33.5879    0.0000 </r>
       <r>   39.6778    0.0000 </r>
       <r>   40.2088    0.0000 </r>
      </set>
      <set comment="kpoint 14">
       <r>    4.4104    1.0000 </r>
       <r>    6.3956    1.0000 </r>
       <r>    6.6006    1.0000 </r>
       <r>    6.9677    1.0000 </r>
       <r>    8.2629    1.0000 </r>
       <r>    9.1725   -0.0162 </r>
       <r>   17.5893    0.0000 </r>
       <r>   28.1191    0.0000 </r>
       <r>   29.6733    0.0000 </r>
       <r>   32.7685    0.0000 </r>
       <r>   39.0595    0.0000 </r>
       <r>   41.4031    0.0000 </r>
      </set>
      <set comment="kpoint 15">
       <r>    4.6602    1.0000 </r>
       <r>    6.3825    1.0000 </r>
       <r>    6.8854    1.0000 </r>
       <r>    7.0744    1.0000 </r>
       <r>    8.3535    1.0000 </r>
       <r>   10.6022   -0.0000 </r>
       <r>   14.6902    0.0000 </r>
       <r>   27.7450    0.0000 </r>
       <r>   29.1990    0.0000 </r>
       <r>   32.6461    0.0000 </r>
       <r>   38.3588    0.0000 </r>
       <r>   41.0586    0.0000 </r>
      </set>
      <set comment="kpoint 16">
       <r>    4.5656    1.0000 </r>
       <r>    6.4533    1.0000 </r>
       <r>    6.7948    1.0000 </r>
       <r>    6.9265    1.0000 </r>
       <r>    8.1736    1.0000 </r>
       <r>    9.7478   -0.0000 </r>
       <r>   16.3625    0.0000 </r>
       <r>   27.0399    0.0000 </r>
       <r>   30.3830    0.0000 </r>
       <r>   33.3660    0.0000 </r>
       <r>   37.9843    0.0000 </r>
       <r>   40.7460    0.0000 </r>
      </set>
      <set comment="kpoint 17">
       <r>    3.8114    1.0000 </r>
       <r>    6.1777    1.0000 </r>
       <r>    6.6532    1.0000 </r>
       <r>    7.0259    1.0000 </r>
       <r>    7.7809    1.0000 </r>
       <r>    8.6635    1.0224 </r>
       <r>   20.4499    0.0000 </r>
       <r>   26.9304    0.0000 </r>
       <r>   32.2258    0.0000 </r>
       <r>   34.8882    0.0000 </r>
       <r>   37.9981    0.0000 </r>
       <r>   40.0237    0.0000 </r>
      </set>
      <set comment="kpoint 18">
       <r>    2.3979    1.0000 </r>
       <r>    6.1453    1.0000 </r>
       <r>    6.8443    1.0000 </r>
       <r>    7.0632    1.0000 </r>
       <r>    7.4641    1.0000 </r>
       <r>    8.1101    1.0000 </r>
       <r>   25.2421    0.0000 </r>
       <r>   27.4841    0.0000 </r>
       <r>   34.4188    0.0000 </r>
       <r>   35.8321    0.0000 </r>
       <r>   38.7130    0.0000 </r>
       <r>   39.2506    0.0000 </r>
      </set>
      <set comment="kpoint 19">
       <r>    1.2596    1.0000 </r>
       <r>    6.3474    1.0000 </r>
       <r>    6.8474    1.0000 </r>
       <r>    6.8595    1.0000 </r>
       <r>    7.5413    1.0000 </r>
       <r>    7.8359    1.0000 </r>
       <r>   28.3973    0.0000 </r>
       <r>   30.6409    0.0000 </r>
       <r>   34.1897    0.0000 </r>
       <r>   36.2557    0.0000 </r>
       <r>   38.8557    0.0000 </r>
       <r>   40.9188    0.0000 </r>
      </set>
      <set comment="kpoint 20">
       <r>    2.6035    1.0000 </r>
       <r>    5.8918    1.0000 </r>
       <r>    7.0743    1.0000 </r>
       <r>    7.2730    1.0000 </r>
       <r>    7.4311    1.0000 </r>
       <r>    8.0336    1.0000 </r>
       <r>   27.3711    0.0000 </r>
       <r>   28.7856    0.0000 </r>
       <r>   30.0098    0.0000 </r>
       <r>   30.9952    0.0000 </r>
       <r>   35.0294    0.0000 </r>
       <r>   45.5364    0.0000 </r>
      </set>
      <set comment="kpoint 21">
       <r>    3.6871    1.0000 </r>
       <r>    5.6782    1.0000 </r>
       <r>    6.8579    1.0000 </r>
       <r>    7.5124    1.0000 </r>
       <r>    7.8819    1.0000 </r>
       <r>    8.3127    1.0000 </r>
       <r>   24.3462    0.0000 </r>
       <r>   26.3317    0.0000 </r>
       <r>   28.1258    0.0000 </r>
       <r>   31.5613    0.0000 </r>
       <r>   35.2468    0.0000 </r>
       <r>   45.0078    0.0000 </r>
      </set>
      <set comment="kpoint 22">
       <r>    4.6915    1.0000 </r>
       <r>    5.6766    1.0000 </r>
       <r>    6.6075    1.0000 </r>
       <r>    7.4538    1.0000 </r>
       <r>    8.3177    1.0000 </r>
       <r>    9.5027   -0.0008 </r>
       <r>   19.7647    0.0000 </r>
       <r>   25.5018    0.0000 </r>
       <r>   26.2998    0.0000 </r>
       <r>   31.6431    0.0000 </r>
       <r>   38.6566    0.0000 </r>
       <r>   43.4642    0.0000 </r>
      </set>
      <set comment="kpoint 23">
       <r>    5.1020    1.0000 </r>
       <r>    5.8614    1.0000 </r>
       <r>    6.5667    1.0000 </r>
       <r>    7.3358    1.0000 </r>
       <r>    8.3689    1.0001 </r>
       <r>   11.7227   -0.0000 </r>
       <r>   15.9043    0.0000 </r>
       <r>   23.8523    0.0000 </r>
       <r>   26.6610    0.0000 </r>
       <r>   31.7884    0.0000 </r>
       <r>   41.4282    0.0000 </r>
       <r>   43.9722    0.0000 </r>
      </set>
      <set comment="kpoint 24">
       <r>    5.2060    1.0000 </r>
       <r>    6.0052    1.0000 </r>
       <r>    6.4548    1.0000 </r>
       <r>    7.2806    1.0000 </r>
       <r>    8.1380    1.0000 </r>
       <r>   11.8512   -0.0000 </r>
       <r>   15.9176    0.0000 </r>
       <r>   22.6987    0.0000 </r>
       <r>   27.9718    0.0000 </r>
       <r>   32.4970    0.0000 </r>
       <r>   40.6421    0.0000 </r>
       <r>   44.4117    0.0000 </r>
      </set>
      <set comment="kpoint 25">
       <r>    4.8847    1.0000 </r>
       <r>    6.0248    1.0000 </r>
       <r>    6.3018    1.0000 </r>
       <r>    7.3397    1.0000 </r>
       <r>    7.7230    1.0000 </r>
       <r>    9.9140   -0.0000 </r>
       <r>   19.7665    0.0000 </r>
       <r>   22.3179    0.0000 </r>
       <r>   29.9197    0.0000 </r>
       <r>   33.9802    0.0000 </r>
       <r>   39.3923    0.0000 </r>
       <r>   43.2309    0.0000 </r>
      </set>
      <set comment="kpoint 26">
       <r>    3.7403    1.0000 </r>
       <r>    6.0106    1.0000 </r>
       <r>    6.6326    1.0000 </r>
       <r>    7.2470    1.0000 </r>
       <r>    7.5061    1.0000 </r>
       <r>    8.7376    1.0354 </r>
       <r>   22.3493    0.0000 </r>
       <r>   24.6651    0.0000 </r>
       <r>   32.2531    0.0000 </r>
       <r>   35.8820    0.0000 </r>
       <r>   37.6039    0.0000 </r>
       <r>   41.0254    0.0000 </r>
      </set>
      <set comment="kpoint 27">
       <r>    2.5873    1.0000 </r>
       <r>    6.2045    1.0000 </r>
       <r>    6.8382    1.0000 </r>
       <r>    6.9484    1.0000 </r>
       <r>    7.6527    1.0000 </r>
       <r>    8.0559    1.0000 </r>
       <r>   23.3538    0.0000 </r>
       <r>   29.6990    0.0000 </r>
       <r>   33.2658    0.0000 </r>
       <r>   35.9051    0.0000 </r>
       <r>   37.9754    0.0000 </r>
       <r>   39.7178    0.0000 </r>
      </set>
      <set comment="kpoint 28">
       <r>    4.1848    1.0000 </r>
       <r>    5.3918    1.0000 </r>
       <r>    7.4302    1.0000 </r>
       <r>    7.8338    1.0000 </r>
       <r>    8.1864    1.0000 </r>
       <r>    8.2610    1.0000 </r>
       <r>   24.6727    0.0000 </r>
       <r>   25.1377    0.0000 </r>
       <r>   25.9070    0.0000 </r>
       <r>   29.4985    0.0000 </r>
       <r>   32.9356    0.0000 </r>
       <r>   49.7343    0.0000 </r>
      </set>
      <set comment="kpoint 29">
       <r>    4.6312    1.0000 </r>
       <r>    5.2615    1.0000 </r>
       <r>    7.3827    1.0000 </r>
       <r>    8.0402    1.0000 </r>
       <r>    8.3288    1.0000 </r>
       <r>    9.6683   -0.0000 </r>
       <r>   22.1700    0.0000 </r>
       <r>   22.6203    0.0000 </r>
       <r>   24.3514    0.0000 </r>
       <r>   30.4643    0.0000 </r>
       <r>   34.0210    0.0000 </r>
       <r>   48.0486    0.0000 </r>
      </set>
      <set comment="kpoint 30">
       <r>    5.0025    1.0000 </r>
       <r>    5.3521    1.0000 </r>
       <r>    7.0354    1.0000 </r>
       <r>    7.8868    1.0000 </r>
       <r>    8.4096    1.0002 </r>
       <r>   12.1814   -0.0000 </r>
       <r>   18.3231    0.0000 </r>
       <r>   20.5024    0.0000 </r>
       <r>   24.6325    0.0000 </r>
       <r>   30.9570    0.0000 </r>
       <r>   37.9668    0.0000 </r>
       <r>   46.1960    0.0000 </r>
      </set>
      <set comment="kpoint 31">
       <r>    5.3664    1.0000 </r>
       <r>    5.5707    1.0000 </r>
       <r>    6.5868    1.0000 </r>
       <r>    7.7095    1.0000 </r>
       <r>    8.2152    1.0000 </r>
       <r>   14.5330    0.0000 </r>
       <r>   15.5129    0.0000 </r>
       <r>   19.3894    0.0000 </r>
       <r>   25.8477    0.0000 </r>
       <r>   31.5008    0.0000 </r>
       <r>   42.9903    0.0000 </r>
       <r>   44.3433    0.0000 </r>
      </set>
      <set comment="kpoint 32">
       <r>    5.4374    1.0000 </r>
       <r>    5.9056    1.0000 </r>
       <r>    6.2157    1.0000 </r>
       <r>    7.4706    1.0000 </r>
       <r>    7.9833    1.0000 </r>
       <r>   11.9054   -0.0000 </r>
       <r>   17.4651    0.0000 </r>
       <r>   20.5440    0.0000 </r>
       <r>   27.7529    0.0000 </r>
       <r>   32.4859    0.0000 </r>
       <r>   41.6589    0.0000 </r>
       <r>   45.5810    0.0000 </r>
      </set>
      <set comment="kpoint 33">
       <r>    4.7386    1.0000 </r>
       <r>    6.3009    1.0000 </r>
       <r>    6.3832    1.0000 </r>
       <r>    7.1200    1.0000 </r>
       <r>    7.9552    1.0000 </r>
       <r>    9.8652   -0.0000 </r>
       <r>   17.9477    0.0000 </r>
       <r>   24.5735    0.0000 </r>
       <r>   30.0703    0.0000 </r>
       <r>   33.7664    0.0000 </r>
       <r>   38.7328    0.0000 </r>
       <r>   42.0783    0.0000 </r>
      </set>
      <set comment="kpoint 34">
       <r>    3.9302    1.0000 </r>
       <r>    6.5328    1.0000 </r>
       <r>    6.6759    1.0000 </r>
       <r>    6.8594    1.0000 </r>
       <r>    8.0507    1.0000 </r>
       <r>    8.5187    1.0023 </r>
       <r>   18.7357    0.0000 </r>
       <r>   29.2981    0.0000 </r>
       <r>   32.0412    0.0000 </r>
       <r>   33.9711    0.0000 </r>
       <r>   37.7238    0.0000 </r>
       <r>   39.4628    0.0000 </r>
      </set>
      <set comment="kpoint 35">
       <r>    4.5427    1.0000 </r>
       <r>    5.0473    1.0000 </r>
       <r>    8.2077    1.0000 </r>
       <r>    8.2891    1.0000 </r>
       <r>    8.4348    1.0003 </r>
       <r>   10.3246   -0.0000 </r>
       <r>   19.8392    0.0000 </r>
       <r>   23.2787    0.0000 </r>
       <r>   24.0949    0.0000 </r>
       <r>   28.9405    0.0000 </r>
       <r>   32.2592    0.0000 </r>
       <r>   52.0024    0.0000 </r>
      </set>
      <set comment="kpoint 36">
       <r>    4.6612    1.0000 </r>
       <r>    5.0553    1.0000 </r>
       <r>    7.9134    1.0000 </r>
       <r>    8.2875    1.0000 </r>
       <r>    8.4806    1.0010 </r>
       <r>   12.0876   -0.0000 </r>
       <r>   18.3140    0.0000 </r>
       <r>   21.4846    0.0000 </r>
       <r>   23.3102    0.0000 </r>
       <r>   30.0587    0.0000 </r>
       <r>   33.6297    0.0000 </r>
       <r>   50.2810    0.0000 </r>
      </set>
      <set comment="kpoint 37">
       <r>    4.9861    1.0000 </r>
       <r>    5.2850    1.0000 </r>
       <r>    7.1923    1.0000 </r>
       <r>    8.0166    1.0000 </r>
       <r>    8.3876    1.0001 </r>
       <r>   13.5247   -0.0000 </r>
       <r>   17.8486    0.0000 </r>
       <r>   18.8394    0.0000 </r>
       <r>   24.3152    0.0000 </r>
       <r>   30.8368    0.0000 </r>
       <r>   37.8366    0.0000 </r>
       <r>   47.1755    0.0000 </r>
      </set>
      <set comment="kpoint 38">
       <r>    5.2885    1.0000 </r>
       <r>    5.6650    1.0000 </r>
       <r>    6.5735    1.0000 </r>
       <r>    7.5465    1.0000 </r>
       <r>    8.3026    1.0000 </r>
       <r>   13.3412   -0.0000 </r>
       <r>   15.4319    0.0000 </r>
       <r>   21.3510    0.0000 </r>
       <r>   26.1166    0.0000 </r>
       <r>   31.5890    0.0000 </r>
       <r>   42.4942    0.0000 </r>
       <r>   43.9761    0.0000 </r>
      </set>
      <set comment="kpoint 39">
       <r>    4.9252    1.0000 </r>
       <r>    6.1822    1.0000 </r>
       <r>    6.7564    1.0000 </r>
       <r>    7.0667    1.0000 </r>
       <r>    8.2802    1.0000 </r>
       <r>   11.4916   -0.0000 </r>
       <r>   14.8480    0.0000 </r>
       <r>   25.2174    0.0000 </r>
       <r>   28.4195    0.0000 </r>
       <r>   32.5412    0.0000 </r>
       <r>   39.4312    0.0000 </r>
       <r>   42.8665    0.0000 </r>
      </set>
      <set comment="kpoint 40">
       <r>    4.4300    1.0000 </r>
       <r>    6.5491    1.0000 </r>
       <r>    6.7620    1.0000 </r>
       <r>    7.3752    1.0000 </r>
       <r>    8.3294    1.0000 </r>
       <r>    9.5306   -0.0004 </r>
       <r>   15.1891    0.0000 </r>
       <r>   29.3792    0.0000 </r>
       <r>   30.9842    0.0000 </r>
       <r>   32.8674    0.0000 </r>
       <r>   37.4402    0.0000 </r>
       <r>   39.0443    0.0000 </r>
      </set>
      <set comment="kpoint 41">
       <r>    4.5346    1.0000 </r>
       <r>    4.9717    1.0000 </r>
       <r>    8.3560    1.0000 </r>
       <r>    8.3837    1.0001 </r>
       <r>    8.4876    1.0012 </r>
       <r>   11.4378   -0.0000 </r>
       <r>   18.2313    0.0000 </r>
       <r>   22.9155    0.0000 </r>
       <r>   23.7086    0.0000 </r>
       <r>   28.8242    0.0000 </r>
       <r>   32.1553    0.0000 </r>
       <r>   52.4171    0.0000 </r>
      </set>
      <set comment="kpoint 42">
       <r>    4.6763    1.0000 </r>
       <r>    5.1263    1.0000 </r>
       <r>    7.7200    1.0000 </r>
       <r>    8.2226    1.0000 </r>
       <r>    8.4180    1.0002 </r>
       <r>   10.9498   -0.0000 </r>
       <r>   19.9679    0.0000 </r>
       <r>   21.8232    0.0000 </r>
       <r>   23.6628    0.0000 </r>
       <r>   30.1941    0.0000 </r>
       <r>   33.7539    0.0000 </r>
       <r>   49.3906    0.0000 </r>
      </set>
      <set comment="kpoint 43">
       <r>    4.9553    1.0000 </r>
       <r>    5.4894    1.0000 </r>
       <r>    6.7922    1.0000 </r>
       <r>    7.6825    1.0000 </r>
       <r>    8.3977    1.0001 </r>
       <r>   10.7059   -0.0000 </r>
       <r>   18.9385    0.0000 </r>
       <r>   22.9332    0.0000 </r>
       <r>   25.2581    0.0000 </r>
       <r>   31.2116    0.0000 </r>
       <r>   38.2378    0.0000 </r>
       <r>   44.8603    0.0000 </r>
      </set>
      <set comment="kpoint 44">
       <r>    4.8068    1.0000 </r>
       <r>    6.1232    1.0000 </r>
       <r>    6.5772    1.0000 </r>
       <r>    7.1331    1.0000 </r>
       <r>    8.3642    1.0000 </r>
       <r>   10.2780   -0.0000 </r>
       <r>   16.6398    0.0000 </r>
       <r>   26.4467    0.0000 </r>
       <r>   27.5681    0.0000 </r>
       <r>   32.1470    0.0000 </r>
       <r>   40.2333    0.0000 </r>
       <r>   43.5410    0.0000 </r>
      </set>
      <set comment="kpoint 45">
       <r>    4.4842    1.0000 </r>
       <r>    5.1906    1.0000 </r>
       <r>    7.9008    1.0000 </r>
       <r>    8.0929    1.0000 </r>
       <r>    8.3568    1.0000 </r>
       <r>    9.0409    0.2791 </r>
       <r>   22.1844    0.0000 </r>
       <r>   23.9797    0.0000 </r>
       <r>   24.8417    0.0000 </r>
       <r>   29.1518    0.0000 </r>
       <r>   32.4913    0.0000 </r>
       <r>   51.1103    0.0000 </r>
      </set>
      <set comment="kpoint 46">
       <r>    4.3487    1.0000 </r>
       <r>    5.4518    1.0000 </r>
       <r>    7.0204    1.0000 </r>
       <r>    7.7872    1.0000 </r>
       <r>    8.1764    1.0000 </r>
       <r>    8.7501    1.0352 </r>
       <r>   23.2588    0.0000 </r>
       <r>   24.8988    0.0000 </r>
       <r>   25.5316    0.0000 </r>
       <r>   30.9129    0.0000 </r>
       <r>   34.4982    0.0000 </r>
       <r>   46.5706    0.0000 </r>
      </set>
      <set comment="kpoint 47">
       <r>    4.1149    1.0000 </r>
       <r>    5.8730    1.0000 </r>
       <r>    6.6101    1.0000 </r>
       <r>    7.2394    1.0000 </r>
       <r>    8.1358    1.0000 </r>
       <r>    8.7016    1.0308 </r>
       <r>   20.7843    0.0000 </r>
       <r>   27.0465    0.0000 </r>
       <r>   28.7156    0.0000 </r>
       <r>   32.3426    0.0000 </r>
       <r>   39.2057    0.0000 </r>
       <r>   41.9958    0.0000 </r>
      </set>
      <set comment="kpoint 48">
       <r>    3.5032    1.0000 </r>
       <r>    5.6332    1.0000 </r>
       <r>    7.1073    1.0000 </r>
       <r>    7.5468    1.0000 </r>
       <r>    7.7310    1.0000 </r>
       <r>    8.1516    1.0000 </r>
       <r>   26.0480    0.0000 </r>
       <r>   27.2359    0.0000 </r>
       <r>   27.6907    0.0000 </r>
       <r>   30.0173    0.0000 </r>
       <r>   33.7071    0.0000 </r>
       <r>   47.7398    0.0000 </r>
      </set>
      <set comment="kpoint 49">
       <r>    2.8108    1.0000 </r>
       <r>    5.9192    1.0000 </r>
       <r>    6.8969    1.0000 </r>
       <r>    7.2558    1.0000 </r>
       <r>    7.5807    1.0000 </r>
       <r>    8.1112    1.0000 </r>
       <r>   25.5766    0.0000 </r>
       <r>   27.6772    0.0000 </r>
       <r>   30.8969    0.0000 </r>
       <r>   32.5350    0.0000 </r>
       <r>   36.3575    0.0000 </r>
       <r>   43.3591    0.0000 </r>
      </set>
      <set comment="kpoint 50">
       <r>    1.7318    1.0000 </r>
       <r>    6.1445    1.0000 </r>
       <r>    7.0123    1.0000 </r>
       <r>    7.0360    1.0000 </r>
       <r>    7.3788    1.0000 </r>
       <r>    7.9262    1.0000 </r>
       <r>   28.7582    0.0000 </r>
       <r>   30.5123    0.0000 </r>
       <r>   31.1988    0.0000 </r>
       <r>   32.8736    0.0000 </r>
       <r>   37.1720    0.0000 </r>
       <r>   43.3211    0.0000 </r>
      </set>
      <set comment="kpoint 51">
       <r>    1.0160    1.0000 </r>
       <r>    6.4463    1.0000 </r>
       <r>    6.7832    1.0000 </r>
       <r>    6.7832    1.0000 </r>
       <r>    7.7005    1.0000 </r>
       <r>    7.7005    1.0000 </r>
       <r>   28.2300    0.0000 </r>
       <r>   33.3050    0.0000 </r>
       <r>   34.8563    0.0000 </r>
       <r>   34.8563    0.0000 </r>
       <r>   40.2255    0.0000 </r>
       <r>   40.9853    0.0000 </r>
      </set>
      <set comment="kpoint 52">
       <r>    1.7291    1.0000 </r>
       <r>    6.2796    1.0000 </r>
       <r>    6.8584    1.0000 </r>
       <r>    6.9258    1.0000 </r>
       <r>    7.5038    1.0000 </r>
       <r>    7.9250    1.0000 </r>
       <r>   26.7474    0.0000 </r>
       <r>   28.9971    0.0000 </r>
       <r>   35.5197    0.0000 </r>
       <r>   37.4832    0.0000 </r>
       <r>   37.7724    0.0000 </r>
       <r>   39.2711    0.0000 </r>
      </set>
      <set comment="kpoint 53">
       <r>    3.0142    1.0000 </r>
       <r>    6.1019    1.0000 </r>
       <r>    6.7722    1.0000 </r>
       <r>    7.1362    1.0000 </r>
       <r>    7.4224    1.0000 </r>
       <r>    8.3773    1.0001 </r>
       <r>   23.7134    0.0000 </r>
       <r>   25.9932    0.0000 </r>
       <r>   34.7992    0.0000 </r>
       <r>   36.0443    0.0000 </r>
       <r>   37.6015    0.0000 </r>
       <r>   39.5809    0.0000 </r>
      </set>
      <set comment="kpoint 54">
       <r>    4.2998    1.0000 </r>
       <r>    6.2898    1.0000 </r>
       <r>    6.5487    1.0000 </r>
       <r>    7.0225    1.0000 </r>
       <r>    7.8015    1.0000 </r>
       <r>    9.1513    0.0041 </r>
       <r>   19.1040    0.0000 </r>
       <r>   25.6591    0.0000 </r>
       <r>   32.8344    0.0000 </r>
       <r>   33.1515    0.0000 </r>
       <r>   39.3133    0.0000 </r>
       <r>   39.3908    0.0000 </r>
      </set>
      <set comment="kpoint 55">
       <r>    4.7330    1.0000 </r>
       <r>    6.3594    1.0000 </r>
       <r>    6.8846    1.0000 </r>
       <r>    6.9438    1.0000 </r>
       <r>    8.2022    1.0000 </r>
       <r>   10.5408   -0.0000 </r>
       <r>   15.4141    0.0000 </r>
       <r>   26.0450    0.0000 </r>
       <r>   30.9124    0.0000 </r>
       <r>   31.6556    0.0000 </r>
       <r>   39.7129    0.0000 </r>
       <r>   40.3511    0.0000 </r>
      </set>
      <set comment="kpoint 56">
       <r>    4.7125    1.0000 </r>
       <r>    6.2997    1.0000 </r>
       <r>    6.8395    1.0000 </r>
       <r>    6.9685    1.0000 </r>
       <r>    8.3968    1.0001 </r>
       <r>   10.4548   -0.0000 </r>
       <r>   15.3933    0.0000 </r>
       <r>   27.1004    0.0000 </r>
       <r>   29.4967    0.0000 </r>
       <r>   31.2367    0.0000 </r>
       <r>   40.6839    0.0000 </r>
       <r>   40.8104    0.0000 </r>
      </set>
      <set comment="kpoint 57">
       <r>    4.2560    1.0000 </r>
       <r>    6.1019    1.0000 </r>
       <r>    6.5949    1.0000 </r>
       <r>    7.0678    1.0000 </r>
       <r>    8.3310    1.0000 </r>
       <r>    8.7894    1.0236 </r>
       <r>   19.0714    0.0000 </r>
       <r>   28.6731    0.0000 </r>
       <r>   28.9927    0.0000 </r>
       <r>   31.5454    0.0000 </r>
       <r>   41.3515    0.0000 </r>
       <r>   41.7260    0.0000 </r>
      </set>
      <set comment="kpoint 58">
       <r>    2.9991    1.0000 </r>
       <r>    5.9644    1.0000 </r>
       <r>    6.8319    1.0000 </r>
       <r>    7.1355    1.0000 </r>
       <r>    7.8039    1.0000 </r>
       <r>    8.1008    1.0000 </r>
       <r>   23.7051    0.0000 </r>
       <r>   29.3634    0.0000 </r>
       <r>   30.2284    0.0000 </r>
       <r>   32.5975    0.0000 </r>
       <r>   37.9490    0.0000 </r>
       <r>   42.3291    0.0000 </r>
      </set>
      <set comment="kpoint 59">
       <r>    2.1741    1.0000 </r>
       <r>    6.1733    1.0000 </r>
       <r>    6.8937    1.0000 </r>
       <r>    6.9716    1.0000 </r>
       <r>    7.5945    1.0000 </r>
       <r>    7.9494    1.0000 </r>
       <r>   25.0645    0.0000 </r>
       <r>   31.0712    0.0000 </r>
       <r>   31.4669    0.0000 </r>
       <r>   35.2223    0.0000 </r>
       <r>   38.2962    0.0000 </r>
       <r>   40.9720    0.0000 </r>
      </set>
      <set comment="kpoint 60">
       <r>    3.2052    1.0000 </r>
       <r>    5.9645    1.0000 </r>
       <r>    6.7435    1.0000 </r>
       <r>    7.2522    1.0000 </r>
       <r>    7.5703    1.0000 </r>
       <r>    8.3601    1.0000 </r>
       <r>   23.8842    0.0000 </r>
       <r>   26.1203    0.0000 </r>
       <r>   31.6065    0.0000 </r>
       <r>   34.6788    0.0000 </r>
       <r>   37.9629    0.0000 </r>
       <r>   40.7489    0.0000 </r>
      </set>
      <set comment="kpoint 61">
       <r>    4.4597    1.0000 </r>
       <r>    5.8865    1.0000 </r>
       <r>    6.4343    1.0000 </r>
       <r>    7.4255    1.0000 </r>
       <r>    7.7234    1.0000 </r>
       <r>    9.2621   -0.0326 </r>
       <r>   21.1478    0.0000 </r>
       <r>   23.5247    0.0000 </r>
       <r>   29.1708    0.0000 </r>
       <r>   35.8854    0.0000 </r>
       <r>   37.4466    0.0000 </r>
       <r>   41.6310    0.0000 </r>
      </set>
      <set comment="kpoint 62">
       <r>    5.0959    1.0000 </r>
       <r>    6.0612    1.0000 </r>
       <r>    6.3433    1.0000 </r>
       <r>    7.2885    1.0000 </r>
       <r>    8.1312    1.0000 </r>
       <r>   10.9240   -0.0000 </r>
       <r>   16.9816    0.0000 </r>
       <r>   23.6805    0.0000 </r>
       <r>   27.1231    0.0000 </r>
       <r>   34.5929    0.0000 </r>
       <r>   38.4127    0.0000 </r>
       <r>   44.7362    0.0000 </r>
      </set>
      <set comment="kpoint 63">
       <r>    5.1445    1.0000 </r>
       <r>    5.9710    1.0000 </r>
       <r>    6.5469    1.0000 </r>
       <r>    7.2527    1.0000 </r>
       <r>    8.3044    1.0000 </r>
       <r>   12.1994   -0.0000 </r>
       <r>   15.0247    0.0000 </r>
       <r>   24.5362    0.0000 </r>
       <r>   25.7623    0.0000 </r>
       <r>   33.8529    0.0000 </r>
       <r>   38.9787    0.0000 </r>
       <r>   45.6751    0.0000 </r>
      </set>
      <set comment="kpoint 64">
       <r>    4.9185    1.0000 </r>
       <r>    5.9006    1.0000 </r>
       <r>    6.3968    1.0000 </r>
       <r>    7.3670    1.0000 </r>
       <r>    8.2082    1.0000 </r>
       <r>   10.1511   -0.0000 </r>
       <r>   18.2685    0.0000 </r>
       <r>   24.7871    0.0000 </r>
       <r>   26.4181    0.0000 </r>
       <r>   33.7467    0.0000 </r>
       <r>   39.2836    0.0000 </r>
       <r>   42.5256    0.0000 </r>
      </set>
      <set comment="kpoint 65">
       <r>    4.0270    1.0000 </r>
       <r>    5.7645    1.0000 </r>
       <r>    6.6141    1.0000 </r>
       <r>    7.4837    1.0000 </r>
       <r>    7.8136    1.0000 </r>
       <r>    8.7319    1.0351 </r>
       <r>   22.6754    0.0000 </r>
       <r>   24.9060    0.0000 </r>
       <r>   28.5769    0.0000 </r>
       <r>   33.7821    0.0000 </r>
       <r>   37.2045    0.0000 </r>
       <r>   42.0648    0.0000 </r>
      </set>
      <set comment="kpoint 66">
       <r>    3.8415    1.0000 </r>
       <r>    5.7397    1.0000 </r>
       <r>    6.7562    1.0000 </r>
       <r>    7.3388    1.0000 </r>
       <r>    8.2449    1.0000 </r>
       <r>    8.2571    1.0000 </r>
       <r>   22.4854    0.0000 </r>
       <r>   27.8404    0.0000 </r>
       <r>   28.0389    0.0000 </r>
       <r>   31.0818    0.0000 </r>
       <r>   37.0720    0.0000 </r>
       <r>   44.4744    0.0000 </r>
      </set>
      <set comment="kpoint 67">
       <r>    4.6452    1.0000 </r>
       <r>    5.5709    1.0000 </r>
       <r>    6.6227    1.0000 </r>
       <r>    7.7392    1.0000 </r>
       <r>    8.0622    1.0000 </r>
       <r>    9.3834   -0.0084 </r>
       <r>   21.6387    0.0000 </r>
       <r>   23.8478    0.0000 </r>
       <r>   25.6510    0.0000 </r>
       <r>   33.0893    0.0000 </r>
       <r>   36.6159    0.0000 </r>
       <r>   43.3724    0.0000 </r>
      </set>
      <set comment="kpoint 68">
       <r>    5.2227    1.0000 </r>
       <r>    5.6152    1.0000 </r>
       <r>    6.3813    1.0000 </r>
       <r>    7.8059    1.0000 </r>
       <r>    8.1872    1.0000 </r>
       <r>   11.3093   -0.0000 </r>
       <r>   19.2911    0.0000 </r>
       <r>   21.8144    0.0000 </r>
       <r>   23.4130    0.0000 </r>
       <r>   35.0594    0.0000 </r>
       <r>   38.1154    0.0000 </r>
       <r>   42.2343    0.0000 </r>
      </set>
      <set comment="kpoint 69">
       <r>    5.5183    1.0000 </r>
       <r>    5.6665    1.0000 </r>
       <r>    6.2689    1.0000 </r>
       <r>    7.6075    1.0000 </r>
       <r>    8.3251    1.0000 </r>
       <r>   13.9425   -0.0000 </r>
       <r>   15.7360    0.0000 </r>
       <r>   21.6072    0.0000 </r>
       <r>   22.6874    0.0000 </r>
       <r>   35.5522    0.0000 </r>
       <r>   39.4730    0.0000 </r>
       <r>   43.9730    0.0000 </r>
      </set>
      <set comment="kpoint 70">
       <r>    5.5099    1.0000 </r>
       <r>    5.8210    1.0000 </r>
       <r>    6.0545    1.0000 </r>
       <r>    7.6419    1.0000 </r>
       <r>    8.1702    1.0000 </r>
       <r>   12.2654   -0.0000 </r>
       <r>   17.8835    0.0000 </r>
       <r>   20.7953    0.0000 </r>
       <r>   24.1043    0.0000 </r>
       <r>   36.3840    0.0000 </r>
       <r>   38.3216    0.0000 </r>
       <r>   43.2293    0.0000 </r>
      </set>
      <set comment="kpoint 71">
       <r>    5.0036    1.0000 </r>
       <r>    5.7488    1.0000 </r>
       <r>    6.3028    1.0000 </r>
       <r>    7.6398    1.0000 </r>
       <r>    7.9696    1.0000 </r>
       <r>   10.0916   -0.0000 </r>
       <r>   20.1208    0.0000 </r>
       <r>   22.5792    0.0000 </r>
       <r>   26.1842    0.0000 </r>
       <r>   35.4886    0.0000 </r>
       <r>   37.7528    0.0000 </r>
       <r>   41.7883    0.0000 </r>
      </set>
      <set comment="kpoint 72">
       <r>    4.7508    1.0000 </r>
       <r>    5.3369    1.0000 </r>
       <r>    7.1593    1.0000 </r>
       <r>    7.8068    1.0000 </r>
       <r>    8.4347    1.0003 </r>
       <r>   10.0665   -0.0000 </r>
       <r>   20.5900    0.0000 </r>
       <r>   22.5969    0.0000 </r>
       <r>   25.5338    0.0000 </r>
       <r>   30.0535    0.0000 </r>
       <r>   35.8687    0.0000 </r>
       <r>   47.8318    0.0000 </r>
      </set>
      <set comment="kpoint 73">
       <r>    4.9169    1.0000 </r>
       <r>    5.2856    1.0000 </r>
       <r>    7.1356    1.0000 </r>
       <r>    8.0822    1.0000 </r>
       <r>    8.3838    1.0001 </r>
       <r>   11.8293   -0.0000 </r>
       <r>   20.0416    0.0000 </r>
       <r>   20.4649    0.0000 </r>
       <r>   22.5845    0.0000 </r>
       <r>   32.2782    0.0000 </r>
       <r>   35.9899    0.0000 </r>
       <r>   46.0341    0.0000 </r>
      </set>
      <set comment="kpoint 74">
       <r>    5.1546    1.0000 </r>
       <r>    5.4734    1.0000 </r>
       <r>    6.7464    1.0000 </r>
       <r>    7.8794    1.0000 </r>
       <r>    8.4763    1.0009 </r>
       <r>   14.2533   -0.0000 </r>
       <r>   18.2776    0.0000 </r>
       <r>   18.9505    0.0000 </r>
       <r>   21.1835    0.0000 </r>
       <r>   34.5877    0.0000 </r>
       <r>   38.4471    0.0000 </r>
       <r>   43.7203    0.0000 </r>
      </set>
      <set comment="kpoint 75">
       <r>    5.4602    1.0000 </r>
       <r>    5.7302    1.0000 </r>
       <r>    6.2461    1.0000 </r>
       <r>    7.6776    1.0000 </r>
       <r>    8.3610    1.0000 </r>
       <r>   15.0195    0.0000 </r>
       <r>   15.9966    0.0000 </r>
       <r>   19.6008    0.0000 </r>
       <r>   22.4008    0.0000 </r>
       <r>   35.6294    0.0000 </r>
       <r>   40.5981    0.0000 </r>
       <r>   43.0832    0.0000 </r>
      </set>
      <set comment="kpoint 76">
       <r>    5.3721    1.0000 </r>
       <r>    5.8074    1.0000 </r>
       <r>    6.3058    1.0000 </r>
       <r>    7.4671    1.0000 </r>
       <r>    8.2530    1.0000 </r>
       <r>   12.3289   -0.0000 </r>
       <r>   16.2231    0.0000 </r>
       <r>   22.9644    0.0000 </r>
       <r>   24.3568    0.0000 </r>
       <r>   35.2472    0.0000 </r>
       <r>   38.6155    0.0000 </r>
       <r>   44.6511    0.0000 </r>
      </set>
      <set comment="kpoint 77">
       <r>    4.7775    1.0000 </r>
       <r>    5.1333    1.0000 </r>
       <r>    7.6492    1.0000 </r>
       <r>    8.1775    1.0000 </r>
       <r>    8.4277    1.0003 </r>
       <r>   12.6306   -0.0000 </r>
       <r>   18.3654    0.0000 </r>
       <r>   19.7724    0.0000 </r>
       <r>   24.4637    0.0000 </r>
       <r>   29.7398    0.0000 </r>
       <r>   35.4269    0.0000 </r>
       <r>   49.8465    0.0000 </r>
      </set>
      <set comment="kpoint 78">
       <r>    4.8881    1.0000 </r>
       <r>    5.2232    1.0000 </r>
       <r>    7.3243    1.0000 </r>
       <r>    8.1061    1.0000 </r>
       <r>    8.4774    1.0009 </r>
       <r>   13.0824   -0.0000 </r>
       <r>   18.4807    0.0000 </r>
       <r>   19.9553    0.0000 </r>
       <r>   22.2713    0.0000 </r>
       <r>   32.1167    0.0000 </r>
       <r>   35.8812    0.0000 </r>
       <r>   47.0220    0.0000 </r>
      </set>
      <set comment="kpoint 79">
       <r>    5.2057    1.0000 </r>
       <r>    5.5202    1.0000 </r>
       <r>    6.5926    1.0000 </r>
       <r>    7.8746    1.0000 </r>
       <r>    8.3680    1.0001 </r>
       <r>   12.8241   -0.0000 </r>
       <r>   18.6925    0.0000 </r>
       <r>   20.6757    0.0000 </r>
       <r>   21.5335    0.0000 </r>
       <r>   34.7487    0.0000 </r>
       <r>   38.3490    0.0000 </r>
       <r>   42.9938    0.0000 </r>
      </set>
      <set comment="kpoint 80">
       <r>    4.7939    1.0000 </r>
       <r>    5.2024    1.0000 </r>
       <r>    7.4717    1.0000 </r>
       <r>    8.0249    1.0000 </r>
       <r>    8.4548    1.0006 </r>
       <r>   11.4262   -0.0000 </r>
       <r>   19.8133    0.0000 </r>
       <r>   20.3542    0.0000 </r>
       <r>   24.8268    0.0000 </r>
       <r>   29.8435    0.0000 </r>
       <r>   35.5714    0.0000 </r>
       <r>   49.0434    0.0000 </r>
      </set>
      <set comment="kpoint 81">
       <r>    4.8978    1.0000 </r>
       <r>    5.4053    1.0000 </r>
       <r>    6.8478    1.0000 </r>
       <r>    7.9635    1.0000 </r>
       <r>    8.2418    1.0000 </r>
       <r>   10.4484   -0.0000 </r>
       <r>   20.8010    0.0000 </r>
       <r>   22.5972    0.0000 </r>
       <r>   23.3243    0.0000 </r>
       <r>   32.5961    0.0000 </r>
       <r>   36.2256    0.0000 </r>
       <r>   44.7177    0.0000 </r>
      </set>
      <set comment="kpoint 82">
       <r>    4.4767    1.0000 </r>
       <r>    5.5229    1.0000 </r>
       <r>    6.8553    1.0000 </r>
       <r>    7.5696    1.0000 </r>
       <r>    8.3613    1.0000 </r>
       <r>    8.9865    0.5002 </r>
       <r>   21.4401    0.0000 </r>
       <r>   25.2887    0.0000 </r>
       <r>   26.5529    0.0000 </r>
       <r>   30.4159    0.0000 </r>
       <r>   36.3627    0.0000 </r>
       <r>   46.5415    0.0000 </r>
      </set>
      <set comment="kpoint 83">
       <r>    2.3640    1.0000 </r>
       <r>    6.3299    1.0000 </r>
       <r>    6.8458    1.0000 </r>
       <r>    6.8458    1.0000 </r>
       <r>    7.8144    1.0000 </r>
       <r>    7.8144    1.0000 </r>
       <r>   23.1705    0.0000 </r>
       <r>   32.5813    0.0000 </r>
       <r>   33.9790    0.0000 </r>
       <r>   33.9790    0.0000 </r>
       <r>   39.6095    0.0000 </r>
       <r>   39.6095    0.0000 </r>
      </set>
      <set comment="kpoint 84">
       <r>    3.1575    1.0000 </r>
       <r>    6.2142    1.0000 </r>
       <r>    6.7778    1.0000 </r>
       <r>    6.9585    1.0000 </r>
       <r>    7.6547    1.0000 </r>
       <r>    8.3104    1.0000 </r>
       <r>   21.8134    0.0000 </r>
       <r>   28.2406    0.0000 </r>
       <r>   34.0163    0.0000 </r>
       <r>   36.0943    0.0000 </r>
       <r>   37.5661    0.0000 </r>
       <r>   38.2872    0.0000 </r>
      </set>
      <set comment="kpoint 85">
       <r>    4.3352    1.0000 </r>
       <r>    6.0350    1.0000 </r>
       <r>    6.5075    1.0000 </r>
       <r>    7.2426    1.0000 </r>
       <r>    7.5538    1.0000 </r>
       <r>    9.2279   -0.0354 </r>
       <r>   20.9732    0.0000 </r>
       <r>   23.3913    0.0000 </r>
       <r>   32.9897    0.0000 </r>
       <r>   33.0465    0.0000 </r>
       <r>   39.5608    0.0000 </r>
       <r>   41.1354    0.0000 </r>
      </set>
      <set comment="kpoint 86">
       <r>    5.2121    1.0000 </r>
       <r>    6.1293    1.0000 </r>
       <r>    6.1523    1.0000 </r>
       <r>    7.3508    1.0000 </r>
       <r>    7.8171    1.0000 </r>
       <r>   10.7663   -0.0000 </r>
       <r>   18.5334    0.0000 </r>
       <r>   21.3197    0.0000 </r>
       <r>   30.2401    0.0000 </r>
       <r>   31.6975    0.0000 </r>
       <r>   42.0329    0.0000 </r>
       <r>   42.7869    0.0000 </r>
      </set>
      <set comment="kpoint 87">
       <r>    5.2653    1.0000 </r>
       <r>    5.8520    1.0000 </r>
       <r>    6.5275    1.0000 </r>
       <r>    7.3804    1.0000 </r>
       <r>    8.2149    1.0000 </r>
       <r>   12.8634   -0.0000 </r>
       <r>   15.1852    0.0000 </r>
       <r>   21.9184    0.0000 </r>
       <r>   28.1184    0.0000 </r>
       <r>   30.8273    0.0000 </r>
       <r>   43.5813    0.0000 </r>
       <r>   43.7294    0.0000 </r>
      </set>
      <set comment="kpoint 88">
       <r>    5.0338    1.0000 </r>
       <r>    5.6604    1.0000 </r>
       <r>    6.6786    1.0000 </r>
       <r>    7.4707    1.0000 </r>
       <r>    8.4260    1.0003 </r>
       <r>   11.1636   -0.0000 </r>
       <r>   17.2680    0.0000 </r>
       <r>   23.3040    0.0000 </r>
       <r>   26.8473    0.0000 </r>
       <r>   30.4661    0.0000 </r>
       <r>   40.7098    0.0000 </r>
       <r>   44.8303    0.0000 </r>
      </set>
      <set comment="kpoint 89">
       <r>    3.6106    1.0000 </r>
       <r>    6.2472    1.0000 </r>
       <r>    6.7148    1.0000 </r>
       <r>    6.9354    1.0000 </r>
       <r>    8.1476    1.0000 </r>
       <r>    8.1927    1.0000 </r>
       <r>   20.2566    0.0000 </r>
       <r>   30.4538    0.0000 </r>
       <r>   30.6011    0.0000 </r>
       <r>   33.2895    0.0000 </r>
       <r>   39.2055    0.0000 </r>
       <r>   41.1672    0.0000 </r>
      </set>
      <set comment="kpoint 90">
       <r>    4.4382    1.0000 </r>
       <r>    6.0803    1.0000 </r>
       <r>    6.4810    1.0000 </r>
       <r>    7.1705    1.0000 </r>
       <r>    8.0135    1.0000 </r>
       <r>    9.2223   -0.0351 </r>
       <r>   19.2679    0.0000 </r>
       <r>   25.7821    0.0000 </r>
       <r>   29.3238    0.0000 </r>
       <r>   34.2451    0.0000 </r>
       <r>   38.5605    0.0000 </r>
       <r>   42.1107    0.0000 </r>
      </set>
      <set comment="kpoint 91">
       <r>    5.3039    1.0000 </r>
       <r>    5.9564    1.0000 </r>
       <r>    6.0907    1.0000 </r>
       <r>    7.5069    1.0000 </r>
       <r>    7.9455    1.0000 </r>
       <r>   10.9110   -0.0000 </r>
       <r>   18.7267    0.0000 </r>
       <r>   21.4514    0.0000 </r>
       <r>   26.9192    0.0000 </r>
       <r>   35.1260    0.0000 </r>
       <r>   38.7466    0.0000 </r>
       <r>   43.7364    0.0000 </r>
      </set>
      <set comment="kpoint 92">
       <r>    5.6013    1.0000 </r>
       <r>    5.6604    1.0000 </r>
       <r>    6.2456    1.0000 </r>
       <r>    7.6003    1.0000 </r>
       <r>    8.1785    1.0000 </r>
       <r>   13.3496   -0.0000 </r>
       <r>   16.5914    0.0000 </r>
       <r>   19.9827    0.0000 </r>
       <r>   24.9857    0.0000 </r>
       <r>   33.9480    0.0000 </r>
       <r>   41.0683    0.0000 </r>
       <r>   45.2661    0.0000 </r>
      </set>
      <set comment="kpoint 93">
       <r>    5.2599    1.0000 </r>
       <r>    5.5467    1.0000 </r>
       <r>    6.5916    1.0000 </r>
       <r>    7.7367    1.0000 </r>
       <r>    8.3554    1.0000 </r>
       <r>   13.0706   -0.0000 </r>
       <r>   16.8802    0.0000 </r>
       <r>   20.9720    0.0000 </r>
       <r>   23.6731    0.0000 </r>
       <r>   33.1520    0.0000 </r>
       <r>   40.3447    0.0000 </r>
       <r>   43.2460    0.0000 </r>
      </set>
      <set comment="kpoint 94">
       <r>    4.7524    1.0000 </r>
       <r>    5.8852    1.0000 </r>
       <r>    6.5768    1.0000 </r>
       <r>    7.2516    1.0000 </r>
       <r>    8.4121    1.0002 </r>
       <r>    9.8034   -0.0000 </r>
       <r>   18.0705    0.0000 </r>
       <r>   26.0053    0.0000 </r>
       <r>   27.7826    0.0000 </r>
       <r>   30.8176    0.0000 </r>
       <r>   41.0709    0.0000 </r>
       <r>   43.4731    0.0000 </r>
      </set>
      <set comment="kpoint 95">
       <r>    5.1840    1.0000 </r>
       <r>    5.6930    1.0000 </r>
       <r>    6.4559    1.0000 </r>
       <r>    7.5713    1.0000 </r>
       <r>    8.3127    1.0000 </r>
       <r>   11.4734   -0.0000 </r>
       <r>   17.4672    0.0000 </r>
       <r>   23.3779    0.0000 </r>
       <r>   24.2959    0.0000 </r>
       <r>   33.3829    0.0000 </r>
       <r>   39.9546    0.0000 </r>
       <r>   42.6772    0.0000 </r>
      </set>
      <set comment="kpoint 96">
       <r>    5.4382    1.0000 </r>
       <r>    5.8090    1.0000 </r>
       <r>    6.1421    1.0000 </r>
       <r>    7.6990    1.0000 </r>
       <r>    8.3616    1.0000 </r>
       <r>   13.9000   -0.0000 </r>
       <r>   17.2729    0.0000 </r>
       <r>   20.3010    0.0000 </r>
       <r>   21.5817    0.0000 </r>
       <r>   37.2256    0.0000 </r>
       <r>   38.6509    0.0000 </r>
       <r>   42.5156    0.0000 </r>
      </set>
      <set comment="kpoint 97">
       <r>    5.3521    1.0000 </r>
       <r>    5.8062    1.0000 </r>
       <r>    6.2366    1.0000 </r>
       <r>    7.7072    1.0000 </r>
       <r>    8.4761    1.0009 </r>
       <r>   15.5276    0.0000 </r>
       <r>   16.9244    0.0000 </r>
       <r>   19.2650    0.0000 </r>
       <r>   20.3457    0.0000 </r>
       <r>   37.2877    0.0000 </r>
       <r>   40.0112    0.0000 </r>
       <r>   41.4504    0.0000 </r>
      </set>
      <set comment="kpoint 98">
       <r>    5.1387    1.0000 </r>
       <r>    5.4917    1.0000 </r>
       <r>    6.8275    1.0000 </r>
       <r>    7.6931    1.0000 </r>
       <r>    8.3728    1.0001 </r>
       <r>   12.7656   -0.0000 </r>
       <r>   16.6689    0.0000 </r>
       <r>   20.8305    0.0000 </r>
       <r>   26.2070    0.0000 </r>
       <r>   30.2815    0.0000 </r>
       <r>   40.4585    0.0000 </r>
       <r>   46.1437    0.0000 </r>
      </set>
      <set comment="kpoint 99">
       <r>    5.2452    1.0000 </r>
       <r>    5.4921    1.0000 </r>
       <r>    6.6960    1.0000 </r>
       <r>    7.8216    1.0000 </r>
       <r>    8.3681    1.0001 </r>
       <r>   14.6085    0.0000 </r>
       <r>   16.4781    0.0000 </r>
       <r>   19.0919    0.0000 </r>
       <r>   23.3979    0.0000 </r>
       <r>   33.0379    0.0000 </r>
       <r>   40.4691    0.0000 </r>
       <r>   43.9254    0.0000 </r>
      </set>
      <set comment="kpoint 100">
       <r>    5.1550    1.0000 </r>
       <r>    5.4113    1.0000 </r>
       <r>    6.9291    1.0000 </r>
       <r>    7.8712    1.0000 </r>
       <r>    8.2857    1.0000 </r>
       <r>   14.2821   -0.0000 </r>
       <r>   16.2399    0.0000 </r>
       <r>   18.9949    0.0000 </r>
       <r>   25.8830    0.0000 </r>
       <r>   30.1939    0.0000 </r>
       <r>   40.3285    0.0000 </r>
       <r>   47.1302    0.0000 </r>
      </set>
      <set comment="kpoint 101">
       <r>    3.7366    1.0000 </r>
       <r>    6.7520    1.0000 </r>
       <r>    6.7520    1.0000 </r>
       <r>    6.8153    1.0000 </r>
       <r>    8.1113    1.0000 </r>
       <r>    8.1113    1.0000 </r>
       <r>   18.5596    0.0000 </r>
       <r>   31.6742    0.0000 </r>
       <r>   33.4505    0.0000 </r>
       <r>   33.4505    0.0000 </r>
       <r>   37.5201    0.0000 </r>
       <r>   37.5201    0.0000 </r>
      </set>
      <set comment="kpoint 102">
       <r>    4.2562    1.0000 </r>
       <r>    6.6071    1.0000 </r>
       <r>    6.7841    1.0000 </r>
       <r>    6.8361    1.0000 </r>
       <r>    8.0390    1.0000 </r>
       <r>    8.9868    0.4990 </r>
       <r>   17.4381    0.0000 </r>
       <r>   28.0980    0.0000 </r>
       <r>   32.5151    0.0000 </r>
[...]
       <r>    37.9957     0.3490    10.3992 </r>
       <r>    38.1871     0.2816    10.4531 </r>
       <r>    38.3784     0.3315    10.5165 </r>
       <r>    38.5698     0.2775    10.5696 </r>
       <r>    38.7611     0.3003    10.6271 </r>
       <r>    38.9525     0.2469    10.6744 </r>
       <r>    39.1439     0.2410    10.7205 </r>
       <r>    39.3352     0.3056    10.7789 </r>
       <r>    39.5266     0.3285    10.8418 </r>
       <r>    39.7179     0.2449    10.8887 </r>
       <r>    39.9093     0.1489    10.9172 </r>
       <r>    40.1006     0.1796    10.9515 </r>
       <r>    40.2920     0.1973    10.9893 </r>
       <r>    40.4834     0.1837    11.0244 </r>
       <r>    40.6747     0.1833    11.0595 </r>
       <r>    40.8661     0.2031    11.0984 </r>
       <r>    41.0574     0.2225    11.1410 </r>
       <r>    41.2488     0.1979    11.1788 </r>
       <r>    41.4401     0.1902    11.2152 </r>
       <r>    41.6315     0.2219    11.2577 </r>
       <r>    41.8229     0.1645    11.2892 </r>
       <r>    42.0142     0.1450    11.3169 </r>
       <r>    42.2056     0.2192    11.3589 </r>
       <r>    42.3969     0.1238    11.3825 </r>
       <r>    42.5883     0.1569    11.4126 </r>
       <r>    42.7796     0.1091    11.4334 </r>
       <r>    42.9710     0.1200    11.4564 </r>
       <r>    43.1624     0.1697    11.4889 </r>
       <r>    43.3537     0.2736    11.5412 </r>
       <r>    43.5451     0.2332    11.5859 </r>
       <r>    43.7364     0.1456    11.6137 </r>
       <r>    43.9278     0.1699    11.6462 </r>
       <r>    44.1192     0.1481    11.6746 </r>
       <r>    44.3105     0.0406    11.6823 </r>
       <r>    44.5019     0.0952    11.7006 </r>
       <r>    44.6932     0.1268    11.7248 </r>
       <r>    44.8846     0.2043    11.7639 </r>
       <r>    45.0759     0.0967    11.7824 </r>
       <r>    45.2673     0.0400    11.7901 </r>
       <r>    45.4587     0.0414    11.7980 </r>
       <r>    45.6500     0.0912    11.8154 </r>
       <r>    45.8414     0.0538    11.8257 </r>
       <r>    46.0327     0.0389    11.8332 </r>
       <r>    46.2241     0.1317    11.8584 </r>
       <r>    46.4154     0.0594    11.8697 </r>
       <r>    46.6068     0.0560    11.8804 </r>
       <r>    46.7982     0.0288    11.8860 </r>
       <r>    46.9895     0.0237    11.8905 </r>
       <r>    47.1809     0.0934    11.9084 </r>
       <r>    47.3722     0.0429    11.9166 </r>
       <r>    47.5636    -0.0037    11.9159 </r>
       <r>    47.7549     0.0228    11.9202 </r>
       <r>    47.9463     0.0463    11.9291 </r>
       <r>    48.1377     0.0479    11.9383 </r>
       <r>    48.3290     0.0111    11.9404 </r>
       <r>    48.5204    -0.0019    11.9400 </r>
       <r>    48.7117    -0.0008    11.9399 </r>
       <r>    48.9031     0.0018    11.9402 </r>
       <r>    49.0945     0.0193    11.9439 </r>
       <r>    49.2858     0.0193    11.9476 </r>
       <r>    49.4772     0.0424    11.9557 </r>
       <r>    49.6685     0.0211    11.9598 </r>
       <r>    49.8599     0.0373    11.9669 </r>
       <r>    50.0512     0.0157    11.9699 </r>
       <r>    50.2426     0.0222    11.9741 </r>
       <r>    50.4340     0.0398    11.9818 </r>
       <r>    50.6253     0.0023    11.9822 </r>
       <r>    50.8167    -0.0019    11.9818 </r>
       <r>    51.0080     0.0048    11.9827 </r>
       <r>    51.1994     0.0224    11.9870 </r>
       <r>    51.3907     0.0060    11.9882 </r>
       <r>    51.5821    -0.0011    11.9880 </r>
       <r>    51.7735    -0.0010    11.9878 </r>
       <r>    51.9648     0.0118    11.9900 </r>
       <r>    52.1562     0.0190    11.9937 </r>
       <r>    52.3475     0.0092    11.9955 </r>
       <r>    52.5389     0.0214    11.9995 </r>
       <r>    52.7302     0.0031    12.0001 </r>
       <r>    52.9216    -0.0007    12.0000 </r>
       <r>    53.1130    -0.0000    12.0000 </r>
       <r>    53.3043    -0.0000    12.0000 </r>
       <r>    53.4957    -0.0000    12.0000 </r>
       <r>    53.6870    -0.0000    12.0000 </r>
       <r>    53.8784     0.0000    12.0000 </r>
       <r>    54.0697     0.0000    12.0000 </r>
       <r>    54.2611     0.0000    12.0000 </r>
       <r>    54.4525     0.0000    12.0000 </r>
       <r>    54.6438     0.0000    12.0000 </r>
       <r>    54.8352     0.0000    12.0000 </r>
       <r>    55.0265     0.0000    12.0000 </r>
      </set>
      <set comment="spin 2">
       <r>    -2.3808     0.0000     0.0000 </r>
       <r>    -2.1894     0.0000     0.0000 </r>
       <r>    -1.9980     0.0000     0.0000 </r>
       <r>    -1.8067     0.0000     0.0000 </r>
       <r>    -1.6153     0.0000     0.0000 </r>
       <r>    -1.4240    -0.0000    -0.0000 </r>
       <r>    -1.2326    -0.0000    -0.0000 </r>
       <r>    -1.0412    -0.0000    -0.0000 </r>
       <r>    -0.8499    -0.0000    -0.0000 </r>
       <r>    -0.6585    -0.0000    -0.0000 </r>
       <r>    -0.4672    -0.0000    -0.0000 </r>
       <r>    -0.2758    -0.0000    -0.0000 </r>
       <r>    -0.0845    -0.0003    -0.0001 </r>
       <r>     0.1069     0.0007     0.0001 </r>
       <r>     0.2983     0.0071     0.0014 </r>
       <r>     0.4896     0.0187     0.0050 </r>
       <r>     0.6810     0.0242     0.0097 </r>
       <r>     0.8723     0.0253     0.0145 </r>
       <r>     1.0637     0.0328     0.0208 </r>
       <r>     1.2550     0.0464     0.0296 </r>
       <r>     1.4464     0.0365     0.0366 </r>
       <r>     1.6378     0.0316     0.0427 </r>
       <r>     1.8291     0.0578     0.0537 </r>
       <r>     2.0205     0.0733     0.0678 </r>
       <r>     2.2118     0.0374     0.0749 </r>
       <r>     2.4032     0.0511     0.0847 </r>
       <r>     2.5945     0.0802     0.1001 </r>
       <r>     2.7859     0.0696     0.1134 </r>
       <r>     2.9773     0.0742     0.1276 </r>
       <r>     3.1686     0.0878     0.1444 </r>
       <r>     3.3600     0.0877     0.1612 </r>
       <r>     3.5513     0.0766     0.1758 </r>
       <r>     3.7427     0.1058     0.1961 </r>
       <r>     3.9340     0.1448     0.2238 </r>
       <r>     4.1254     0.1249     0.2477 </r>
       <r>     4.3168     0.1198     0.2706 </r>
       <r>     4.5081     0.1847     0.3059 </r>
       <r>     4.6995     0.2727     0.3581 </r>
       <r>     4.8908     0.3339     0.4220 </r>
       <r>     5.0822     0.4734     0.5126 </r>
       <r>     5.2736     0.5393     0.6158 </r>
       <r>     5.4649     0.4765     0.7070 </r>
       <r>     5.6563     0.6527     0.8319 </r>
       <r>     5.8476     0.8346     0.9916 </r>
       <r>     6.0390     0.9181     1.1673 </r>
       <r>     6.2303     0.8620     1.3322 </r>
       <r>     6.4217     0.8330     1.4916 </r>
       <r>     6.6131     0.8296     1.6504 </r>
       <r>     6.8044     1.0362     1.8486 </r>
       <r>     6.9958     1.2202     2.0821 </r>
       <r>     7.1871     1.2990     2.3307 </r>
       <r>     7.3785     1.4772     2.6134 </r>
       <r>     7.5698     1.5242     2.9051 </r>
       <r>     7.7612     1.3454     3.1625 </r>
       <r>     7.9526     1.0751     3.3682 </r>
       <r>     8.1439     1.1355     3.5855 </r>
       <r>     8.3353     1.3674     3.8472 </r>
       <r>     8.5266     1.3098     4.0978 </r>
       <r>     8.7180     1.1324     4.3145 </r>
       <r>     8.9093     1.2753     4.5586 </r>
       <r>     9.1007     1.8281     4.9084 </r>
       <r>     9.2921     1.5371     5.2025 </r>
       <r>     9.4834     0.5585     5.3094 </r>
       <r>     9.6748     0.1202     5.3324 </r>
       <r>     9.8661     0.1993     5.3705 </r>
       <r>    10.0575     0.2333     5.4152 </r>
       <r>    10.2489     0.1264     5.4393 </r>
       <r>    10.4402     0.1534     5.4687 </r>
       <r>    10.6316     0.1902     5.5051 </r>
       <r>    10.8229     0.1616     5.5360 </r>
       <r>    11.0143     0.1339     5.5617 </r>
       <r>    11.2056     0.1597     5.5922 </r>
       <r>    11.3970     0.1919     5.6289 </r>
       <r>    11.5884     0.0940     5.6469 </r>
       <r>    11.7797     0.1231     5.6705 </r>
       <r>    11.9711     0.1080     5.6911 </r>
       <r>    12.1624     0.1651     5.7227 </r>
       <r>    12.3538     0.1669     5.7547 </r>
       <r>    12.5451     0.1324     5.7800 </r>
       <r>    12.7365     0.1156     5.8021 </r>
       <r>    12.9279     0.0343     5.8087 </r>
       <r>    13.1192     0.0769     5.8234 </r>
       <r>    13.3106     0.1293     5.8481 </r>
       <r>    13.5019     0.1405     5.8750 </r>
       <r>    13.6933     0.1314     5.9002 </r>
       <r>    13.8846     0.0516     5.9100 </r>
       <r>    14.0760     0.0234     5.9145 </r>
       <r>    14.2674     0.0873     5.9312 </r>
       <r>    14.4587     0.0641     5.9435 </r>
       <r>    14.6501     0.0554     5.9541 </r>
       <r>    14.8414     0.0854     5.9704 </r>
       <r>    15.0328     0.1009     5.9897 </r>
       <r>    15.2241     0.1446     6.0174 </r>
       <r>    15.4155     0.1327     6.0428 </r>
       <r>    15.6069     0.1574     6.0729 </r>
       <r>    15.7982     0.2467     6.1201 </r>
       <r>    15.9896     0.1161     6.1423 </r>
       <r>    16.1809     0.1185     6.1650 </r>
       <r>    16.3723     0.1295     6.1898 </r>
       <r>    16.5637     0.1417     6.2169 </r>
       <r>    16.7550     0.1519     6.2460 </r>
       <r>    16.9464     0.1290     6.2706 </r>
       <r>    17.1377     0.1424     6.2979 </r>
       <r>    17.3291     0.0896     6.3150 </r>
       <r>    17.5204     0.0914     6.3325 </r>
       <r>    17.7118     0.1492     6.3610 </r>
       <r>    17.9032     0.1036     6.3809 </r>
       <r>    18.0945     0.1058     6.4011 </r>
       <r>    18.2859     0.0956     6.4194 </r>
       <r>    18.4772     0.1644     6.4509 </r>
       <r>    18.6686     0.1899     6.4872 </r>
       <r>    18.8599     0.1433     6.5146 </r>
       <r>    19.0513     0.1864     6.5503 </r>
       <r>    19.2427     0.1873     6.5861 </r>
       <r>    19.4340     0.1918     6.6228 </r>
       <r>    19.6254     0.1406     6.6498 </r>
       <r>    19.8167     0.0795     6.6650 </r>
       <r>    20.0081     0.2053     6.7043 </r>
       <r>    20.1994     0.2568     6.7534 </r>
       <r>    20.3908     0.1701     6.7860 </r>
       <r>    20.5822     0.2034     6.8249 </r>
       <r>    20.7735     0.2324     6.8693 </r>
       <r>    20.9649     0.2028     6.9081 </r>
       <r>    21.1562     0.1474     6.9363 </r>
       <r>    21.3476     0.1164     6.9586 </r>
       <r>    21.5390     0.1744     6.9920 </r>
       <r>    21.7303     0.2641     7.0425 </r>
       <r>    21.9217     0.2100     7.0827 </r>
       <r>    22.1130     0.1388     7.1093 </r>
       <r>    22.3044     0.1625     7.1404 </r>
       <r>    22.4957     0.1918     7.1771 </r>
       <r>    22.6871     0.2615     7.2271 </r>
       <r>    22.8785     0.2949     7.2835 </r>
       <r>    23.0698     0.1260     7.3077 </r>
       <r>    23.2612     0.0846     7.3239 </r>
       <r>    23.4525     0.2786     7.3772 </r>
       <r>    23.6439     0.3204     7.4385 </r>
       <r>    23.8352     0.2521     7.4867 </r>
       <r>    24.0266     0.2087     7.5267 </r>
       <r>    24.2180     0.1134     7.5484 </r>
       <r>    24.4093     0.1896     7.5847 </r>
       <r>    24.6007     0.2643     7.6352 </r>
       <r>    24.7920     0.2242     7.6781 </r>
       <r>    24.9834     0.2202     7.7203 </r>
       <r>    25.1747     0.1724     7.7533 </r>
       <r>    25.3661     0.2149     7.7944 </r>
       <r>    25.5575     0.1627     7.8255 </r>
       <r>    25.7488     0.1996     7.8637 </r>
       <r>    25.9402     0.2205     7.9059 </r>
       <r>    26.1315     0.2233     7.9486 </r>
       <r>    26.3229     0.2608     7.9985 </r>
       <r>    26.5142     0.1973     8.0363 </r>
       <r>    26.7056     0.1268     8.0606 </r>
       <r>    26.8970     0.1108     8.0818 </r>
       <r>    27.0883     0.2380     8.1273 </r>
       <r>    27.2797     0.1769     8.1612 </r>
       <r>    27.4710     0.0540     8.1715 </r>
       <r>    27.6624     0.1488     8.2000 </r>
       <r>    27.8538     0.2542     8.2486 </r>
       <r>    28.0451     0.1688     8.2809 </r>
       <r>    28.2365     0.1898     8.3172 </r>
       <r>    28.4278     0.1552     8.3469 </r>
       <r>    28.6192     0.1586     8.3773 </r>
       <r>    28.8105     0.1587     8.4076 </r>
       <r>    29.0019     0.1123     8.4291 </r>
       <r>    29.1933     0.1626     8.4603 </r>
       <r>    29.3846     0.2619     8.5104 </r>
       <r>    29.5760     0.1576     8.5405 </r>
       <r>    29.7673     0.1180     8.5631 </r>
       <r>    29.9587     0.1445     8.5908 </r>
       <r>    30.1500     0.2310     8.6349 </r>
       <r>    30.3414     0.2505     8.6829 </r>
       <r>    30.5328     0.2741     8.7353 </r>
       <r>    30.7241     0.2181     8.7771 </r>
       <r>    30.9155     0.2352     8.8221 </r>
       <r>    31.1068     0.3314     8.8855 </r>
       <r>    31.2982     0.2059     8.9249 </r>
       <r>    31.4895     0.1627     8.9560 </r>
       <r>    31.6809     0.3436     9.0218 </r>
       <r>    31.8723     0.2232     9.0645 </r>
       <r>    32.0636     0.1141     9.0863 </r>
       <r>    32.2550     0.2872     9.1413 </r>
       <r>    32.4463     0.3958     9.2170 </r>
       <r>    32.6377     0.3931     9.2922 </r>
       <r>    32.8291     0.2348     9.3372 </r>
       <r>    33.0204     0.2202     9.3793 </r>
       <r>    33.2118     0.2737     9.4317 </r>
       <r>    33.4031     0.2083     9.4716 </r>
       <r>    33.5945     0.1660     9.5033 </r>
       <r>    33.7858     0.3288     9.5662 </r>
       <r>    33.9772     0.3830     9.6395 </r>
       <r>    34.1686     0.2732     9.6918 </r>
       <r>    34.3599     0.2055     9.7311 </r>
       <r>    34.5513     0.1475     9.7594 </r>
       <r>    34.7426     0.2309     9.8035 </r>
       <r>    34.9340     0.1549     9.8332 </r>
       <r>    35.1253     0.1270     9.8575 </r>
       <r>    35.3167     0.1798     9.8919 </r>
       <r>    35.5081     0.1881     9.9279 </r>
       <r>    35.6994     0.1740     9.9612 </r>
       <r>    35.8908     0.1999     9.9994 </r>
       <r>    36.0821     0.2802    10.0530 </r>
       <r>    36.2735     0.1753    10.0866 </r>
       <r>    36.4648     0.1624    10.1177 </r>
       <r>    36.6562     0.1543    10.1472 </r>
       <r>    36.8476     0.0662    10.1599 </r>
       <r>    37.0389     0.0357    10.1667 </r>
       <r>    37.2303     0.1579    10.1969 </r>
       <r>    37.4216     0.2507    10.2449 </r>
       <r>    37.6130     0.2376    10.2904 </r>
       <r>    37.8044     0.1791    10.3246 </r>
       <r>    37.9957     0.2716    10.3766 </r>
       <r>    38.1871     0.3445    10.4425 </r>
       <r>    38.3784     0.3284    10.5054 </r>
       <r>    38.5698     0.3017    10.5631 </r>
       <r>    38.7611     0.3047    10.6214 </r>
       <r>    38.9525     0.2688    10.6728 </r>
       <r>    39.1439     0.2386    10.7185 </r>
       <r>    39.3352     0.3071    10.7773 </r>
       <r>    39.5266     0.3323    10.8409 </r>
       <r>    39.7179     0.2092    10.8809 </r>
       <r>    39.9093     0.1655    10.9125 </r>
       <r>    40.1006     0.2143    10.9536 </r>
       <r>    40.2920     0.1776    10.9876 </r>
       <r>    40.4834     0.1618    11.0185 </r>
       <r>    40.6747     0.2178    11.0602 </r>
       <r>    40.8661     0.2011    11.0987 </r>
       <r>    41.0574     0.2134    11.1395 </r>
       <r>    41.2488     0.2073    11.1792 </r>
       <r>    41.4401     0.1915    11.2158 </r>
       <r>    41.6315     0.2121    11.2564 </r>
       <r>    41.8229     0.1522    11.2855 </r>
       <r>    42.0142     0.1821    11.3204 </r>
       <r>    42.2056     0.2043    11.3595 </r>
       <r>    42.3969     0.1153    11.3815 </r>
       <r>    42.5883     0.1233    11.4051 </r>
       <r>    42.7796     0.1441    11.4327 </r>
       <r>    42.9710     0.1115    11.4540 </r>
       <r>    43.1624     0.1635    11.4853 </r>
       <r>    43.3537     0.3117    11.5450 </r>
       <r>    43.5451     0.2317    11.5893 </r>
       <r>    43.7364     0.1275    11.6137 </r>
       <r>    43.9278     0.1416    11.6408 </r>
       <r>    44.1192     0.1589    11.6712 </r>
       <r>    44.3105     0.0828    11.6870 </r>
       <r>    44.5019     0.0827    11.7029 </r>
       <r>    44.6932     0.1066    11.7233 </r>
       <r>    44.8846     0.2319    11.7677 </r>
       <r>    45.0759     0.0849    11.7839 </r>
       <r>    45.2673     0.0161    11.7870 </r>
       <r>    45.4587     0.0730    11.8009 </r>
       <r>    45.6500     0.1006    11.8202 </r>
       <r>    45.8414     0.0317    11.8262 </r>
       <r>    46.0327     0.0441    11.8347 </r>
       <r>    46.2241     0.1201    11.8577 </r>
       <r>    46.4154     0.0685    11.8708 </r>
       <r>    46.6068     0.0618    11.8826 </r>
       <r>    46.7982     0.0185    11.8861 </r>
       <r>    46.9895     0.0420    11.8942 </r>
       <r>    47.1809     0.0925    11.9119 </r>
       <r>    47.3722     0.0243    11.9165 </r>
       <r>    47.5636     0.0010    11.9167 </r>
       <r>    47.7549     0.0293    11.9223 </r>
       <r>    47.9463     0.0420    11.9304 </r>
       <r>    48.1377     0.0458    11.9391 </r>
       <r>    48.3290     0.0063    11.9403 </r>
       <r>    48.5204    -0.0016    11.9400 </r>
       <r>    48.7117    -0.0009    11.9398 </r>
       <r>    48.9031     0.0035    11.9405 </r>
       <r>    49.0945     0.0202    11.9444 </r>
       <r>    49.2858     0.0232    11.9488 </r>
       <r>    49.4772     0.0420    11.9569 </r>
       <r>    49.6685     0.0085    11.9585 </r>
       <r>    49.8599     0.0367    11.9655 </r>
       <r>    50.0512     0.0246    11.9702 </r>
       <r>    50.2426     0.0327    11.9765 </r>
       <r>    50.4340     0.0305    11.9823 </r>
       <r>    50.6253    -0.0011    11.9821 </r>
       <r>    50.8167    -0.0015    11.9818 </r>
       <r>    51.0080     0.0073    11.9832 </r>
       <r>    51.1994     0.0222    11.9874 </r>
       <r>    51.3907     0.0037    11.9882 </r>
       <r>    51.5821    -0.0010    11.9880 </r>
       <r>    51.7735    -0.0006    11.9878 </r>
       <r>    51.9648     0.0146    11.9906 </r>
       <r>    52.1562     0.0169    11.9938 </r>
       <r>    52.3475     0.0117    11.9961 </r>
       <r>    52.5389     0.0198    11.9999 </r>
       <r>    52.7302     0.0012    12.0001 </r>
       <r>    52.9216    -0.0005    12.0000 </r>
       <r>    53.1130    -0.0000    12.0000 </r>
       <r>    53.3043    -0.0000    12.0000 </r>
       <r>    53.4957    -0.0000    12.0000 </r>
       <r>    53.6870    -0.0000    12.0000 </r>
       <r>    53.8784     0.0000    12.0000 </r>
       <r>    54.0697     0.0000    12.0000 </r>
       <r>    54.2611     0.0000    12.0000 </r>
       <r>    54.4525     0.0000    12.0000 </r>
       <r>    54.6438     0.0000    12.0000 </r>
       <r>    54.8352     0.0000    12.0000 </r>
       <r>    55.0265     0.0000    12.0000 </r>
      </set>
     </set>
    </array>
   </total>
  </dos>
 </calculation>
 <structure name="finalpos" >
  <crystal>
   <varray name="basis" >
    <v>       0.00000000       1.77500000       1.77500000 </v>
    <v>       1.77500000       0.00000000       1.77500000 </v>
    <v>       1.77500000       1.77500000       0.00000000 </v>
   </varray>
   <i name="volume">     11.18471875 </i>
   <varray name="rec_basis" >
    <v>      -0.28169014       0.28169014       0.28169014 </v>
    <v>       0.28169014      -0.28169014       0.28169014 </v>
    <v>       0.28169014       0.28169014      -0.28169014 </v>
   </varray>
  </crystal>
  <varray name="positions" >
   <v>       0.00000000       0.00000000       0.00000000 </v>
  </varray>
 </structure>
</modeling>
