fcc Au                                  
   3.95000000000000     
     0.000000    0.500000    0.500000
     0.500000    0.000000    0.500000
     0.500000    0.500000    0.000000
   Au
     1
Direct
  0.000000  0.000000  0.000000
 
   20   20   20
  73.881      70.323      61.374      50.440      39.664      29.359      19.788      12.195      7.6769      5.7463    
  5.2195      5.7463      7.6769      12.195      19.788      29.359      39.664      50.440      61.374      70.323    
  70.323      64.158      54.403      43.840      33.553      23.726      15.199      9.3048      6.3558      5.2478    
  5.2553      6.3661      9.3026      15.194      23.740      33.573      43.814      54.302      64.029      70.264    
  61.374      54.403      45.360      35.799      26.306      17.597      10.928      7.0628      5.3607      4.8873    
  5.3659      7.0627      10.923      17.607      26.333      35.808      45.309      54.298      61.285      64.029    
  50.440      43.840      35.799      27.202      18.911      12.112      7.7264      5.5406      4.6564      4.6559    
  5.5378      7.7208      12.108      18.916      27.217      35.814      43.844      50.435      54.298      54.302    
  39.664      33.553      26.306      18.911      12.548      8.1406      5.7098      4.5333      4.2024      4.5351    
  5.7095      8.1328      12.532      18.895      26.306      33.578      39.704      43.844      45.309      43.814    
  29.359      23.726      17.597      12.112      8.1406      5.7837      4.4894      3.9474      3.9479      4.4933    
  5.7911      8.1417      12.094      17.563      23.693      29.347      33.578      35.814      35.808      33.573    
  19.788      15.199      10.928      7.7264      5.7098      4.4894      3.8674      3.6811      3.8648      4.4960    
  5.7303      7.7461      10.924      15.164      19.736      23.693      26.306      27.217      26.333      23.740    
  12.195      9.3048      7.0628      5.5406      4.5333      3.9474      3.6811      3.6781      3.9417      4.5340    
  5.5578      7.0966      9.3376      12.201      15.164      17.563      18.895      18.916      17.607      15.194    
  7.6769      6.3558      5.3607      4.6564      4.2024      3.9479      3.8648      3.9417      4.1853      4.6364    
  5.3609      6.3909      7.7298      9.3376      10.924      12.094      12.532      12.108      10.923      9.3026    
  5.7463      5.2478      4.8873      4.6559      4.5351      4.4933      4.4960      4.5340      4.6364      4.8520    
  5.2190      5.7444      6.3909      7.0966      7.7461      8.1417      8.1328      7.7208      7.0627      6.3661    
  5.2195      5.2553      5.3659      5.5378      5.7095      5.7911      5.7303      5.5578      5.3609      5.2190    
  5.1692      5.2190      5.3609      5.5578      5.7303      5.7911      5.7095      5.5378      5.3659      5.2553    
  5.7463      6.3661      7.0627      7.7208      8.1328      8.1417      7.7461      7.0966      6.3909      5.7444    
  5.2190      4.8520      4.6364      4.5340      4.4960      4.4933      4.5351      4.6559      4.8873      5.2478    
  7.6769      9.3026      10.923      12.108      12.532      12.094      10.924      9.3376      7.7298      6.3909    
  5.3609      4.6364      4.1853      3.9417      3.8648      3.9479      4.2024      4.6564      5.3607      6.3558    
  12.195      15.194      17.607      18.916      18.895      17.563      15.164      12.201      9.3376      7.0966    
  5.5578      4.5340      3.9417      3.6781      3.6811      3.9474      4.5333      5.5406      7.0628      9.3048    
  19.788      23.740      26.333      27.217      26.306      23.693      19.736      15.164      10.924      7.7461    
  5.7303      4.4960      3.8648      3.6811      3.8674      4.4894      5.7098      7.7264      10.928      15.199    
  29.359      33.573      35.808      35.814      33.578      29.347      23.693      17.563      12.094      8.1417    
  5.7911      4.4933      3.9479      3.9474      4.4894      5.7837      8.1406      12.112      17.597      23.726    
  39.664      43.814      45.309      43.844      39.704      33.578      26.306      18.895      12.532      8.1328    
  5.7095      4.5351      4.2024      4.5333      5.7098      8.1406      12.548      18.911      26.306      33.553    
  50.440      54.302      54.298      50.435      43.844      35.814      27.217      18.916      12.108      7.7208    
  5.5378      4.6559      4.6564      5.5406      7.7264      12.112      18.911      27.202      35.799      43.840    
  61.374      64.029      61.285      54.298      45.309      35.808      26.333      17.607      10.923      7.0627    
  5.3659      4.8873      5.3607      7.0628      10.928      17.597      26.306      35.799      45.360      54.403    
  70.323      70.264      64.029      54.302      43.814      33.573      23.740      15.194      9.3026      6.3661    
  5.2553      5.2478      6.3558      9.3048      15.199      23.726      33.553      43.840      54.403      64.158    
  70.323      64.158      54.403      43.840      33.553      23.726      15.199      9.3048      6.3558      5.2478    
  5.2553      6.3661      9.3026      15.194      23.740      33.573      43.814      54.302      64.029      70.264    
  64.158      56.543      46.862      36.902      27.181      18.248      11.321      7.2607      5.4865      4.9973    
  5.4940      7.2600      11.316      18.266      27.225      36.913      46.769      56.361      64.006      67.067    
  54.403      46.862      38.075      28.999      20.287      13.005      8.1936      5.7977      4.8466      4.8477    
  5.7956      8.1861      13.009      20.318      29.040      38.074      46.791      54.303      58.892      58.940    
  43.840      36.902      28.999      21.002      13.964      8.9159      6.1013      4.7819      4.4147      4.7870    
  6.1000      8.9038      13.955      21.013      29.032      36.940      43.865      48.797      50.614      48.787    
  33.553      27.181      20.287      13.964      9.1957      6.3085      4.7789      4.1456      4.1498      4.7858    
  6.3061      9.1783      13.940      20.275      27.198      33.596      38.517      41.201      41.181      38.471    
  23.726      18.248      13.005      8.9159      6.3085      4.7929      4.0260      3.8033      4.0247      4.7979    
  6.3195      8.9179      12.985      18.213      23.698      28.399      31.512      32.591      31.507      28.406    
  15.199      11.321      8.1936      6.1013      4.7789      4.0260      3.6977      3.6937      4.0231      4.7924    
  6.1301      8.2167      11.317      15.165      19.024      22.073      23.734      23.747      22.108      19.068    
  9.3048      7.2607      5.7977      4.7819      4.1456      3.8033      3.6937      3.7983      4.1390      4.7836    
  5.8187      7.2992      9.3396      11.762      14.071      15.718      16.323      15.743      14.093      11.755    
  6.3558      5.4865      4.8466      4.4147      4.1498      4.0247      4.0231      4.1390      4.3897      4.8225    
  5.4895      6.3931      7.5022      8.7387      9.8427      10.502      10.505      9.8399      8.7107      7.4544    
  5.2478      4.9973      4.8477      4.7870      4.7858      4.7979      4.7924      4.7836      4.8225      4.9597    
  5.2205      5.6016      6.0671      6.5437      6.9226      7.0646      6.9068      6.5191      6.0478      5.6036    
  5.2553      5.4940      5.7956      6.1000      6.3061      6.3195      6.1301      5.8187      5.4895      5.2205    
  5.0474      4.9798      5.0076      5.0874      5.1486      5.1400      5.0732      5.0108      5.0112      5.0937    
  6.3661      7.2600      8.1861      8.9038      9.1783      8.9179      8.2167      7.2992      6.3931      5.6016    
  4.9798      4.5550      4.3018      4.1732      4.1326      4.1725      4.3126      4.5814      5.0055      5.6036    
  9.3026      11.316      13.009      13.955      13.940      12.985      11.317      9.3396      7.5022      6.0671    
  5.0076      4.3018      3.8878      3.6975      3.7005      3.8978      4.3146      5.0077      6.0394      7.4544    
  15.194      18.266      20.318      21.013      20.275      18.213      15.165      11.762      8.7387      6.5437    
  5.0874      4.1732      3.6975      3.5540      3.7010      4.1740      5.0770      6.5196      8.7119      11.755    
  23.740      27.225      29.040      29.032      27.198      23.698      19.024      14.071      9.8427      6.9226    
  5.1486      4.1326      3.7005      3.7010      4.1295      5.1373      6.9102      9.8462      14.099      19.068    
  33.573      36.913      38.074      36.940      33.596      28.399      22.073      15.718      10.502      7.0646    
  5.1400      4.1725      3.8978      4.1740      5.1373      7.0603      10.510      15.747      22.104      28.406    
  43.814      46.769      46.791      43.865      38.517      31.512      23.734      16.323      10.505      6.9068    
  5.0732      4.3126      4.3146      5.0770      6.9102      10.510      16.332      23.737      31.493      38.471    
  54.302      56.361      54.303      48.797      41.201      32.591      23.747      15.743      9.8399      6.5191    
  5.0108      4.5814      5.0077      6.5196      9.8462      15.747      23.737      32.569      41.180      48.787    
  64.029      64.006      58.892      50.614      41.181      31.507      22.108      14.093      8.7107      6.0478    
  5.0112      5.0055      6.0394      8.7119      14.099      22.104      31.493      41.180      50.645      58.940    
  70.264      67.067      58.940      48.787      38.471      28.406      19.068      11.755      7.4544      5.6036    
  5.0937      5.6036      7.4544      11.755      19.068      28.406      38.471      48.787      58.940      67.067    
  61.374      54.403      45.360      35.799      26.306      17.597      10.928      7.0628      5.3607      4.8873    
  5.3659      7.0627      10.923      17.607      26.333      35.808      45.309      54.298      61.285      64.029    
  54.403      46.862      38.075      28.999      20.287      13.005      8.1936      5.7977      4.8466      4.8477    
  5.7956      8.1861      13.009      20.318      29.040      38.074      46.791      54.303      58.892      58.940    
  45.360      38.075      29.917      21.717      14.461      9.1957      6.2423      4.8717      4.4903      4.8770    
  6.2401      9.1846      14.461      21.748      29.966      38.107      45.359      50.631      52.607      50.645    
  35.799      28.999      21.717      14.980      9.7921      6.6023      4.9421      4.2580      4.2631      4.9494    
  6.5977      9.7731      14.964      21.728      29.050      35.876      41.250      44.247      44.219      41.180    
  26.306      20.287      14.461      9.7921      6.7463      5.0114      4.1400      3.8928      4.1413      5.0142    
  6.7441      9.7751      14.432      20.272      26.331      31.552      35.058      36.273      35.007      31.493    
  17.597      13.005      9.1957      6.6023      5.0114      4.1087      3.7251      3.7213      4.1055      5.0206    
  6.6179      9.1969      12.982      17.563      22.082      25.632      27.560      27.558      25.635      22.104    
  10.928      8.1936      6.2423      4.9421      4.1400      3.7251      3.5952      3.7193      4.1404      4.9590    
  6.2710      8.2158      10.927      14.073      16.998      19.046      19.786      19.072      17.035      14.099    
  7.0628      5.7977      4.8717      4.2580      3.8928      3.7213      3.7193      3.8859      4.2487      4.8720    
  5.8193      7.1006      8.7431      10.550      12.113      13.023      13.032      12.126      10.544      8.7119    
  5.3607      4.8466      4.4903      4.2631      4.1413      4.1055      4.1404      4.2487      4.4605      4.8219    
  5.3647      6.0720      6.8794      7.6992      8.3354      8.5778      8.3311      7.6791      6.8425      6.0394    
  4.8873      4.8477      4.8770      4.9494      5.0142      5.0206      4.9590      4.8720      4.8219      4.8533    
  4.9826      5.2048      5.4881      5.7621      5.9315      5.9252      5.7469      5.4751      5.2069      5.0055    
  5.3659      5.7956      6.2401      6.5977      6.7441      6.6179      6.2710      5.8193      5.3647      4.9826    
  4.7105      4.5563      4.5004      4.4967      4.4968      4.4875      4.5002      4.5792      4.7484      5.0112    
  7.0627      8.1861      9.1846      9.7731      9.7751      9.1969      8.2158      7.1006      6.0720      5.2048    
  4.5563      4.1299      3.8818      3.7672      3.7664      3.8852      4.1446      4.5746      5.2069      6.0478    
  10.923      13.009      14.461      14.964      14.432      12.982      10.927      8.7431      6.8794      5.4881    
  4.5004      3.8818      3.5510      3.4486      3.5563      3.8890      4.4996      5.4683      6.8425      8.7107    
  17.607      20.318      21.748      21.728      20.272      17.563      14.073      10.550      7.6992      5.7621    
  4.4967      3.7672      3.4486      3.4502      3.7689      4.4916      5.7473      7.6813      10.544      14.093    
  26.333      29.040      29.966      29.050      26.331      22.082      16.998      12.113      8.3354      5.9315    
  4.4968      3.7664      3.5563      3.7689      4.4931      5.9217      8.3351      12.136      17.035      22.108    
  35.808      38.074      38.107      35.876      31.552      25.632      19.046      13.023      8.5778      5.9252    
  4.4875      3.8852      3.8890      4.4916      5.9217      8.5762      13.040      19.074      25.635      31.507    
  45.309      46.791      45.359      41.250      35.058      27.560      19.786      13.032      8.3311      5.7469    
  4.5002      4.1446      4.4996      5.7473      8.3351      13.040      19.789      27.541      35.007      41.181    
  54.298      54.303      50.631      44.247      36.273      27.558      19.072      12.126      7.6791      5.4751    
  4.5792      4.5746      5.4683      7.6813      12.136      19.074      27.541      36.242      44.219      50.614    
  61.285      58.892      52.607      44.219      35.007      25.635      17.035      10.544      6.8425      5.2069    
  4.7484      5.2069      6.8425      10.544      17.035      25.635      35.007      44.219      52.607      58.892    
  64.029      58.940      50.645      41.180      31.493      22.104      14.099      8.7119      6.0394      5.0055    
  5.0112      6.0478      8.7107      14.093      22.108      31.507      41.181      50.614      58.892      64.006    
  50.440      43.840      35.799      27.202      18.911      12.112      7.7264      5.5406      4.6564      4.6559    
  5.5378      7.7208      12.108      18.916      27.217      35.814      43.844      50.435      54.298      54.302    
  43.840      36.902      28.999      21.002      13.964      8.9159      6.1013      4.7819      4.4147      4.7870    
  6.1000      8.9038      13.955      21.013      29.032      36.940      43.865      48.797      50.614      48.787    
  35.799      28.999      21.717      14.980      9.7921      6.6023      4.9421      4.2580      4.2631      4.9494    
  6.5977      9.7731      14.964      21.728      29.050      35.876      41.250      44.247      44.219      41.180    
  27.202      21.002      14.980      10.109      6.9032      5.0898      4.1830      3.9266      4.1837      5.0926    
  6.9009      10.089      14.948      20.993      27.250      32.664      36.322      37.584      36.242      32.569    
  18.911      13.964      9.7921      6.9032      5.1479      4.1591      3.7460      3.7426      4.1569      5.1550    
  6.9065      9.7695      13.921      18.884      23.759      27.593      29.671      29.644      27.541      23.737    
  12.112      8.9159      6.6023      5.0898      4.1591      3.6882      3.5450      3.6828      4.1604      5.1033    
  6.6154      8.9103      12.085      15.714      19.052      21.371      22.198      21.380      19.074      15.747    
  7.7264      6.1013      4.9421      4.1830      3.7460      3.5450      3.5410      3.7393      4.1847      4.9584    
  6.1265      7.7448      9.8436      12.112      14.033      15.134      15.147      14.062      12.136      9.8462    
  5.5406      4.7819      4.2580      3.9266      3.7426      3.6828      3.7393      3.9174      4.2469      4.7815    
  5.5592      6.5491      7.7026      8.8588      9.7307      10.059      9.7363      8.8556      7.6813      6.5196    
  4.6564      4.4147      4.2631      4.1837      4.1569      4.1604      4.1847      4.2469      4.3846      4.6345    
  5.0112      5.4919      6.0087      6.4674      6.7475      6.7448      6.4552      5.9848      5.4683      5.0077    
  4.6559      4.7870      4.9494      5.0926      5.1550      5.1033      4.9584      4.7815      4.6345      4.5552    
  4.5574      4.6369      4.7645      4.8822      4.9272      4.8742      4.7563      4.6390      4.5746      4.5814    
  5.5378      6.1000      6.5977      6.9009      6.9065      6.6154      6.1265      5.5592      5.0112      4.5574    
  4.2317      4.0322      3.9301      3.8878      3.8838      3.9268      4.0441      4.2580      4.5792      5.0108    
  7.7208      8.9038      9.7731      10.089      9.7695      8.9103      7.7448      6.5491      5.4919      4.6369    
  4.0322      3.6517      3.4442      3.3770      3.4439      3.6569      4.0421      4.6390      5.4751      6.5191    
  12.108      13.955      14.964      14.948      13.921      12.085      9.8436      7.7026      6.0087      4.7645    
  3.9301      3.4442      3.2240      3.2258      3.4477      3.9295      4.7526      5.9848      7.6791      9.8399    
  18.916      21.013      21.728      20.993      18.884      15.714      12.112      8.8588      6.4674      4.8822    
  3.8878      3.3770      3.2258      3.3806      3.8877      4.8733      6.4550      8.8556      12.126      15.743    
  27.217      29.032      29.050      27.250      23.759      19.052      14.033      9.7307      6.7475      4.9272    
  3.8838      3.4439      3.4477      3.8877      4.9224      6.7421      9.7425      14.062      19.072      23.747    
  35.814      36.940      35.876      32.664      27.593      21.371      15.134      10.059      6.7448      4.8742    
  3.9268      3.6569      3.9295      4.8733      6.7421      10.067      15.155      21.380      27.558      32.591    
  43.844      43.865      41.250      36.322      29.671      22.198      15.147      9.7363      6.4552      4.7563    
  4.0441      4.0421      4.7526      6.4550      9.7425      15.155      22.195      29.644      36.273      41.201    
  50.435      48.797      44.247      37.584      29.644      21.380      14.062      8.8556      5.9848      4.6390    
  4.2580      4.6390      5.9848      8.8556      14.062      21.380      29.644      37.584      44.247      48.797    
  54.298      50.614      44.219      36.242      27.541      19.074      12.136      7.6813      5.4683      4.5746    
  4.5792      5.4751      7.6791      12.126      19.072      27.558      36.273      44.247      50.631      54.303    
  54.302      48.787      41.180      32.569      23.737      15.747      9.8462      6.5196      5.0077      4.5814    
  5.0108      6.5191      9.8399      15.743      23.747      32.591      41.201      48.797      54.303      56.361    
  39.664      33.553      26.306      18.911      12.548      8.1406      5.7098      4.5333      4.2024      4.5351    
  5.7095      8.1328      12.532      18.895      26.306      33.578      39.704      43.844      45.309      43.814    
  33.553      27.181      20.287      13.964      9.1957      6.3085      4.7789      4.1456      4.1498      4.7858    
  6.3061      9.1783      13.940      20.275      27.198      33.596      38.517      41.201      41.181      38.471    
  26.306      20.287      14.461      9.7921      6.7463      5.0114      4.1400      3.8928      4.1413      5.0142    
  6.7441      9.7751      14.432      20.272      26.331      31.552      35.058      36.273      35.007      31.493    
  18.911      13.964      9.7921      6.9032      5.1479      4.1591      3.7460      3.7426      4.1569      5.1550    
  6.9065      9.7695      13.921      18.884      23.759      27.593      29.671      29.644      27.541      23.737    
  12.548      9.1957      6.7463      5.1479      4.1668      3.6768      3.5310      3.6735      4.1705      5.1591    
  6.7466      9.1695      12.506      16.304      19.790      22.207      23.061      22.195      19.789      16.332    
  8.1406      6.3085      5.0114      4.1591      3.6768      3.4621      3.4596      3.6740      4.1636      5.0231    
  6.3170      8.1351      10.489      13.012      15.132      16.338      16.347      15.155      13.040      10.510    
  5.7098      4.7789      4.1400      3.7460      3.5310      3.4596      3.5257      3.7409      4.1421      4.7918    
  5.7286      6.9230      8.3321      9.7259      10.760      11.147      10.775      9.7425      8.3351      6.9102    
  4.5333      4.1456      3.8928      3.7426      3.6735      3.6740      3.7409      3.8847      4.1354      4.5315    
  5.0889      5.7655      6.4676      7.0828      7.4510      7.4513      7.0795      6.4550      5.7473      5.0770    
  4.2024      4.1498      4.1413      4.1569      4.1705      4.1636      4.1421      4.1354      4.1793      4.2988    
  4.5004      4.7650      5.0423      5.2569      5.3363      5.2498      5.0293      4.7526      4.4996      4.3146    
  4.5351      4.7858      5.0142      5.1550      5.1591      5.0231      4.7918      4.5315      4.2988      4.1273    
  4.0304      4.0032      4.0199      4.0411      4.0382      4.0152      4.0048      4.0421      4.1446      4.3126    
  5.7095      6.3061      6.7441      6.9065      6.7466      6.3170      5.7286      5.0889      4.5004      4.0304    
  3.6992      3.4920      3.3806      3.3436      3.3781      3.4960      3.7131      4.0441      4.5002      5.0732    
  8.1328      9.1783      9.7751      9.7695      9.1695      8.1351      6.9230      5.7655      4.7650      4.0032    
  3.4920      3.1865      3.0426      3.0419      3.1868      3.4955      4.0048      4.7563      5.7469      6.9068    
  12.532      13.940      14.432      13.921      12.506      10.489      8.3321      6.4676      5.0423      4.0199    
  3.3806      3.0426      2.9386      3.0447      3.3807      4.0134      5.0293      6.4552      8.3311      10.505    
  18.895      20.275      20.272      18.884      16.304      13.012      9.7259      7.0828      5.2569      4.0411    
  3.3436      3.0419      3.0447      3.3472      4.0381      5.2484      7.0795      9.7363      13.032      16.323    
  26.306      27.198      26.331      23.759      19.790      15.132      10.760      7.4510      5.3363      4.0382    
  3.3781      3.1868      3.3807      4.0381      5.3337      7.4549      10.775      15.147      19.786      23.734    
  33.578      33.596      31.552      27.593      22.207      16.338      11.147      7.4513      5.2498      4.0152    
  3.4960      3.4955      4.0134      5.2484      7.4549      11.158      16.347      22.198      27.560      31.512    
  39.704      38.517      35.058      29.671      23.061      16.347      10.775      7.0795      5.0293      4.0048    
  3.7131      4.0048      5.0293      7.0795      10.775      16.347      23.061      29.671      35.058      38.517    
  43.844      41.201      36.273      29.644      22.195      15.155      9.7425      6.4550      4.7526      4.0421    
  4.0441      4.7563      6.4552      9.7363      15.147      22.198      29.671      36.322      41.250      43.865    
  45.309      41.181      35.007      27.541      19.789      13.040      8.3351      5.7473      4.4996      4.1446    
  4.5002      5.7469      8.3311      13.032      19.786      27.560      35.058      41.250      45.359      46.791    
  43.814      38.471      31.493      23.737      16.332      10.510      6.9102      5.0770      4.3146      4.3126    
  5.0732      6.9068      10.505      16.323      23.734      31.512      38.517      43.865      46.791      46.769    
  29.359      23.726      17.597      12.112      8.1406      5.7837      4.4894      3.9474      3.9479      4.4933    
  5.7911      8.1417      12.094      17.563      23.693      29.347      33.578      35.814      35.808      33.573    
  23.726      18.248      13.005      8.9159      6.3085      4.7929      4.0260      3.8033      4.0247      4.7979    
  6.3195      8.9179      12.985      18.213      23.698      28.399      31.512      32.591      31.507      28.406    
  17.597      13.005      9.1957      6.6023      5.0114      4.1087      3.7251      3.7213      4.1055      5.0206    
  6.6179      9.1969      12.982      17.563      22.082      25.632      27.560      27.558      25.635      22.104    
  12.112      8.9159      6.6023      5.0898      4.1591      3.6882      3.5450      3.6828      4.1604      5.1033    
  6.6154      8.9103      12.085      15.714      19.052      21.371      22.198      21.380      19.074      15.747    
  8.1406      6.3085      5.0114      4.1591      3.6768      3.4621      3.4596      3.6740      4.1636      5.0231    
  6.3170      8.1351      10.489      13.012      15.132      16.338      16.347      15.155      13.040      10.510    
  5.7837      4.7929      4.1087      3.6882      3.4621      3.3893      3.4599      3.6864      4.1113      4.8023    
  5.7964      7.0666      8.5677      10.047      11.140      11.550      11.158      10.067      8.5762      7.0603    
  4.4894      4.0260      3.7251      3.5450      3.4596      3.4599      3.5443      3.7223      4.0253      4.4972    
  5.1527      5.9343      6.7424      7.4459      7.8650      7.8704      7.4549      6.7421      5.9217      5.1373    
  3.9474      3.8033      3.7213      3.6828      3.6740      3.6864      3.7223      3.7980      3.9399      4.1722    
  4.4979      4.8827      5.2550      5.5268      5.6266      5.5244      5.2484      4.8733      4.4916      4.1740    
  3.9479      4.0247      4.1055      4.1604      4.1636      4.1113      4.0253      3.9399      3.8849      3.8788    
  3.9272      4.0182      4.1186      4.1832      4.1802      4.1118      4.0134      3.9295      3.8890      3.8978    
  4.4933      4.7979      5.0206      5.1033      5.0231      4.8023      4.4972      4.1722      3.8788      3.6476    
  3.4892      3.3973      3.3541      3.3410      3.3522      3.3980      3.4955      3.6569      3.8852      4.1725    
  5.7911      6.3195      6.6179      6.6154      6.3170      5.7964      5.1527      4.4979      3.9272      3.4892    
  3.1864      2.9989      2.9080      2.9072      2.9996      3.1920      3.4960      3.9268      4.4875      5.1400    
  8.1417      8.9179      9.1969      8.9103      8.1351      7.0666      5.9343      4.8827      4.0182      3.3973    
  2.9989      2.7784      2.7071      2.7780      2.9995      3.3980      4.0152      4.8742      5.9252      7.0646    
  12.094      12.985      12.982      12.085      10.489      8.5677      6.7424      5.2550      4.1186      3.3541    
  2.9080      2.7071      2.7087      2.9099      3.3517      4.1118      5.2498      6.7448      8.5778      10.502    
  17.563      18.213      17.563      15.714      13.012      10.047      7.4459      5.5268      4.1832      3.3410    
  2.9072      2.7780      2.9099      3.3415      4.1797      5.5244      7.4513      10.059      13.023      15.718    
  23.693      23.698      22.082      19.052      15.132      11.140      7.8650      5.6266      4.1802      3.3522    
  2.9996      2.9995      3.3517      4.1797      5.6282      7.8704      11.147      15.134      19.046      22.073    
  29.347      28.399      25.632      21.371      16.338      11.550      7.8704      5.5244      4.1118      3.3980    
  3.1920      3.3980      4.1118      5.5244      7.8704      11.550      16.338      21.371      25.632      28.399    
  33.578      31.512      27.560      22.198      16.347      11.158      7.4549      5.2484      4.0134      3.4955    
  3.4960      4.0152      5.2498      7.4513      11.147      16.338      22.207      27.593      31.552      33.596    
  35.814      32.591      27.558      21.380      15.155      10.067      6.7421      4.8733      3.9295      3.6569    
  3.9268      4.8742      6.7448      10.059      15.134      21.371      27.593      32.664      35.876      36.940    
  35.808      31.507      25.635      19.074      13.040      8.5762      5.9217      4.4916      3.8890      3.8852    
  4.4875      5.9252      8.5778      13.023      19.046      25.632      31.552      35.876      38.107      38.074    
  33.573      28.406      22.104      15.747      10.510      7.0603      5.1373      4.1740      3.8978      4.1725    
  5.1400      7.0646      10.502      15.718      22.073      28.399      33.596      36.940      38.074      36.913    
  19.788      15.199      10.928      7.7264      5.7098      4.4894      3.8674      3.6811      3.8648      4.4960    
  5.7303      7.7461      10.924      15.164      19.736      23.693      26.306      27.217      26.333      23.740    
  15.199      11.321      8.1936      6.1013      4.7789      4.0260      3.6977      3.6937      4.0231      4.7924    
  6.1301      8.2167      11.317      15.165      19.024      22.073      23.734      23.747      22.108      19.068    
  10.928      8.1936      6.2423      4.9421      4.1400      3.7251      3.5952      3.7193      4.1404      4.9590    