fcc Au                                  
   3.95000000000000     
     0.000000    0.500000    0.500000
     0.500000    0.000000    0.500000
     0.500000    0.500000    0.000000
   Au
     1
Direct
  0.000000  0.000000  0.000000
 
   20   20   20
 0.73880616552E+02 0.70323476345E+02 0.61373503421E+02 0.50439798895E+02 0.39663850865E+02
 0.29359498301E+02 0.19788088495E+02 0.12195465272E+02 0.76769368349E+01 0.57462862632E+01
 0.52195046147E+01 0.57462862632E+01 0.76769368349E+01 0.12195465272E+02 0.19788088495E+02
 0.29359498301E+02 0.39663850865E+02 0.50439798895E+02 0.61373503421E+02 0.70323476345E+02
 0.70323476345E+02 0.64157788998E+02 0.54403445865E+02 0.43840030600E+02 0.33553356061E+02
 0.23725773286E+02 0.15198512754E+02 0.93048434884E+01 0.63557761310E+01 0.52478210348E+01
 0.52553202981E+01 0.63660795103E+01 0.93026121046E+01 0.15194075673E+02 0.23739972540E+02
 0.33573084737E+02 0.43813849797E+02 0.54301891678E+02 0.64029128556E+02 0.70264061448E+02
 0.61373503421E+02 0.54403445865E+02 0.45360379489E+02 0.35799189193E+02 0.26305951079E+02
 0.17597327841E+02 0.10927559274E+02 0.70627842809E+01 0.53606754215E+01 0.48872674406E+01
 0.53658871607E+01 0.70626689758E+01 0.10923474637E+02 0.17606851171E+02 0.26332521165E+02
 0.35808466804E+02 0.45309125933E+02 0.54298347662E+02 0.61284925058E+02 0.64029128556E+02
 0.50439798895E+02 0.43840030600E+02 0.35799189193E+02 0.27202132009E+02 0.18910852877E+02
 0.12111699007E+02 0.77264358215E+01 0.55405902085E+01 0.46564255961E+01 0.46559282528E+01
 0.55377609219E+01 0.77207520544E+01 0.12108049601E+02 0.18916297006E+02 0.27216813569E+02
 0.35813581418E+02 0.43844364741E+02 0.50435136644E+02 0.54298347662E+02 0.54301891678E+02
 0.39663850865E+02 0.33553356061E+02 0.26305951079E+02 0.18910852877E+02 0.12547967191E+02
 0.81406318035E+01 0.57098312979E+01 0.45332635491E+01 0.42023820918E+01 0.45351216772E+01
 0.57095172466E+01 0.81328429954E+01 0.12531957868E+02 0.18895404076E+02 0.26306197119E+02
 0.33578070758E+02 0.39703703428E+02 0.43844364741E+02 0.45309125933E+02 0.43813849797E+02
 0.29359498301E+02 0.23725773286E+02 0.17597327841E+02 0.12111699007E+02 0.81406318035E+01
 0.57836953147E+01 0.44893936741E+01 0.39473598163E+01 0.39479332871E+01 0.44933018786E+01
 0.57910750687E+01 0.81417324764E+01 0.12094108428E+02 0.17562657006E+02 0.23692968574E+02
 0.29346589599E+02 0.33578070758E+02 0.35813581418E+02 0.35808466804E+02 0.33573084737E+02
 0.19788088495E+02 0.15198512754E+02 0.10927559274E+02 0.77264358215E+01 0.57098312979E+01
 0.44893936741E+01 0.38673974662E+01 0.36810773385E+01 0.38648233510E+01 0.44960309924E+01
 0.57303186116E+01 0.77461178390E+01 0.10924136983E+02 0.15164015927E+02 0.19736125307E+02
 0.23692968574E+02 0.26306197119E+02 0.27216813569E+02 0.26332521165E+02 0.23739972540E+02
 0.12195465272E+02 0.93048434884E+01 0.70627842809E+01 0.55405902085E+01 0.45332635491E+01
 0.39473598163E+01 0.36810773385E+01 0.36781079995E+01 0.39416816256E+01 0.45339910722E+01
 0.55578476260E+01 0.70966071598E+01 0.93375610648E+01 0.12201422500E+02 0.15164015927E+02
 0.17562657006E+02 0.18895404076E+02 0.18916297006E+02 0.17606851171E+02 0.15194075673E+02
 0.76769368349E+01 0.63557761310E+01 0.53606754215E+01 0.46564255961E+01 0.42023820918E+01
 0.39479332871E+01 0.38648233510E+01 0.39416816256E+01 0.41853308725E+01 0.46363837982E+01
 0.53609397529E+01 0.63908784054E+01 0.77298263190E+01 0.93375610648E+01 0.10924136983E+02
 0.12094108428E+02 0.12531957868E+02 0.12108049601E+02 0.10923474637E+02 0.93026121046E+01
 0.57462862632E+01 0.52478210348E+01 0.48872674406E+01 0.46559282528E+01 0.45351216772E+01
 0.44933018786E+01 0.44960309924E+01 0.45339910722E+01 0.46363837982E+01 0.48520269885E+01
 0.52190301987E+01 0.57443881582E+01 0.63908784054E+01 0.70966071598E+01 0.77461178390E+01
 0.81417324764E+01 0.81328429954E+01 0.77207520544E+01 0.70626689758E+01 0.63660795103E+01
 0.52195046147E+01 0.52553202981E+01 0.53658871607E+01 0.55377609219E+01 0.57095172466E+01
 0.57910750687E+01 0.57303186116E+01 0.55578476260E+01 0.53609397529E+01 0.52190301987E+01
 0.51692381157E+01 0.52190301987E+01 0.53609397529E+01 0.55578476260E+01 0.57303186116E+01
 0.57910750687E+01 0.57095172466E+01 0.55377609219E+01 0.53658871607E+01 0.52553202981E+01
 0.57462862632E+01 0.63660795103E+01 0.70626689758E+01 0.77207520544E+01 0.81328429954E+01
 0.81417324764E+01 0.77461178390E+01 0.70966071598E+01 0.63908784054E+01 0.57443881582E+01
 0.52190301987E+01 0.48520269885E+01 0.46363837982E+01 0.45339910722E+01 0.44960309924E+01
 0.44933018786E+01 0.45351216772E+01 0.46559282528E+01 0.48872674406E+01 0.52478210348E+01
 0.76769368349E+01 0.93026121046E+01 0.10923474637E+02 0.12108049601E+02 0.12531957868E+02
 0.12094108428E+02 0.10924136983E+02 0.93375610648E+01 0.77298263190E+01 0.63908784054E+01
 0.53609397529E+01 0.46363837982E+01 0.41853308725E+01 0.39416816256E+01 0.38648233510E+01
 0.39479332871E+01 0.42023820918E+01 0.46564255961E+01 0.53606754215E+01 0.63557761310E+01
 0.12195465272E+02 0.15194075673E+02 0.17606851171E+02 0.18916297006E+02 0.18895404076E+02
 0.17562657006E+02 0.15164015927E+02 0.12201422500E+02 0.93375610648E+01 0.70966071598E+01
 0.55578476260E+01 0.45339910722E+01 0.39416816256E+01 0.36781079995E+01 0.36810773385E+01
 0.39473598163E+01 0.45332635491E+01 0.55405902085E+01 0.70627842809E+01 0.93048434884E+01
 0.19788088495E+02 0.23739972540E+02 0.26332521165E+02 0.27216813569E+02 0.26306197119E+02
 0.23692968574E+02 0.19736125307E+02 0.15164015927E+02 0.10924136983E+02 0.77461178390E+01
 0.57303186116E+01 0.44960309924E+01 0.38648233510E+01 0.36810773385E+01 0.38673974662E+01
 0.44893936741E+01 0.57098312979E+01 0.77264358215E+01 0.10927559274E+02 0.15198512754E+02
 0.29359498301E+02 0.33573084737E+02 0.35808466804E+02 0.35813581418E+02 0.33578070758E+02
 0.29346589599E+02 0.23692968574E+02 0.17562657006E+02 0.12094108428E+02 0.81417324764E+01
 0.57910750687E+01 0.44933018786E+01 0.39479332871E+01 0.39473598163E+01 0.44893936741E+01
 0.57836953147E+01 0.81406318035E+01 0.12111699007E+02 0.17597327841E+02 0.23725773286E+02
 0.39663850865E+02 0.43813849797E+02 0.45309125933E+02 0.43844364741E+02 0.39703703428E+02
 0.33578070758E+02 0.26306197119E+02 0.18895404076E+02 0.12531957868E+02 0.81328429954E+01
 0.57095172466E+01 0.45351216772E+01 0.42023820918E+01 0.45332635491E+01 0.57098312979E+01
 0.81406318035E+01 0.12547967191E+02 0.18910852877E+02 0.26305951079E+02 0.33553356061E+02
 0.50439798895E+02 0.54301891678E+02 0.54298347662E+02 0.50435136644E+02 0.43844364741E+02
 0.35813581418E+02 0.27216813569E+02 0.18916297006E+02 0.12108049601E+02 0.77207520544E+01
 0.55377609219E+01 0.46559282528E+01 0.46564255961E+01 0.55405902085E+01 0.77264358215E+01
 0.12111699007E+02 0.18910852877E+02 0.27202132009E+02 0.35799189193E+02 0.43840030600E+02
 0.61373503421E+02 0.64029128556E+02 0.61284925058E+02 0.54298347662E+02 0.45309125933E+02
 0.35808466804E+02 0.26332521165E+02 0.17606851171E+02 0.10923474637E+02 0.70626689758E+01
 0.53658871607E+01 0.48872674406E+01 0.53606754215E+01 0.70627842809E+01 0.10927559274E+02
 0.17597327841E+02 0.26305951079E+02 0.35799189193E+02 0.45360379489E+02 0.54403445865E+02
 0.70323476345E+02 0.70264061448E+02 0.64029128556E+02 0.54301891678E+02 0.43813849797E+02
 0.33573084737E+02 0.23739972540E+02 0.15194075673E+02 0.93026121046E+01 0.63660795103E+01
 0.52553202981E+01 0.52478210348E+01 0.63557761310E+01 0.93048434884E+01 0.15198512754E+02
 0.23725773286E+02 0.33553356061E+02 0.43840030600E+02 0.54403445865E+02 0.64157788998E+02
 0.70323476345E+02 0.64157788998E+02 0.54403445865E+02 0.43840030600E+02 0.33553356061E+02
 0.23725773286E+02 0.15198512754E+02 0.93048434884E+01 0.63557761310E+01 0.52478210348E+01
 0.52553202981E+01 0.63660795103E+01 0.93026121046E+01 0.15194075673E+02 0.23739972540E+02
 0.33573084737E+02 0.43813849797E+02 0.54301891678E+02 0.64029128556E+02 0.70264061448E+02
 0.64157788998E+02 0.56543174415E+02 0.46862052768E+02 0.36902192969E+02 0.27181375368E+02
 0.18248346734E+02 0.11321083468E+02 0.72606971997E+01 0.54865156601E+01 0.49973485696E+01
 0.54940142777E+01 0.72600032488E+01 0.11315717622E+02 0.18266182696E+02 0.27224996129E+02
 0.36912630360E+02 0.46768733389E+02 0.56360603628E+02 0.64005921190E+02 0.67066890986E+02
 0.54403445865E+02 0.46862052768E+02 0.38074862858E+02 0.28999321547E+02 0.20286998832E+02
 0.13005465589E+02 0.81935526131E+01 0.57976638878E+01 0.48466079287E+01 0.48476667692E+01
 0.57955840531E+01 0.81861308822E+01 0.13009019053E+02 0.20318357343E+02 0.29040323789E+02
 0.38074493496E+02 0.46791445398E+02 0.54303052616E+02 0.58892416216E+02 0.58940051707E+02
 0.43840030600E+02 0.36902192969E+02 0.28999321547E+02 0.21002461811E+02 0.13964377553E+02
 0.89158723873E+01 0.61013037531E+01 0.47819298569E+01 0.44146689873E+01 0.47869652583E+01
 0.61000046661E+01 0.89037515028E+01 0.13954599124E+02 0.21012930056E+02 0.29031739183E+02
 0.36939642604E+02 0.43865185152E+02 0.48796981627E+02 0.50614266989E+02 0.48787155439E+02
 0.33553356061E+02 0.27181375368E+02 0.20286998832E+02 0.13964377553E+02 0.91957431972E+01
 0.63084749106E+01 0.47789337480E+01 0.41456186773E+01 0.41498418690E+01 0.47857865707E+01
 0.63060848437E+01 0.91782530018E+01 0.13940213193E+02 0.20275447390E+02 0.27198305600E+02
 0.33596304657E+02 0.38517200933E+02 0.41200523774E+02 0.41180892394E+02 0.38471408768E+02
 0.23725773286E+02 0.18248346734E+02 0.13005465589E+02 0.89158723873E+01 0.63084749106E+01
 0.47929071022E+01 0.40259744532E+01 0.38033078768E+01 0.40246578949E+01 0.47979394762E+01
 0.63194795277E+01 0.89179153982E+01 0.12985094641E+02 0.18212684423E+02 0.23697692489E+02
 0.28399048983E+02 0.31512099616E+02 0.32590681512E+02 0.31507274105E+02 0.28406002728E+02
 0.15198512754E+02 0.11321083468E+02 0.81935526131E+01 0.61013037531E+01 0.47789337480E+01
 0.40259744532E+01 0.36977308496E+01 0.36936758184E+01 0.40230871528E+01 0.47923723496E+01
 0.61300698017E+01 0.82167238997E+01 0.11317168517E+02 0.15165472451E+02 0.19023673951E+02
 0.22072565159E+02 0.23733878594E+02 0.23746803741E+02 0.22107781377E+02 0.19068414266E+02
 0.93048434884E+01 0.72606971997E+01 0.57976638878E+01 0.47819298569E+01 0.41456186773E+01
 0.38033078768E+01 0.36936758184E+01 0.37983255822E+01 0.41390166446E+01 0.47835623218E+01
 0.58187330066E+01 0.72992350768E+01 0.93396055215E+01 0.11762430785E+02 0.14070804530E+02
 0.15718379897E+02 0.16323342309E+02 0.15743352704E+02 0.14092910065E+02 0.11755481150E+02
 0.63557761310E+01 0.54865156601E+01 0.48466079287E+01 0.44146689873E+01 0.41498418690E+01
 0.40246578949E+01 0.40230871528E+01 0.41390166446E+01 0.43896831185E+01 0.48224676677E+01
 0.54894699119E+01 0.63931227861E+01 0.75022493621E+01 0.87386911443E+01 0.98427360272E+01
 0.10501873475E+02 0.10505112593E+02 0.98398995263E+01 0.87107334497E+01 0.74543837584E+01
 0.52478210348E+01 0.49973485696E+01 0.48476667692E+01 0.47869652583E+01 0.47857865707E+01
 0.47979394762E+01 0.47923723496E+01 0.47835623218E+01 0.48224676677E+01 0.49596870495E+01
 0.52205091908E+01 0.56016445911E+01 0.60670869562E+01 0.65437465623E+01 0.69225573959E+01
 0.70646014523E+01 0.69068183607E+01 0.65190820413E+01 0.60478357208E+01 0.56036454069E+01
 0.52553202981E+01 0.54940142777E+01 0.57955840531E+01 0.61000046661E+01 0.63060848437E+01
 0.63194795277E+01 0.61300698017E+01 0.58187330066E+01 0.54894699119E+01 0.52205091908E+01
 0.50474083344E+01 0.49798208311E+01 0.50075971069E+01 0.50873617837E+01 0.51486228059E+01
 0.51400090583E+01 0.50731901767E+01 0.50108456636E+01 0.50111803711E+01 0.50937496978E+01
 0.63660795103E+01 0.72600032488E+01 0.81861308822E+01 0.89037515028E+01 0.91782530018E+01
 0.89179153982E+01 0.82167238997E+01 0.72992350768E+01 0.63931227861E+01 0.56016445911E+01
 0.49798208311E+01 0.45550368632E+01 0.43017574625E+01 0.41731828523E+01 0.41325506527E+01
 0.41725300365E+01 0.43126065719E+01 0.45814488856E+01 0.50054515882E+01 0.56036454069E+01
 0.93026121046E+01 0.11315717622E+02 0.13009019053E+02 0.13954599124E+02 0.13940213193E+02
 0.12985094641E+02 0.11317168517E+02 0.93396055215E+01 0.75022493621E+01 0.60670869562E+01
 0.50075971069E+01 0.43017574625E+01 0.38878286173E+01 0.36974757385E+01 0.37005175614E+01
 0.38978112548E+01 0.43145943170E+01 0.50076629605E+01 0.60393952085E+01 0.74543837584E+01
 0.15194075673E+02 0.18266182696E+02 0.20318357343E+02 0.21012930056E+02 0.20275447390E+02
 0.18212684423E+02 0.15165472451E+02 0.11762430785E+02 0.87386911443E+01 0.65437465623E+01
 0.50873617837E+01 0.41731828523E+01 0.36974757385E+01 0.35539961746E+01 0.37009700696E+01
 0.41740137520E+01 0.50770282617E+01 0.65195976543E+01 0.87119314298E+01 0.11755481150E+02
 0.23739972540E+02 0.27224996129E+02 0.29040323789E+02 0.29031739183E+02 0.27198305600E+02
 0.23697692489E+02 0.19023673951E+02 0.14070804530E+02 0.98427360272E+01 0.69225573959E+01
 0.51486228059E+01 0.41325506527E+01 0.37005175614E+01 0.37009700696E+01 0.41295092233E+01
 0.51372639694E+01 0.69102413717E+01 0.98462106616E+01 0.14099296476E+02 0.19068414266E+02
 0.33573084737E+02 0.36912630360E+02 0.38074493496E+02 0.36939642604E+02 0.33596304657E+02
 0.28399048983E+02 0.22072565159E+02 0.15718379897E+02 0.10501873475E+02 0.70646014523E+01
 0.51400090583E+01 0.41725300365E+01 0.38978112548E+01 0.41740137520E+01 0.51372639694E+01
 0.70603477367E+01 0.10510354656E+02 0.15746608095E+02 0.22103815198E+02 0.28406002728E+02
 0.43813849797E+02 0.46768733389E+02 0.46791445398E+02 0.43865185152E+02 0.38517200933E+02
 0.31512099616E+02 0.23733878594E+02 0.16323342309E+02 0.10505112593E+02 0.69068183607E+01
 0.50731901767E+01 0.43126065719E+01 0.43145943170E+01 0.50770282617E+01 0.69102413717E+01
 0.10510354656E+02 0.16331842599E+02 0.23736662718E+02 0.31492884023E+02 0.38471408768E+02
 0.54301891678E+02 0.56360603628E+02 0.54303052616E+02 0.48796981627E+02 0.41200523774E+02
 0.32590681512E+02 0.23746803741E+02 0.15743352704E+02 0.98398995263E+01 0.65190820413E+01
 0.50108456636E+01 0.45814488856E+01 0.50076629605E+01 0.65195976543E+01 0.98462106616E+01
 0.15746608095E+02 0.23736662718E+02 0.32568734215E+02 0.41179669159E+02 0.48787155439E+02
 0.64029128556E+02 0.64005921190E+02 0.58892416216E+02 0.50614266989E+02 0.41180892394E+02
 0.31507274105E+02 0.22107781377E+02 0.14092910065E+02 0.87107334497E+01 0.60478357208E+01
 0.50111803711E+01 0.50054515882E+01 0.60393952085E+01 0.87119314298E+01 0.14099296476E+02
 0.22103815198E+02 0.31492884023E+02 0.41179669159E+02 0.50645419080E+02 0.58940051707E+02
 0.70264061448E+02 0.67066890986E+02 0.58940051707E+02 0.48787155439E+02 0.38471408768E+02
 0.28406002728E+02 0.19068414266E+02 0.11755481150E+02 0.74543837584E+01 0.56036454069E+01
 0.50937496978E+01 0.56036454069E+01 0.74543837584E+01 0.11755481150E+02 0.19068414266E+02
 0.28406002728E+02 0.38471408768E+02 0.48787155439E+02 0.58940051707E+02 0.67066890986E+02
 0.61373503421E+02 0.54403445865E+02 0.45360379489E+02 0.35799189193E+02 0.26305951079E+02
 0.17597327841E+02 0.10927559274E+02 0.70627842809E+01 0.53606754215E+01 0.48872674406E+01
 0.53658871607E+01 0.70626689758E+01 0.10923474637E+02 0.17606851171E+02 0.26332521165E+02
 0.35808466804E+02 0.45309125933E+02 0.54298347662E+02 0.61284925058E+02 0.64029128556E+02
 0.54403445865E+02 0.46862052768E+02 0.38074862858E+02 0.28999321547E+02 0.20286998832E+02
 0.13005465589E+02 0.81935526131E+01 0.57976638878E+01 0.48466079287E+01 0.48476667692E+01
 0.57955840531E+01 0.81861308822E+01 0.13009019053E+02 0.20318357343E+02 0.29040323789E+02
 0.38074493496E+02 0.46791445398E+02 0.54303052616E+02 0.58892416216E+02 0.58940051707E+02
 0.45360379489E+02 0.38074862858E+02 0.29917343945E+02 0.21717314921E+02 0.14460521194E+02
 0.91957100537E+01 0.62423434042E+01 0.48716783198E+01 0.44902924306E+01 0.48769863503E+01
 0.62400859393E+01 0.91846291567E+01 0.14461247273E+02 0.21748117050E+02 0.29965917740E+02
 0.38107189949E+02 0.45359494976E+02 0.50630557025E+02 0.52606971179E+02 0.50645419080E+02
 0.35799189193E+02 0.28999321547E+02 0.21717314921E+02 0.14980054116E+02 0.97920655520E+01
 0.66023356461E+01 0.49420732419E+01 0.42579757141E+01 0.42630840729E+01 0.49494261474E+01
 0.65976640457E+01 0.97731148603E+01 0.14963795375E+02 0.21728388378E+02 0.29049831054E+02
 0.35876180279E+02 0.41249694222E+02 0.44247014971E+02 0.44218769140E+02 0.41179669159E+02
 0.26305951079E+02 0.20286998832E+02 0.14460521194E+02 0.97920655520E+01 0.67463133471E+01
 0.50114326641E+01 0.41399721433E+01 0.38927993313E+01 0.41413493184E+01 0.50142019983E+01
 0.67440902331E+01 0.97751312401E+01 0.14432283435E+02 0.20272320486E+02 0.26331059021E+02
 0.31552252328E+02 0.35058426965E+02 0.36272675532E+02 0.35007435201E+02 0.31492884023E+02
 0.17597327841E+02 0.13005465589E+02 0.91957100537E+01 0.66023356461E+01 0.50114326641E+01
 0.41086791086E+01 0.37250705384E+01 0.37212623368E+01 0.41055465277E+01 0.50205713490E+01
 0.66178787626E+01 0.91968954574E+01 0.12981714718E+02 0.17562987511E+02 0.22082102295E+02
 0.25632030936E+02 0.27559758748E+02 0.27557696727E+02 0.25635197712E+02 0.22103815198E+02
 0.10927559274E+02 0.81935526131E+01 0.62423434042E+01 0.49420732419E+01 0.41399721433E+01
 0.37250705384E+01 0.35951775933E+01 0.37192663226E+01 0.41404435343E+01 0.49590142254E+01
 0.62710241779E+01 0.82158411923E+01 0.10926500222E+02 0.14072940869E+02 0.16998468119E+02
 0.19046239404E+02 0.19786351463E+02 0.19072139573E+02 0.17035334014E+02 0.14099296476E+02
 0.70627842809E+01 0.57976638878E+01 0.48716783198E+01 0.42579757141E+01 0.38927993313E+01
 0.37212623368E+01 0.37192663226E+01 0.38858616691E+01 0.42487354582E+01 0.48719695705E+01
 0.58192875880E+01 0.71006348618E+01 0.87431181033E+01 0.10549976413E+02 0.12112946212E+02
 0.13023231184E+02 0.13032174453E+02 0.12126486401E+02 0.10544203399E+02 0.87119314298E+01
 0.53606754215E+01 0.48466079287E+01 0.44902924306E+01 0.42630840729E+01 0.41413493184E+01
 0.41055465277E+01 0.41404435343E+01 0.42487354582E+01 0.44605042466E+01 0.48218659018E+01
 0.53647301465E+01 0.60719810423E+01 0.68794049235E+01 0.76992204076E+01 0.83353876389E+01
 0.85777724483E+01 0.83311311253E+01 0.76791339091E+01 0.68425190937E+01 0.60393952085E+01
 0.48872674406E+01 0.48476667692E+01 0.48769863503E+01 0.49494261474E+01 0.50142019983E+01
 0.50205713490E+01 0.49590142254E+01 0.48719695705E+01 0.48218659018E+01 0.48532654754E+01
 0.49826275514E+01 0.52048061429E+01 0.54881116366E+01 0.57620710046E+01 0.59315408122E+01
 0.59251808841E+01 0.57469118873E+01 0.54750520571E+01 0.52069331846E+01 0.50054515882E+01
 0.53658871607E+01 0.57955840531E+01 0.62400859393E+01 0.65976640457E+01 0.67440902331E+01
 0.66178787626E+01 0.62710241779E+01 0.58192875880E+01 0.53647301465E+01 0.49826275514E+01
 0.47104856722E+01 0.45563071453E+01 0.45003863496E+01 0.44966575437E+01 0.44967800970E+01
 0.44874913068E+01 0.45001618419E+01 0.45791813384E+01 0.47483579759E+01 0.50111803711E+01
 0.70626689758E+01 0.81861308822E+01 0.91846291567E+01 0.97731148603E+01 0.97751312401E+01
 0.91968954574E+01 0.82158411923E+01 0.71006348618E+01 0.60719810423E+01 0.52048061429E+01
 0.45563071453E+01 0.41299052547E+01 0.38817780238E+01 0.37672435731E+01 0.37664240006E+01
 0.38851816633E+01 0.41446354221E+01 0.45745809671E+01 0.52069331846E+01 0.60478357208E+01
 0.10923474637E+02 0.13009019053E+02 0.14461247273E+02 0.14963795375E+02 0.14432283435E+02
 0.12981714718E+02 0.10926500222E+02 0.87431181033E+01 0.68794049235E+01 0.54881116366E+01
 0.45003863496E+01 0.38817780238E+01 0.35510061541E+01 0.34485571402E+01 0.35563397537E+01
 0.38889652382E+01 0.44996401370E+01 0.54683311457E+01 0.68425190937E+01 0.87107334497E+01
 0.17606851171E+02 0.20318357343E+02 0.21748117050E+02 0.21728388378E+02 0.20272320486E+02
 0.17562987511E+02 0.14072940869E+02 0.10549976413E+02 0.76992204076E+01 0.57620710046E+01
 0.44966575437E+01 0.37672435731E+01 0.34485571402E+01 0.34502102396E+01 0.37689256549E+01
 0.44916274095E+01 0.57472825491E+01 0.76813043322E+01 0.10544203399E+02 0.14092910065E+02
 0.26332521165E+02 0.29040323789E+02 0.29965917740E+02 0.29049831054E+02 0.26331059021E+02
 0.22082102295E+02 0.16998468119E+02 0.12112946212E+02 0.83353876389E+01 0.59315408122E+01
 0.44967800970E+01 0.37664240006E+01 0.35563397537E+01 0.37689256549E+01 0.44931009119E+01
 0.59217059718E+01 0.83351196390E+01 0.12135794526E+02 0.17035334014E+02 0.22107781377E+02
 0.35808466804E+02 0.38074493496E+02 0.38107189949E+02 0.35876180279E+02 0.31552252328E+02
 0.25632030936E+02 0.19046239404E+02 0.13023231184E+02 0.85777724483E+01 0.59251808841E+01
 0.44874913068E+01 0.38851816633E+01 0.38889652382E+01 0.44916274095E+01 0.59217059718E+01
 0.85762428684E+01 0.13039912345E+02 0.19073750682E+02 0.25635197712E+02 0.31507274105E+02
 0.45309125933E+02 0.46791445398E+02 0.45359494976E+02 0.41249694222E+02 0.35058426965E+02
 0.27559758748E+02 0.19786351463E+02 0.13032174453E+02 0.83311311253E+01 0.57469118873E+01
 0.45001618419E+01 0.41446354221E+01 0.44996401370E+01 0.57472825491E+01 0.83351196390E+01
 0.13039912345E+02 0.19789032891E+02 0.27540612510E+02 0.35007435201E+02 0.41180892394E+02
 0.54298347662E+02 0.54303052616E+02 0.50630557025E+02 0.44247014971E+02 0.36272675532E+02
 0.27557696727E+02 0.19072139573E+02 0.12126486401E+02 0.76791339091E+01 0.54750520571E+01
 0.45791813384E+01 0.45745809671E+01 0.54683311457E+01 0.76813043322E+01 0.12135794526E+02
 0.19073750682E+02 0.27540612510E+02 0.36242336618E+02 0.44218769140E+02 0.50614266989E+02
 0.61284925058E+02 0.58892416216E+02 0.52606971179E+02 0.44218769140E+02 0.35007435201E+02
 0.25635197712E+02 0.17035334014E+02 0.10544203399E+02 0.68425190937E+01 0.52069331846E+01
 0.47483579759E+01 0.52069331846E+01 0.68425190937E+01 0.10544203399E+02 0.17035334014E+02
 0.25635197712E+02 0.35007435201E+02 0.44218769140E+02 0.52606971179E+02 0.58892416216E+02
 0.64029128556E+02 0.58940051707E+02 0.50645419080E+02 0.41179669159E+02 0.31492884023E+02
 0.22103815198E+02 0.14099296476E+02 0.87119314298E+01 0.60393952085E+01 0.50054515882E+01
 0.50111803711E+01 0.60478357208E+01 0.87107334497E+01 0.14092910065E+02 0.22107781377E+02
 0.31507274105E+02 0.41180892394E+02 0.50614266989E+02 0.58892416216E+02 0.64005921190E+02
 0.50439798895E+02 0.43840030600E+02 0.35799189193E+02 0.27202132009E+02 0.18910852877E+02
 0.12111699007E+02 0.77264358215E+01 0.55405902085E+01 0.46564255961E+01 0.46559282528E+01
 0.55377609219E+01 0.77207520544E+01 0.12108049601E+02 0.18916297006E+02 0.27216813569E+02
 0.35813581418E+02 0.43844364741E+02 0.50435136644E+02 0.54298347662E+02 0.54301891678E+02
 0.43840030600E+02 0.36902192969E+02 0.28999321547E+02 0.21002461811E+02 0.13964377553E+02
 0.89158723873E+01 0.61013037531E+01 0.47819298569E+01 0.44146689873E+01 0.47869652583E+01
 0.61000046661E+01 0.89037515028E+01 0.13954599124E+02 0.21012930056E+02 0.29031739183E+02
 0.36939642604E+02 0.43865185152E+02 0.48796981627E+02 0.50614266989E+02 0.48787155439E+02
 0.35799189193E+02 0.28999321547E+02 0.21717314921E+02 0.14980054116E+02 0.97920655520E+01
 0.66023356461E+01 0.49420732419E+01 0.42579757141E+01 0.42630840729E+01 0.49494261474E+01
 0.65976640457E+01 0.97731148603E+01 0.14963795375E+02 0.21728388378E+02 0.29049831054E+02
 0.35876180279E+02 0.41249694222E+02 0.44247014971E+02 0.44218769140E+02 0.41179669159E+02
 0.27202132009E+02 0.21002461811E+02 0.14980054116E+02 0.10108825393E+02 0.69032126105E+01
 0.50897956931E+01 0.41829921176E+01 0.39265796883E+01 0.41837242611E+01 0.50926403215E+01
 0.69008890787E+01 0.10088824486E+02 0.14947689758E+02 0.20992615439E+02 0.27250444836E+02
 0.32664490650E+02 0.36321628952E+02 0.37584473885E+02 0.36242336618E+02 0.32568734215E+02
 0.18910852877E+02 0.13964377553E+02 0.97920655520E+01 0.69032126105E+01 0.51479383422E+01
 0.41590894433E+01 0.37460084754E+01 0.37426467330E+01 0.41569337409E+01 0.51550480832E+01
 0.69065406831E+01 0.97695465684E+01 0.13920509389E+02 0.18884285840E+02 0.23758820486E+02
 0.27592701293E+02 0.29671095218E+02 0.29643806430E+02 0.27540612510E+02 0.23736662718E+02
 0.12111699007E+02 0.89158723873E+01 0.66023356461E+01 0.50897956931E+01 0.41590894433E+01
 0.36882140247E+01 0.35449629693E+01 0.36828261193E+01 0.41604171623E+01 0.51033065857E+01
 0.66154052095E+01 0.89102628252E+01 0.12084634715E+02 0.15713780230E+02 0.19051731986E+02
 0.21371236907E+02 0.22198387197E+02 0.21379558354E+02 0.19073750682E+02 0.15746608095E+02
 0.77264358215E+01 0.61013037531E+01 0.49420732419E+01 0.41829921176E+01 0.37460084754E+01
 0.35449629693E+01 0.35409531882E+01 0.37392987585E+01 0.41846673642E+01 0.49584461439E+01
 0.61265115083E+01 0.77447824519E+01 0.98435857626E+01 0.12111908842E+02 0.14033068470E+02
 0.15134332326E+02 0.15147281502E+02 0.14062141835E+02 0.12135794526E+02 0.98462106616E+01
 0.55405902085E+01 0.47819298569E+01 0.42579757141E+01 0.39265796883E+01 0.37426467330E+01
 0.36828261193E+01 0.37392987585E+01 0.39173644718E+01 0.42468849818E+01 0.47814842869E+01
 0.55592344823E+01 0.65490638685E+01 0.77025522783E+01 0.88588322740E+01 0.97307342996E+01
 0.10059371569E+02 0.97362808368E+01 0.88555516565E+01 0.76813043322E+01 0.65195976543E+01
 0.46564255961E+01 0.44146689873E+01 0.42630840729E+01 0.41837242611E+01 0.41569337409E+01
 0.41604171623E+01 0.41846673642E+01 0.42468849818E+01 0.43846144360E+01 0.46345192832E+01
 0.50112461312E+01 0.54919153212E+01 0.60087277760E+01 0.64674076102E+01 0.67475320530E+01
 0.67447531320E+01 0.64552116825E+01 0.59848202991E+01 0.54683311457E+01 0.50076629605E+01
 0.46559282528E+01 0.47869652583E+01 0.49494261474E+01 0.50926403215E+01 0.51550480832E+01
 0.51033065857E+01 0.49584461439E+01 0.47814842869E+01 0.46345192832E+01 0.45551873949E+01
 0.45573787824E+01 0.46368731791E+01 0.47644923758E+01 0.48822257448E+01 0.49271647261E+01
 0.48742079685E+01 0.47563299494E+01 0.46389750860E+01 0.45745809671E+01 0.45814488856E+01
 0.55377609219E+01 0.61000046661E+01 0.65976640457E+01 0.69008890787E+01 0.69065406831E+01
 0.66154052095E+01 0.61265115083E+01 0.55592344823E+01 0.50112461312E+01 0.45573787824E+01
 0.42317028978E+01 0.40321762032E+01 0.39301449130E+01 0.38878486607E+01 0.38837562694E+01
 0.39268082034E+01 0.40441214478E+01 0.42580392066E+01 0.45791813384E+01 0.50108456636E+01
 0.77207520544E+01 0.89037515028E+01 0.97731148603E+01 0.10088824486E+02 0.97695465684E+01
 0.89102628252E+01 0.77447824519E+01 0.65490638685E+01 0.54919153212E+01 0.46368731791E+01
 0.40321762032E+01 0.36516947351E+01 0.34442451396E+01 0.33769884588E+01 0.34439252808E+01
 0.36568764244E+01 0.40420678214E+01 0.46389750860E+01 0.54750520571E+01 0.65190820413E+01
 0.12108049601E+02 0.13954599124E+02 0.14963795375E+02 0.14947689758E+02 0.13920509389E+02
 0.12084634715E+02 0.98435857626E+01 0.77025522783E+01 0.60087277760E+01 0.47644923758E+01
 0.39301449130E+01 0.34442451396E+01 0.32240078957E+01 0.32257516664E+01 0.34476713597E+01
 0.39295340120E+01 0.47525929136E+01 0.59848202991E+01 0.76791339091E+01 0.98398995263E+01
 0.18916297006E+02 0.21012930056E+02 0.21728388378E+02 0.20992615439E+02 0.18884285840E+02
 0.15713780230E+02 0.12111908842E+02 0.88588322740E+01 0.64674076102E+01 0.48822257448E+01
 0.38878486607E+01 0.33769884588E+01 0.32257516664E+01 0.33806006239E+01 0.38877036466E+01
 0.48732986544E+01 0.64550203695E+01 0.88555516565E+01 0.12126486401E+02 0.15743352704E+02
 0.27216813569E+02 0.29031739183E+02 0.29049831054E+02 0.27250444836E+02 0.23758820486E+02
 0.19051731986E+02 0.14033068470E+02 0.97307342996E+01 0.67475320530E+01 0.49271647261E+01
 0.38837562694E+01 0.34439252808E+01 0.34476713597E+01 0.38877036466E+01 0.49224081785E+01
 0.67421088912E+01 0.97424574139E+01 0.14062141835E+02 0.19072139573E+02 0.23746803741E+02
 0.35813581418E+02 0.36939642604E+02 0.35876180279E+02 0.32664490650E+02 0.27592701293E+02
 0.21371236907E+02 0.15134332326E+02 0.10059371569E+02 0.67447531320E+01 0.48742079685E+01
 0.39268082034E+01 0.36568764244E+01 0.39295340120E+01 0.48732986544E+01 0.67421088912E+01
 0.10067420951E+02 0.15154942964E+02 0.21379558354E+02 0.27557696727E+02 0.32590681512E+02
 0.43844364741E+02 0.43865185152E+02 0.41249694222E+02 0.36321628952E+02 0.29671095218E+02
 0.22198387197E+02 0.15147281502E+02 0.97362808368E+01 0.64552116825E+01 0.47563299494E+01
 0.40441214478E+01 0.40420678214E+01 0.47525929136E+01 0.64550203695E+01 0.97424574139E+01
 0.15154942964E+02 0.22194678774E+02 0.29643806430E+02 0.36272675532E+02 0.41200523774E+02
 0.50435136644E+02 0.48796981627E+02 0.44247014971E+02 0.37584473885E+02 0.29643806430E+02
 0.21379558354E+02 0.14062141835E+02 0.88555516565E+01 0.59848202991E+01 0.46389750860E+01
 0.42580392066E+01 0.46389750860E+01 0.59848202991E+01 0.88555516565E+01 0.14062141835E+02
 0.21379558354E+02 0.29643806430E+02 0.37584473885E+02 0.44247014971E+02 0.48796981627E+02
 0.54298347662E+02 0.50614266989E+02 0.44218769140E+02 0.36242336618E+02 0.27540612510E+02
 0.19073750682E+02 0.12135794526E+02 0.76813043322E+01 0.54683311457E+01 0.45745809671E+01
 0.45791813384E+01 0.54750520571E+01 0.76791339091E+01 0.12126486401E+02 0.19072139573E+02
 0.27557696727E+02 0.36272675532E+02 0.44247014971E+02 0.50630557025E+02 0.54303052616E+02
 0.54301891678E+02 0.48787155439E+02 0.41179669159E+02 0.32568734215E+02 0.23736662718E+02
 0.15746608095E+02 0.98462106616E+01 0.65195976543E+01 0.50076629605E+01 0.45814488856E+01
 0.50108456636E+01 0.65190820413E+01 0.98398995263E+01 0.15743352704E+02 0.23746803741E+02
 0.32590681512E+02 0.41200523774E+02 0.48796981627E+02 0.54303052616E+02 0.56360603628E+02
 0.39663850865E+02 0.33553356061E+02 0.26305951079E+02 0.18910852877E+02 0.12547967191E+02
 0.81406318035E+01 0.57098312979E+01 0.45332635491E+01 0.42023820918E+01 0.45351216772E+01
 0.57095172466E+01 0.81328429954E+01 0.12531957868E+02 0.18895404076E+02 0.26306197119E+02
 0.33578070758E+02 0.39703703428E+02 0.43844364741E+02 0.45309125933E+02 0.43813849797E+02
 0.33553356061E+02 0.27181375368E+02 0.20286998832E+02 0.13964377553E+02 0.91957431972E+01
 0.63084749106E+01 0.47789337480E+01 0.41456186773E+01 0.41498418690E+01 0.47857865707E+01