   1   1   1   0
  0.1540747E+02  0.2793072E-09  0.2793072E-09  0.2793072E-09  0.5000000E-15
  1.000000000000000E-004
  CAR 
 fcc Au                                  
     39.86920332     -6.08450510  301      7.01279650      1.00000000
     -6.085  0.0000E+00  0.0000E+00
     -5.931  0.0000E+00  0.0000E+00
     -5.778  0.0000E+00  0.0000E+00
     -5.625 -0.9062E-30 -0.1388E-30
     -5.472 -0.1199E-24 -0.1837E-25
     -5.319 -0.4857E-20 -0.7440E-21
     -5.165 -0.5859E-16 -0.8976E-17
     -5.012 -0.2171E-12 -0.3326E-13
     -4.859 -0.2429E-09 -0.3725E-10
     -4.706 -0.8046E-07 -0.1236E-07
     -4.553 -0.7635E-05 -0.1182E-05
     -4.400 -0.1898E-03 -0.3025E-04
     -4.246 -0.8082E-03 -0.1540E-03
     -4.093  0.3300E-02  0.3514E-03
     -3.940  0.1449E-01  0.2571E-02
     -3.787  0.3249E-01  0.7548E-02
     -3.634  0.4976E-01  0.1517E-01
     -3.480  0.4919E-01  0.2270E-01
     -3.327  0.5361E-01  0.3092E-01
     -3.174  0.7056E-01  0.4173E-01
     -3.021  0.9749E-01  0.5666E-01
     -2.868  0.9241E-01  0.7082E-01
     -2.715  0.5761E-01  0.7964E-01
     -2.561  0.9419E-01  0.9407E-01
     -2.408  0.1587E+00  0.1184E+00
     -2.255  0.1460E+00  0.1407E+00
     -2.102  0.9322E-01  0.1550E+00
     -1.949  0.1520E+00  0.1783E+00
     -1.795  0.1965E+00  0.2084E+00
     -1.642  0.1708E+00  0.2346E+00
     -1.489  0.2582E+00  0.2741E+00
     -1.336  0.4361E+00  0.3409E+00
     -1.183  0.5948E+00  0.4320E+00
     -1.030  0.6312E+00  0.5287E+00
     -0.876  0.9345E+00  0.6719E+00
     -0.723  0.1177E+01  0.8522E+00
     -0.570  0.1463E+01  0.1076E+01
     -0.417  0.1614E+01  0.1324E+01
     -0.264  0.1597E+01  0.1568E+01
     -0.111  0.1620E+01  0.1816E+01
      0.043  0.1321E+01  0.2019E+01
      0.196  0.1405E+01  0.2234E+01
      0.349  0.1273E+01  0.2429E+01
      0.502  0.9127E+00  0.2569E+01
      0.655  0.1253E+01  0.2761E+01
      0.809  0.1539E+01  0.2997E+01
      0.962  0.1599E+01  0.3241E+01
      1.115  0.1585E+01  0.3484E+01
      1.268  0.1494E+01  0.3713E+01
      1.421  0.1833E+01  0.3994E+01
      1.574  0.1890E+01  0.4283E+01
      1.728  0.1837E+01  0.4565E+01
      1.881  0.2119E+01  0.4889E+01
      2.034  0.2793E+01  0.5317E+01
      2.187  0.2583E+01  0.5713E+01
      2.340  0.1725E+01  0.5977E+01
      2.494  0.1348E+01  0.6184E+01
      2.647  0.1249E+01  0.6375E+01
      2.800  0.1406E+01  0.6591E+01
      2.953  0.1352E+01  0.6798E+01
      3.106  0.1679E+01  0.7055E+01
      3.259  0.1852E+01  0.7339E+01
      3.413  0.1668E+01  0.7594E+01
      3.566  0.1374E+01  0.7805E+01
      3.719  0.1729E+01  0.8069E+01
      3.872  0.1570E+01  0.8310E+01
      4.025  0.9435E+00  0.8454E+01
      4.178  0.1374E+01  0.8665E+01
      4.332  0.1555E+01  0.8903E+01
      4.485  0.1222E+01  0.9090E+01
      4.638  0.1715E+01  0.9353E+01
      4.791  0.2173E+01  0.9686E+01
      4.944  0.2147E+01  0.1001E+02
      5.098  0.1795E+01  0.1029E+02
      5.251  0.1250E+01  0.1048E+02
      5.404  0.8385E+00  0.1061E+02
      5.557  0.1805E+00  0.1064E+02
      5.710 -0.5985E-02  0.1064E+02
      5.863  0.1355E+00  0.1066E+02
      6.017  0.4108E+00  0.1072E+02
      6.170  0.4868E+00  0.1079E+02
      6.323  0.2745E+00  0.1084E+02
      6.476  0.1303E+00  0.1086E+02
      6.629  0.2121E+00  0.1089E+02
      6.783  0.3247E+00  0.1094E+02
      6.936  0.2792E+00  0.1098E+02
      7.089  0.2469E+00  0.1102E+02
      7.242  0.2475E+00  0.1106E+02
      7.395  0.1431E+00  0.1108E+02
      7.548  0.2690E+00  0.1112E+02
      7.702  0.4177E+00  0.1118E+02
      7.855  0.3809E+00  0.1124E+02
      8.008  0.2425E+00  0.1128E+02
      8.161  0.1859E+00  0.1131E+02
      8.314  0.1463E+00  0.1133E+02
      8.468  0.1483E+00  0.1135E+02
      8.621  0.2911E+00  0.1140E+02
      8.774  0.3957E+00  0.1146E+02
      8.927  0.2981E+00  0.1150E+02
      9.080  0.2033E+00  0.1154E+02
      9.233  0.2033E+00  0.1157E+02
      9.387  0.1428E+00  0.1159E+02
      9.540  0.2324E+00  0.1162E+02
      9.693  0.3137E+00  0.1167E+02
      9.846  0.1847E+00  0.1170E+02
      9.999  0.2630E+00  0.1174E+02
     10.152  0.1931E+00  0.1177E+02
     10.306  0.7035E-01  0.1178E+02
     10.459  0.2178E+00  0.1181E+02
     10.612  0.4885E+00  0.1189E+02
     10.765  0.5806E+00  0.1198E+02
     10.918  0.2961E+00  0.1202E+02
     11.072  0.1931E+00  0.1205E+02
     11.225  0.2149E+00  0.1209E+02
     11.378  0.3517E+00  0.1214E+02
     11.531  0.4061E+00  0.1220E+02
     11.684  0.3363E+00  0.1225E+02
     11.837  0.2665E+00  0.1229E+02
     11.991  0.1312E+00  0.1231E+02
     12.144  0.1666E+00  0.1234E+02
     12.297  0.3809E+00  0.1240E+02
     12.450  0.3890E+00  0.1246E+02
     12.603  0.3087E+00  0.1251E+02
     12.757  0.2551E+00  0.1254E+02
     12.910  0.2261E+00  0.1258E+02
     13.063  0.4342E+00  0.1265E+02
     13.216  0.4704E+00  0.1272E+02
     13.369  0.2139E+00  0.1275E+02
     13.522  0.3119E+00  0.1280E+02
     13.676  0.3250E+00  0.1285E+02
     13.829  0.2630E+00  0.1289E+02
     13.982  0.1954E+00  0.1292E+02
     14.135  0.4107E+00  0.1298E+02
     14.288  0.4725E+00  0.1305E+02
     14.441  0.1442E+00  0.1308E+02
     14.595  0.6764E-01  0.1309E+02
     14.748  0.1503E+00  0.1311E+02
     14.901  0.3371E+00  0.1316E+02
     15.054  0.3183E+00  0.1321E+02
     15.207  0.2543E+00  0.1325E+02
     15.361  0.5009E+00  0.1332E+02
     15.514  0.5894E+00  0.1342E+02
     15.667  0.5191E+00  0.1349E+02
     15.820  0.4120E+00  0.1356E+02
     15.973  0.7488E-01  0.1357E+02
     16.126  0.3839E-01  0.1358E+02
     16.280  0.3107E+00  0.1362E+02
     16.433  0.4341E+00  0.1369E+02
     16.586  0.2993E+00  0.1374E+02
     16.739  0.3175E+00  0.1378E+02
     16.892  0.4239E+00  0.1385E+02
     17.046  0.4243E+00  0.1391E+02
     17.199  0.3699E+00  0.1397E+02
     17.352  0.4052E+00  0.1403E+02
     17.505  0.5246E+00  0.1411E+02
     17.658  0.4820E+00  0.1419E+02
     17.811  0.4725E+00  0.1426E+02
     17.965  0.4364E+00  0.1433E+02
     18.118  0.3112E+00  0.1437E+02
     18.271  0.4972E+00  0.1445E+02
     18.424  0.6480E+00  0.1455E+02
     18.577  0.5047E+00  0.1463E+02
     18.730  0.2314E+00  0.1466E+02
     18.884  0.2183E+00  0.1470E+02
     19.037  0.4359E+00  0.1476E+02
     19.190  0.6985E+00  0.1487E+02
     19.343  0.6334E+00  0.1497E+02
     19.496  0.6410E+00  0.1506E+02
     19.650  0.5943E+00  0.1516E+02
     19.803  0.3548E+00  0.1521E+02
     19.956  0.1803E+00  0.1524E+02
     20.109  0.2938E+00  0.1528E+02
     20.262  0.6004E+00  0.1537E+02
     20.415  0.6033E+00  0.1547E+02
     20.569  0.3657E+00  0.1552E+02
     20.722  0.3466E+00  0.1558E+02
     20.875  0.5030E+00  0.1565E+02
     21.028  0.4882E+00  0.1573E+02
     21.181  0.5685E+00  0.1581E+02
     21.335  0.5664E+00  0.1590E+02
     21.488  0.4385E+00  0.1597E+02
     21.641  0.6082E+00  0.1606E+02
     21.794  0.8012E+00  0.1618E+02
     21.947  0.6793E+00  0.1629E+02
     22.100  0.5976E+00  0.1638E+02
     22.254  0.6652E+00  0.1648E+02
     22.407  0.4123E+00  0.1654E+02
     22.560  0.2142E+00  0.1658E+02
     22.713  0.4458E+00  0.1665E+02
     22.866  0.7134E+00  0.1676E+02
     23.020  0.5179E+00  0.1683E+02
     23.173  0.6050E+00  0.1693E+02
     23.326  0.8554E+00  0.1706E+02
     23.479  0.8216E+00  0.1718E+02
     23.632  0.6201E+00  0.1728E+02
     23.785  0.2999E+00  0.1733E+02
     23.939  0.3682E+00  0.1738E+02
     24.092  0.4240E+00  0.1745E+02
     24.245  0.3109E+00  0.1749E+02
     24.398  0.2973E+00  0.1754E+02
     24.551  0.2972E+00  0.1759E+02
     24.704  0.3185E+00  0.1763E+02
     24.858  0.5554E+00  0.1772E+02
     25.011  0.7954E+00  0.1784E+02
     25.164  0.7677E+00  0.1796E+02
     25.317  0.6683E+00  0.1806E+02
     25.470  0.6393E+00  0.1816E+02
     25.624  0.6164E+00  0.1825E+02
     25.777  0.7394E+00  0.1837E+02
     25.930  0.7109E+00  0.1848E+02
     26.083  0.8421E+00  0.1860E+02
     26.236  0.9578E+00  0.1875E+02
     26.389  0.8280E+00  0.1888E+02
     26.543  0.5981E+00  0.1897E+02
     26.696  0.3799E+00  0.1903E+02
     26.849  0.3926E+00  0.1909E+02
     27.002  0.8408E+00  0.1922E+02
     27.155  0.9237E+00  0.1936E+02
     27.309  0.6070E+00  0.1945E+02
     27.462  0.3658E+00  0.1951E+02
     27.615  0.4244E+00  0.1957E+02
     27.768  0.4788E+00  0.1965E+02
     27.921  0.5171E+00  0.1972E+02
     28.074  0.6937E+00  0.1983E+02
     28.228  0.4963E+00  0.1991E+02
     28.381  0.3553E+00  0.1996E+02
     28.534  0.3884E+00  0.2002E+02
     28.687  0.3416E+00  0.2007E+02
     28.840  0.2747E+00  0.2012E+02
     28.993  0.2954E+00  0.2016E+02
     29.147  0.3526E+00  0.2021E+02
     29.300  0.5370E+00  0.2030E+02
     29.453  0.5705E+00  0.2038E+02
     29.606  0.3097E+00  0.2043E+02
     29.759  0.2356E+00  0.2047E+02
     29.913  0.1692E+00  0.2049E+02
     30.066  0.2639E+00  0.2053E+02
     30.219  0.4956E+00  0.2061E+02
     30.372  0.4525E+00  0.2068E+02
     30.525  0.4027E+00  0.2074E+02
     30.678  0.3531E+00  0.2080E+02
     30.832  0.4807E+00  0.2087E+02
     30.985  0.9433E+00  0.2101E+02
     31.138  0.6758E+00  0.2112E+02
     31.291  0.1228E+00  0.2114E+02
     31.444  0.4929E-01  0.2114E+02
     31.598  0.3367E+00  0.2119E+02
     31.751  0.5083E+00  0.2127E+02
     31.904  0.5147E+00  0.2135E+02
     32.057  0.5574E+00  0.2144E+02
     32.210  0.5601E+00  0.2152E+02
     32.363  0.5219E+00  0.2160E+02
     32.517  0.4527E+00  0.2167E+02
     32.670  0.6920E+00  0.2178E+02
     32.823  0.8584E+00  0.2191E+02
     32.976  0.5452E+00  0.2199E+02
     33.129  0.4639E+00  0.2206E+02
     33.283  0.5770E+00  0.2215E+02
     33.436  0.6608E+00  0.2225E+02
     33.589  0.6948E+00  0.2236E+02
     33.742  0.7590E+00  0.2248E+02
     33.895  0.7737E+00  0.2259E+02
     34.048  0.5703E+00  0.2268E+02
     34.202  0.5232E+00  0.2276E+02
     34.355  0.8194E+00  0.2289E+02
     34.508  0.7494E+00  0.2300E+02
     34.661  0.5732E+00  0.2309E+02
     34.814  0.6434E+00  0.2319E+02
     34.967  0.8568E+00  0.2332E+02
     35.121  0.6827E+00  0.2342E+02
     35.274  0.4498E+00  0.2349E+02
     35.427  0.6749E+00  0.2360E+02
     35.580  0.4647E+00  0.2367E+02
     35.733  0.1927E+00  0.2370E+02
     35.887  0.2344E+00  0.2373E+02
     36.040  0.1987E+00  0.2376E+02
     36.193  0.1002E+00  0.2378E+02
     36.346  0.1179E+00  0.2380E+02
     36.499  0.3366E+00  0.2385E+02
     36.652  0.3953E+00  0.2391E+02
     36.806  0.2930E+00  0.2395E+02
     36.959  0.7971E-01  0.2397E+02
     37.112 -0.1451E-01  0.2396E+02
     37.265 -0.7149E-03  0.2396E+02
     37.418  0.3542E-01  0.2397E+02
     37.572  0.5321E-01  0.2398E+02
     37.725  0.7363E-01  0.2399E+02
     37.878  0.6353E-01  0.2400E+02
     38.031  0.1149E-01  0.2400E+02
     38.184 -0.2996E-02  0.2400E+02
     38.337 -0.6066E-03  0.2400E+02
     38.491 -0.2342E-04  0.2400E+02
     38.644 -0.2433E-06  0.2400E+02
     38.797 -0.7309E-09  0.2400E+02
     38.950 -0.6520E-12  0.2400E+02
     39.103 -0.1739E-15  0.2400E+02
     39.256  0.0000E+00  0.2400E+02
     39.410  0.0000E+00  0.2400E+02
     39.563  0.0000E+00  0.2400E+02
     39.716  0.0000E+00  0.2400E+02
     39.869  0.0000E+00  0.2400E+02
     39.86920332     -6.08450510  301      7.01279650      1.00000000
     -6.085  0.0000E+00  0.0000E+00  0.0000E+00
     -5.931  0.0000E+00  0.0000E+00  0.0000E+00
     -5.778  0.0000E+00  0.0000E+00  0.0000E+00
     -5.625 -0.6754E-30 -0.5227E-32 -0.1054E-33
     -5.472 -0.8938E-25 -0.6918E-27 -0.1395E-28
     -5.319 -0.3620E-20 -0.2802E-22 -0.5651E-24
     -5.165 -0.4367E-16 -0.3380E-18 -0.6817E-20
     -5.012 -0.1618E-12 -0.1252E-14 -0.2526E-16
     -4.859 -0.1811E-09 -0.1401E-11 -0.2827E-13
     -4.706 -0.5997E-07 -0.4643E-09 -0.9371E-11
     -4.553 -0.5690E-05 -0.4413E-07 -0.8948E-09
     -4.400 -0.1414E-03 -0.1115E-05 -0.2350E-07
     -4.246 -0.6011E-03 -0.5881E-05 -0.1804E-06
     -4.093  0.2478E-02  0.1020E-05 -0.9092E-06
     -3.940  0.1082E-01  0.6627E-04 -0.2217E-06
     -3.787  0.2387E-01  0.5249E-03  0.2257E-04
     -3.634  0.3626E-01  0.1089E-02  0.7111E-04
     -3.480  0.3536E-01  0.1501E-02  0.1729E-03
     -3.327  0.3796E-01  0.2129E-02  0.3010E-03
     -3.174  0.4916E-01  0.3466E-02  0.5728E-03
     -3.021  0.6681E-01  0.5595E-02  0.1213E-02
     -2.868  0.6260E-01  0.5654E-02  0.1660E-02
     -2.715  0.3821E-01  0.3929E-02  0.1570E-02
     -2.561  0.6080E-01  0.7671E-02  0.3044E-02
     -2.408  0.1006E+00  0.1363E-01  0.6580E-02
     -2.255  0.9105E-01  0.1309E-01  0.7226E-02
     -2.102  0.5624E-01  0.8727E-02  0.6571E-02
     -1.949  0.8801E-01  0.1522E-01  0.1413E-01
     -1.795  0.1103E+00  0.1965E-01  0.2242E-01
     -1.642  0.9179E-01  0.1814E-01  0.2285E-01
     -1.489  0.1274E+00  0.2575E-01  0.5129E-01
     -1.336  0.1790E+00  0.3233E-01  0.1469E+00
     -1.183  0.2062E+00  0.3488E-01  0.2581E+00
     -1.030  0.1740E+00  0.3114E-01  0.3310E+00
     -0.876  0.2233E+00  0.5001E-01  0.5201E+00
     -0.723  0.2458E+00  0.6247E-01  0.6976E+00
     -0.570  0.2232E+00  0.6511E-01  0.9844E+00
     -0.417  0.1955E+00  0.6284E-01  0.1164E+01
     -0.264  0.1661E+00  0.6768E-01  0.1182E+01
     -0.111  0.1287E+00  0.6485E-01  0.1252E+01
      0.043  0.8886E-01  0.6163E-01  0.1029E+01
      0.196  0.7227E-01  0.7174E-01  0.1112E+01
      0.349  0.3995E-01  0.6752E-01  0.1035E+01
      0.502  0.1737E-01  0.5843E-01  0.7429E+00
      0.655  0.1699E-01  0.8662E-01  0.1020E+01
      0.809  0.1931E-01  0.1080E+00  0.1254E+01
      0.962  0.1737E-01  0.9727E-01  0.1325E+01
      1.115  0.2044E-01  0.8545E-01  0.1331E+01
      1.268  0.2521E-01  0.7076E-01  0.1268E+01
      1.421  0.3509E-01  0.1055E+00  0.1534E+01
      1.574  0.4146E-01  0.1206E+00  0.1568E+01
      1.728  0.4600E-01  0.1003E+00  0.1542E+01
      1.881  0.4284E-01  0.1123E+00  0.1801E+01
      2.034  0.4549E-01  0.1601E+00  0.2380E+01
      2.187  0.4900E-01  0.1533E+00  0.2189E+01
      2.340  0.3959E-01  0.1014E+00  0.1456E+01
      2.494  0.2431E-01  0.7143E-01  0.1157E+01
      2.647  0.1878E-01  0.9092E-01  0.1041E+01
      2.800  0.2282E-01  0.9446E-01  0.1182E+01
      2.953  0.2079E-01  0.7452E-01  0.1162E+01
      3.106  0.2816E-01  0.9464E-01  0.1440E+01
      3.259  0.2320E-01  0.7216E-01  0.1643E+01
      3.413  0.1678E-01  0.4391E-01  0.1513E+01
      3.566  0.1235E-01  0.5668E-01  0.1222E+01
      3.719  0.2037E-01  0.7511E-01  0.1533E+01
      3.872  0.2263E-01  0.6022E-01  0.1401E+01
      4.025  0.9362E-02  0.2427E-01  0.8660E+00
      4.178  0.6849E-02  0.3439E-01  0.1273E+01
      4.332  0.1539E-01  0.4880E-01  0.1419E+01
      4.485  0.1494E-01  0.3084E-01  0.1124E+01
      4.638  0.1308E-01  0.2566E-01  0.1615E+01
      4.791  0.1518E-01  0.2759E-01  0.2059E+01
      4.944  0.8244E-02  0.2346E-01  0.2050E+01
      5.098  0.8456E-02  0.2137E-01  0.1714E+01
      5.251  0.3298E-01  0.3763E-01  0.1133E+01
      5.404  0.4199E-01  0.4724E-01  0.7080E+00
      5.557  0.1397E-01  0.1747E-01  0.1366E+00
      5.710  0.1223E-02  0.2297E-02 -0.1053E-01
      5.863  0.1315E-01  0.1716E-01  0.9377E-01
      6.017  0.4287E-01  0.5182E-01  0.2819E+00
      6.170  0.5421E-01  0.7307E-01  0.3147E+00
      6.323  0.3219E-01  0.5441E-01  0.1574E+00
      6.476  0.1081E-01  0.3966E-01  0.5975E-01
      6.629  0.2468E-01  0.5665E-01  0.1016E+00
      6.783  0.4801E-01  0.5837E-01  0.1837E+00
      6.936  0.4657E-01  0.3592E-01  0.1717E+00
      7.089  0.3752E-01  0.4522E-01  0.1372E+00
      7.242  0.3335E-01  0.5925E-01  0.1232E+00
      7.395  0.2004E-01  0.3613E-01  0.6829E-01
      7.548  0.4124E-01  0.7199E-01  0.1188E+00
      7.702  0.6568E-01  0.1090E+00  0.1844E+00
      7.855  0.5302E-01  0.1118E+00  0.1575E+00
      8.008  0.3443E-01  0.7024E-01  0.1011E+00
      8.161  0.3437E-01  0.4546E-01  0.8179E-01
      8.314  0.2886E-01  0.3511E-01  0.6383E-01
      8.468  0.3727E-01  0.2854E-01  0.6317E-01
      8.621  0.6394E-01  0.7305E-01  0.1099E+00
      8.774  0.5927E-01  0.1342E+00  0.1351E+00
      8.927  0.4747E-01  0.9819E-01  0.1037E+00
      9.080  0.4389E-01  0.5327E-01  0.7659E-01
      9.233  0.3971E-01  0.5773E-01  0.7455E-01
      9.387  0.3147E-01  0.3980E-01  0.4736E-01
      9.540  0.4414E-01  0.7590E-01  0.7139E-01
      9.693  0.7641E-01  0.8729E-01  0.9586E-01
      9.846  0.5188E-01  0.4556E-01  0.5670E-01
      9.999  0.5700E-01  0.8273E-01  0.7978E-01
     10.152  0.4067E-01  0.6256E-01  0.5726E-01
     10.306  0.2820E-01  0.1392E-01  0.1445E-01
     10.459  0.8675E-01  0.4141E-01  0.4994E-01
     10.612  0.1936E+00  0.7633E-01  0.1472E+00
     10.765  0.2515E+00  0.6556E-01  0.1843E+00
     10.918  0.1160E+00  0.5084E-01  0.7920E-01
     11.072  0.5730E-01  0.5843E-01  0.3589E-01
     11.225  0.7357E-01  0.5413E-01  0.4840E-01
     11.378  0.1343E+00  0.6447E-01  0.9646E-01
     11.531  0.1392E+00  0.8371E-01  0.1154E+00
     11.684  0.1041E+00  0.8545E-01  0.8383E-01
     11.837  0.7359E-01  0.8317E-01  0.5494E-01
     11.991  0.3214E-01  0.4680E-01  0.2275E-01
     12.144  0.2855E-01  0.6639E-01  0.3604E-01
     12.297  0.1104E+00  0.1122E+00  0.7963E-01
     12.450  0.1324E+00  0.9815E-01  0.7799E-01
     12.603  0.8366E-01  0.8861E-01  0.7663E-01
     12.757  0.6833E-01  0.7868E-01  0.5753E-01
     12.910  0.7897E-01  0.6316E-01  0.3702E-01
     13.063  0.1381E+00  0.1279E+00  0.7716E-01
     13.216  0.1355E+00  0.1503E+00  0.7929E-01
     13.369  0.6425E-01  0.6581E-01  0.3773E-01
     13.522  0.9065E-01  0.9023E-01  0.7200E-01
     13.676  0.9222E-01  0.9246E-01  0.7586E-01
     13.829  0.9327E-01  0.6318E-01  0.5215E-01
     13.982  0.6563E-01  0.5399E-01  0.3149E-01
     14.135  0.1090E+00  0.1320E+00  0.7187E-01
     14.288  0.1347E+00  0.1501E+00  0.7394E-01
     14.441  0.4732E-01  0.4629E-01  0.1558E-01
     14.595  0.3397E-02  0.3662E-01  0.1265E-01
     14.748  0.2987E-01  0.5941E-01  0.2401E-01
     14.901  0.1008E+00  0.1004E+00  0.5327E-01
     15.054  0.9443E-01  0.9211E-01  0.5657E-01
     15.207  0.5413E-01  0.8494E-01  0.5610E-01
     15.361  0.9591E-01  0.1747E+00  0.1130E+00
     15.514  0.1041E+00  0.2242E+00  0.1220E+00
     15.667  0.8920E-01  0.2021E+00  0.9935E-01
     15.820  0.7961E-01  0.1459E+00  0.8001E-01
     15.973  0.1859E-01  0.2265E-01  0.1314E-01
     16.126 -0.1565E-02  0.1916E-01  0.8826E-02
     16.280  0.2128E-01  0.1396E+00  0.6615E-01
     16.433  0.4302E-01  0.1853E+00  0.9530E-01
     16.586  0.5171E-01  0.1117E+00  0.5796E-01
     16.739  0.6964E-01  0.1150E+00  0.3901E-01
     16.892  0.7256E-01  0.1676E+00  0.5361E-01
     17.046  0.5226E-01  0.1790E+00  0.7803E-01
     17.199  0.3325E-01  0.1563E+00  0.8925E-01
     17.352  0.2137E-01  0.1791E+00  0.9929E-01
     17.505  0.2302E-01  0.2218E+00  0.1342E+00
     17.658  0.2868E-01  0.1978E+00  0.1047E+00
     17.811  0.3564E-01  0.2023E+00  0.7661E-01
     17.965  0.4653E-01  0.1747E+00  0.7405E-01
     18.118  0.4378E-01  0.1213E+00  0.4543E-01
     18.271  0.4124E-01  0.2169E+00  0.7682E-01
     18.424  0.2757E-01  0.2811E+00  0.1417E+00
     18.577  0.1819E-01  0.2166E+00  0.1280E+00
     18.730  0.5572E-02  0.1032E+00  0.5130E-01
     18.884  0.8172E-02  0.9732E-01  0.4403E-01
     19.037  0.2624E-01  0.1843E+00  0.8387E-01
     19.190  0.3889E-01  0.2849E+00  0.1348E+00
     19.343  0.3734E-01  0.2506E+00  0.1270E+00
     19.496  0.3059E-01  0.2666E+00  0.1299E+00
     19.650  0.2925E-01  0.2472E+00  0.1288E+00
     19.803  0.2100E-01  0.1356E+00  0.8674E-01
     19.956  0.7853E-02  0.6752E-01  0.4403E-01
     20.109  0.1111E-01  0.1220E+00  0.6102E-01
     20.262  0.1630E-01  0.2435E+00  0.1285E+00
     20.415  0.2221E-01  0.2288E+00  0.1230E+00
     20.569  0.1947E-01  0.1310E+00  0.6397E-01
     20.722  0.1022E-01  0.1381E+00  0.7256E-01
     20.875  0.1485E-01  0.2016E+00  0.1129E+00
     21.028  0.1744E-01  0.1968E+00  0.9732E-01
     21.181  0.1630E-01  0.2231E+00  0.1114E+00
     21.335  0.1774E-01  0.2110E+00  0.1209E+00
     21.488  0.1511E-01  0.1421E+00  0.9796E-01
     21.641  0.1817E-01  0.1671E+00  0.1153E+00
     21.794  0.1813E-01  0.1793E+00  0.1376E+00
     21.947  0.1252E-01  0.1317E+00  0.1089E+00
     22.100  0.8521E-02  0.1509E+00  0.9807E-01
     22.254  0.8631E-02  0.1832E+00  0.1148E+00
     22.407  0.4849E-02  0.1047E+00  0.6572E-01
     22.560  0.2143E-02  0.3673E-01  0.2234E-01
     22.713  0.5839E-02  0.1051E+00  0.6001E-01
     22.866  0.9313E-02  0.1799E+00  0.1200E+00
     23.020  0.4751E-02  0.1351E+00  0.9456E-01
     23.173  0.1105E-01  0.1472E+00  0.9888E-01
     23.326  0.2144E-01  0.1709E+00  0.1359E+00
     23.479  0.1696E-01  0.1493E+00  0.1156E+00
     23.632  0.6583E-02  0.1210E+00  0.8187E-01
     23.785  0.1770E-02  0.7072E-01  0.4217E-01
     23.939  0.7151E-02  0.6851E-01  0.4413E-01
     24.092  0.9149E-02  0.8242E-01  0.4213E-01
     24.245  0.6369E-02  0.9138E-01  0.2652E-01
     24.398  0.5242E-02  0.8263E-01  0.3040E-01
     24.551  0.4709E-02  0.6633E-01  0.3771E-01
     24.704  0.5155E-02  0.9228E-01  0.3297E-01
     24.858  0.9920E-02  0.1628E+00  0.5766E-01
     25.011  0.2096E-01  0.2189E+00  0.9889E-01
     25.164  0.2276E-01  0.2541E+00  0.9014E-01
     25.317  0.2562E-01  0.2237E+00  0.8576E-01
     25.470  0.2917E-01  0.1717E+00  0.1015E+00
     25.624  0.2298E-01  0.1456E+00  0.1036E+00
     25.777  0.1784E-01  0.1896E+00  0.1165E+00
     25.930  0.2105E-01  0.1798E+00  0.1242E+00
     26.083  0.3961E-01  0.1895E+00  0.1486E+00
     26.236  0.4198E-01  0.2103E+00  0.1592E+00
     26.389  0.3567E-01  0.1809E+00  0.1424E+00
     26.543  0.2328E-01  0.1406E+00  0.1071E+00
     26.696  0.6515E-02  0.1067E+00  0.5312E-01
     26.849  0.2192E-02  0.1095E+00  0.4798E-01
     27.002  0.7498E-02  0.2026E+00  0.1247E+00
     27.155  0.1289E-01  0.2273E+00  0.1382E+00
     27.309  0.1454E-01  0.1510E+00  0.9158E-01
     27.462  0.1789E-01  0.8551E-01  0.6821E-01
     27.615  0.2703E-01  0.8507E-01  0.9667E-01
     27.768  0.2169E-01  0.9034E-01  0.1008E+00
     27.921  0.8676E-02  0.1029E+00  0.8610E-01
     28.074  0.4202E-02  0.1400E+00  0.1357E+00
     28.228  0.3960E-02  0.8963E-01  0.1126E+00
     28.381  0.4576E-02  0.5113E-01  0.9676E-01
     28.534  0.3132E-02  0.6428E-01  0.1169E+00
     28.687  0.6690E-02  0.7753E-01  0.8699E-01
     28.840  0.1627E-01  0.8455E-01  0.3752E-01
     28.993  0.1526E-01  0.6258E-01  0.4959E-01
     29.147  0.1190E-01  0.4869E-01  0.7681E-01
     29.300  0.2028E-01  0.9459E-01  0.1100E+00
     29.453  0.1863E-01  0.9569E-01  0.1289E+00
     29.606  0.6533E-02  0.6256E-01  0.7344E-01
     29.759  0.3633E-02  0.6666E-01  0.3601E-01
     29.913  0.2384E-02  0.3906E-01  0.1933E-01
     30.066  0.1940E-02  0.4378E-01  0.3731E-01
     30.219  0.1145E-01  0.1068E+00  0.6636E-01
     30.372  0.1919E-01  0.1518E+00  0.4214E-01
     30.525  0.1416E-01  0.1348E+00  0.4445E-01
     30.678  0.4607E-02  0.8223E-01  0.5570E-01
     30.832  0.1349E-01  0.1009E+00  0.8217E-01
     30.985  0.3417E-01  0.1603E+00  0.1725E+00
     31.138  0.1737E-01  0.8757E-01  0.1240E+00
     31.291 -0.2352E-03  0.1025E-01  0.1488E-01
     31.444 -0.1184E-03  0.3140E-02  0.6417E-02
     31.598  0.1803E-02  0.3239E-01  0.6670E-01
     31.751  0.1426E-02  0.5840E-01  0.1042E+00
     31.904  0.1511E-02  0.4376E-01  0.1178E+00
     32.057  0.2014E-02  0.3694E-01  0.1218E+00
     32.210  0.4567E-02  0.7533E-01  0.1135E+00
     32.363  0.7447E-02  0.7393E-01  0.1130E+00
     32.517  0.5269E-02  0.3325E-01  0.1054E+00
     32.670  0.1202E-01  0.4640E-01  0.1889E+00
     32.823  0.1727E-01  0.8061E-01  0.2313E+00
     32.976  0.8509E-02  0.6721E-01  0.1306E+00
     33.129  0.4031E-02  0.3870E-01  0.1469E+00
     33.283  0.3087E-02  0.2099E-01  0.2104E+00
     33.436  0.6260E-02  0.2951E-01  0.2163E+00
     33.589  0.6246E-02  0.4393E-01  0.1894E+00
     33.742  0.4197E-02  0.6593E-01  0.2084E+00
     33.895  0.3203E-02  0.5611E-01  0.2211E+00
     34.048  0.3445E-02  0.3478E-01  0.1774E+00
     34.202  0.9406E-02  0.2018E-01  0.1556E+00
     34.355  0.1735E-01  0.2296E-01  0.2143E+00
     34.508  0.2001E-01  0.2518E-01  0.2086E+00
     34.661  0.2618E-01  0.2885E-01  0.1697E+00
     34.814  0.2641E-01  0.4238E-01  0.1783E+00
     34.967  0.2130E-01  0.5474E-01  0.2214E+00
     35.121  0.1504E-01  0.2467E-01  0.1682E+00
     35.274  0.6585E-02  0.6628E-02  0.7541E-01
     35.427  0.8525E-02  0.1445E-01  0.9748E-01
     35.580  0.6468E-02  0.1344E-01  0.7119E-01
     35.733  0.5331E-02  0.1673E-01  0.3813E-01
     35.887  0.4484E-02  0.1404E-01  0.5667E-01
     36.040  0.6980E-02  0.1155E-01  0.5097E-01
     36.193  0.5157E-02  0.7605E-02  0.2279E-01
     36.346  0.1667E-02  0.2602E-02  0.1446E-01
     36.499  0.9481E-02  0.1522E-01  0.4756E-01
     36.652  0.1272E-01  0.2222E-01  0.4750E-01
     36.806  0.4457E-02  0.9531E-02  0.1988E-01
     36.959 -0.2768E-03  0.1944E-03  0.2946E-02
     37.112 -0.2151E-03 -0.4383E-03 -0.9607E-03
     37.265 -0.1639E-04 -0.5776E-04 -0.1962E-03
     37.418 -0.3677E-06 -0.1235E-04  0.3014E-03
     37.572 -0.2836E-08  0.8438E-05  0.8553E-03
     37.725  0.2794E-09  0.2918E-03  0.2562E-02
     37.878  0.5218E-09  0.4919E-03  0.2799E-02
     38.031  0.1490E-09  0.1362E-03  0.6062E-03
     38.184 -0.2461E-10 -0.2315E-04 -0.1305E-03
     38.337 -0.6299E-11 -0.5827E-05 -0.2890E-04
     38.491 -0.2545E-12 -0.2347E-06 -0.1137E-05
     38.644 -0.2682E-14 -0.2472E-08 -0.1188E-07
     38.797 -0.8097E-17 -0.7460E-11 -0.3576E-10
     38.950 -0.7236E-20 -0.6665E-14 -0.3193E-13
     39.103 -0.1932E-23 -0.1780E-17 -0.8522E-17
     39.256  0.0000E+00  0.0000E+00  0.0000E+00
     39.410  0.0000E+00  0.0000E+00  0.0000E+00
     39.563  0.0000E+00  0.0000E+00  0.0000E+00
     39.716  0.0000E+00  0.0000E+00  0.0000E+00
     39.869  0.0000E+00  0.0000E+00  0.0000E+00
