    1    1    1    1
  0.1540747E+02  0.2793072E-09  0.2793072E-09  0.2793072E-09  0.5000000E-15
  1.000000000000000E-004
  CAR 
 fcc Au                                  
     11    110     12
 
  0.5000000E-01  0.5000000E-01  0.5000000E-01  0.2000000E-02
    1       -3.995700   1.000000
    2        1.625142   1.000000
    3        1.697853   1.000000
    4        1.697853   1.000000
    5        3.479731   1.000000
    6        3.479731   1.000000
    7       22.384449   0.000000
    8       26.028745   0.000000
    9       26.837565   0.000000
   10       26.837565   0.000000
   11       31.888584   0.000000
   12       35.778412   0.000000
 
  0.1500000E+00  0.5000000E-01  0.5000000E-01  0.6000000E-02
    1       -3.498158   1.000000
    2        1.438818   1.000000
    3        1.858261   1.000000
    4        1.894848   1.000000
    5        3.298260   1.000000
    6        3.535850   1.000000
    7       22.904015   0.000000
    8       24.007014   0.000000
    9       26.603855   0.000000
   10       27.867499   0.000000
   11       31.754236   0.000000
   12       34.525123   0.000000
 
  0.2500000E+00  0.5000000E-01  0.5000000E-01  0.6000000E-02
    1       -2.433681   1.000000
    2        1.291683   1.000000
    3        2.032543   1.000000
    4        2.060741   1.000000
    5        3.306702   1.000000
    6        3.786832   1.000000
    7       20.305886   0.000000
    8       23.585105   0.000000
    9       27.049728   0.000000
   10       29.364525   0.000000
   11       29.495250   0.000000
   12       32.244296   0.000000
 
  0.3500000E+00  0.5000000E-01  0.5000000E-01  0.6000000E-02
    1       -1.518348   1.000000
    2        1.817437   1.000000
    3        1.923317   1.000000
    4        2.038489   1.000000
    5        3.886528   1.000000
    6        4.455705   1.000000
    7       16.243987   0.000000
    8       22.810668   0.000000
    9       26.151728   0.000000
   10       28.534674   0.000000
   11       30.574877   0.000000
   12       31.913637   0.000000
 
  0.4500000E+00  0.5000000E-01  0.5000000E-01  0.6000000E-02
    1       -1.316787   1.000000
    2        1.641587   1.000000
    3        1.724467   1.000000
    4        3.712342   1.000000
    5        4.599969   1.000000
    6        5.376730   1.000000
    7       12.339320  -0.000000
    8       21.909545   0.000000
    9       25.060643   0.000000
   10       26.225697   0.000000
   11       32.738473   0.000000
   12       33.177421   0.000000
 
 -0.4500000E+00  0.5000000E-01  0.5000000E-01  0.6000000E-02
    1       -1.319762   1.000000
    2        1.562918   1.000000
    3        1.677886   1.000000
    4        4.255828   1.000000
    5        4.945131   1.000000
    6        6.121718   1.000000
    7       10.674682  -0.000000
    8       21.661757   0.000000
    9       25.083492   0.000000
   10       25.190094   0.000000
   11       33.405180   0.000000
   12       33.508679   0.000000
 
 -0.3500000E+00  0.5000000E-01  0.5000000E-01  0.6000000E-02
    1       -1.336706   1.000000
    2        1.676576   1.000000
    3        1.809470   1.000000
    4        3.074575   1.000000
    5        4.699649   1.000000
    6        4.776819   1.000000
    7       13.551541   0.000000
    8       22.167390   0.000000
    9       25.595850   0.000000
   10       26.491133   0.000000
   11       32.692717   0.000000
   12       32.762878   0.000000
 
 -0.2500000E+00  0.5000000E-01  0.5000000E-01  0.6000000E-02
    1       -1.743148   1.000000
    2        1.571527   1.000000
    3        1.935653   1.000000
    4        2.013940   1.000000
    5        3.771018   1.000000
    6        4.097026   1.000000
    7       17.622081   0.000000
    8       23.211525   0.000000
    9       26.723100   0.000000
   10       28.634566   0.000000
   11       30.315925   0.000000
   12       32.087238   0.000000
 
 -0.1500000E+00  0.5000000E-01  0.5000000E-01  0.6000000E-02
    1       -2.822292   1.000000
    2        1.282332   1.000000
    3        2.024221   1.000000
    4        2.040122   1.000000
    5        3.254319   1.000000
    6        3.641068   1.000000
    7       21.571863   0.000000
    8       23.608649   0.000000
    9       27.023226   0.000000
   10       28.410230   0.000000
   11       30.378023   0.000000
   12       32.936951   0.000000
 
 -0.5000000E-01  0.5000000E-01  0.5000000E-01  0.6000000E-02
    1       -3.742316   1.000000
    2        1.494884   1.000000
    3        1.808916   1.000000
    4        1.813582   1.000000
    5        3.327772   1.000000
    6        3.547255   1.000000
    7       22.695128   0.000000
    8       25.093536   0.000000
    9       26.671719   0.000000
   10       27.012223   0.000000
   11       32.797473   0.000000
   12       34.869384   0.000000
 
  0.1500000E+00  0.1500000E+00  0.5000000E-01  0.6000000E-02
    1       -3.251528   1.000000
    2        1.237570   1.000000
    3        2.040696   1.000000
    4        2.045250   1.000000
    5        3.064058   1.000000
    6        3.676521   1.000000
    7       23.247602   0.000000
    8       24.201964   0.000000
    9       26.152032   0.000000
   10       26.689931   0.000000
   11       32.383085   0.000000
   12       33.810639   0.000000
 
  0.2500000E+00  0.1500000E+00  0.5000000E-01  0.1200000E-01
    1       -2.364163   1.000000
    2        0.944820   1.000000
    3        2.151615   1.000000
    4        2.370302   1.000000
    5        2.996690   1.000000
    6        3.936102   1.000000
    7       21.849213   0.000000
    8       23.610928   0.000000
    9       25.624336   0.000000
   10       26.932449   0.000000
   11       30.333627   0.000000
   12       32.947421   0.000000
 
  0.3500000E+00  0.1500000E+00  0.5000000E-01  0.1200000E-01
    1       -1.298084   1.000000
    2        1.037866   1.000000
    3        1.788711   1.000000
    4        2.380930   1.000000
    5        3.767669   1.000000
    6        4.613743   1.000000
    7       17.862949   0.000000
    8       23.087439   0.000000
    9       24.579386   0.000000
   10       27.055800   0.000000
   11       30.874150   0.000000
   12       32.502155   0.000000
 
  0.4500000E+00  0.1500000E+00  0.5000000E-01  0.1200000E-01
    1       -0.920335   1.000000
    2        1.430631   1.000000
    3        2.045540   1.000000
    4        2.235409   1.000000
    5        4.669137   1.000000
    6        5.888578   1.000000
    7       13.720314   0.000000
    8       22.343593   0.000000
    9       23.432830   0.000000
   10       25.732073   0.000000
   11       32.574034   0.000000
   12       33.921818   0.000000
 
 -0.4500000E+00  0.1500000E+00  0.5000000E-01  0.1200000E-01
    1       -0.909206   1.000000
    2        1.280518   1.000000
    3        2.026609   1.000000
    4        3.045094   1.000000
    5        4.888034   1.000000
    6        7.760863  -0.000001
    7       10.617262  -0.000000
    8       21.837736   0.000000
    9       23.110509   0.000000
   10       24.757509   0.000000
   11       33.311957   0.000000
   12       34.292132   0.000000
 
 -0.3500000E+00  0.1500000E+00  0.5000000E-01  0.1200000E-01
    1       -0.883346   1.000000
    2        1.376031   1.000000
    3        2.055027   1.000000
    4        2.660603   1.000000
    5        4.497495   1.000000
    6        6.650480   1.013990
    7       12.538816   0.000000
    8       21.737120   0.000000
    9       23.269469   0.000000
   10       25.879243   0.000000
   11       32.244738   0.000000
   12       34.004173   0.000000
 
 -0.2500000E+00  0.1500000E+00  0.5000000E-01  0.1200000E-01
    1       -1.047790   1.000000
    2        1.363834   1.000000
    3        1.720431   1.000000
    4        2.277833   1.000000
    5        3.669565   1.000000
    6        5.232339   1.000000
    7       16.484483   0.000000
    8       22.142096   0.000000
    9       24.351376   0.000000
   10       27.999987   0.000000
   11       30.211679   0.000000
   12       33.049666   0.000000
 
 -0.1500000E+00  0.1500000E+00  0.5000000E-01  0.1200000E-01
    1       -1.981531   1.000000
    2        0.993511   1.000000
    3        2.022713   1.000000
    4        2.398185   1.000000
    5        2.991843   1.000000
    6        4.243279   1.000000
    7       20.445399   0.000000
    8       22.827896   0.000000
    9       26.124158   0.000000
   10       27.184717   0.000000
   11       31.064405   0.000000
   12       32.171246   0.000000
 
 -0.5000000E-01  0.1500000E+00  0.5000000E-01  0.1200000E-01
    1       -3.025519   1.000000
    2        1.241583   1.000000
    3        2.042593   1.000000
    4        2.057413   1.000000
    5        3.112890   1.000000
    6        3.686943   1.000000
    7       22.762209   0.000000
    8       23.458787   0.000000
    9       26.206635   0.000000
   10       28.050993   0.000000
   11       30.759631   0.000000
   12       33.921945   0.000000
 
  0.2500000E+00  0.2500000E+00  0.5000000E-01  0.6000000E-02
    1       -1.780647   1.000000
    2        0.526687   1.000000
    3        2.321192   1.000000
    4        2.818014   1.000000
    5        3.040191   1.000000
    6        4.081809   1.000000
    7       22.407524   0.000000
    8       23.653117   0.000000
    9       24.432161   0.000000
   10       25.370088   0.000000
   11       27.482704   0.000000
   12       34.177268   0.000000
 
  0.3500000E+00  0.2500000E+00  0.5000000E-01  0.1200000E-01
    1       -0.943496   1.000000
    2        0.263840   1.000000
    3        2.014414   1.000000
    4        3.225367   1.000000
    5        3.804436   1.000000
    6        4.638042   1.000000
    7       19.642034   0.000000
    8       21.670961   0.000000
    9       23.273948   0.000000
   10       26.118740   0.000000
   11       27.609035   0.000000
   12       34.278673   0.000000
 
  0.4500000E+00  0.2500000E+00  0.5000000E-01  0.1200000E-01
    1       -0.470909   1.000000
    2        0.555961   1.000000
    3        1.727016   1.000000
    4        3.067033   1.000000
    5        4.778731   1.000000
    6        6.201183   1.000000
    7       15.365816   0.000000
    8       20.984376   0.000000
    9       21.479141   0.000000
   10       25.650747   0.000000
   11       30.907125   0.000000
   12       34.407472   0.000000
 
 -0.4500000E+00  0.2500000E+00  0.5000000E-01  0.1200000E-01
    1       -0.343314   1.000000
    2        0.851029   1.000000
    3        1.949280   1.000000
    4        2.829768   1.000000
    5        4.929362   1.000000
    6        8.846428  -0.000000
    7       11.590059  -0.000000
    8       19.660557   0.000000
    9       21.560387   0.000000
   10       25.068569   0.000000
   11       33.494197   0.000000
   12       35.377553   0.000000
 
 -0.3500000E+00  0.2500000E+00  0.5000000E-01  0.1200000E-01
    1       -0.140411   1.000000
    2        0.930316   1.000000
    3        1.960424   1.000000
    4        2.707329   1.000000
    5        4.444914   1.000000
    6        8.676163  -0.000000
    7       12.211139  -0.000000
    8       18.512344   0.000000
    9       22.788171   0.000000
   10       25.256477   0.000000
   11       32.505629   0.000000
   12       35.009180   0.000000
 
 -0.2500000E+00  0.2500000E+00  0.5000000E-01  0.1200000E-01
    1       -0.027383   1.000000
    2        1.034755   1.000000
    3        1.311031   1.000000
    4        2.801169   1.000000
    5        3.625285   1.000000
    6        6.806065   1.028277
    7       15.743386   0.000000
    8       18.469375   0.000000
    9       23.871303   0.000000
   10       27.062259   0.000000
   11       30.016553   0.000000
   12       34.920517   0.000000
 
 -0.1500000E+00  0.2500000E+00  0.5000000E-01  0.1200000E-01
    1       -0.859276   1.000000
    2        0.899543   1.000000
    3        1.690052   1.000000
    4        2.661119   1.000000
    5        3.152406   1.000000
    6        5.341949   1.000000
    7       17.957407   0.000000
    8       20.811287   0.000000
    9       24.813976   0.000000
   10       28.004971   0.000000
   11       29.636603   0.000000
   12       33.663431   0.000000
 
 -0.5000000E-01  0.2500000E+00  0.5000000E-01  0.1200000E-01
    1       -1.900341   1.000000
    2        1.199912   1.000000
    3        1.992347   1.000000
    4        2.173502   1.000000
    5        3.373842   1.000000
    6        4.156386   1.000000
    7       19.081183   0.000000
    8       23.442516   0.000000
    9       26.018277   0.000000
   10       28.325679   0.000000
   11       30.569086   0.000000
   12       31.724434   0.000000
 
  0.3500000E+00  0.3500000E+00  0.5000000E-01  0.6000000E-02
    1       -0.832532   1.000000
    2       -0.176389   1.000000
    3        3.006638   1.000000
    4        3.853336   1.000000
    5        4.319477   1.000000
    6        4.573649   1.000000
    7       19.592048   0.000000
    8       20.506053   0.000000
    9       20.979901   0.000000
   10       24.969845   0.000000
   11       26.923697   0.000000
   12       36.736624   0.000000
 
  0.4500000E+00  0.3500000E+00  0.5000000E-01  0.1200000E-01
    1       -0.696821   1.000000
    2       -0.301383   1.000000
    3        3.075534   1.000000
    4        4.205295   1.000000
    5        4.796402   1.000000
    6        6.215807   1.000000
    7       16.655543   0.000000
    8       18.793727   0.000000
    9       19.419282   0.000000
   10       26.063363   0.000000
   11       28.044075   0.000000
   12       36.364788   0.000000
 
 -0.4500000E+00  0.3500000E+00  0.5000000E-01  0.1200000E-01
    1       -0.513190   1.000000
    2        0.055378   1.000000
    3        2.663209   1.000000
    4        3.845108   1.000000
    5        5.046564   1.000000
    6        9.083468  -0.000000
    7       13.170247   0.000000
    8       17.113196   0.000000
    9       19.486718   0.000000
   10       26.238524   0.000000
   11       30.921221   0.000000
   12       35.346765   0.000000
 
 -0.3500000E+00  0.3500000E+00  0.5000000E-01  0.1200000E-01
    1       -0.173006   1.000000
    2        0.635084   1.000000
    3        2.031363   1.000000
    4        3.450766   1.000000
    5        4.653355   1.000000
    6       10.385770  -0.000000
    7       12.614343   0.000000
    8       15.366454   0.000000
    9       20.976305   0.000000
   10       25.862334   0.000000
   11       33.866131   0.000000
   12       34.635562   0.000000
 
 -0.2500000E+00  0.3500000E+00  0.5000000E-01  0.1200000E-01
    1        0.170928   1.000000
    2        0.973408   1.000000
    3        1.454891   1.000000
    4        3.025747   1.000000
    5        4.159413   1.000000
    6        8.516532  -0.000000
    7       14.155780   0.000000
    8       16.370051   0.000000
    9       22.850591   0.000000
   10       25.680084   0.000000
   11       32.011956   0.000000
   12       35.220840   0.000000
 
 -0.1500000E+00  0.3500000E+00  0.5000000E-01  0.1200000E-01
    1       -0.473813   1.000000
    2        1.256153   1.000000
    3        1.807044   1.000000
    4        2.440696   1.000000
    5        4.053659   1.000000
    6        6.763723   1.035394
    7       14.106132   0.000000
    8       20.220493   0.000000
    9       23.507318   0.000000
   10       26.491010   0.000000
   11       31.018338   0.000000
   12       34.432103   0.000000
 
 -0.5000000E-01  0.3500000E+00  0.5000000E-01  0.1200000E-01
    1       -1.237526   1.000000
    2        1.678386   1.000000
    3        1.971097   1.000000
    4        2.203334   1.000000
    5        4.207260   1.000000
    6        5.017937   1.000000
    7       14.948624   0.000000
    8       22.543781   0.000000
    9       24.805821   0.000000
   10       27.274361   0.000000
   11       31.515450   0.000000
   12       32.791416   0.000000
 
  0.4500000E+00  0.4500000E+00  0.5000000E-01  0.6000000E-02
    1       -1.006953   1.000000
    2       -0.636508   1.000000
    3        4.630705   1.000000
    4        4.679063   1.000000
    5        5.083778   1.000000
    6        6.595166   1.005951
    7       15.404507   0.000000
    8       17.870661   0.000000
    9       18.181605   0.000000
   10       25.387657   0.000000
   11       27.987466   0.000000
   12       37.651079   0.000000
 
 -0.4500000E+00  0.4500000E+00  0.5000000E-01  0.1200000E-01
    1       -0.929377   1.000000
    2       -0.577182   1.000000
    3        4.165317   1.000000
    4        4.618200   1.000000
    5        5.261108   1.000000
    6        8.759161  -0.000000
    7       13.438505   0.000000
    8       16.813958   0.000000
    9       17.782047   0.000000
   10       26.411474   0.000000
   11       28.539157   0.000000
   12       36.736829   0.000000
 
 -0.3500000E+00  0.4500000E+00  0.5000000E-01  0.1200000E-01
    1       -0.579804   1.000000
    2       -0.048317   1.000000
    3        2.998683   1.000000
    4        4.050167   1.000000
    5        5.040863   1.000000
    6       10.557028  -0.000000
    7       12.311497  -0.000000
    8       15.688075   0.000000
    9       19.108255   0.000000
   10       26.496381   0.000000
   11       30.955728   0.000000
   12       35.448837   0.000000
 
 -0.2500000E+00  0.4500000E+00  0.5000000E-01  0.1200000E-01
    1       -0.204930   1.000000
    2        0.687740   1.000000
    3        1.981514   1.000000
    4        3.188927   1.000000
    5        4.803951   1.000000
    6       10.598094  -0.000000
    7       10.927608  -0.000000
    8       17.454887   0.000000
    9       21.170569   0.000000
   10       25.516043   0.000000
   11       33.656365   0.000000
   12       35.033240   0.000000
 
 -0.1500000E+00  0.4500000E+00  0.5000000E-01  0.1200000E-01
    1       -0.548650   1.000000
    2        1.069985   1.000000
    3        2.336513   1.000000
    4        2.512261   1.000000
    5        4.732669   1.000000
    6        8.702997  -0.000000
    7       10.735127  -0.000000
    8       20.559788   0.000000
    9       22.705268   0.000000
   10       24.807498   0.000000
   11       33.065750   0.000000
   12       34.681645   0.000000
 
 -0.5000000E-01  0.4500000E+00  0.5000000E-01  0.1200000E-01
    1       -1.172131   1.000000
    2        1.486857   1.000000
    3        1.813716   1.000000
    4        3.518201   1.000000
    5        4.831233   1.000000
    6        6.418684   1.000110
    7       11.330529  -0.000000
    8       21.882177   0.000000
    9       24.216171   0.000000
   10       25.395335   0.000000
   11       33.141877   0.000000
   12       33.707627   0.000000
 
 -0.4500000E+00 -0.4500000E+00  0.5000000E-01  0.6000000E-02
    1       -1.098504   1.000000
    2       -0.734144   1.000000
    3        4.822868   1.000000
    4        4.992374   1.000000
    5        5.276445   1.000000
    6        7.796063  -0.000000
    7       13.757386   0.000000
    8       17.283760   0.000000
    9       17.644298   0.000000
   10       25.567903   0.000000
   11       28.207658   0.000000
   12       37.413981   0.000000
 
 -0.3500000E+00 -0.4500000E+00  0.5000000E-01  0.1200000E-01
    1       -0.835121   1.000000
    2       -0.483169   1.000000
    3        3.735596   1.000000
    4        4.532359   1.000000
    5        5.074080   1.000000
    6        7.536488  -0.000671
    7       14.918181   0.000000
    8       17.508034   0.000000
    9       18.316052   0.000000
   10       26.254283   0.000000
   11       28.372618   0.000000
   12       36.715179   0.000000
 
 -0.2500000E+00 -0.4500000E+00  0.5000000E-01  0.1200000E-01
    1       -0.437311   1.000000
    2        0.265532   1.000000
    3        2.166019   1.000000
    4        3.482018   1.000000
    5        4.986672   1.000000
    6        7.539471  -0.000625
    7       14.188031   0.000000
    8       19.107729   0.000000
    9       20.237742   0.000000
   10       25.874584   0.000000
   11       30.894352   0.000000
   12       35.022627   0.000000
 
 -0.1500000E+00 -0.4500000E+00  0.5000000E-01  0.1200000E-01
    1       -0.602528   1.000000
    2        1.125316   1.000000
    3        1.979210   1.000000
    4        2.483817   1.000000
    5        4.908639   1.000000
    6        7.207675  -0.022262
    7       12.581143   0.000000
    8       21.648797   0.000000
    9       22.123080   0.000000
   10       24.943688   0.000000
   11       33.197742   0.000000
   12       35.011739   0.000000
 
 -0.3500000E+00 -0.3500000E+00  0.5000000E-01  0.6000000E-02
    1       -0.873395   1.000000
    2       -0.446735   1.000000
    3        3.915856   1.000000
    4        4.345030   1.000000
    5        4.828915   1.000000
    6        5.286908   1.000000
    7       17.616954   0.000000
    8       19.035278   0.000000
    9       19.176839   0.000000
   10       25.132559   0.000000
   11       27.551567   0.000000
   12       37.780398   0.000000
 
 -0.2500000E+00 -0.3500000E+00  0.5000000E-01  0.1200000E-01
    1       -0.652303   1.000000
    2       -0.045402   1.000000
    3        2.390334   1.000000
    4        3.727609   1.000000
    5        4.387701   1.000000
    6        5.225123   1.000000
    7       18.235621   0.000000
    8       20.228809   0.000000
    9       21.238101   0.000000
   10       26.017349   0.000000
   11       27.647252   0.000000
   12       35.454435   0.000000
 
 -0.1500000E+00 -0.3500000E+00  0.5000000E-01  0.1200000E-01
    1       -0.762949   1.000000
    2        0.834373   1.000000
    3        1.597374   1.000000
    4        2.684771   1.000000
    5        4.347238   1.000000
    6        5.225216   1.000000
    7       16.617564   0.000000
    8       22.249498   0.000000
    9       23.151379   0.000000
   10       25.957492   0.000000
   11       30.930717   0.000000
   12       33.536030   0.000000
 
 -0.2500000E+00 -0.2500000E+00  0.5000000E-01  0.6000000E-02
    1       -1.116127   1.000000
    2        0.156687   1.000000
    3        2.405980   1.000000
    4        3.321896   1.000000
    5        3.600907   1.000000
    6        4.326013   1.000000
    7       21.153123   0.000000
    8       22.050012   0.000000
    9       23.275883   0.000000
   10       25.291980   0.000000
   11       26.228965   0.000000
   12       35.283241   0.000000
 
 -0.1500000E+00 -0.2500000E+00  0.5000000E-01  0.1200000E-01
    1       -1.603656   1.000000
    2        0.604419   1.000000
    3        2.046265   1.000000
    4        2.765607   1.000000
    5        3.261505   1.000000
    6        4.252208   1.000000
    7       20.840911   0.000000
    8       22.975535   0.000000
    9       24.904201   0.000000
   10       26.044068   0.000000
   11       28.810824   0.000000
   12       33.222981   0.000000
 
 -0.1500000E+00 -0.1500000E+00  0.5000000E-01  0.6000000E-02
    1       -2.564958   1.000000
    2        0.900171   1.000000
    3        2.319592   1.000000
    4        2.383898   1.000000
    5        2.816186   1.000000
    6        3.859916   1.000000
    7       23.273213   0.000000
    8       24.103026   0.000000
    9       25.106817   0.000000
   10       25.894506   0.000000
   11       30.222894   0.000000
   12       33.580207   0.000000
 
  0.1500000E+00  0.1500000E+00  0.1500000E+00  0.2000000E-02
    1       -3.267395   1.000000
    2        1.418994   1.000000
    3        1.917173   1.000000
    4        1.917173   1.000000
    5        3.418913   1.000000
    6        3.418913   1.000000
    7       22.593327   0.000000
    8       23.441105   0.000000
    9       27.670944   0.000000
   10       27.670945   0.000000
   11       31.220309   0.000000
   12       33.926915   0.000000
 
  0.2500000E+00  0.1500000E+00  0.1500000E+00  0.6000000E-02
    1       -2.589670   1.000000
    2        1.173451   1.000000
    3        2.060667   1.000000
    4        2.158191   1.000000
    5        3.046926   1.000000
    6        3.874100   1.000000
    7       21.580911   0.000000
    8       23.294910   0.000000
    9       26.202333   0.000000
   10       28.683800   0.000000
   11       29.763024   0.000000
   12       33.681400   0.000000
 
  0.3500000E+00  0.1500000E+00  0.1500000E+00  0.6000000E-02
    1       -1.457762   1.000000
    2        0.986250   1.000000
    3        1.923057   1.000000
    4        2.489714   1.000000
    5        2.934824   1.000000
    6        4.739698   1.000000
    7       19.158161   0.000000
    8       21.891773   0.000000
    9       25.778449   0.000000
   10       27.494264   0.000000
   11       30.673940   0.000000
   12       32.701389   0.000000
 
  0.4500000E+00  0.1500000E+00  0.1500000E+00  0.6000000E-02
    1       -0.769427   1.000000
    2        1.436796   1.000000
    3        1.829463   1.000000
    4        2.244647   1.000000
    5        3.732935   1.000000
    6        5.933770   1.000000
    7       15.237684   0.000000
    8       21.177682   0.000000
    9       24.040097   0.000000
   10       27.641026   0.000000
   11       30.143832   0.000000
   12       33.796538   0.000000
 
 -0.4500000E+00  0.1500000E+00  0.1500000E+00  0.6000000E-02
    1       -0.760313   1.000000
    2        1.261701   1.000000
    3        2.113898   1.000000
    4        2.782747   1.000000
    5        4.555446   1.000000
    6        7.564734  -0.000336
    7       11.537653  -0.000000
    8       21.090677   0.000000
    9       23.404887   0.000000
   10       25.069944   0.000000
   11       32.768107   0.000000
   12       34.019244   0.000000
 
 -0.3500000E+00  0.1500000E+00  0.1500000E+00  0.6000000E-02
    1       -0.806629   1.000000
    2        1.227848   1.000000
    3        2.171529   1.000000
    4        2.596438   1.000000
    5        4.982581   1.000000
    6        7.498270  -0.001592
    7       11.345879  -0.000000
    8       21.697043   0.000000
    9       23.669856   0.000000
   10       23.896643   0.000000
   11       33.861223   0.000000
   12       34.229161   0.000000
 
 -0.2500000E+00  0.1500000E+00  0.1500000E+00  0.6000000E-02
    1       -0.875764   1.000000
    2        1.329698   1.000000
    3        1.622099   1.000000
    4        2.364868   1.000000
    5        4.804718   1.000000
    6        5.272278   1.000000
    7       15.083895   0.000000
    8       22.740556   0.000000
    9       23.543966   0.000000
   10       25.239129   0.000000
   11       32.797351   0.000000
   12       33.563196   0.000000
 
 -0.1500000E+00  0.1500000E+00  0.1500000E+00  0.6000000E-02
    1       -1.494299   1.000000
    2        0.754485   1.000000
    3        1.933948   1.000000
    4        2.525176   1.000000
    5        3.673764   1.000000
    6        4.261026   1.000000
    7       19.360269   0.000000
    8       23.962753   0.000000
    9       24.222205   0.000000
   10       26.376839   0.000000
   11       29.746735   0.000000
   12       33.420339   0.000000
 
  0.2500000E+00  0.2500000E+00  0.1500000E+00  0.6000000E-02
    1       -2.202781   1.000000
    2        1.041526   1.000000
    3        2.081461   1.000000
    4        2.242322   1.000000
    5        3.256664   1.000000
    6        3.932891   1.000000
    7       20.489208   0.000000
    8       23.885751   0.000000
    9       25.787156   0.000000
   10       27.731791   0.000000
   11       30.162739   0.000000
   12       32.840169   0.000000
 
  0.3500000E+00  0.2500000E+00  0.1500000E+00  0.1200000E-01
    1       -1.277455   1.000000
    2        0.742782   1.000000
    3        1.815075   1.000000
    4        2.731126   1.000000
    5        3.234649   1.000000
    6        4.715169   1.000000
    7       19.320359   0.000000
    8       21.930200   0.000000
    9       24.968176   0.000000
   10       26.958678   0.000000
   11       30.415295   0.000000
   12       32.315185   0.000000
 
  0.4500000E+00  0.2500000E+00  0.1500000E+00  0.1200000E-01
    1       -0.288557   1.000000
    2        0.768431   1.000000
    3        1.346271   1.000000
    4        2.989672   1.000000
    5        3.600701   1.000000
    6        6.046844   1.000000
    7       16.819093   0.000000
    8       19.630733   0.000000
    9       23.487373   0.000000
   10       27.968748   0.000000
   11       29.412754   0.000000
   12       34.318514   0.000000
 
 -0.4500000E+00  0.2500000E+00  0.1500000E+00  0.1200000E-01
    1       -0.165772   1.000000
    2        0.959226   1.000000
    3        1.692752   1.000000
    4        2.756642   1.000000
    5        4.432898   1.000000
    6        7.835906  -0.000000
    7       13.095806   0.000000
    8       19.329600   0.000000
    9       22.147058   0.000000
   10       26.310081   0.000000
   11       31.611547   0.000000
   12       35.439192   0.000000
 
 -0.3500000E+00  0.2500000E+00  0.1500000E+00  0.1200000E-01
    1       -0.250177   1.000000
    2        0.850292   1.000000
    3        2.077154   1.000000
    4        2.679023   1.000000
    5        4.787741   1.000000
    6        9.530432  -0.000000
    7       10.696759  -0.000000
    8       20.006435   0.000000
    9       21.072310   0.000000
   10       25.701566   0.000000
   11       32.669464   0.000000
   12       35.866399   0.000000
 
 -0.2500000E+00  0.2500000E+00  0.1500000E+00  0.1200000E-01
    1       -0.302564   1.000000
    2        0.954217   1.000000
    3        1.438361   1.000000
    4        2.908157   1.000000
    5        4.580134   1.000000
    6        7.023239   0.455880
    7       14.132870   0.000000
    8       20.240758   0.000000
    9       21.705272   0.000000
   10       26.321790   0.000000
   11       31.585562   0.000000
   12       34.761571   0.000000
 
 -0.1500000E+00  0.2500000E+00  0.1500000E+00  0.1200000E-01
    1       -0.636743   1.000000
    2        0.474563   1.000000
    3        1.611218   1.000000
    4        3.142362   1.000000
    5        3.714741   1.000000
    6        5.302151   1.000000
    7       18.132285   0.000000
    8       20.741690   0.000000
    9       23.314572   0.000000
   10       27.132388   0.000000
   11       29.230702   0.000000