 vasp.5.4.4.18Apr17-6-g9f103f2a35 (build May 18 2018 14:42:58) complex          
  
 executed on             LinuxIFC date 2020.06.30  13:40:42
 running on    4 total cores
 distrk:  each k-point on    4 cores,    1 groups
 distr:  one band on NCORES_PER_BAND=   1 cores,    4 groups


--------------------------------------------------------------------------------------------------------


 INCAR:
 POTCAR:   PAW Au 04Feb1998                       
 POTCAR:   PAW Au 04Feb1998                       
   VRHFIN =Au: s1d10                                                            
   LEXCH  = CA                                                                  
   EATOM  =   929.4667 eV,   68.3139 Ry                                         
                                                                                
   TITEL  = PAW Au 04Feb1998                                                    
   LULTRA =        F    use ultrasoft PP ?                                      
   IUNSCR =        1    unscreen: 0-lin 1-nonlin 2-no                           
   RPACOR =    2.330    partial core radius                                     
   POMASS =  196.966; ZVAL   =   11.000    mass and valenz                      
   RCORE  =    2.500    outmost cutoff radius                                   
   RWIGS  =    2.840; RWIGS  =    1.503    wigner-seitz radius (au A)           
   ENMAX  =  229.869; ENMIN  =  172.402 eV                                      
   RCLOC  =    1.964    cutoff for local pot                                    
   LCOR   =        T    correct aug charges                                     
   LPAW   =        T    paw PP                                                  
   EAUG   =  356.670                                                            
   DEXC   =    -.020                                                            
   RMAX   =    3.041    core radius for proj-oper                               
   RDEP   =    2.598    core radius for depl-charge                             
   QCUT   =   -4.110; QGAM   =    8.221    optimization parameters              
                                                                                
   Description                                                                  
     l     E      TYP  RCUT    TYP  RCUT                                        
     2   .000     23  2.500                                                     
     2   .000     23  2.500                                                     
     0   .000     23  2.500                                                     
     0   .000     23  2.500                                                     
     1  -.200     23  2.500                                                     
     1   .000     23  2.500                                                     
     3   .000      7   .000                                                     
  local pseudopotential read in
  partial core-charges read in
  atomic valenz-charges read in
  non local Contribution for L=           2  read in
    real space projection operators read in
  non local Contribution for L=           2  read in
    real space projection operators read in
  non local Contribution for L=           0  read in
    real space projection operators read in
  non local Contribution for L=           0  read in
    real space projection operators read in
  non local Contribution for L=           1  read in
    real space projection operators read in
  non local Contribution for L=           1  read in
    real space projection operators read in
    PAW grid and wavefunctions read in
 
   number of l-projection  operators is LMAX  =           6
   number of lm-projection operators is LMMAX =          18
 
 PAW Au 04Feb1998                       :
 energy of atom  1       EATOM= -929.4667
 kinetic energy error for atom=    0.0706 (will be added to EATOM!!)
 
 
 POSCAR: FCC Au Bulk                             
  positions in direct lattice
  No initial velocities read in
 exchange correlation table for  LEXCH =        2
   RHO(1)=    0.500       N(1)  =     2000
   RHO(2)=  100.500       N(2)  =     4000
 


--------------------------------------------------------------------------------------------------------


 ion  position               nearest neighbor table
   1  0.000  0.000  0.000-
 
  LATTYP: Found a face centered cubic cell.
 ALAT       =     3.9500000000
  
  Lattice vectors:
  
 A1 = (   0.0000000000,   1.9750000000,   1.9750000000)
 A2 = (   1.9750000000,   0.0000000000,   1.9750000000)
 A3 = (   1.9750000000,   1.9750000000,   0.0000000000)


Analysis of symmetry for initial positions (statically):
=====================================================================
 Subroutine PRICEL returns:
 Original cell was already a primitive cell.
 

 Routine SETGRP: Setting up the symmetry group for a 
 face centered cubic supercell.


 Subroutine GETGRP returns: Found 48 space group operations
 (whereof 48 operations were pure point group operations)
 out of a pool of 48 trial point group operations.


The static configuration has the point symmetry O_h .


Analysis of symmetry for dynamics (positions and initial velocities):
=====================================================================
 Subroutine PRICEL returns:
 Original cell was already a primitive cell.
 

 Routine SETGRP: Setting up the symmetry group for a 
 face centered cubic supercell.


 Subroutine GETGRP returns: Found 48 space group operations
 (whereof 48 operations were pure point group operations)
 out of a pool of 48 trial point group operations.


The dynamic configuration has the point symmetry O_h .


 Subroutine INISYM returns: Found 48 space group operations
 (whereof 48 operations are pure point group operations),
 and found     1 'primitive' translations

 
 
 KPOINTS: 10x10x10                                

Automatic generation of k-mesh.
Space group operators:
 irot       det(A)        alpha          n_x          n_y          n_z        tau_x        tau_y        tau_z
    1     1.000000     0.000000     1.000000     0.000000     0.000000     0.000000     0.000000     0.000000
    2    -1.000000     0.000000     1.000000     0.000000     0.000000     0.000000     0.000000     0.000000
    3     1.000000   120.000000    -0.577350    -0.577350    -0.577350     0.000000     0.000000     0.000000
    4    -1.000000   120.000000    -0.577350    -0.577350    -0.577350     0.000000     0.000000     0.000000
    5     1.000000   120.000000     0.577350     0.577350     0.577350     0.000000     0.000000     0.000000
    6    -1.000000   120.000000     0.577350     0.577350     0.577350     0.000000     0.000000     0.000000
    7     1.000000    90.000000     0.000000     0.000000    -1.000000     0.000000     0.000000     0.000000
    8    -1.000000    90.000000     0.000000     0.000000    -1.000000     0.000000     0.000000     0.000000
    9     1.000000   180.000000     0.000000     0.707107     0.707107     0.000000     0.000000     0.000000
   10    -1.000000   180.000000     0.000000     0.707107     0.707107     0.000000     0.000000     0.000000
   11     1.000000    90.000000     0.000000     1.000000     0.000000     0.000000     0.000000     0.000000
   12    -1.000000    90.000000     0.000000     1.000000     0.000000     0.000000     0.000000     0.000000
   13     1.000000   180.000000     0.000000     0.000000     1.000000     0.000000     0.000000     0.000000
   14    -1.000000   180.000000     0.000000     0.000000     1.000000     0.000000     0.000000     0.000000
   15     1.000000   120.000000    -0.577350     0.577350     0.577350     0.000000     0.000000     0.000000
   16    -1.000000   120.000000    -0.577350     0.577350     0.577350     0.000000     0.000000     0.000000
   17     1.000000   120.000000    -0.577350     0.577350    -0.577350     0.000000     0.000000     0.000000
   18    -1.000000   120.000000    -0.577350     0.577350    -0.577350     0.000000     0.000000     0.000000
   19     1.000000    90.000000     0.000000     0.000000     1.000000     0.000000     0.000000     0.000000
   20    -1.000000    90.000000     0.000000     0.000000     1.000000     0.000000     0.000000     0.000000
   21     1.000000    90.000000    -1.000000     0.000000     0.000000     0.000000     0.000000     0.000000
   22    -1.000000    90.000000    -1.000000     0.000000     0.000000     0.000000     0.000000     0.000000
   23     1.000000   180.000000     0.707107     0.000000     0.707107     0.000000     0.000000     0.000000
   24    -1.000000   180.000000     0.707107     0.000000     0.707107     0.000000     0.000000     0.000000
   25     1.000000   120.000000     0.577350    -0.577350     0.577350     0.000000     0.000000     0.000000
   26    -1.000000   120.000000     0.577350    -0.577350     0.577350     0.000000     0.000000     0.000000
   27     1.000000   120.000000    -0.577350    -0.577350     0.577350     0.000000     0.000000     0.000000
   28    -1.000000   120.000000    -0.577350    -0.577350     0.577350     0.000000     0.000000     0.000000
   29     1.000000   180.000000     1.000000     0.000000     0.000000     0.000000     0.000000     0.000000
   30    -1.000000   180.000000     1.000000     0.000000     0.000000     0.000000     0.000000     0.000000
   31     1.000000    90.000000     0.000000    -1.000000     0.000000     0.000000     0.000000     0.000000
   32    -1.000000    90.000000     0.000000    -1.000000     0.000000     0.000000     0.000000     0.000000
   33     1.000000   180.000000     0.707107     0.707107     0.000000     0.000000     0.000000     0.000000
   34    -1.000000   180.000000     0.707107     0.707107     0.000000     0.000000     0.000000     0.000000
   35     1.000000    90.000000     1.000000     0.000000     0.000000     0.000000     0.000000     0.000000
   36    -1.000000    90.000000     1.000000     0.000000     0.000000     0.000000     0.000000     0.000000
   37     1.000000   120.000000     0.577350    -0.577350    -0.577350     0.000000     0.000000     0.000000
   38    -1.000000   120.000000     0.577350    -0.577350    -0.577350     0.000000     0.000000     0.000000
   39     1.000000   180.000000     0.000000     1.000000     0.000000     0.000000     0.000000     0.000000
   40    -1.000000   180.000000     0.000000     1.000000     0.000000     0.000000     0.000000     0.000000
   41     1.000000   120.000000     0.577350     0.577350    -0.577350     0.000000     0.000000     0.000000
   42    -1.000000   120.000000     0.577350     0.577350    -0.577350     0.000000     0.000000     0.000000
   43     1.000000   180.000000     0.000000    -0.707107     0.707107     0.000000     0.000000     0.000000
   44    -1.000000   180.000000     0.000000    -0.707107     0.707107     0.000000     0.000000     0.000000
   45     1.000000   180.000000     0.707107    -0.707107     0.000000     0.000000     0.000000     0.000000
   46    -1.000000   180.000000     0.707107    -0.707107     0.000000     0.000000     0.000000     0.000000
   47     1.000000   180.000000     0.707107     0.000000    -0.707107     0.000000     0.000000     0.000000
   48    -1.000000   180.000000     0.707107     0.000000    -0.707107     0.000000     0.000000     0.000000
 
 Subroutine IBZKPT returns following result:
 ===========================================
 
 Found    110 irreducible k-points:
 
 Following reciprocal coordinates:
            Coordinates               Weight
  0.050000  0.050000  0.050000     96.000000
  0.150000  0.050000  0.050000    288.000000
  0.250000  0.050000  0.050000    288.000000
  0.350000  0.050000  0.050000    288.000000
  0.450000  0.050000  0.050000    288.000000
 -0.450000  0.050000  0.050000    288.000000
 -0.350000  0.050000  0.050000    288.000000
 -0.250000  0.050000  0.050000    288.000000
 -0.150000  0.050000  0.050000    288.000000
 -0.050000  0.050000  0.050000    288.000000
  0.150000  0.150000  0.050000    288.000000
  0.250000  0.150000  0.050000    576.000000
  0.350000  0.150000  0.050000    576.000000
  0.450000  0.150000  0.050000    576.000000
 -0.450000  0.150000  0.050000    576.000000
 -0.350000  0.150000  0.050000    576.000000
 -0.250000  0.150000  0.050000    576.000000
 -0.150000  0.150000  0.050000    576.000000
 -0.050000  0.150000  0.050000    576.000000
  0.250000  0.250000  0.050000    288.000000
  0.350000  0.250000  0.050000    576.000000
  0.450000  0.250000  0.050000    576.000000
 -0.450000  0.250000  0.050000    576.000000
 -0.350000  0.250000  0.050000    576.000000
 -0.250000  0.250000  0.050000    576.000000
 -0.150000  0.250000  0.050000    576.000000
 -0.050000  0.250000  0.050000    576.000000
  0.350000  0.350000  0.050000    288.000000
  0.450000  0.350000  0.050000    576.000000
 -0.450000  0.350000  0.050000    576.000000
 -0.350000  0.350000  0.050000    576.000000
 -0.250000  0.350000  0.050000    576.000000
 -0.150000  0.350000  0.050000    576.000000
 -0.050000  0.350000  0.050000    576.000000
  0.450000  0.450000  0.050000    288.000000
 -0.450000  0.450000  0.050000    576.000000
 -0.350000  0.450000  0.050000    576.000000
 -0.250000  0.450000  0.050000    576.000000
 -0.150000  0.450000  0.050000    576.000000
 -0.050000  0.450000  0.050000    576.000000
 -0.450000 -0.450000  0.050000    288.000000
 -0.350000 -0.450000  0.050000    576.000000
 -0.250000 -0.450000  0.050000    576.000000
 -0.150000 -0.450000  0.050000    576.000000
 -0.350000 -0.350000  0.050000    288.000000
 -0.250000 -0.350000  0.050000    576.000000
 -0.150000 -0.350000  0.050000    576.000000
 -0.250000 -0.250000  0.050000    288.000000
 -0.150000 -0.250000  0.050000    576.000000
 -0.150000 -0.150000  0.050000    288.000000
  0.150000  0.150000  0.150000     96.000000
  0.250000  0.150000  0.150000    288.000000
  0.350000  0.150000  0.150000    288.000000
  0.450000  0.150000  0.150000    288.000000
 -0.450000  0.150000  0.150000    288.000000
 -0.350000  0.150000  0.150000    288.000000
 -0.250000  0.150000  0.150000    288.000000
 -0.150000  0.150000  0.150000    288.000000
  0.250000  0.250000  0.150000    288.000000
  0.350000  0.250000  0.150000    576.000000
  0.450000  0.250000  0.150000    576.000000
 -0.450000  0.250000  0.150000    576.000000
 -0.350000  0.250000  0.150000    576.000000
 -0.250000  0.250000  0.150000    576.000000
 -0.150000  0.250000  0.150000    576.000000
  0.350000  0.350000  0.150000    288.000000
  0.450000  0.350000  0.150000    576.000000
 -0.450000  0.350000  0.150000    576.000000
 -0.350000  0.350000  0.150000    576.000000
 -0.250000  0.350000  0.150000    576.000000
 -0.150000  0.350000  0.150000    576.000000
  0.450000  0.450000  0.150000    288.000000
 -0.450000  0.450000  0.150000    576.000000
 -0.350000  0.450000  0.150000    576.000000
 -0.250000  0.450000  0.150000    576.000000
 -0.150000  0.450000  0.150000    576.000000
 -0.450000 -0.450000  0.150000    288.000000
 -0.350000 -0.450000  0.150000    576.000000
 -0.250000 -0.450000  0.150000    576.000000
 -0.350000 -0.350000  0.150000    288.000000
 -0.250000 -0.350000  0.150000    576.000000
 -0.250000 -0.250000  0.150000    288.000000
  0.250000  0.250000  0.250000     96.000000
  0.350000  0.250000  0.250000    288.000000
  0.450000  0.250000  0.250000    288.000000
 -0.450000  0.250000  0.250000    288.000000
 -0.350000  0.250000  0.250000    288.000000
 -0.250000  0.250000  0.250000    288.000000
  0.350000  0.350000  0.250000    288.000000
  0.450000  0.350000  0.250000    576.000000
 -0.450000  0.350000  0.250000    576.000000
 -0.350000  0.350000  0.250000    576.000000
 -0.250000  0.350000  0.250000    576.000000
  0.450000  0.450000  0.250000    288.000000
 -0.450000  0.450000  0.250000    576.000000
 -0.350000  0.450000  0.250000    576.000000
 -0.250000  0.450000  0.250000    576.000000
 -0.450000 -0.450000  0.250000    288.000000
 -0.350000 -0.450000  0.250000    576.000000
 -0.350000 -0.350000  0.250000    288.000000
  0.350000  0.350000  0.350000     96.000000
  0.450000  0.350000  0.350000    288.000000
 -0.450000  0.350000  0.350000    288.000000
 -0.350000  0.350000  0.350000    288.000000
  0.450000  0.450000  0.350000    288.000000
 -0.450000  0.450000  0.350000    576.000000
 -0.350000  0.450000  0.350000    576.000000
 -0.450000 -0.450000  0.350000    288.000000
  0.450000  0.450000  0.450000     96.000000
 -0.450000  0.450000  0.450000    288.000000
 
 Following cartesian coordinates:
            Coordinates               Weight
  0.050000  0.050000  0.050000     96.000000
 -0.050000  0.150000  0.150000    288.000000
 -0.150000  0.250000  0.250000    288.000000
 -0.250000  0.350000  0.350000    288.000000
 -0.350000  0.450000  0.450000    288.000000
  0.550000 -0.450000 -0.450000    288.000000
  0.450000 -0.350000 -0.350000    288.000000
  0.350000 -0.250000 -0.250000    288.000000
  0.250000 -0.150000 -0.150000    288.000000
  0.150000 -0.050000 -0.050000    288.000000
  0.050000  0.050000  0.250000    288.000000
 -0.050000  0.150000  0.350000    576.000000
 -0.150000  0.250000  0.450000    576.000000
 -0.250000  0.350000  0.550000    576.000000
  0.650000 -0.550000 -0.350000    576.000000
  0.550000 -0.450000 -0.250000    576.000000
  0.450000 -0.350000 -0.150000    576.000000
  0.350000 -0.250000 -0.050000    576.000000
  0.250000 -0.150000  0.050000    576.000000
  0.050000  0.050000  0.450000    288.000000
 -0.050000  0.150000  0.550000    576.000000
 -0.150000  0.250000  0.650000    576.000000
  0.750000 -0.650000 -0.250000    576.000000
  0.650000 -0.550000 -0.150000    576.000000
  0.550000 -0.450000 -0.050000    576.000000
  0.450000 -0.350000  0.050000    576.000000
  0.350000 -0.250000  0.150000    576.000000
  0.050000  0.050000  0.650000    288.000000
 -0.050000  0.150000  0.750000    576.000000
  0.850000 -0.750000 -0.150000    576.000000
  0.750000 -0.650000 -0.050000    576.000000
  0.650000 -0.550000  0.050000    576.000000
  0.550000 -0.450000  0.150000    576.000000
  0.450000 -0.350000  0.250000    576.000000
  0.050000  0.050000  0.850000    288.000000
  0.950000 -0.850000 -0.050000    576.000000
  0.850000 -0.750000  0.050000    576.000000
  0.750000 -0.650000  0.150000    576.000000
  0.650000 -0.550000  0.250000    576.000000
  0.550000 -0.450000  0.350000    576.000000
  0.050000  0.050000 -0.950000    288.000000
 -0.050000  0.150000 -0.850000    576.000000
 -0.150000  0.250000 -0.750000    576.000000
 -0.250000  0.350000 -0.650000    576.000000
  0.050000  0.050000 -0.750000    288.000000
 -0.050000  0.150000 -0.650000    576.000000
 -0.150000  0.250000 -0.550000    576.000000
  0.050000  0.050000 -0.550000    288.000000
 -0.050000  0.150000 -0.450000    576.000000
  0.050000  0.050000 -0.350000    288.000000
  0.150000  0.150000  0.150000     96.000000
  0.050000  0.250000  0.250000    288.000000
 -0.050000  0.350000  0.350000    288.000000
 -0.150000  0.450000  0.450000    288.000000
  0.750000 -0.450000 -0.450000    288.000000
  0.650000 -0.350000 -0.350000    288.000000
  0.550000 -0.250000 -0.250000    288.000000
  0.450000 -0.150000 -0.150000    288.000000
  0.150000  0.150000  0.350000    288.000000
  0.050000  0.250000  0.450000    576.000000
 -0.050000  0.350000  0.550000    576.000000
  0.850000 -0.550000 -0.350000    576.000000
  0.750000 -0.450000 -0.250000    576.000000
  0.650000 -0.350000 -0.150000    576.000000
  0.550000 -0.250000 -0.050000    576.000000
  0.150000  0.150000  0.550000    288.000000
  0.050000  0.250000  0.650000    576.000000
  0.950000 -0.650000 -0.250000    576.000000
  0.850000 -0.550000 -0.150000    576.000000
  0.750000 -0.450000 -0.050000    576.000000
  0.650000 -0.350000  0.050000    576.000000
  0.150000  0.150000  0.750000    288.000000
  1.050000 -0.750000 -0.150000    576.000000
  0.950000 -0.650000 -0.050000    576.000000
  0.850000 -0.550000  0.050000    576.000000
  0.750000 -0.450000  0.150000    576.000000
  0.150000  0.150000 -1.050000    288.000000
  0.050000  0.250000 -0.950000    576.000000
 -0.050000  0.350000 -0.850000    576.000000
  0.150000  0.150000 -0.850000    288.000000
  0.050000  0.250000 -0.750000    576.000000
  0.150000  0.150000 -0.650000    288.000000
  0.250000  0.250000  0.250000     96.000000
  0.150000  0.350000  0.350000    288.000000
  0.050000  0.450000  0.450000    288.000000
  0.950000 -0.450000 -0.450000    288.000000
  0.850000 -0.350000 -0.350000    288.000000
  0.750000 -0.250000 -0.250000    288.000000
  0.250000  0.250000  0.450000    288.000000
  0.150000  0.350000  0.550000    576.000000
  1.050000 -0.550000 -0.350000    576.000000
  0.950000 -0.450000 -0.250000    576.000000
  0.850000 -0.350000 -0.150000    576.000000
  0.250000  0.250000  0.650000    288.000000
  1.150000 -0.650000 -0.250000    576.000000
  1.050000 -0.550000 -0.150000    576.000000
  0.950000 -0.450000 -0.050000    576.000000
  0.250000  0.250000 -1.150000    288.000000
  0.150000  0.350000 -1.050000    576.000000
  0.250000  0.250000 -0.950000    288.000000
  0.350000  0.350000  0.350000     96.000000
  0.250000  0.450000  0.450000    288.000000
  1.150000 -0.450000 -0.450000    288.000000
  1.050000 -0.350000 -0.350000    288.000000
  0.350000  0.350000  0.550000    288.000000
  1.250000 -0.550000 -0.350000    576.000000
  1.150000 -0.450000 -0.250000    576.000000
  0.350000  0.350000 -1.250000    288.000000
  0.450000  0.450000  0.450000     96.000000
  1.350000 -0.450000 -0.450000    288.000000
 


--------------------------------------------------------------------------------------------------------




 Dimension of arrays:
   k-points           NKPTS =    110   k-points in BZ     NKDIM =    110   number of bands    NBANDS=     12
   number of dos      NEDOS =    301   number of ions     NIONS =      1
   non local maximal  LDIM  =      6   non local SUM 2l+1 LMDIM =     18
   total plane-waves  NPLWV =   1000
   max r-space proj   IRMAX =      1   max aug-charges    IRDMAX=   4168
   dimension x,y,z NGX =    10 NGY =   10 NGZ =   10
   dimension x,y,z NGXF=    20 NGYF=   20 NGZF=   20
   support grid    NGXF=    20 NGYF=   20 NGZF=   20
   ions per type =               1
   NGX,Y,Z   is equivalent  to a cutoff of   5.95,  5.95,  5.95 a.u.
   NGXF,Y,Z  is equivalent  to a cutoff of  11.90, 11.90, 11.90 a.u.

 SYSTEM =  fcc Au                                  
 POSCAR =  FCC Au Bulk                             

 Startparameter for this run:
   NWRITE =      2    write-flag & timer
   PREC   = normal    normal or accurate (medium, high low for compatibility)
   ISTART =      0    job   : 0-new  1-cont  2-samecut
   ICHARG =      2    charge: 1-file 2-atom 10-const
   ISPIN  =      1    spin polarized calculation?
   LNONCOLLINEAR =      F non collinear calculations
   LSORBIT =      F    spin-orbit coupling
   INIWAV =      1    electr: 0-lowe 1-rand  2-diag
   LASPH  =      F    aspherical Exc in radial PAW
   METAGGA=      F    non-selfconsistent MetaGGA calc.

 Electronic Relaxation 1
   ENCUT  =  229.9 eV  16.89 Ry    4.11 a.u.   3.45  3.45  3.45*2*pi/ulx,y,z
   ENINI  =  229.9     initial cutoff
   ENAUG  =  356.7 eV  augmentation charge cutoff
   NELM   =     60;   NELMIN=  2; NELMDL= -5     # of ELM steps 
   EDIFF  = 0.1E-03   stopping-criterion for ELM
   LREAL  =      F    real-space projection
   NLSPLINE    = F    spline interpolate recip. space projectors
   LCOMPAT=      F    compatible to vasp.4.4
   GGA_COMPAT  = T    GGA compatible to vasp.4.4-vasp.4.6
   LMAXPAW     = -100 max onsite density
   LMAXMIX     =    2 max onsite mixed and CHGCAR
   VOSKOWN=      0    Vosko Wilk Nusair interpolation
   ROPT   =    0.00000
 Ionic relaxation
   EDIFFG = 0.1E-02   stopping-criterion for IOM
   NSW    =      0    number of steps for IOM
   NBLOCK =      1;   KBLOCK =      1    inner block; outer block 
   IBRION =     -1    ionic relax: 0-MD 1-quasi-New 2-CG
   NFREE  =      0    steps in history (QN), initial steepest desc. (CG)
   ISIF   =      2    stress and relaxation
   IWAVPR =     10    prediction:  0-non 1-charg 2-wave 3-comb
   ISYM   =      2    0-nonsym 1-usesym 2-fastsym
   LCORR  =      T    Harris-Foulkes like correction to forces

   POTIM  = 0.5000    time-step for ionic-motion
   TEIN   =    0.0    initial temperature
   TEBEG  =    0.0;   TEEND  =   0.0 temperature during run
   SMASS  =  -3.00    Nose mass-parameter (am)
   estimated Nose-frequenzy (Omega)   =  0.10E-29 period in steps =****** mass=  -0.178E-27a.u.
   SCALEE = 1.0000    scale energy and forces
   NPACO  =    256;   APACO  = 16.0  distance and # of slots for P.C.
   PSTRESS=    0.0 pullay stress

  Mass of Ions in am
   POMASS = 196.97
  Ionic Valenz
   ZVAL   =  11.00
  Atomic Wigner-Seitz radii
   RWIGS  =   1.50
  virtual crystal weights 
   VCA    =   1.00
   NELECT =      11.0000    total number of electrons
   NUPDOWN=      -1.0000    fix difference up-down

 DOS related values:
   EMIN   =  10.00;   EMAX   =-10.00  energy-range for DOS
   EFERMI =   0.00
   ISMEAR =     1;   SIGMA  =   0.20  broadening in eV -4-tet -1-fermi 0-gaus

 Electronic relaxation 2 (details)
   IALGO  =     38    algorithm
   LDIAG  =      T    sub-space diagonalisation (order eigenvalues)
   LSUBROT=      F    optimize rotation matrix (better conditioning)
   TURBO    =      0    0=normal 1=particle mesh
   IRESTART =      0    0=no restart 2=restart with 2 vectors
   NREBOOT  =      0    no. of reboots
   NMIN     =      0    reboot dimension
   EREF     =   0.00    reference energy to select bands
   IMIX   =      4    mixing-type and parameters
     AMIX     =   0.40;   BMIX     =  1.00
     AMIX_MAG =   1.60;   BMIX_MAG =  1.00
     AMIN     =   0.10
     WC   =   100.;   INIMIX=   1;  MIXPRE=   1;  MAXMIX= -45

 Intra band minimization:
   WEIMIN = 0.0000     energy-eigenvalue tresh-hold
   EBREAK =  0.21E-05  absolut break condition
   DEPER  =   0.30     relativ break condition  

   TIME   =   0.40     timestep for ELM

  volume/ion in A,a.u.               =      15.41       103.97
  Fermi-wavevector in a.u.,A,eV,Ry     =   1.463172  2.764994 29.128324  2.140871
  Thomas-Fermi vector in A             =   2.579298
 
 Write flags
   LWAVE        =      T    write WAVECAR
   LDOWNSAMPLE  =      F    k-point downsampling of WAVECAR
   LCHARG       =      T    write CHGCAR
   LVTOT        =      F    write LOCPOT, total local potential
   LVHAR        =      F    write LOCPOT, Hartree potential only
   LELF         =      F    write electronic localiz. function (ELF)
   LORBIT       =      0    0 simple, 1 ext, 2 COOP (PROOUT), +10 PAW based schemes


 Dipole corrections
   LMONO  =      F    monopole corrections only (constant potential shift)
   LDIPOL =      F    correct potential (dipole corrections)
   IDIPOL =      0    1-x, 2-y, 3-z, 4-all directions 
   EPSILON=  1.0000000 bulk dielectric constant

 Exchange correlation treatment:
   GGA     =    --    GGA type
   LEXCH   =     2    internal setting for exchange type
   VOSKOWN=      0    Vosko Wilk Nusair interpolation
   LHFCALC =     F    Hartree Fock is set to
   LHFONE  =     F    Hartree Fock one center treatment
   AEXX    =    0.0000 exact exchange contribution

 Linear response parameters
   LEPSILON=     F    determine dielectric tensor
   LRPA    =     F    only Hartree local field effects (RPA)
   LNABLA  =     F    use nabla operator in PAW spheres
   LVEL    =     F    velocity operator in full k-point grid
   LINTERFAST=   F  fast interpolation
   KINTER  =     0    interpolate to denser k-point grid
   CSHIFT  =0.1000    complex shift for real part using Kramers Kronig
   OMEGAMAX=  -1.0    maximum frequency
   DEG_THRESHOLD= 0.2000000E-02 threshold for treating states as degnerate
   RTIME   =   -0.100 relaxation time in fs
  (WPLASMAI=    0.000 imaginary part of plasma frequency in eV, 0.658/RTIME)
   DFIELD  = 0.0000000 0.0000000 0.0000000 field for delta impulse in time
 
 Orbital magnetization related:
   ORBITALMAG=     F  switch on orbital magnetization
   LCHIMAG   =     F  perturbation theory with respect to B field
   DQ        =  0.001000  dq finite difference perturbation B field
   LLRAUG    =     F  two centre corrections for induced B field



--------------------------------------------------------------------------------------------------------


 Static calculation
 charge density and potential will be updated during run
 non-spin polarized calculation
 Variant of blocked Davidson
 Davidson routine will perform the subspace rotation
 perform sub-space diagonalisation
    after iterative eigenvector-optimisation
 modified Broyden-mixing scheme, WC =      100.0
 initial mixing is a Kerker type mixing with AMIX =  0.4000 and BMIX =      1.0000
 Hartree-type preconditioning will be used
 using additional bands            6
 reciprocal scheme for non local part
 use partial core corrections
 calculate Harris-corrections to forces 
   (improved forces if not selfconsistent)
 use of overlap-Matrix (Vanderbilt PP)
 Methfessel and Paxton  Order N= 1 SIGMA  =   0.20


--------------------------------------------------------------------------------------------------------


  energy-cutoff  :      229.87
  volume of cell :       15.41
      direct lattice vectors                 reciprocal lattice vectors
     0.000000000  1.975000000  1.975000000    -0.253164557  0.253164557  0.253164557
     1.975000000  0.000000000  1.975000000     0.253164557 -0.253164557  0.253164557
     1.975000000  1.975000000  0.000000000     0.253164557  0.253164557 -0.253164557

  length of vectors
     2.793071786  2.793071786  2.793071786     0.438493875  0.438493875  0.438493875


 
 k-points in units of 2pi/SCALE and weight: 10x10x10                                
   0.05000000  0.05000000  0.05000000       0.002
  -0.05000000  0.15000000  0.15000000       0.006
  -0.15000000  0.25000000  0.25000000       0.006
  -0.25000000  0.35000000  0.35000000       0.006
  -0.35000000  0.45000000  0.45000000       0.006
   0.55000000 -0.45000000 -0.45000000       0.006
   0.45000000 -0.35000000 -0.35000000       0.006
   0.35000000 -0.25000000 -0.25000000       0.006
   0.25000000 -0.15000000 -0.15000000       0.006
   0.15000000 -0.05000000 -0.05000000       0.006
   0.05000000  0.05000000  0.25000000       0.006
  -0.05000000  0.15000000  0.35000000       0.012
  -0.15000000  0.25000000  0.45000000       0.012
  -0.25000000  0.35000000  0.55000000       0.012
   0.65000000 -0.55000000 -0.35000000       0.012
   0.55000000 -0.45000000 -0.25000000       0.012
   0.45000000 -0.35000000 -0.15000000       0.012
   0.35000000 -0.25000000 -0.05000000       0.012
   0.25000000 -0.15000000  0.05000000       0.012
   0.05000000  0.05000000  0.45000000       0.006
  -0.05000000  0.15000000  0.55000000       0.012
  -0.15000000  0.25000000  0.65000000       0.012
   0.75000000 -0.65000000 -0.25000000       0.012
   0.65000000 -0.55000000 -0.15000000       0.012
   0.55000000 -0.45000000 -0.05000000       0.012
   0.45000000 -0.35000000  0.05000000       0.012
   0.35000000 -0.25000000  0.15000000       0.012
   0.05000000  0.05000000  0.65000000       0.006
  -0.05000000  0.15000000  0.75000000       0.012
   0.85000000 -0.75000000 -0.15000000       0.012
   0.75000000 -0.65000000 -0.05000000       0.012
   0.65000000 -0.55000000  0.05000000       0.012
   0.55000000 -0.45000000  0.15000000       0.012
   0.45000000 -0.35000000  0.25000000       0.012
   0.05000000  0.05000000  0.85000000       0.006
   0.95000000 -0.85000000 -0.05000000       0.012
   0.85000000 -0.75000000  0.05000000       0.012
   0.75000000 -0.65000000  0.15000000       0.012
   0.65000000 -0.55000000  0.25000000       0.012
   0.55000000 -0.45000000  0.35000000       0.012
   0.05000000  0.05000000 -0.95000000       0.006
  -0.05000000  0.15000000 -0.85000000       0.012
  -0.15000000  0.25000000 -0.75000000       0.012
  -0.25000000  0.35000000 -0.65000000       0.012
   0.05000000  0.05000000 -0.75000000       0.006
  -0.05000000  0.15000000 -0.65000000       0.012
  -0.15000000  0.25000000 -0.55000000       0.012
   0.05000000  0.05000000 -0.55000000       0.006
  -0.05000000  0.15000000 -0.45000000       0.012
   0.05000000  0.05000000 -0.35000000       0.006
   0.15000000  0.15000000  0.15000000       0.002
   0.05000000  0.25000000  0.25000000       0.006
  -0.05000000  0.35000000  0.35000000       0.006
  -0.15000000  0.45000000  0.45000000       0.006
   0.75000000 -0.45000000 -0.45000000       0.006
   0.65000000 -0.35000000 -0.35000000       0.006
   0.55000000 -0.25000000 -0.25000000       0.006
   0.45000000 -0.15000000 -0.15000000       0.006
   0.15000000  0.15000000  0.35000000       0.006
   0.05000000  0.25000000  0.45000000       0.012
  -0.05000000  0.35000000  0.55000000       0.012
   0.85000000 -0.55000000 -0.35000000       0.012
   0.75000000 -0.45000000 -0.25000000       0.012
   0.65000000 -0.35000000 -0.15000000       0.012
   0.55000000 -0.25000000 -0.05000000       0.012
   0.15000000  0.15000000  0.55000000       0.006
   0.05000000  0.25000000  0.65000000       0.012
   0.95000000 -0.65000000 -0.25000000       0.012
   0.85000000 -0.55000000 -0.15000000       0.012
   0.75000000 -0.45000000 -0.05000000       0.012
   0.65000000 -0.35000000  0.05000000       0.012
   0.15000000  0.15000000  0.75000000       0.006
   1.05000000 -0.75000000 -0.15000000       0.012
   0.95000000 -0.65000000 -0.05000000       0.012
   0.85000000 -0.55000000  0.05000000       0.012
   0.75000000 -0.45000000  0.15000000       0.012
   0.15000000  0.15000000 -1.05000000       0.006
   0.05000000  0.25000000 -0.95000000       0.012
  -0.05000000  0.35000000 -0.85000000       0.012
   0.15000000  0.15000000 -0.85000000       0.006
   0.05000000  0.25000000 -0.75000000       0.012
   0.15000000  0.15000000 -0.65000000       0.006
   0.25000000  0.25000000  0.25000000       0.002
   0.15000000  0.35000000  0.35000000       0.006
   0.05000000  0.45000000  0.45000000       0.006
   0.95000000 -0.45000000 -0.45000000       0.006
   0.85000000 -0.35000000 -0.35000000       0.006
   0.75000000 -0.25000000 -0.25000000       0.006
   0.25000000  0.25000000  0.45000000       0.006
   0.15000000  0.35000000  0.55000000       0.012
   1.05000000 -0.55000000 -0.35000000       0.012
   0.95000000 -0.45000000 -0.25000000       0.012
   0.85000000 -0.35000000 -0.15000000       0.012
   0.25000000  0.25000000  0.65000000       0.006
   1.15000000 -0.65000000 -0.25000000       0.012
   1.05000000 -0.55000000 -0.15000000       0.012
   0.95000000 -0.45000000 -0.05000000       0.012
   0.25000000  0.25000000 -1.15000000       0.006
   0.15000000  0.35000000 -1.05000000       0.012
   0.25000000  0.25000000 -0.95000000       0.006
   0.35000000  0.35000000  0.35000000       0.002
   0.25000000  0.45000000  0.45000000       0.006
   1.15000000 -0.45000000 -0.45000000       0.006
   1.05000000 -0.35000000 -0.35000000       0.006
   0.35000000  0.35000000  0.55000000       0.006
   1.25000000 -0.55000000 -0.35000000       0.012
   1.15000000 -0.45000000 -0.25000000       0.012
   0.35000000  0.35000000 -1.25000000       0.006
   0.45000000  0.45000000  0.45000000       0.002
   1.35000000 -0.45000000 -0.45000000       0.006
 
 k-points in reciprocal lattice and weights: 10x10x10                                
   0.05000000  0.05000000  0.05000000       0.002
   0.15000000  0.05000000  0.05000000       0.006
   0.25000000  0.05000000  0.05000000       0.006
   0.35000000  0.05000000  0.05000000       0.006
   0.45000000  0.05000000  0.05000000       0.006
  -0.45000000  0.05000000  0.05000000       0.006
  -0.35000000  0.05000000  0.05000000       0.006
  -0.25000000  0.05000000  0.05000000       0.006
  -0.15000000  0.05000000  0.05000000       0.006
  -0.05000000  0.05000000  0.05000000       0.006
   0.15000000  0.15000000  0.05000000       0.006
   0.25000000  0.15000000  0.05000000       0.012
   0.35000000  0.15000000  0.05000000       0.012
   0.45000000  0.15000000  0.05000000       0.012
  -0.45000000  0.15000000  0.05000000       0.012
  -0.35000000  0.15000000  0.05000000       0.012
  -0.25000000  0.15000000  0.05000000       0.012
  -0.15000000  0.15000000  0.05000000       0.012
  -0.05000000  0.15000000  0.05000000       0.012
   0.25000000  0.25000000  0.05000000       0.006
   0.35000000  0.25000000  0.05000000       0.012
   0.45000000  0.25000000  0.05000000       0.012
  -0.45000000  0.25000000  0.05000000       0.012
  -0.35000000  0.25000000  0.05000000       0.012
  -0.25000000  0.25000000  0.05000000       0.012
  -0.15000000  0.25000000  0.05000000       0.012
  -0.05000000  0.25000000  0.05000000       0.012
   0.35000000  0.35000000  0.05000000       0.006
   0.45000000  0.35000000  0.05000000       0.012
  -0.45000000  0.35000000  0.05000000       0.012
  -0.35000000  0.35000000  0.05000000       0.012
  -0.25000000  0.35000000  0.05000000       0.012
  -0.15000000  0.35000000  0.05000000       0.012
  -0.05000000  0.35000000  0.05000000       0.012
   0.45000000  0.45000000  0.05000000       0.006
  -0.45000000  0.45000000  0.05000000       0.012
  -0.35000000  0.45000000  0.05000000       0.012
  -0.25000000  0.45000000  0.05000000       0.012
  -0.15000000  0.45000000  0.05000000       0.012
  -0.05000000  0.45000000  0.05000000       0.012
  -0.45000000 -0.45000000  0.05000000       0.006
  -0.35000000 -0.45000000  0.05000000       0.012
  -0.25000000 -0.45000000  0.05000000       0.012
  -0.15000000 -0.45000000  0.05000000       0.012
  -0.35000000 -0.35000000  0.05000000       0.006
  -0.25000000 -0.35000000  0.05000000       0.012
  -0.15000000 -0.35000000  0.05000000       0.012
  -0.25000000 -0.25000000  0.05000000       0.006
  -0.15000000 -0.25000000  0.05000000       0.012
  -0.15000000 -0.15000000  0.05000000       0.006
   0.15000000  0.15000000  0.15000000       0.002
   0.25000000  0.15000000  0.15000000       0.006
   0.35000000  0.15000000  0.15000000       0.006
   0.45000000  0.15000000  0.15000000       0.006
  -0.45000000  0.15000000  0.15000000       0.006
  -0.35000000  0.15000000  0.15000000       0.006
  -0.25000000  0.15000000  0.15000000       0.006
  -0.15000000  0.15000000  0.15000000       0.006
   0.25000000  0.25000000  0.15000000       0.006
   0.35000000  0.25000000  0.15000000       0.012
   0.45000000  0.25000000  0.15000000       0.012
  -0.45000000  0.25000000  0.15000000       0.012
  -0.35000000  0.25000000  0.15000000       0.012
  -0.25000000  0.25000000  0.15000000       0.012
  -0.15000000  0.25000000  0.15000000       0.012
   0.35000000  0.35000000  0.15000000       0.006
   0.45000000  0.35000000  0.15000000       0.012
  -0.45000000  0.35000000  0.15000000       0.012
  -0.35000000  0.35000000  0.15000000       0.012
  -0.25000000  0.35000000  0.15000000       0.012
  -0.15000000  0.35000000  0.15000000       0.012
   0.45000000  0.45000000  0.15000000       0.006
  -0.45000000  0.45000000  0.15000000       0.012
  -0.35000000  0.45000000  0.15000000       0.012
  -0.25000000  0.45000000  0.15000000       0.012
  -0.15000000  0.45000000  0.15000000       0.012
  -0.45000000 -0.45000000  0.15000000       0.006
  -0.35000000 -0.45000000  0.15000000       0.012
  -0.25000000 -0.45000000  0.15000000       0.012
  -0.35000000 -0.35000000  0.15000000       0.006
  -0.25000000 -0.35000000  0.15000000       0.012
  -0.25000000 -0.25000000  0.15000000       0.006
   0.25000000  0.25000000  0.25000000       0.002
   0.35000000  0.25000000  0.25000000       0.006
   0.45000000  0.25000000  0.25000000       0.006
  -0.45000000  0.25000000  0.25000000       0.006
  -0.35000000  0.25000000  0.25000000       0.006
  -0.25000000  0.25000000  0.25000000       0.006
   0.35000000  0.35000000  0.25000000       0.006
   0.45000000  0.35000000  0.25000000       0.012
  -0.45000000  0.35000000  0.25000000       0.012
  -0.35000000  0.35000000  0.25000000       0.012
  -0.25000000  0.35000000  0.25000000       0.012
   0.45000000  0.45000000  0.25000000       0.006
  -0.45000000  0.45000000  0.25000000       0.012
  -0.35000000  0.45000000  0.25000000       0.012
  -0.25000000  0.45000000  0.25000000       0.012
  -0.45000000 -0.45000000  0.25000000       0.006
  -0.35000000 -0.45000000  0.25000000       0.012
  -0.35000000 -0.35000000  0.25000000       0.006
   0.35000000  0.35000000  0.35000000       0.002
   0.45000000  0.35000000  0.35000000       0.006
  -0.45000000  0.35000000  0.35000000       0.006
  -0.35000000  0.35000000  0.35000000       0.006
   0.45000000  0.45000000  0.35000000       0.006
  -0.45000000  0.45000000  0.35000000       0.012
  -0.35000000  0.45000000  0.35000000       0.012
  -0.45000000 -0.45000000  0.35000000       0.006
   0.45000000  0.45000000  0.45000000       0.002
  -0.45000000  0.45000000  0.45000000       0.006
 
 position of ions in fractional coordinates (direct lattice) 
   0.00000000  0.00000000  0.00000000
 
 position of ions in cartesian coordinates  (Angst):
   0.00000000  0.00000000  0.00000000
 


--------------------------------------------------------------------------------------------------------


 k-point  1 :   0.0500 0.0500 0.0500  plane waves:     122
 k-point  2 :   0.1500 0.0500 0.0500  plane waves:     125
 k-point  3 :   0.2500 0.0500 0.0500  plane waves:     126
 k-point  4 :   0.3500 0.0500 0.0500  plane waves:     124
 k-point  5 :   0.4500 0.0500 0.0500  plane waves:     121
 k-point  6 :  -0.4500 0.0500 0.0500  plane waves:     120
 k-point  7 :  -0.3500 0.0500 0.0500  plane waves:     122
 k-point  8 :  -0.2500 0.0500 0.0500  plane waves:     127
 k-point  9 :  -0.1500 0.0500 0.0500  plane waves:     126
 k-point 10 :  -0.0500 0.0500 0.0500  plane waves:     123
 k-point 11 :   0.1500 0.1500 0.0500  plane waves:     125
 k-point 12 :   0.2500 0.1500 0.0500  plane waves:     126
 k-point 13 :   0.3500 0.1500 0.0500  plane waves:     126
 k-point 14 :   0.4500 0.1500 0.0500  plane waves:     122
 k-point 15 :  -0.4500 0.1500 0.0500  plane waves:     120
 k-point 16 :  -0.3500 0.1500 0.0500  plane waves:     123
 k-point 17 :  -0.2500 0.1500 0.0500  plane waves:     126
 k-point 18 :  -0.1500 0.1500 0.0500  plane waves:     126
 k-point 19 :  -0.0500 0.1500 0.0500  plane waves:     123
 k-point 20 :   0.2500 0.2500 0.0500  plane waves:     127
 k-point 21 :   0.3500 0.2500 0.0500  plane waves:     127
 k-point 22 :   0.4500 0.2500 0.0500  plane waves:     121
 k-point 23 :  -0.4500 0.2500 0.0500  plane waves:     119
 k-point 24 :  -0.3500 0.2500 0.0500  plane waves:     121
 k-point 25 :  -0.2500 0.2500 0.0500  plane waves:     123
 k-point 26 :  -0.1500 0.2500 0.0500  plane waves:     127
 k-point 27 :  -0.0500 0.2500 0.0500  plane waves:     127
 k-point 28 :   0.3500 0.3500 0.0500  plane waves:     128
 k-point 29 :   0.4500 0.3500 0.0500  plane waves:     121
 k-point 30 :  -0.4500 0.3500 0.0500  plane waves:     120
 k-point 31 :  -0.3500 0.3500 0.0500  plane waves:     119
 k-point 32 :  -0.2500 0.3500 0.0500  plane waves:     122
 k-point 33 :  -0.1500 0.3500 0.0500  plane waves:     124
 k-point 34 :  -0.0500 0.3500 0.0500  plane waves:     123
 k-point 35 :   0.4500 0.4500 0.0500  plane waves:     119
 k-point 36 :  -0.4500 0.4500 0.0500  plane waves:     117
 k-point 37 :  -0.3500 0.4500 0.0500  plane waves:     118
 k-point 38 :  -0.2500 0.4500 0.0500  plane waves:     120
 k-point 39 :  -0.1500 0.4500 0.0500  plane waves:     122
 k-point 40 :  -0.0500 0.4500 0.0500  plane waves:     123
 k-point 41 :  -0.4500-0.4500 0.0500  plane waves:     116
 k-point 42 :  -0.3500-0.4500 0.0500  plane waves:     118
 k-point 43 :  -0.2500-0.4500 0.0500  plane waves:     121
 k-point 44 :  -0.1500-0.4500 0.0500  plane waves:     121
 k-point 45 :  -0.3500-0.3500 0.0500  plane waves:     121
 k-point 46 :  -0.2500-0.3500 0.0500  plane waves:     123
 k-point 47 :  -0.1500-0.3500 0.0500  plane waves:     123
 k-point 48 :  -0.2500-0.2500 0.0500  plane waves:     126
 k-point 49 :  -0.1500-0.2500 0.0500  plane waves:     128
 k-point 50 :  -0.1500-0.1500 0.0500  plane waves:     129
 k-point 51 :   0.1500 0.1500 0.1500  plane waves:     122
 k-point 52 :   0.2500 0.1500 0.1500  plane waves:     126
 k-point 53 :   0.3500 0.1500 0.1500  plane waves:     127
 k-point 54 :   0.4500 0.1500 0.1500  plane waves:     125
 k-point 55 :  -0.4500 0.1500 0.1500  plane waves:     124
 k-point 56 :  -0.3500 0.1500 0.1500  plane waves:     123
 k-point 57 :  -0.2500 0.1500 0.1500  plane waves:     126
 k-point 58 :  -0.1500 0.1500 0.1500  plane waves:     126
 k-point 59 :   0.2500 0.2500 0.1500  plane waves:     129
 k-point 60 :   0.3500 0.2500 0.1500  plane waves:     126
 k-point 61 :   0.4500 0.2500 0.1500  plane waves:     125
 k-point 62 :  -0.4500 0.2500 0.1500  plane waves:     120
 k-point 63 :  -0.3500 0.2500 0.1500  plane waves:     120
 k-point 64 :  -0.2500 0.2500 0.1500  plane waves:     120
 k-point 65 :  -0.1500 0.2500 0.1500  plane waves:     124
 k-point 66 :   0.3500 0.3500 0.1500  plane waves:     122
 k-point 67 :   0.4500 0.3500 0.1500  plane waves:     124
 k-point 68 :  -0.4500 0.3500 0.1500  plane waves:     121
 k-point 69 :  -0.3500 0.3500 0.1500  plane waves:     116
 k-point 70 :  -0.2500 0.3500 0.1500  plane waves:     118
 k-point 71 :  -0.1500 0.3500 0.1500  plane waves:     122
 k-point 72 :   0.4500 0.4500 0.1500  plane waves:     122
 k-point 73 :  -0.4500 0.4500 0.1500  plane waves:     121
 k-point 74 :  -0.3500 0.4500 0.1500  plane waves:     117
 k-point 75 :  -0.2500 0.4500 0.1500  plane waves:     116
 k-point 76 :  -0.1500 0.4500 0.1500  plane waves:     119
 k-point 77 :  -0.4500-0.4500 0.1500  plane waves:     117
 k-point 78 :  -0.3500-0.4500 0.1500  plane waves:     119
 k-point 79 :  -0.2500-0.4500 0.1500  plane waves:     117
 k-point 80 :  -0.3500-0.3500 0.1500  plane waves:     120
 k-point 81 :  -0.2500-0.3500 0.1500  plane waves:     122
 k-point 82 :  -0.2500-0.2500 0.1500  plane waves:     122
 k-point 83 :   0.2500 0.2500 0.2500  plane waves:     126
 k-point 84 :   0.3500 0.2500 0.2500  plane waves:     128
 k-point 85 :   0.4500 0.2500 0.2500  plane waves:     125
 k-point 86 :  -0.4500 0.2500 0.2500  plane waves:     124
 k-point 87 :  -0.3500 0.2500 0.2500  plane waves:     123
 k-point 88 :  -0.2500 0.2500 0.2500  plane waves:     121
 k-point 89 :   0.3500 0.3500 0.2500  plane waves:     126
 k-point 90 :   0.4500 0.3500 0.2500  plane waves:     122
 k-point 91 :  -0.4500 0.3500 0.2500  plane waves:     121
 k-point 92 :  -0.3500 0.3500 0.2500  plane waves:     120
 k-point 93 :  -0.2500 0.3500 0.2500  plane waves:     119
 k-point 94 :   0.4500 0.4500 0.2500  plane waves:     121
 k-point 95 :  -0.4500 0.4500 0.2500  plane waves:     117
 k-point 96 :  -0.3500 0.4500 0.2500  plane waves:     116
 k-point 97 :  -0.2500 0.4500 0.2500  plane waves:     115
 k-point 98 :  -0.4500-0.4500 0.2500  plane waves:     117
 k-point 99 :  -0.3500-0.4500 0.2500  plane waves:     117
 k-point ** :  -0.3500-0.3500 0.2500  plane waves:     118
 k-point ** :   0.3500 0.3500 0.3500  plane waves:     117
 k-point ** :   0.4500 0.3500 0.3500  plane waves:     124
 k-point ** :  -0.4500 0.3500 0.3500  plane waves:     124
 k-point ** :  -0.3500 0.3500 0.3500  plane waves:     120
 k-point ** :   0.4500 0.4500 0.3500  plane waves:     123
 k-point ** :  -0.4500 0.4500 0.3500  plane waves:     120
 k-point ** :  -0.3500 0.4500 0.3500  plane waves:     119
 k-point ** :  -0.4500-0.4500 0.3500  plane waves:     123
 k-point ** :   0.4500 0.4500 0.4500  plane waves:     120
 k-point ** :  -0.4500 0.4500 0.4500  plane waves:     120

 maximum and minimum number of plane-waves per node :       129      115

 maximum number of plane-waves:       129
 maximum index in each direction: 
   IXMAX=    3   IYMAX=    3   IZMAX=    3
   IXMIN=   -3   IYMIN=   -3   IZMIN=   -3


 serial   3D FFT for wavefunctions
 parallel 3D FFT for charge:
    minimum data exchange during FFTs selected (reduces bandwidth)


 total amount of memory used by VASP MPI-rank0    33243. kBytes
=======================================================================

   base      :      30000. kBytes
   nonl-proj :       2092. kBytes
   fftplans  :        142. kBytes
   grid      :        192. kBytes
   one-center:         15. kBytes
   wavefun   :        802. kBytes
 
     INWAV:  cpu time    0.0000: real time    0.0000
 Broyden mixing: mesh for mixing (old mesh)
   NGX =  7   NGY =  7   NGZ =  7
  (NGX  = 20   NGY  = 20   NGZ  = 20)
  gives a total of    343 points

 initial charge density was supplied:
 charge density of overlapping atoms calculated
 number of electron      11.0000000 magnetization 
 keeping initial charge density in first step


--------------------------------------------------------------------------------------------------------


 Maximum index for augmentation-charges          973 (set IRDMAX)


--------------------------------------------------------------------------------------------------------


 First call to EWALD:  gamma=   0.712
 Maximum number of real-space cells 3x 3x 3
 Maximum number of reciprocal cells 3x 3x 3

    FEWALD:  cpu time    0.0013: real time    0.0013


--------------------------------------- Iteration      1(   1)  ---------------------------------------


    POTLOK:  cpu time    0.0016: real time    0.0049
    SETDIJ:  cpu time    0.0017: real time    0.0016
     EDDAV:  cpu time    0.2575: real time    0.2635
       DOS:  cpu time    0.0015: real time    0.0014
    --------------------------------------------
      LOOP:  cpu time    0.2623: real time    0.2715

 eigenvalue-minimisations  :  3184
 total energy-change (2. order) : 0.3104025E+02  (-0.3549514E+03)
 number of electron      11.0000000 magnetization 
 augmentation part       11.0000000 magnetization 

 Free energy of the ion-electron system (eV)
  ---------------------------------------------------
  alpha Z        PSCENC =       119.28496302
  Ewald energy   TEWEN  =     -1011.20830427
  -Hartree energ DENC   =      -110.23640271
  -exchange      EXHF   =         0.00000000
  -V(xc)+E(xc)   XCENC  =        16.63820592
  PAW double counting   =       746.10209728     -725.46159323
  entropy T*S    EENTRO =         0.00028591
  eigenvalues    EBANDS =        66.52484351
  atomic energy  EATOM  =       929.39614979
  Solvation  Ediel_sol  =         0.00000000
  ---------------------------------------------------
  free energy    TOTEN  =        31.04024521 eV

  energy without entropy =       31.03995930  energy(sigma->0) =       31.04014991


--------------------------------------------------------------------------------------------------------




--------------------------------------- Iteration      1(   2)  ---------------------------------------


     EDDAV:  cpu time    0.2382: real time    0.2440
       DOS:  cpu time    0.0014: real time    0.0014
    --------------------------------------------
      LOOP:  cpu time    0.2397: real time    0.2455

 eigenvalue-minimisations  :  3064
 total energy-change (2. order) :-0.3534931E+02  (-0.3329740E+02)
 number of electron      11.0000000 magnetization 
 augmentation part       11.0000000 magnetization 

 Free energy of the ion-electron system (eV)
  ---------------------------------------------------
  alpha Z        PSCENC =       119.28496302
  Ewald energy   TEWEN  =     -1011.20830427
  -Hartree energ DENC   =      -110.23640271
  -exchange      EXHF   =         0.00000000
  -V(xc)+E(xc)   XCENC  =        16.63820592
  PAW double counting   =       746.10209728     -725.46159323
  entropy T*S    EENTRO =        -0.00039190
  eigenvalues    EBANDS =        31.17621511
  atomic energy  EATOM  =       929.39614979
  Solvation  Ediel_sol  =         0.00000000
  ---------------------------------------------------
  free energy    TOTEN  =        -4.30906100 eV

  energy without entropy =       -4.30866910  energy(sigma->0) =       -4.30893036


--------------------------------------------------------------------------------------------------------




--------------------------------------- Iteration      1(   3)  ---------------------------------------


     EDDAV:  cpu time    0.2695: real time    0.2759
       DOS:  cpu time    0.0015: real time    0.0015
    --------------------------------------------
      LOOP:  cpu time    0.2718: real time    0.2773

 eigenvalue-minimisations  :  3208
 total energy-change (2. order) :-0.3207258E+00  (-0.3205453E+00)
 number of electron      11.0000000 magnetization 
 augmentation part       11.0000000 magnetization 

 Free energy of the ion-electron system (eV)
  ---------------------------------------------------
  alpha Z        PSCENC =       119.28496302
  Ewald energy   TEWEN  =     -1011.20830427
  -Hartree energ DENC   =      -110.23640271
  -exchange      EXHF   =         0.00000000
  -V(xc)+E(xc)   XCENC  =        16.63820592
  PAW double counting   =       746.10209728     -725.46159323
  entropy T*S    EENTRO =        -0.00065603
  eigenvalues    EBANDS =        30.85575345
  atomic energy  EATOM  =       929.39614979
  Solvation  Ediel_sol  =         0.00000000
  ---------------------------------------------------
  free energy    TOTEN  =        -4.62978679 eV

  energy without entropy =       -4.62913076  energy(sigma->0) =       -4.62956811


--------------------------------------------------------------------------------------------------------




--------------------------------------- Iteration      1(   4)  ---------------------------------------


     EDDAV:  cpu time    0.2660: real time    0.2724
       DOS:  cpu time    0.0015: real time    0.0015
    --------------------------------------------
      LOOP:  cpu time    0.2668: real time    0.2739

 eigenvalue-minimisations  :  3144
 total energy-change (2. order) :-0.8515507E-03  (-0.8515273E-03)
 number of electron      11.0000000 magnetization 
 augmentation part       11.0000000 magnetization 

 Free energy of the ion-electron system (eV)
  ---------------------------------------------------
  alpha Z        PSCENC =       119.28496302
  Ewald energy   TEWEN  =     -1011.20830427
  -Hartree energ DENC   =      -110.23640271
  -exchange      EXHF   =         0.00000000
  -V(xc)+E(xc)   XCENC  =        16.63820592
  PAW double counting   =       746.10209728     -725.46159323
  entropy T*S    EENTRO =        -0.00065680
  eigenvalues    EBANDS =        30.85490267
  atomic energy  EATOM  =       929.39614979
  Solvation  Ediel_sol  =         0.00000000
  ---------------------------------------------------
  free energy    TOTEN  =        -4.63063834 eV

  energy without entropy =       -4.62998154  energy(sigma->0) =       -4.63041940


--------------------------------------------------------------------------------------------------------




--------------------------------------- Iteration      1(   5)  ---------------------------------------


     EDDAV:  cpu time    0.2490: real time    0.2553
       DOS:  cpu time    0.0014: real time    0.0014
    CHARGE:  cpu time    0.0033: real time    0.0033
    MIXING:  cpu time    0.0009: real time    0.0003
    --------------------------------------------
      LOOP:  cpu time    0.2546: real time    0.2603

 eigenvalue-minimisations  :  2892
 total energy-change (2. order) :-0.5498245E-05  (-0.5498930E-05)
 number of electron      11.0000000 magnetization 
 augmentation part        3.8179842 magnetization 

 Broyden mixing:
  rms(total) = 0.31827E+00    rms(broyden)= 0.31784E+00
  rms(prec ) = 0.13189E+01
  weight for this iteration     100.00

 Free energy of the ion-electron system (eV)
  ---------------------------------------------------
  alpha Z        PSCENC =       119.28496302
  Ewald energy   TEWEN  =     -1011.20830427
  -Hartree energ DENC   =      -110.23640271
  -exchange      EXHF   =         0.00000000
  -V(xc)+E(xc)   XCENC  =        16.63820592
  PAW double counting   =       746.10209728     -725.46159323
  entropy T*S    EENTRO =        -0.00065681
  eigenvalues    EBANDS =        30.85489717
  atomic energy  EATOM  =       929.39614979
  Solvation  Ediel_sol  =         0.00000000
  ---------------------------------------------------
  free energy    TOTEN  =        -4.63064383 eV

  energy without entropy =       -4.62998703  energy(sigma->0) =       -4.63042490


--------------------------------------------------------------------------------------------------------




--------------------------------------- Iteration      1(   6)  ---------------------------------------


    POTLOK:  cpu time    0.0008: real time    0.0015
    SETDIJ:  cpu time    0.0013: real time    0.0013
     EDDAV:  cpu time    0.2598: real time    0.2658
       DOS:  cpu time    0.0015: real time    0.0014
    CHARGE:  cpu time    0.0030: real time    0.0030
    MIXING:  cpu time    0.0004: real time    0.0005
    --------------------------------------------
      LOOP:  cpu time    0.2669: real time    0.2735

 eigenvalue-minimisations  :  3132
 total energy-change (2. order) : 0.2767138E+00  (-0.6392828E-01)
 number of electron      11.0000000 magnetization 
 augmentation part        3.9436030 magnetization 

 Broyden mixing:
  rms(total) = 0.91468E-01    rms(broyden)= 0.91434E-01
  rms(prec ) = 0.37603E+00
  weight for this iteration     100.00

 eigenvalues of (default mixing * dielectric matrix)
  average eigenvalue GAMMA=   1.3265
  1.3265

 Free energy of the ion-electron system (eV)
  ---------------------------------------------------
  alpha Z        PSCENC =       119.28496302
  Ewald energy   TEWEN  =     -1011.20830427
  -Hartree energ DENC   =      -102.80254068
  -exchange      EXHF   =         0.00000000
  -V(xc)+E(xc)   XCENC  =        16.25890236
  PAW double counting   =       748.91994805     -729.79597211
  entropy T*S    EENTRO =        -0.00026019
  eigenvalues    EBANDS =        25.59318395
  atomic energy  EATOM  =       929.39614979
  Solvation  Ediel_sol  =         0.00000000
  ---------------------------------------------------
  free energy    TOTEN  =        -4.35393007 eV

  energy without entropy =       -4.35366988  energy(sigma->0) =       -4.35384334


--------------------------------------------------------------------------------------------------------




--------------------------------------- Iteration      1(   7)  ---------------------------------------


    POTLOK:  cpu time    0.0014: real time    0.0015
    SETDIJ:  cpu time    0.0013: real time    0.0013
     EDDAV:  cpu time    0.2362: real time    0.2413
       DOS:  cpu time    0.0015: real time    0.0015
    CHARGE:  cpu time    0.0034: real time    0.0034
    MIXING:  cpu time    0.0005: real time    0.0004
    --------------------------------------------
      LOOP:  cpu time    0.2443: real time    0.2494

 eigenvalue-minimisations  :  3180
 total energy-change (2. order) : 0.3170708E-01  (-0.6164643E-02)
 number of electron      10.9999999 magnetization 
 augmentation part        3.9803547 magnetization 

 Broyden mixing:
  rms(total) = 0.25307E-01    rms(broyden)= 0.25298E-01
  rms(prec ) = 0.61890E-01
  weight for this iteration     100.00

 eigenvalues of (default mixing * dielectric matrix)
  average eigenvalue GAMMA=   1.8060
  1.2526  2.3594

 Free energy of the ion-electron system (eV)
  ---------------------------------------------------
  alpha Z        PSCENC =       119.28496302
  Ewald energy   TEWEN  =     -1011.20830427
  -Hartree energ DENC   =       -99.97932373
  -exchange      EXHF   =         0.00000000
  -V(xc)+E(xc)   XCENC  =        16.11269677
  PAW double counting   =       758.36685244     -740.32611442
  entropy T*S    EENTRO =         0.00011577
  eigenvalues    EBANDS =        24.03074165
  atomic energy  EATOM  =       929.39614979
  Solvation  Ediel_sol  =         0.00000000
  ---------------------------------------------------
  free energy    TOTEN  =        -4.32222299 eV

  energy without entropy =       -4.32233875  energy(sigma->0) =       -4.32226157


--------------------------------------------------------------------------------------------------------




--------------------------------------- Iteration      1(   8)  ---------------------------------------


    POTLOK:  cpu time    0.0015: real time    0.0017
    SETDIJ:  cpu time    0.0014: real time    0.0014
     EDDAV:  cpu time    0.2135: real time    0.2183
       DOS:  cpu time    0.0015: real time    0.0015
    CHARGE:  cpu time    0.0033: real time    0.0032
    MIXING:  cpu time    0.0004: real time    0.0004
    --------------------------------------------
      LOOP:  cpu time    0.2215: real time    0.2264

 eigenvalue-minimisations  :  2900
 total energy-change (2. order) : 0.5620146E-02  (-0.1944531E-03)
 number of electron      10.9999999 magnetization 
 augmentation part        3.9787444 magnetization 

 Broyden mixing:
  rms(total) = 0.10246E-02    rms(broyden)= 0.10183E-02
  rms(prec ) = 0.31375E-02
  weight for this iteration     100.00

 eigenvalues of (default mixing * dielectric matrix)
  average eigenvalue GAMMA=   1.6678
  1.2830  1.2830  2.4374

 Free energy of the ion-electron system (eV)
  ---------------------------------------------------
  alpha Z        PSCENC =       119.28496302
  Ewald energy   TEWEN  =     -1011.20830427
  -Hartree energ DENC   =       -99.26903700
  -exchange      EXHF   =         0.00000000
  -V(xc)+E(xc)   XCENC  =        16.07266734
  PAW double counting   =       769.51204169     -752.22762760
  entropy T*S    EENTRO =         0.00014817
  eigenvalues    EBANDS =        24.12239604
  atomic energy  EATOM  =       929.39614979
  Solvation  Ediel_sol  =         0.00000000
  ---------------------------------------------------
  free energy    TOTEN  =        -4.31660284 eV

  energy without entropy =       -4.31675101  energy(sigma->0) =       -4.31665223


--------------------------------------------------------------------------------------------------------




--------------------------------------- Iteration      1(   9)  ---------------------------------------


    POTLOK:  cpu time    0.0014: real time    0.0015
    SETDIJ:  cpu time    0.0013: real time    0.0013
     EDDAV:  cpu time    0.1645: real time    0.1687
       DOS:  cpu time    0.0015: real time    0.0015
    --------------------------------------------
      LOOP:  cpu time    0.1687: real time    0.1730

 eigenvalue-minimisations  :  1944
 total energy-change (2. order) : 0.9427346E-05  (-0.1092213E-05)
 number of electron      10.9999999 magnetization 
 augmentation part        3.9787444 magnetization 

 Free energy of the ion-electron system (eV)
  ---------------------------------------------------
  alpha Z        PSCENC =       119.28496302
  Ewald energy   TEWEN  =     -1011.20830427
  -Hartree energ DENC   =       -99.23739902
  -exchange      EXHF   =         0.00000000
  -V(xc)+E(xc)   XCENC  =        16.07091323
  PAW double counting   =       770.38237898     -753.11937924
  entropy T*S    EENTRO =         0.00015231
  eigenvalues    EBANDS =        24.11393179
  atomic energy  EATOM  =       929.39614979
  Solvation  Ediel_sol  =         0.00000000
  ---------------------------------------------------
  free energy    TOTEN  =        -4.31659341 eV

  energy without entropy =       -4.31674572  energy(sigma->0) =       -4.31664418


--------------------------------------------------------------------------------------------------------




 average (electrostatic) potential at core
  the test charge radii are     1.2098
  (the norm of the test charge is              1.0000)
       1 -44.7843
 
 
 
 E-fermi :   7.0128     XC(G=0): -13.5729     alpha+bet :-11.3828


 k-point     1 :       0.0500    0.0500    0.0500
  band No.  band energies     occupation 
      1      -3.9957      2.00000
      2       1.6251      2.00000
      3       1.6979      2.00000
      4       1.6979      2.00000
      5       3.4797      2.00000
      6       3.4797      2.00000
      7      22.3844      0.00000
      8      26.0287      0.00000
      9      26.8376      0.00000
     10      26.8376      0.00000
     11      31.8886      0.00000
     12      35.7784      0.00000

 k-point     2 :       0.1500    0.0500    0.0500
  band No.  band energies     occupation 
      1      -3.4982      2.00000
      2       1.4388      2.00000
      3       1.8583      2.00000
      4       1.8948      2.00000
      5       3.2983      2.00000
      6       3.5358      2.00000
      7      22.9040      0.00000
      8      24.0070      0.00000
      9      26.6039      0.00000
     10      27.8675      0.00000
     11      31.7542      0.00000
     12      34.5251      0.00000

 k-point     3 :       0.2500    0.0500    0.0500
  band No.  band energies     occupation 
      1      -2.4337      2.00000
      2       1.2917      2.00000
      3       2.0325      2.00000
      4       2.0607      2.00000
      5       3.3067      2.00000
      6       3.7868      2.00000
      7      20.3059      0.00000
      8      23.5851      0.00000
      9      27.0497      0.00000
     10      29.3645      0.00000
     11      29.4952      0.00000
     12      32.2443      0.00000

 k-point     4 :       0.3500    0.0500    0.0500
  band No.  band energies     occupation 
      1      -1.5183      2.00000
      2       1.8174      2.00000
      3       1.9233      2.00000
      4       2.0385      2.00000
      5       3.8865      2.00000
      6       4.4557      2.00000
      7      16.2440      0.00000
      8      22.8107      0.00000
      9      26.1517      0.00000
     10      28.5347      0.00000
     11      30.5749      0.00000
     12      31.9136      0.00000

 k-point     5 :       0.4500    0.0500    0.0500
  band No.  band energies     occupation 
      1      -1.3168      2.00000
      2       1.6416      2.00000
      3       1.7245      2.00000
      4       3.7123      2.00000
      5       4.6000      2.00000
      6       5.3767      2.00000
      7      12.3393     -0.00000
      8      21.9095      0.00000
      9      25.0606      0.00000
     10      26.2257      0.00000
     11      32.7385      0.00000
     12      33.1774      0.00000

 k-point     6 :      -0.4500    0.0500    0.0500
  band No.  band energies     occupation 
      1      -1.3198      2.00000
      2       1.5629      2.00000
      3       1.6779      2.00000
      4       4.2558      2.00000
      5       4.9451      2.00000
      6       6.1217      2.00000
      7      10.6747     -0.00000
      8      21.6618      0.00000
      9      25.0835      0.00000
     10      25.1901      0.00000
     11      33.4052      0.00000
     12      33.5087      0.00000

 k-point     7 :      -0.3500    0.0500    0.0500
  band No.  band energies     occupation 
      1      -1.3367      2.00000
      2       1.6766      2.00000
      3       1.8095      2.00000
      4       3.0746      2.00000
      5       4.6996      2.00000
      6       4.7768      2.00000
      7      13.5515      0.00000
      8      22.1674      0.00000
      9      25.5958      0.00000
     10      26.4911      0.00000
     11      32.6927      0.00000
     12      32.7629      0.00000

 k-point     8 :      -0.2500    0.0500    0.0500
  band No.  band energies     occupation 
      1      -1.7431      2.00000
      2       1.5715      2.00000
      3       1.9357      2.00000
      4       2.0139      2.00000
      5       3.7710      2.00000
      6       4.0970      2.00000
      7      17.6221      0.00000
      8      23.2115      0.00000
      9      26.7231      0.00000
     10      28.6346      0.00000
     11      30.3159      0.00000
     12      32.0872      0.00000

 k-point     9 :      -0.1500    0.0500    0.0500
  band No.  band energies     occupation 
      1      -2.8223      2.00000
      2       1.2823      2.00000
      3       2.0242      2.00000
      4       2.0401      2.00000
      5       3.2543      2.00000
      6       3.6411      2.00000
      7      21.5719      0.00000
      8      23.6086      0.00000
      9      27.0232      0.00000
     10      28.4102      0.00000
     11      30.3780      0.00000
     12      32.9370      0.00000

 k-point    10 :      -0.0500    0.0500    0.0500
  band No.  band energies     occupation 
      1      -3.7423      2.00000
      2       1.4949      2.00000
      3       1.8089      2.00000
      4       1.8136      2.00000
      5       3.3278      2.00000
      6       3.5473      2.00000
      7      22.6951      0.00000
      8      25.0935      0.00000
      9      26.6717      0.00000
     10      27.0122      0.00000
     11      32.7975      0.00000
     12      34.8694      0.00000

 k-point    11 :       0.1500    0.1500    0.0500
  band No.  band energies     occupation 
      1      -3.2515      2.00000
      2       1.2376      2.00000
      3       2.0407      2.00000
      4       2.0453      2.00000
      5       3.0641      2.00000
      6       3.6765      2.00000
      7      23.2476      0.00000
      8      24.2020      0.00000
      9      26.1520      0.00000
     10      26.6899      0.00000
     11      32.3831      0.00000
     12      33.8106      0.00000

 k-point    12 :       0.2500    0.1500    0.0500
  band No.  band energies     occupation 
      1      -2.3642      2.00000
      2       0.9448      2.00000
      3       2.1516      2.00000
      4       2.3703      2.00000
      5       2.9967      2.00000
      6       3.9361      2.00000
      7      21.8492      0.00000
      8      23.6109      0.00000
      9      25.6243      0.00000
     10      26.9324      0.00000
     11      30.3336      0.00000
     12      32.9474      0.00000

 k-point    13 :       0.3500    0.1500    0.0500
  band No.  band energies     occupation 
      1      -1.2981      2.00000
      2       1.0379      2.00000
      3       1.7887      2.00000
      4       2.3809      2.00000
      5       3.7677      2.00000
      6       4.6137      2.00000
      7      17.8629      0.00000
      8      23.0874      0.00000
      9      24.5794      0.00000
     10      27.0558      0.00000
     11      30.8742      0.00000
     12      32.5022      0.00000

 k-point    14 :       0.4500    0.1500    0.0500
  band No.  band energies     occupation 
      1      -0.9203      2.00000
      2       1.4306      2.00000
      3       2.0455      2.00000
      4       2.2354      2.00000
      5       4.6691      2.00000
      6       5.8886      2.00000
      7      13.7203      0.00000
      8      22.3436      0.00000
      9      23.4328      0.00000
     10      25.7321      0.00000
     11      32.5740      0.00000
     12      33.9218      0.00000

 k-point    15 :      -0.4500    0.1500    0.0500
  band No.  band energies     occupation 
      1      -0.9092      2.00000
      2       1.2805      2.00000
      3       2.0266      2.00000
      4       3.0451      2.00000
      5       4.8880      2.00000
      6       7.7609     -0.00000
      7      10.6173     -0.00000
      8      21.8377      0.00000
      9      23.1105      0.00000
     10      24.7575      0.00000
     11      33.3120      0.00000
     12      34.2921      0.00000

 k-point    16 :      -0.3500    0.1500    0.0500
  band No.  band energies     occupation 
      1      -0.8833      2.00000
      2       1.3760      2.00000
      3       2.0550      2.00000
      4       2.6606      2.00000
      5       4.4975      2.00000
      6       6.6505      2.02798
      7      12.5388      0.00000
      8      21.7371      0.00000
      9      23.2695      0.00000
     10      25.8792      0.00000
     11      32.2447      0.00000
     12      34.0042      0.00000

 k-point    17 :      -0.2500    0.1500    0.0500
  band No.  band energies     occupation 
      1      -1.0478      2.00000
      2       1.3638      2.00000
      3       1.7204      2.00000
      4       2.2778      2.00000
      5       3.6696      2.00000
      6       5.2323      2.00000
      7      16.4845      0.00000
      8      22.1421      0.00000
      9      24.3514      0.00000
     10      28.0000      0.00000
     11      30.2117      0.00000
     12      33.0497      0.00000

 k-point    18 :      -0.1500    0.1500    0.0500
  band No.  band energies     occupation 
      1      -1.9815      2.00000
      2       0.9935      2.00000
      3       2.0227      2.00000
      4       2.3982      2.00000
      5       2.9918      2.00000
      6       4.2433      2.00000
      7      20.4454      0.00000
      8      22.8279      0.00000
      9      26.1242      0.00000
     10      27.1847      0.00000
     11      31.0644      0.00000
     12      32.1712      0.00000

 k-point    19 :      -0.0500    0.1500    0.0500
  band No.  band energies     occupation 
      1      -3.0255      2.00000
      2       1.2416      2.00000
      3       2.0426      2.00000
      4       2.0574      2.00000
      5       3.1129      2.00000
      6       3.6869      2.00000
      7      22.7622      0.00000
      8      23.4588      0.00000
      9      26.2066      0.00000
     10      28.0510      0.00000
     11      30.7596      0.00000
     12      33.9219      0.00000

 k-point    20 :       0.2500    0.2500    0.0500
  band No.  band energies     occupation 
      1      -1.7806      2.00000
      2       0.5267      2.00000
      3       2.3212      2.00000
      4       2.8180      2.00000
      5       3.0402      2.00000
      6       4.0818      2.00000
      7      22.4075      0.00000
      8      23.6531      0.00000
      9      24.4322      0.00000
     10      25.3701      0.00000
     11      27.4827      0.00000
     12      34.1773      0.00000

 k-point    21 :       0.3500    0.2500    0.0500
  band No.  band energies     occupation 
      1      -0.9435      2.00000
      2       0.2638      2.00000
      3       2.0144      2.00000
      4       3.2254      2.00000
      5       3.8044      2.00000
      6       4.6380      2.00000
      7      19.6420      0.00000
      8      21.6710      0.00000
      9      23.2739      0.00000
     10      26.1187      0.00000
     11      27.6090      0.00000
     12      34.2787      0.00000

 k-point    22 :       0.4500    0.2500    0.0500
  band No.  band energies     occupation 
      1      -0.4709      2.00000
      2       0.5560      2.00000
      3       1.7270      2.00000
      4       3.0670      2.00000
      5       4.7787      2.00000
      6       6.2012      2.00000
      7      15.3658      0.00000
      8      20.9844      0.00000
      9      21.4791      0.00000
     10      25.6507      0.00000
     11      30.9071      0.00000
     12      34.4075      0.00000

 k-point    23 :      -0.4500    0.2500    0.0500
  band No.  band energies     occupation 
      1      -0.3433      2.00000
      2       0.8510      2.00000
      3       1.9493      2.00000
      4       2.8298      2.00000
      5       4.9294      2.00000
      6       8.8464     -0.00000
      7      11.5901     -0.00000
      8      19.6606      0.00000
      9      21.5604      0.00000
     10      25.0686      0.00000
     11      33.4942      0.00000
     12      35.3776      0.00000

 k-point    24 :      -0.3500    0.2500    0.0500
  band No.  band energies     occupation 
      1      -0.1404      2.00000
      2       0.9303      2.00000
      3       1.9604      2.00000
      4       2.7073      2.00000
      5       4.4449      2.00000
      6       8.6762     -0.00000
      7      12.2111     -0.00000
      8      18.5123      0.00000
      9      22.7882      0.00000
     10      25.2565      0.00000
     11      32.5056      0.00000
     12      35.0092      0.00000

 k-point    25 :      -0.2500    0.2500    0.0500
  band No.  band energies     occupation 
      1      -0.0274      2.00000
      2       1.0348      2.00000
      3       1.3110      2.00000
      4       2.8012      2.00000
      5       3.6253      2.00000
      6       6.8061      2.05655
      7      15.7434      0.00000
      8      18.4694      0.00000
      9      23.8713      0.00000
     10      27.0623      0.00000
     11      30.0166      0.00000
     12      34.9205      0.00000

 k-point    26 :      -0.1500    0.2500    0.0500
  band No.  band energies     occupation 
      1      -0.8593      2.00000
      2       0.8995      2.00000
      3       1.6901      2.00000
      4       2.6611      2.00000
      5       3.1524      2.00000
      6       5.3419      2.00000
      7      17.9574      0.00000
      8      20.8113      0.00000
      9      24.8140      0.00000
     10      28.0050      0.00000
     11      29.6366      0.00000
     12      33.6634      0.00000

 k-point    27 :      -0.0500    0.2500    0.0500
  band No.  band energies     occupation 
      1      -1.9003      2.00000
      2       1.1999      2.00000
      3       1.9923      2.00000
      4       2.1735      2.00000
      5       3.3738      2.00000
      6       4.1564      2.00000
      7      19.0812      0.00000
      8      23.4425      0.00000
      9      26.0183      0.00000
     10      28.3257      0.00000
     11      30.5691      0.00000
     12      31.7244      0.00000

 k-point    28 :       0.3500    0.3500    0.0500
  band No.  band energies     occupation 
      1      -0.8325      2.00000
      2      -0.1764      2.00000
      3       3.0066      2.00000
      4       3.8533      2.00000
      5       4.3195      2.00000
      6       4.5736      2.00000
      7      19.5920      0.00000
      8      20.5061      0.00000
      9      20.9799      0.00000
     10      24.9698      0.00000
     11      26.9237      0.00000
     12      36.7366      0.00000

 k-point    29 :       0.4500    0.3500    0.0500
  band No.  band energies     occupation 
      1      -0.6968      2.00000
      2      -0.3014      2.00000
      3       3.0755      2.00000
      4       4.2053      2.00000
      5       4.7964      2.00000
      6       6.2158      2.00000
      7      16.6555      0.00000
      8      18.7937      0.00000
      9      19.4193      0.00000
     10      26.0634      0.00000
     11      28.0441      0.00000
     12      36.3648      0.00000

 k-point    30 :      -0.4500    0.3500    0.0500
  band No.  band energies     occupation 
      1      -0.5132      2.00000
      2       0.0554      2.00000
      3       2.6632      2.00000
      4       3.8451      2.00000
      5       5.0466      2.00000
      6       9.0835     -0.00000
      7      13.1702      0.00000
      8      17.1132      0.00000
      9      19.4867      0.00000
     10      26.2385      0.00000
     11      30.9212      0.00000
     12      35.3468      0.00000

 k-point    31 :      -0.3500    0.3500    0.0500
  band No.  band energies     occupation 
      1      -0.1730      2.00000
      2       0.6351      2.00000
      3       2.0314      2.00000
      4       3.4508      2.00000
      5       4.6534      2.00000
      6      10.3858     -0.00000
      7      12.6143      0.00000
      8      15.3665      0.00000
      9      20.9763      0.00000
     10      25.8623      0.00000
     11      33.8661      0.00000
     12      34.6356      0.00000

 k-point    32 :      -0.2500    0.3500    0.0500
  band No.  band energies     occupation 
      1       0.1709      2.00000
      2       0.9734      2.00000
      3       1.4549      2.00000
      4       3.0257      2.00000
      5       4.1594      2.00000
      6       8.5165     -0.00000
      7      14.1558      0.00000
      8      16.3701      0.00000
      9      22.8506      0.00000
     10      25.6801      0.00000
     11      32.0120      0.00000
     12      35.2208      0.00000

 k-point    33 :      -0.1500    0.3500    0.0500
  band No.  band energies     occupation 
      1      -0.4738      2.00000
      2       1.2562      2.00000
[...]
      1      -0.1742      2.00000
      2       0.4359      2.00000
      3       1.9542      2.00000
      4       3.5416      2.00000
      5       4.9363      2.00000
      6       9.9805     -0.00000
      7      12.3591     -0.00000
      8      17.0542      0.00000
      9      19.3891      0.00000
     10      27.0143      0.00000
     11      32.2849      0.00000
     12      34.3547      0.00000

 k-point    94 :       0.4500    0.4500    0.2500
  band No.  band energies     occupation 
      1      -0.5680      2.00000
      2       0.9460      2.00000
      3       1.7508      2.00000
      4       2.6845      2.00000
      5       5.0005      2.00000
      6       6.5792      2.00896
      7      13.8689      0.00000
      8      21.4617      0.00000
      9      22.3033      0.00000
     10      24.6546      0.00000
     11      33.0205      0.00000
     12      34.3548      0.00000

 k-point    95 :      -0.4500    0.4500    0.2500
  band No.  band energies     occupation 
      1      -0.1615      2.00000
      2       0.6318      2.00000
      3       1.6515      2.00000
      4       3.2782      2.00000
      5       4.8232      2.00000
      6       8.3967     -0.00000
      7      13.1247      0.00000
      8      18.9338      0.00000
      9      20.1833      0.00000
     10      26.5568      0.00000
     11      31.9462      0.00000
     12      34.7242      0.00000

 k-point    96 :      -0.3500    0.4500    0.2500
  band No.  band energies     occupation 
      1       0.2432      2.00000
      2       0.7227      2.00000
      3       1.2517      2.00000
      4       3.4079      2.00000
      5       4.9904      2.00000
      6      10.3649     -0.00000
      7      13.5179      0.00000
      8      15.5117      0.00000
      9      18.4837      0.00000
     10      29.3020      0.00000
     11      31.0385      0.00000
     12      34.8828      0.00000

 k-point    97 :      -0.2500    0.4500    0.2500
  band No.  band energies     occupation 
      1       0.1002      2.00000
      2       0.7296      2.00000
      3       1.4327      2.00000
      4       3.3550      2.00000
      5       5.2555      2.00000
      6      11.7662     -0.00000
      7      13.1213      0.00000
      8      14.5661      0.00000
      9      17.4609      0.00000
     10      30.1600      0.00000
     11      31.6755      0.00000
     12      33.3877      0.00000

 k-point    98 :      -0.4500   -0.4500    0.2500
  band No.  band energies     occupation 
      1      -0.4124      2.00000
      2       0.3941      2.00000
      3       2.3644      2.00000
      4       3.4668      2.00000
      5       4.9592      2.00000
      6       9.8270     -0.00000
      7      11.9372     -0.00000
      8      17.2310      0.00000
      9      20.7370      0.00000
     10      25.3851      0.00000
     11      32.7177      0.00000
     12      35.3907      0.00000

 k-point    99 :      -0.3500   -0.4500    0.2500
  band No.  band energies     occupation 
      1      -0.2254      2.00000
      2       0.3552      2.00000
      3       2.1898      2.00000
      4       3.6395      2.00000
      5       5.0013      2.00000
      6      11.3086     -0.00000
      7      12.1033     -0.00000
      8      15.3276      0.00000
      9      19.0615      0.00000
     10      27.3518      0.00000
     11      32.6808      0.00000
     12      33.8650      0.00000

 k-point   100 :      -0.3500   -0.3500    0.2500
  band No.  band energies     occupation 
      1      -0.4379      2.00000
      2       0.2907      2.00000
      3       2.5902      2.00000
      4       3.7709      2.00000
      5       4.8078      2.00000
      6      11.1093     -0.00000
      7      11.7336     -0.00000
      8      15.4217      0.00000
      9      20.4271      0.00000
     10      25.6922      0.00000
     11      32.6821      0.00000
     12      35.5586      0.00000

 k-point   101 :       0.3500    0.3500    0.3500
  band No.  band energies     occupation 
      1      -1.4724      2.00000
      2       1.8069      2.00000
      3       1.8069      2.00000
      4       2.7210      2.00000
      5       4.3383      2.00000
      6       4.3383      2.00000
      7      14.8426      0.00000
      8      22.4061      0.00000
      9      26.9752      0.00000
     10      26.9752      0.00000
     11      32.1635      0.00000
     12      32.2784      0.00000

 k-point   102 :       0.4500    0.3500    0.3500
  band No.  band energies     occupation 
      1      -1.1012      2.00000
      2       1.5827      2.00000
      3       1.9324      2.00000
      4       2.6508      2.00000
      5       4.2022      2.00000
      6       5.7219      2.00000
      7      13.6797      0.00000
      8      22.1271      0.00000
      9      24.0449      0.00000
     10      26.9689      0.00000
     11      31.5244      0.00000
     12      33.3274      0.00000

 k-point   103 :      -0.4500    0.3500    0.3500
  band No.  band energies     occupation 
      1      -0.3191      2.00000
      2       1.1284      2.00000
      3       2.0434      2.00000
      4       2.4644      2.00000
      5       4.1739      2.00000
      6       7.6215     -0.00015
      7      13.0962      0.00000
      8      19.2848      0.00000
      9      23.9006      0.00000
     10      25.1952      0.00000
     11      31.8734      0.00000
     12      34.3940      0.00000

 k-point   104 :      -0.3500    0.3500    0.3500
  band No.  band energies     occupation 
      1      -0.0393      2.00000
      2       0.9068      2.00000
      3       1.7692      2.00000
      4       3.1956      2.00000
      5       4.3530      2.00000
      6       9.3693     -0.00000
      7      13.4327      0.00000
      8      15.6729      0.00000
      9      22.7068      0.00000
     10      24.8762      0.00000
     11      33.5697      0.00000
     12      34.9243      0.00000

 k-point   105 :       0.4500    0.4500    0.3500
  band No.  band energies     occupation 
      1      -1.1092      2.00000
      2       1.4742      2.00000
      3       1.9349      2.00000
      4       2.8991      2.00000
      5       4.9277      2.00000
      6       5.9625      2.00000
      7      12.3793     -0.00000
      8      22.1163      0.00000
      9      24.4852      0.00000
     10      25.0722      0.00000
     11      33.3091      0.00000
     12      33.7753      0.00000

 k-point   106 :      -0.4500    0.4500    0.3500
  band No.  band energies     occupation 
      1      -0.5915      2.00000
      2       1.1085      2.00000
      3       2.2578      2.00000
      4       2.4735      2.00000
      5       4.7452      2.00000
      6       7.9350     -0.00000
      7      11.5305     -0.00000
      8      21.2926      0.00000
      9      22.0489      0.00000
     10      25.3495      0.00000
     11      32.6634      0.00000
     12      34.9505      0.00000

 k-point   107 :      -0.3500    0.4500    0.3500
  band No.  band energies     occupation 
      1       0.0698      2.00000
      2       0.7006      2.00000
      3       1.7586      2.00000
      4       3.0109      2.00000
      5       4.6931      2.00000
      6       9.9913     -0.00000
      7      11.4593     -0.00000
      8      17.8646      0.00000
      9      20.8250      0.00000
     10      26.3977      0.00000
     11      32.4457      0.00000
     12      36.4809      0.00000

 k-point   108 :      -0.4500   -0.4500    0.3500
  band No.  band energies     occupation 
      1      -0.4706      2.00000
      2       1.0009      2.00000
      3       2.2859      2.00000
      4       2.5015      2.00000
      5       4.8631      2.00000
      6       9.1846     -0.00000
      7      10.5608     -0.00000
      8      20.0356      0.00000
      9      23.1364      0.00000
     10      23.9687      0.00000
     11      34.1322      0.00000
     12      34.3518      0.00000

 k-point   109 :       0.4500    0.4500    0.4500
  band No.  band energies     occupation 
      1      -1.3917      2.00000
      2       1.6383      2.00000
      3       1.6383      2.00000
      4       4.8625      2.00000
      5       4.8625      2.00000
      6       4.9219      2.00000
      7      11.3073     -0.00000
      8      21.6557      0.00000
      9      25.5960      0.00000
     10      25.5960      0.00000
     11      33.2238      0.00000
     12      33.2238      0.00000

 k-point   110 :      -0.4500    0.4500    0.4500
  band No.  band energies     occupation 
      1      -1.1048      2.00000
      2       1.4253      2.00000
      3       1.8429      2.00000
      4       3.5386      2.00000
      5       4.8357      2.00000
      6       7.1175      0.23440
      7      10.6599     -0.00000
      8      21.8026      0.00000
      9      23.9140      0.00000
     10      25.0311      0.00000
     11      33.4410      0.00000
     12      33.6896      0.00000


--------------------------------------------------------------------------------------------------------


 soft charge-density along one line, spin component           1
         0         1         2         3         4         5         6         7         8         9
 total charge-density along one line
 
 pseudopotential strength for first ion, spin component:           1
 -9.351   0.000   0.000   0.000   0.000   0.000   0.000   0.000  -0.000   0.000  -0.161   0.000  -0.000   0.000  -0.000   0.000
  0.000   0.000  -9.351   0.000  -0.000   0.000   0.000   0.000   0.000   0.000  -0.000   0.000  -0.161   0.000   0.000   0.000
  0.000   0.000  -0.000   0.000  -9.331   0.000  -0.000   0.000  -0.000   0.000  -0.000   0.000   0.000   0.000  -0.163   0.000
  0.000   0.000   0.000   0.000  -0.000   0.000  -9.351   0.000  -0.000   0.000  -0.000   0.000  -0.000   0.000   0.000   0.000
 -0.000   0.000   0.000   0.000  -0.000   0.000  -0.000   0.000  -9.331   0.000   0.000   0.000  -0.000   0.000   0.000   0.000
 -0.161   0.000  -0.000   0.000  -0.000   0.000  -0.000   0.000   0.000   0.000   0.293   0.000   0.000   0.000   0.000   0.000
 -0.000   0.000  -0.161   0.000   0.000   0.000  -0.000   0.000  -0.000   0.000   0.000   0.000   0.293   0.000  -0.000   0.000
 -0.000   0.000   0.000   0.000  -0.163   0.000   0.000   0.000   0.000   0.000   0.000   0.000  -0.000   0.000   0.293   0.000
 -0.000   0.000  -0.000   0.000   0.000   0.000  -0.161   0.000   0.000   0.000   0.000   0.000   0.000   0.000  -0.000   0.000
  0.000   0.000  -0.000   0.000   0.000   0.000   0.000   0.000  -0.163   0.000  -0.000   0.000   0.000   0.000  -0.000   0.000
  0.000   0.000   0.000   0.000   0.000   0.000   0.000   0.000  -0.000   0.000   0.000   0.000   0.000   0.000  -0.000   0.000
 -0.000   0.000  -0.000   0.000  -0.000   0.000  -0.000   0.000   0.000   0.000   0.000   0.000   0.000   0.000   0.000   0.000
 -0.000   0.000  -0.000   0.000   0.000   0.000   0.000   0.000   0.000   0.000   0.000   0.000   0.000   0.000  -0.000   0.000
  0.000   0.000  -0.000   0.000  -0.000   0.000  -0.000   0.000  -0.000   0.000  -0.000   0.000   0.000   0.000   0.000   0.000
 -0.000   0.000   0.000   0.000   0.000   0.000  -0.000   0.000  -0.000   0.000   0.000   0.000  -0.000   0.000  -0.000   0.000
  0.000   0.000   0.000   0.000  -0.000   0.000  -0.000   0.000  -0.000   0.000  -0.000   0.000  -0.000   0.000   0.000   0.000
 -0.000   0.000   0.000   0.000   0.000   0.000   0.000   0.000   0.000   0.000   0.000   0.000  -0.000   0.000  -0.000   0.000
  0.000   0.000  -0.000   0.000  -0.000   0.000   0.000   0.000   0.000   0.000  -0.000   0.000   0.000   0.000   0.000   0.000
 total augmentation occupancy for first ion, spin component:           1
  1.906  -0.000   0.000  -0.000   0.000  -0.001   0.000   0.000   0.000   0.000  -0.000   0.000   0.000   0.000   0.000   0.000
 -0.000   1.906   0.000  -0.000  -0.000   0.000  -0.001   0.000   0.000   0.000   0.000   0.000   0.000   0.000   0.000   0.000
  0.000   0.000   1.956  -0.000   0.000   0.000   0.000  -0.055  -0.000   0.000   0.000  -0.000   0.000   0.000   0.000   0.000
 -0.000  -0.000  -0.000   1.906   0.000   0.000   0.000  -0.000  -0.001  -0.000   0.000  -0.000   0.000   0.000   0.000   0.000
  0.000   0.000   0.000   0.000   1.956   0.000  -0.000   0.000  -0.000  -0.055   0.000  -0.000   0.000   0.000   0.000   0.000
 -0.001   0.000   0.000   0.000  -0.000   0.292   0.000  -0.000  -0.000  -0.000  -0.000   0.000   0.000   0.000   0.000   0.000
  0.000  -0.001   0.000   0.000   0.000   0.000   0.292  -0.000  -0.000   0.000   0.000  -0.000   0.000   0.000   0.000   0.000
  0.000   0.000  -0.055  -0.000   0.000  -0.000   0.000   0.232   0.000  -0.000   0.000  -0.000   0.000   0.000   0.000   0.000
  0.000   0.000  -0.000  -0.001  -0.000  -0.000   0.000   0.000   0.292  -0.000   0.000  -0.000   0.000   0.000   0.000   0.000
  0.000   0.000  -0.000  -0.000  -0.055  -0.000   0.000   0.000   0.000   0.232  -0.000   0.000   0.000   0.000   0.000   0.000
 -0.000   0.000   0.000   0.000   0.000  -0.000   0.000   0.000  -0.000  -0.000   1.138  -0.462   0.000   0.000   0.000   0.000
  0.000  -0.000  -0.000   0.000  -0.000   0.000  -0.000  -0.000   0.000   0.000  -0.462   0.337   0.000   0.000   0.000   0.000
  0.000   0.000   0.000   0.000   0.000   0.000   0.000   0.000   0.000   0.000   0.000   0.000   0.207  -0.000   0.000  -0.016
  0.000   0.000   0.000   0.000   0.000   0.000   0.000   0.000   0.000   0.000   0.000   0.000  -0.000   0.207  -0.000   0.000
  0.000   0.000   0.000   0.000   0.000   0.000   0.000   0.000   0.000   0.000   0.000   0.000   0.000  -0.000   0.207  -0.000
  0.000   0.000   0.000   0.000   0.000   0.000   0.000   0.000   0.000   0.000   0.000   0.000  -0.016   0.000  -0.000   0.001
  0.000   0.000   0.000   0.000   0.000   0.000   0.000   0.000   0.000   0.000   0.000   0.000   0.000  -0.016  -0.000  -0.000
  0.000   0.000   0.000   0.000   0.000   0.000   0.000   0.000   0.000   0.000   0.000   0.000  -0.000   0.000  -0.016   0.000


------------------------ aborting loop because EDIFF is reached ----------------------------------------


    CHARGE:  cpu time    0.0033: real time    0.0034
    FORLOC:  cpu time    0.0001: real time    0.0001
    FORNL :  cpu time    0.0082: real time    0.0082
    STRESS:  cpu time    0.0535: real time    0.0536
    FORCOR:  cpu time    0.0008: real time    0.0008
    FORHAR:  cpu time    0.0005: real time    0.0005
    MIXING:  cpu time    0.0009: real time    0.0003
    OFIELD:  cpu time    0.0000: real time    0.0000

  FORCE on cell =-STRESS in cart. coord.  units (eV):
  Direction    XX          YY          ZZ          XY          YZ          ZX
  --------------------------------------------------------------------------------------
  Alpha Z   119.28496   119.28496   119.28496
  Ewald    -337.06945  -337.06945  -337.06945    -0.00000     0.00000     0.00000
  Hartree    33.08202    33.08202    33.08202     0.00002     0.00002     0.00002
  E(xc)     -49.53887   -49.53887   -49.53887    -0.00002    -0.00002    -0.00002
  Local      85.62881    85.62881    85.62881    -0.00048    -0.00048    -0.00048
  n-local   -47.20025   -44.08255   -47.95821     0.61190    -0.64536     0.01634
  augment    42.25698    42.25698    42.25698    -0.00046    -0.00046    -0.00046
  Kinetic   154.34227   153.29087   155.45246    -0.29571     0.11713     0.02383
  Fock        0.00000     0.00000     0.00000     0.00000     0.00000     0.00000
  -------------------------------------------------------------------------------------
  Total       1.59266     1.59266     1.59266     0.00000     0.00000     0.00000
  in kB     165.61575   165.61575   165.61575     0.00000     0.00000     0.00000
  external pressure =      165.62 kB  Pullay stress =        0.00 kB


 VOLUME and BASIS-vectors are now :
 -----------------------------------------------------------------------------
  energy-cutoff  :      229.87
  volume of cell :       15.41
      direct lattice vectors                 reciprocal lattice vectors
     0.000000000  1.975000000  1.975000000    -0.253164557  0.253164557  0.253164557
     1.975000000  0.000000000  1.975000000     0.253164557 -0.253164557  0.253164557
     1.975000000  1.975000000  0.000000000     0.253164557  0.253164557 -0.253164557

  length of vectors
     2.793071786  2.793071786  2.793071786     0.438493875  0.438493875  0.438493875


 FORCES acting on ions
    electron-ion (+dipol)            ewald-force                    non-local-force                 convergence-correction
 -----------------------------------------------------------------------------------------------
   0.670E-14 0.299E-14 0.563E-14   0.100E-14 0.267E-15 -.733E-15   0.000E+00 -.265E-22 -.331E-23   0.220E-13 0.436E-14 0.205E-14
 -----------------------------------------------------------------------------------------------
   0.670E-14 0.299E-14 0.563E-14   0.100E-14 0.267E-15 -.733E-15   0.000E+00 -.265E-22 -.331E-23   0.220E-13 0.436E-14 0.205E-14
 
 
 POSITION                                       TOTAL-FORCE (eV/Angst)
 -----------------------------------------------------------------------------------
      0.00000      0.00000      0.00000         0.000000     -0.000000      0.000000
 -----------------------------------------------------------------------------------
    total drift:                                0.000000      0.000000      0.000000


--------------------------------------------------------------------------------------------------------



  FREE ENERGIE OF THE ION-ELECTRON SYSTEM (eV)
  ---------------------------------------------------
  free  energy   TOTEN  =        -4.31659341 eV

  energy  without entropy=       -4.31674572  energy(sigma->0) =       -4.31664418
 


--------------------------------------------------------------------------------------------------------


    POTLOK:  cpu time    0.0022: real time    0.0028


--------------------------------------------------------------------------------------------------------


 writing wavefunctions
     LOOP+:  cpu time    2.3468: real time    2.4044
    4ORBIT:  cpu time    0.0000: real time    0.0000

volume of typ            1:    92.3 %
 
total charge     
 
# of ion       s       p       d       tot
------------------------------------------
    1        0.633   0.561   8.897  10.090
 
orbital moment (x)
 
# of ion     s             p             d             tot
-----------------------------------------------------------------
    1     0.000000E+00  0.657397E-08  0.637549E-08  0.129495E-07
 
orbital moment (y)
 
# of ion     s             p             d             tot
-----------------------------------------------------------------
    1     0.000000E+00 -0.634359E-08  0.120049E-07  0.566128E-08
 
orbital moment (z)
 
# of ion     s             p             d             tot
-----------------------------------------------------------------
    1     0.000000E+00 -0.948933E-09 -0.628159E-08 -0.723052E-08
 

 total amount of memory used by VASP MPI-rank0    33243. kBytes
=======================================================================

   base      :      30000. kBytes
   nonl-proj :       2092. kBytes
   fftplans  :        142. kBytes
   grid      :        192. kBytes
   one-center:         15. kBytes
   wavefun   :        802. kBytes
 
  
  
 General timing and accounting informations for this job:
 ========================================================
  
                  Total CPU time used (sec):        2.970
                            User time (sec):        2.399
                          System time (sec):        0.570
                         Elapsed time (sec):        3.090
  
                   Maximum memory used (kb):       54724.
                   Average memory used (kb):           0.
  
                          Minor page faults:        21268
                          Major page faults:            0
                 Voluntary context switches:         1677
